/*--------------------------------*- C++ -*----------------------------------*\
  =========                 |
  \\      /  F ield         | OpenFOAM: The Open Source CFD Toolbox
   \\    /   O peration     | Website:  https://openfoam.org
    \\  /    A nd           | Version:  6
     \\/     M anipulation  |
\*---------------------------------------------------------------------------*/
FoamFile
{
    version     2.0;
    format      ascii;
    class       volScalarField;
    location    "2";
    object      p;
}
// * * * * * * * * * * * * * * * * * * * * * * * * * * * * * * * * * * * * * //

dimensions      [1 -1 -2 0 0 0 0];

internalField   nonuniform List<scalar> 
297
(
111542
111542
111542
185863
185863
185863
111542
111542
111542
111542
111542
111542
185863
185863
185863
111542
111542
111542
111542
111542
111542
185863
185863
185863
111542
111542
111542
97607.9
97502.9
97597.7
162316
162251
162318
97608.6
97503
97597
97829.5
97011
97858.7
161722
161673
161746
97831.8
97011.6
97858.2
95216.5
94656.5
95483.6
154083
158243
154399
95219.9
94656.5
95481.8
92823.1
95102.3
92567.3
157860
156836
157754
92820.3
95102.9
92573.3
96919.4
97004
96843.5
161635
160786
161635
96919.4
97004.3
96844.3
97021.2
97241.2
96989.2
161579
161957
161661
97019.7
97240.6
96989.3
78115
92562.9
78393.2
127916
154087
127094
78090.7
92562
78387.8
78054.9
92472.5
78135.2
126651
154125
125419
78030.9
92471.6
78130.4
80058.1
92750.3
79991.3
128873
155092
127356
80039.5
92749.4
79987.5
97389.4
97473.6
97381.5
162135
162319
162135
97387.4
97472.4
97380.7
97458.8
97476.5
97449.3
162292
162374
162284
97456.6
97475.2
97448.4
97460
97472.2
97452.3
162367
162393
162356
97457.7
97470.8
97451.2
97527
97640.2
97886.5
162250
162327
162466
97525.5
97639
97885.9
97470
97501
97656.4
162263
162275
162333
97468.4
97499.5
97655.3
97411.6
97339.7
97271.9
162321
162278
162251
97410.1
97338
97269.8
97895.8
97630.8
97522.2
162472
162323
162252
97894.8
97629.4
97520.5
97659.3
97491.5
97467.4
162338
162274
162266
97658.6
97490.3
97465.8
97256.5
97329.9
97408.7
162248
162276
162324
97256.1
97328.8
97407
98436
98343.2
98167.4
162938
162852
162692
98436
98343.1
98167
98310.8
98186.9
97973.5
162763
162686
162527
98310.9
98187
97973.4
98158.9
98023.2
97754
162528
162443
162321
98159.2
98023.8
97754.4
97204.1
97157.2
97053.6
161278
161242
161160
97206.3
97159.6
97056.1
92236.1
92247.3
92282.9
152976
152979
152978
92236.7
92247.8
92283.5
85027.4
85027.4
85030.8
137104
137107
137100
85027.1
85027.1
85030.5
98149.4
98342.2
98445.7
162670
162836
162933
98147.8
98339.7
98443.3
97951.9
98176.6
98311.2
162503
162664
162748
97950.8
98175.1
98309.9
97730.8
98003.7
98154.1
162295
162411
162501
97729.9
98003
98153.5
97030.5
97133.5
97189.2
161143
161233
161277
97029.8
97132.7
97188
92272.5
92233.2
92219.4
152959
152957
152952
92272.2
92232.9
92219.1
85011.3
85008.2
85008.2
137071
137077
137074
85011.6
85008.5
85008.6
)
;

boundaryField
{
    fuel
    {
        type            zeroGradient;
    }
    primary_air
    {
        type            zeroGradient;
    }
    Secondary_air_RHS
    {
        type            zeroGradient;
    }
    Secondary_air_LHS
    {
        type            zeroGradient;
    }
    outlet
    {
        type            totalPressure;
        rho             rho;
        psi             none;
        gamma           1;
        p0              uniform 100000;
        value           nonuniform List<scalar> 
18
(
88631.6
100000
88631.8
88604.2
100000
88604.3
88601.6
100000
88601.7
88615
100000
88615
88616.6
100000
88616.5
88642.4
100000
88642.3
)
;
    }
    stove_body
    {
        type            zeroGradient;
    }
    frontAndBack
    {
        type            empty;
    }
}


// ************************************************************************* //
