/*--------------------------------*- C++ -*----------------------------------*\
  =========                 |
  \\      /  F ield         | OpenFOAM: The Open Source CFD Toolbox
   \\    /   O peration     | Website:  https://openfoam.org
    \\  /    A nd           | Version:  6
     \\/     M anipulation  |
\*---------------------------------------------------------------------------*/
FoamFile
{
    version     2.0;
    format      ascii;
    class       surfaceScalarField;
    location    "2";
    object      phi;
}
// * * * * * * * * * * * * * * * * * * * * * * * * * * * * * * * * * * * * * //

dimensions      [1 0 -1 0 0 0 0];

internalField   nonuniform List<scalar> 
675
(
-4.95052e-07
-2.39634e-05
0.000142581
4.05129e-07
-2.36924e-05
0.000140914
-2.38894e-05
0.000142417
-2.22454e-06
2.39558e-05
0.000151113
2.46906e-06
2.36881e-05
0.000144733
2.38865e-05
0.0001515
-4.90298e-07
0.000142568
4.07542e-07
0.000140912
0.000142416
-1.25915e-06
-4.53659e-05
0.000189212
1.14111e-06
-3.14464e-05
0.000169966
-4.49975e-05
0.000188561
-8.79201e-06
4.53325e-05
6.9195e-05
9.227e-06
3.1441e-05
6.38158e-05
4.50009e-05
7.07178e-05
-1.25167e-06
0.000189158
1.14462e-06
0.000169963
0.000188568
-9.47473e-06
8.05766e-05
8.75621e-06
3.36251e-05
7.92077e-05
3.34347e-05
-8.04971e-05
-3.23238e-05
-3.36299e-05
-7.92322e-05
-9.44842e-06
8.7743e-06
0.00327553
0.0038971
-0.00396318
-0.00299018
0.00520994
0.00426124
0.00373673
-0.00351777
0.00538076
-0.00389652
0.00774901
-0.00523191
-0.00521064
0.0263663
-0.00372947
0.00757017
0.00329176
-0.00397871
-0.00296764
0.00425435
-0.00348798
0.00874259
0.00833769
-0.0210432
-0.00824256
-0.00483399
0.0260805
0.00797936
-0.0197394
0.00280186
-0.00835826
0.0216433
-0.00356963
0.00483072
0.023073
-0.00794429
0.0199243
0.00871914
-0.0210558
-0.00824175
0.0260462
-0.0196737
0.000389399
0.0176278
-0.0390602
-0.000686575
-0.0071206
0.0342775
0.0174947
-0.0379207
-0.0431935
-0.0176303
0.100096
0.0432956
0.00711764
-0.077653
-0.0174602
0.0981762
0.0004202
-0.039106
-0.00065998
0.0342444
-0.0377938
-0.0244715
-0.0223026
-0.0184791
0.0652542
0.0241255
0.00878898
-0.031622
-0.0257629
-0.0231329
-0.0173583
0.0646176
-0.00227073
0.0223141
0.0178244
-0.0601689
0.00434167
-0.00878321
-0.0903996
0.101363
0.0231088
0.0179492
-0.059848
-0.0244905
-0.0184738
0.0652795
0.0240751
-0.0316114
-0.025736
-0.0173113
0.0644961
0.0054341
-0.0077433
-0.0161679
-0.00897882
0.0117713
-0.0289802
-0.0109565
-0.0153811
0.0179676
0.0077308
-0.0156162
-0.0109286
-0.011779
-0.0379503
0.0109397
-0.0148757
0.00543018
-0.0161717
-0.00899263
-0.0289661
-0.0153633
-0.00122278
0.00264807
-0.0175739
-0.0129547
0.00021343
-0.017457
-0.0102516
-0.0180911
0.0183744
-0.00265103
-0.028659
0.00948719
-0.000213117
-0.0286102
0.0102434
-0.0258734
-0.00124632
-0.0175671
-0.0129653
-0.0174534
-0.0180809
-0.00162366
-0.000416973
-0.0472945
0.0015305
-0.000122984
0.0312464
-0.000327498
-0.0463744
-0.0028501
0.000418353
0.0852851
0.00317182
0.000123272
-0.0839209
0.000329556
0.083973
-0.00162809
-0.0473314
0.00152388
0.0312159
-0.0462513
-0.00150478
0.000208133
-0.0562648
0.00146582
-0.000523214
0.0287992
0.000311049
-0.0554971
-0.00314652
-0.000207134
0.0721876
0.00323574
0.000523448
-0.0913496
-0.000306258
0.0713288
-0.00150683
-0.0562955
0.00146132
0.0287713
-0.0553731
-0.00215662
0.000615867
0.00210622
-0.0012264
0.000705356
-0.00370119
-0.000615005
0.00386009
0.00122614
-0.000705012
-0.00215869
0.00210287
0.00612646
-0.00073352
-0.0088489
-0.0141136
-0.00553355
-0.000689082
-0.00510518
-0.000819931
-0.00863982
-0.0141634
0.00620613
0.000734396
-0.0174743
-0.0188548
-0.00822835
0.00068937
-0.0155505
0.000821023
-0.0168216
-0.0189194
0.00612266
-0.00884609
-0.0141081
-0.005538
-0.00510132
-0.00863
-0.0141656
0.00265508
0.000250041
-0.00217666
-0.00957304
-0.00332293
0.000480287
0.000395846
0.000137121
-0.00245356
-0.00964363
0.00443557
-0.000248269
-0.00705178
-0.0143583
-0.00424314
-0.000480078
-0.00590818
-0.000137449
-0.00631226
-0.0144758
0.00265643
-0.00217831
-0.00957196
-0.00332189
0.000398781
-0.00244287
-0.0096434
0.000352934
0.000191454
-0.00271658
-3.28484e-06
0.000755901
0.000231797
-0.00268527
0.00169706
-0.000189711
-0.00836864
-0.00269732
-0.000754848
-0.000231755
-0.00854276
0.00035132
-0.00271911
-3.10061e-06
-0.0026742
-0.0129032
-5.98692e-05
-0.00119824
-0.0132295
0.00160016
-0.00127149
0.00194933
-0.00479829
-0.0103779
-0.0179006
6.14713e-05
-0.00113842
-0.0159038
-0.00159947
0.00120436
-0.00195097
0.0019861
-0.0139883
-0.0129039
-0.00119858
-0.0132281
-0.00127393
-0.00481329
-0.0103641
-0.0100813
-9.69454e-05
-0.00066252
-0.0101717
0.00104142
-0.00222136
0.000465098
-0.00539364
-0.0100393
-0.0154854
9.83303e-05
-0.00032279
-0.0131043
-0.00103973
0.00090562
-0.000459531
0.00286176
-0.0130538
-0.0100833
-0.000659664
-0.0101772
-0.00221938
-0.00541273
-0.0100358
-0.00322265
-0.000125236
-0.00488759
-0.000556025
-0.00114532
-0.00913705
-0.0091173
0.00012714
-0.00932498
0.000557667
0.00114743
-0.00875402
-0.00320711
-0.004869
-0.00913477
0.0132542
0.0019312
-0.00487193
-0.0103171
0.0128927
0.00156134
-0.00120101
-6.94575e-05
-0.00115175
0.0158531
-0.00193051
0.00188319
-0.0138791
0.0177964
-0.00156098
0.00117497
6.95273e-05
-0.00120052
0.0132504
-0.00486957
-0.0103153
0.0128882
-0.00120033
-0.00115126
0.0100858
0.000466946
-0.00554909
-0.00987784
0.0099455
0.00101342
-0.00207409
-8.65189e-05
-0.000691719
0.0129851
-0.000467557
0.00273611
-0.0129073
0.0153703
-0.00101359
0.000813546
8.66001e-05
-0.000364592
0.0100846
-0.00554828
-0.00987565
0.00994443
-0.00207389
-0.00069177
0.00480883
-0.00114628
-0.00921092
0.00327051
-0.000534721
-0.00013565
0.00926407
0.00114571
-0.00882351
0.00900659
0.000534134
0.000135489
0.00481258
-0.00921364
0.00327393
0.00435217
0.00169494
-0.006048
0.0068458
0.00161399
-0.00410986
0.00167205
-0.00514416
0.00624669
-0.00169368
-0.00286157
0.010087
-0.00161355
-0.000614686
-0.00167176
-0.000451264
0.00435185
-0.00604595
0.00684518
-0.00410844
-0.00514293
0.00328383
0.00150079
-0.0108358
0.00657956
0.00146946
-0.00887749
0.00109011
-0.00953373
0.00450591
-0.0014996
-0.00437317
0.00894216
-0.0014683
-0.00211806
-0.00109001
-0.00223948
0.00328246
-0.0108303
0.00657635
-0.00887257
-0.00953303
0.00432311
0.00296104
-0.0181251
0.00497688
0.00181756
-0.0113498
0.00104614
-0.0148167
0.00484755
-0.00295699
-0.0033095
0.0083233
-0.00181779
-0.00196283
-0.00104912
-0.000646629
0.00431766
-0.0181092
0.00497126
-0.0113444
-0.0148263
-0.00479291
0.0112907
-0.0246105
-0.000812973
0.0101099
-0.025429
0.00991994
-0.0255446
0.00087384
-0.0112954
0.0184088
-0.000996433
-0.0101143
0.0201368
-0.00992474
0.0182061
-0.00479023
-0.0246035
-0.000809871
-0.0254256
-0.0255485
0.000698856
0.00640495
-0.0317155
0.00106052
0.006364
-0.0321543
0.0069072
-0.0313897
-0.000788219
-0.00640547
0.0319961
-0.000572735
-0.00636389
0.0326373
-0.00690706
0.0314354
0.000703286
-0.0317153
0.00106585
-0.0321541
-0.0313911
3.67385e-05
0.0191183
-0.000287771
0.0190371
0.0191392
-0.00022543
-0.019118
0.000118781
-0.0190367
-0.0191386
3.72731e-05
-0.000286789
-0.0070419
0.00169378
-0.00502877
-0.00443895
0.00164482
-0.0042478
0.00172594
-0.0061651
-0.0102915
-0.00169438
-0.000307048
-0.00640115
-0.0016447
-0.000600114
-0.00172523
-0.00294933
-0.00702218
-0.00503582
-0.00443024
-0.00423751
-0.0061565
-0.00692573
0.00112678
-0.00926792
-0.00362832
0.00148177
-0.00902579
0.00151928
-0.0113113
-0.00937634
-0.00112086
-0.00173471
-0.00472734
-0.00148183
-0.00228372
-0.00151995
-0.0046348
-0.00691487
-0.00927623
-0.00361901
-0.00901499
-0.0112949
-0.00530519
0.000878157
-0.0139755
-0.0047463
0.00163972
-0.0112213
0.00302405
-0.0190784
-0.00874931
-0.000878771
1.9951e-05
-0.00526604
-0.00164347
-0.0024817
-0.00303025
-0.00384231
-0.00529565
-0.0139923
-0.00474657
-0.0112057
-0.0190698
0.00197376
0.00952632
-0.0254672
0.0058925
0.0102663
-0.0254034
0.0116403
-0.0248273
0.000552813
-0.00953324
0.0185425
-0.00125212
-0.0102711
0.0198765
-0.0116349
0.0181941
0.00193925
-0.0254575
0.00587579
-0.0254084
-0.0248295
-0.000948283
0.00691153
-0.031432
-0.000548637
0.00635561
-0.0321604
0.00637597
-0.0317529
0.000934678
-0.00691152
0.0314243
0.0010176
-0.00635585
0.0324985
-0.00637723
0.0319589
-0.000939814
-0.0314298
-0.000545525
-0.0321597
-0.0317531
0.000286024
0.0191272
-2.39847e-05
0.0190475
0.0191257
-2.49388e-05
-0.0191281
0.000244051
-0.0190483
-0.0191265
0.000287113
-2.30262e-05
)
;

boundaryField
{
    fuel
    {
        type            calculated;
        value           nonuniform List<scalar> 
36
(
0.000118116
0.000196818
0.000118116
0.000118116
0.000196818
0.000118116
0.000118116
0.000196818
0.000118116
-0.000118116
-0.000196818
-0.000118116
-0.000118116
-0.000196818
-0.000118116
-0.000118116
-0.000196818
-0.000118116
0
0
0
0
0
0
0
0
0
0
0
0
0
0
0
0
0
0
)
;
    }
    primary_air
    {
        type            calculated;
        value           nonuniform List<scalar> 9(-0.00320973 -0.0053376 -0.00320975 -0.00320628 -0.00533546 -0.00320628 -0.0032094 -0.00533765 -0.00320937);
    }
    Secondary_air_RHS
    {
        type            calculated;
        value           nonuniform List<scalar> 9(0.0103115 0.0167174 0.0103108 0.0102776 0.0164971 0.0102769 0.0105217 0.0167518 0.0105212);
    }
    Secondary_air_LHS
    {
        type            calculated;
        value           nonuniform List<scalar> 9(0.0102749 0.0168255 0.0102717 0.010267 0.0166591 0.0102639 0.0105305 0.0169514 0.0105281);
    }
    outlet
    {
        type            calculated;
        value           nonuniform List<scalar> 
18
(
-0.0508466
0.069706
-0.0508464
-0.0508994
0.0703269
-0.0508991
-0.0509043
0.0704571
-0.050904
-0.0508781
0.0704478
-0.0508781
-0.0508751
0.070358
-0.0508752
-0.0508255
0.069824
-0.0508256
)
;
    }
    stove_body
    {
        type            calculated;
        value           uniform 0;
    }
    frontAndBack
    {
        type            empty;
        value           nonuniform 0();
    }
}


// ************************************************************************* //
