/*--------------------------------*- C++ -*----------------------------------*\
  =========                 |
  \\      /  F ield         | OpenFOAM: The Open Source CFD Toolbox
   \\    /   O peration     | Website:  https://openfoam.org
    \\  /    A nd           | Version:  6
     \\/     M anipulation  |
\*---------------------------------------------------------------------------*/
FoamFile
{
    version     2.0;
    format      ascii;
    class       volScalarField;
    location    "3";
    object      O2;
}
// * * * * * * * * * * * * * * * * * * * * * * * * * * * * * * * * * * * * * //

dimensions      [0 0 0 0 0 0 0];

internalField   nonuniform List<scalar> 
297
(
0
0
0
0
0
0
0
0
0
0
0
0
0
0
0
0
0
0
0
0
0
0
0
0
0
0
0
0.0554399
0.0698588
0.13882
0.14967
0.158773
0.201051
0.0556146
0.0703158
0.140024
0
8.13733e-06
0.0199616
0.0651724
0.116408
0.101407
0
8.40581e-06
0.0204017
0
0
0
0.0433595
0.0275655
0.0730396
0
0
0
0
0
0
0
0
0
6.62785e-05
1.19441e-09
0
0
0
0
0
0
0
0
0
0
0
0
0
0
0
0
0
0
0
0
0
0
0.00301515
6.8613e-07
0.0316852
0
0
0
0
0
0
0
0
0.00976279
0
0
0
0
0
0
0
0
0
0
0
0
3.96119e-14
0
0
1.32322e-13
0
0
2.84671e-14
0
0
1.12279e-17
3.93146e-17
1.65906e-16
0
0
0
7.51814e-18
1.34939e-16
0
5.86067e-18
3.9566e-17
4.67215e-17
1.2114e-18
0
0
3.53135e-17
8.20274e-17
7.20262e-17
0
2.34116e-22
6.26416e-26
0
0
2.6923e-25
0
0
3.90288e-26
0
0
0
0
0
0
0
0
0
1.87319e-21
7.02568e-22
0
0
0
0
0
3.89994e-24
0
4.21275e-25
9.56279e-22
1.39925e-18
2.38185e-21
1.09945e-19
1.1827e-17
1.6232e-20
1.9175e-20
6.39226e-19
3.00785e-24
1.32653e-22
4.97103e-19
2.22666e-19
3.58847e-18
3.7784e-18
4.4217e-20
1.24102e-19
4.00912e-19
1.14378e-23
4.83573e-21
2.61224e-19
8.77135e-19
1.18709e-18
7.18831e-19
1.50967e-18
2.55333e-18
4.45606e-18
9.58842e-26
1.45913e-25
2.77546e-25
4.51739e-21
3.49147e-21
3.81355e-21
9.40056e-21
1.94405e-20
1.92475e-20
1.42802e-25
4.80431e-25
1.02668e-24
6.43344e-21
4.53526e-21
4.6837e-21
1.42757e-20
2.89586e-20
2.83075e-20
1.53558e-25
6.95076e-25
2.21002e-24
7.28174e-21
1.11046e-19
3.97579e-19
1.78456e-20
3.51011e-20
1.04427e-18
1.89699e-25
8.77367e-25
1.61099e-24
1.63855e-20
9.75422e-20
2.02755e-19
1.98248e-20
7.67428e-20
5.1147e-19
1.25754e-25
4.35061e-25
1.18078e-24
1.27339e-20
5.28388e-20
1.3651e-19
2.43255e-20
8.93099e-20
3.94371e-19
6.78852e-26
1.87149e-25
5.78975e-25
1.24678e-20
5.26038e-20
1.6355e-19
2.10215e-20
9.6195e-20
3.47948e-19
2.33481e-27
2.32748e-27
3.48189e-27
1.1941e-27
1.01174e-27
1.31054e-27
7.86534e-30
2.382e-33
2.26867e-32
1.49956e-28
1.43198e-28
3.45109e-27
0
1.06967e-27
1.34752e-27
1.20141e-28
0
1.12184e-32
0
0
3.44634e-27
0
0
1.3096e-27
0
0
7.78986e-33
5.983e-26
5.68711e-27
3.44039e-27
0
0
0
0
0
5.4645e-33
5.52256e-26
1.34503e-26
3.43816e-27
0
0
1.02706e-28
2.3278e-32
2.38348e-32
7.95173e-33
5.02677e-26
1.40847e-26
3.13648e-27
6.04309e-27
4.35368e-27
1.19823e-27
3.31443e-32
2.41317e-32
6.6898e-33
)
;

boundaryField
{
    fuel
    {
        type            fixedValue;
        value           uniform 0;
    }
    primary_air
    {
        type            fixedValue;
        value           uniform 0.23;
    }
    Secondary_air_RHS
    {
        type            fixedValue;
        value           uniform 0.23;
    }
    Secondary_air_LHS
    {
        type            fixedValue;
        value           uniform 0.23;
    }
    outlet
    {
        type            inletOutlet;
        inletValue      uniform 0;
        value           nonuniform List<scalar> 
18
(
0
6.04309e-27
0
0
4.35368e-27
0
0
1.19823e-27
0
0
1.24678e-20
0
0
5.26038e-20
0
0
1.6355e-19
0
)
;
    }
    stove_body
    {
        type            fixedValue;
        value           uniform 0;
    }
    frontAndBack
    {
        type            empty;
    }
}


// ************************************************************************* //
