/*--------------------------------*- C++ -*----------------------------------*\
  =========                 |
  \\      /  F ield         | OpenFOAM: The Open Source CFD Toolbox
   \\    /   O peration     | Website:  https://openfoam.org
    \\  /    A nd           | Version:  6
     \\/     M anipulation  |
\*---------------------------------------------------------------------------*/
FoamFile
{
    version     2.0;
    format      ascii;
    class       surfaceScalarField;
    location    "3";
    object      phi;
}
// * * * * * * * * * * * * * * * * * * * * * * * * * * * * * * * * * * * * * //

dimensions      [1 0 -1 0 0 0 0];

internalField   nonuniform List<scalar> 
675
(
4.76843e-06
-4.99264e-05
0.000172409
2.91826e-06
-3.83226e-05
0.000167683
-3.80826e-05
0.000168647
-9.15426e-06
5.33591e-05
0.000115008
-1.0999e-05
3.84914e-05
0.000132808
3.85581e-05
0.000121845
7.37613e-06
0.000173263
4.48195e-06
0.000167892
0.000168703
3.78768e-06
-7.43228e-05
0.000243246
3.75712e-06
-5.51756e-05
0.000223371
-6.43536e-05
0.000237442
-7.32839e-06
7.79301e-05
-3.03856e-05
-1.85781e-05
5.53654e-05
2.99729e-05
6.47842e-05
-2.53597e-05
6.28813e-06
0.00024533
5.29728e-06
0.000223633
0.000237525
-7.74466e-06
0.000124334
1.77344e-05
7.13305e-05
0.000128913
1.61876e-05
-0.000124491
-3.58648e-05
-7.12193e-05
-0.00012856
-5.53426e-06
1.92501e-05
0.00767997
0.00559168
-0.0100653
0.00901005
0.00576023
-0.0038898
0.00882979
0.00336845
0.00155101
-0.00554513
0.0148779
-0.00420772
-0.00567794
0.0224881
-0.00873537
0.0186353
0.00767614
-0.0100188
0.0089754
-0.0037748
0.00343696
0.0156938
0.00672903
-0.032486
0.0121434
0.00273685
-0.00306712
0.00853011
0.00699725
0.00576863
-0.0066437
0.0224538
0.00885855
-0.0025958
0.0247158
-0.00836709
0.0444222
0.0157738
-0.0324446
0.0121399
-0.00274094
0.00722846
-0.00673775
0.0235215
-0.0492777
-0.00527778
0.0108083
-0.0153534
0.0169687
-0.0152507
-0.0470232
-0.0234331
0.116465
0.0414106
-0.0105417
-0.0423776
-0.0167227
0.119506
-0.0067062
-0.0492621
-0.00517419
-0.014845
-0.0146791
-0.0169996
-0.013865
-0.0299122
0.0608029
0.00617165
-0.000177858
-0.0414883
0.0185173
-0.0094492
-0.0159875
0.0315952
0.0180716
0.013528
0.0402053
-0.0856889
-0.00434749
-0.000214572
-0.030357
0.0528485
0.00977704
0.0631831
-0.0867309
-0.017395
-0.0297179
0.060672
0.00557293
-0.041142
0.0179915
-0.0157211
0.0310728
0.00401382
-0.00993333
-0.0239893
-0.000281248
-0.00848585
-0.0287265
-0.00651472
-0.00975443
0.0155818
0.00997775
0.00471043
-0.0118003
0.00768582
-0.0191342
0.00716492
0.0376844
0.00489291
-0.0246215
-0.000280448
-0.0282946
-0.0088789
-0.00551725
-0.000920463
-0.0175391
-0.0153447
-0.000482895
-0.0184109
-0.00927945
-0.0160824
0.0102129
0.000806753
-0.00720335
2.50166e-05
-8.42698e-05
-0.00936326
0.00898618
0.0194682
-0.00568953
-0.0181402
-0.0148126
-0.0193005
-0.0147267
-0.000927722
-0.00249234
-0.0521193
-0.00135159
-0.00059279
-0.0143367
-0.00198748
-0.0209304
-0.00315858
0.00248917
0.104585
0.00263697
0.00062195
-0.0493929
0.0019766
0.107957
-0.000930894
-0.0520746
-0.00135555
-0.0138013
-0.0203773
-0.0011652
-0.000696057
-0.0565035
-0.000304244
-9.56428e-06
-0.0151874
-0.000980529
-0.0265588
-0.00147687
0.000702474
0.0946473
0.00230336
4.32663e-05
-0.0532312
0.000976977
0.0981145
-0.00117742
-0.0564087
-0.000319218
-0.0146179
-0.0260285
-0.00193194
-1.42638e-05
-6.31771e-05
0.00146215
-0.00132342
-0.00110211
-3.94541e-06
0.0014529
-0.00148104
0.0013215
-0.00195419
-6.46133e-05
0.00543842
-0.00300953
-0.00443793
-0.0155357
-0.0061646
-0.000896199
-0.00592921
-0.0028502
-0.00259783
-0.0164462
-0.00248025
0.00224936
-0.00804651
-0.00194593
-0.00296339
0.00159853
-0.0113801
0.00343524
0.0117177
-0.00149725
0.00567874
-0.00486044
-0.0167097
-0.00573305
-0.0062934
-0.00230605
-0.014704
0.0038166
0.00122853
0.00208661
-0.0115763
-0.00585778
0.00154659
0.00218724
0.000348687
0.00270635
-0.0115405
-0.00146801
-0.00208739
-0.00581987
0.00255351
-0.00379446
-0.00125967
-0.00625395
0.000400282
0.00464174
0.00319399
0.0025915
0.00262768
-0.012166
-0.0068545
0.00188942
0.00199828
-0.0107591
0.000388392
0.0035166
-0.00183507
-0.000918493
0.00348252
0.00235715
-0.000656687
-0.00389303
-0.00318695
0.00477059
-0.00397943
-0.00268728
-0.00183908
0.00485294
-0.00191626
0.00135861
-0.0027175
-0.00255668
-0.0173338
-0.000914049
0.00177079
-0.017151
-0.0018473
0.00163816
-0.00164578
0.00183153
-0.0173572
-0.00592488
0.00248597
0.00101861
-0.00820177
8.53385e-05
0.000344202
-0.00173854
0.00236554
-0.0104728
-0.0140403
0.00181984
-0.0150492
0.00109362
-0.00216851
-0.014619
-0.0118314
-0.000802099
0.00281896
-0.0118618
-0.00105115
0.0026966
-0.00133848
0.00286836
-0.0115718
0.00353221
0.00160677
-0.00172574
0.000564962
-0.000165204
0.00245132
-0.00133957
0.00736274
-0.00447677
-0.0101575
0.00283008
-0.0101352
0.000904879
-0.00361597
-0.0100278
0.00166542
0.000485682
0.00407947
0.000277825
-0.00131771
0.00826302
0.00413042
-0.000519821
0.00774721
-0.000889125
-0.000920099
0.0147123
-0.000247827
-0.000233642
-0.00477045
0.01566
0.0016753
-0.00214841
-0.0151837
0.0146804
-0.000132716
0.00111538
-0.00257027
0.0017163
0.00837187
0.0016476
0.00237153
-0.0107112
0.00683591
0.00188652
-0.000477618
0.00099957
0.00132388
0.0171938
0.00183434
-0.0173783
0.0173582
0.00172518
0.00165088
0.0107246
0.00128172
-0.0036178
-0.0105337
0.0108756
9.11683e-05
0.000876153
-0.00172769
0.00274461
-0.00065662
0.00116232
0.00779748
-0.00464569
-0.00346052
0.000655322
0.00176943
0.00053561
-0.00184147
0.011945
0.00256096
-0.0115065
0.0122809
0.00204797
0.00230488
9.78951e-05
0.000998226
-0.00471078
-2.78731e-05
0.0010046
0.000866101
-0.00705205
0.0012919
0.0145661
-0.00413143
-0.000136069
-0.000326687
-0.00525469
0.0091107
-0.00333951
0.00659537
0.00308921
-0.00968423
0.0116526
0.00285275
-0.00790907
0.00184759
-0.00537697
0.00927623
-0.00171303
-0.00447408
0.0111392
-0.000136049
0.00112655
-0.000829605
0.00310736
0.0116852
-0.0133987
0.0181613
-0.0066118
-4.56506e-05
0.00503536
0.00207096
-0.0167903
0.00798685
0.00197891
-0.0128386
0.00170928
-0.00963133
0.00789585
-0.00139623
-0.00890281
0.00684361
5.05269e-06
0.00415338
-0.000738782
0.00775546
0.00865335
-0.0234485
0.0129953
-0.0109479
0.000705743
0.006259
0.00469678
-0.0277458
0.00632231
0.00286028
-0.0157613
0.00204308
-0.0100612
0.00216348
-0.00434513
-0.00202467
-0.00667625
0.000279801
0.015574
0.00115149
0.0165397
0.00945456
-0.037248
0.00234648
-0.00355887
0.0133159
-0.010279
0.0170618
-0.0345228
-0.00690665
0.0140292
-0.0331567
0.0155216
-0.0324827
-0.00336282
-0.00284373
0.0212361
-0.00515914
0.00269
0.0287017
0.00111422
0.0257788
0.00618175
-0.0462696
0.0170096
-0.0116937
0.0314458
-0.00106658
0.0075894
-0.0410376
-0.000470294
0.00710846
-0.0408557
0.00769465
-0.0406395
0.00432607
-0.00190183
0.0262901
0.00941047
-0.00271785
0.0335512
0.000848898
0.0419171
-0.002895
-0.0452587
0.00257771
-0.0198733
0.0348833
-0.000161124
0.0147305
-0.000158217
0.0146896
0.0146927
-6.41066e-05
-0.022833
0.00152776
-0.0221278
-0.0212104
-0.0152732
-0.0163614
-0.0181825
0.000788412
2.61728e-05
-0.0116789
9.67483e-05
-0.00660382
0.00168121
-0.0133582
-0.0109455
-0.00183265
0.00309677
-0.00914096
-0.00283108
0.00112574
-0.00306351
-0.00439665
-0.0112816
-0.00516835
-0.00635354
-0.00775676
-0.00941419
-0.0130869
0.000671773
0.000867332
-0.00868682
-6.51522e-05
-0.0109341
0.00135709
-0.0233947
-0.00660909
-0.0016996
0.00760092
-0.00786601
-0.00194278
0.00426129
-0.00204311
-0.0088619
-0.00771216
-0.00918767
-0.00487081
-0.0125396
-0.0163261
-0.00283117
-0.00121212
0.0131712
-0.0095211
-0.000390278
-0.00385061
0.0042911
-0.037209
0.00742765
-0.00191569
0.0155897
-0.00179302
-0.0027669
0.0158596
-0.00461749
-0.00174376
-0.0060241
-0.00984335
-0.00603303
-0.0152965
-0.0269755
-0.0168375
-0.00113658
0.0311343
-0.00628904
-0.00294761
-0.0114341
0.00267898
-0.0461071
0.00486516
-0.0155079
0.0250926
0.00333603
-0.0140265
0.0284583
-0.0171534
0.0214338
0.00706688
-0.0324236
0.0103384
-0.0325982
-0.0337949
-0.00265248
-0.000663032
0.0344436
0.00277101
0.00286409
-0.0197186
0.00170485
-0.0450575
-0.00985532
-0.0075475
0.0418348
-0.00445468
-0.00735397
0.0332788
-0.00788577
0.0265611
0.00045692
-0.0404257
0.00100046
-0.0404944
-0.0406777
0.0161214
0.0210618
0.0151544
0.0221204
0.0226349
-0.00175301
-0.0145398
0.000225974
-0.0148036
-0.0149026
0.000147211
0.000182931
)
;

boundaryField
{
    fuel
    {
        type            calculated;
        value           nonuniform List<scalar> 
36
(
0.000127007
0.00021053
0.000127013
0.000127006
0.000210528
0.000127014
0.000127006
0.00021053
0.000127016
-0.000127007
-0.000210531
-0.000127013
-0.000127006
-0.000210527
-0.000127014
-0.000127006
-0.000210531
-0.000127016
0
0
0
0
0
0
0
0
0
0
0
0
0
0
0
0
0
0
)
;
    }
    primary_air
    {
        type            calculated;
        value           nonuniform List<scalar> 9(-0.00320281 -0.00529613 -0.00320262 -0.00320331 -0.00529732 -0.00320311 -0.00320303 -0.00529941 -0.00320287);
    }
    Secondary_air_RHS
    {
        type            calculated;
        value           nonuniform List<scalar> 9(0.00631589 0.0102193 0.0063154 0.00630499 0.0101849 0.00630455 0.00629704 0.0101887 0.00629682);
    }
    Secondary_air_LHS
    {
        type            calculated;
        value           nonuniform List<scalar> 9(0.00626581 0.0100495 0.00626861 0.00624898 0.0100124 0.00625177 0.00624867 0.0100494 0.00625108);
    }
    outlet
    {
        type            calculated;
        value           nonuniform List<scalar> 
18
(
-0.00273881
0.0792024
-0.0551045
-0.0408653
0.0682379
-0.0553255
-0.0525311
0.0643319
-0.0553895
-0.0556144
0.0640432
-0.0528263
-0.0555524
0.0686845
-0.0409175
-0.055497
0.0794778
-0.00269822
)
;
    }
    stove_body
    {
        type            calculated;
        value           uniform 0;
    }
    frontAndBack
    {
        type            empty;
        value           nonuniform 0();
    }
}


// ************************************************************************* //
