/*--------------------------------*- C++ -*----------------------------------*\
  =========                 |
  \\      /  F ield         | OpenFOAM: The Open Source CFD Toolbox
   \\    /   O peration     | Website:  https://openfoam.org
    \\  /    A nd           | Version:  6
     \\/     M anipulation  |
\*---------------------------------------------------------------------------*/
FoamFile
{
    version     2.0;
    format      ascii;
    class       volScalarField;
    location    "1.5";
    object      O2;
}
// * * * * * * * * * * * * * * * * * * * * * * * * * * * * * * * * * * * * * //

dimensions      [0 0 0 0 0 0 0];

internalField   nonuniform List<scalar> 
297
(
0
0
0
0
0
0
0
0
0
0
0
0
0
0
0
0
0
0
0
0
0
0
0
0
0
0
0
0.11836
0.164689
0.192752
0.196281
0.206611
0.210127
0.148467
0.189612
0.132464
0
0.00163781
0
0.157335
0.187934
0.142662
0
0.00932498
0
0
0.00117946
0
0.0769582
0.0461176
0.0818156
0
0.00727207
0
0
0.000133826
0
0
4.05896e-05
0
0.000361652
0.000913871
0.000362257
7.02172e-10
1.66212e-09
1.67784e-10
9.9467e-10
5.85262e-10
2.96278e-10
1.77439e-08
1.5323e-08
1.06555e-08
4.88115e-14
4.82056e-14
1.79839e-14
8.07824e-14
9.17379e-14
5.6754e-14
4.56202e-13
6.04912e-13
2.83127e-13
0
0.00113125
0
0.0230577
4.15861e-05
0.0218392
0
0.00697953
0
0
0.00110385
0
0
4.05131e-05
0
0
0.00681593
0
0
0.000937821
0
0
4.05757e-05
0
0
0.00579518
0
3.38038e-18
4.93227e-18
7.23079e-19
2.51961e-18
4.5414e-18
1.11679e-18
1.6141e-17
5.01265e-17
1.49311e-17
8.46927e-22
2.1657e-21
2.57062e-22
2.01172e-21
9.33947e-21
7.18945e-22
4.38023e-21
2.03848e-20
4.08633e-21
2.55979e-22
1.61035e-21
1.15094e-21
4.47856e-21
1.07627e-20
1.59539e-21
1.36912e-20
2.06427e-20
7.08576e-21
1.63318e-23
1.13356e-27
9.26195e-32
2.54364e-23
1.64102e-27
1.00192e-31
4.28727e-22
2.08308e-26
9.60068e-31
8.15133e-24
4.31468e-27
3.74651e-31
7.4935e-25
2.75693e-28
1.92504e-32
3.29861e-25
7.72669e-28
2.36155e-31
1.4399e-22
1.46163e-26
5.3109e-31
2.12844e-23
2.06814e-27
1.24924e-31
4.06317e-23
7.72113e-27
3.82949e-31
6.37581e-32
2.69756e-27
1.04512e-22
5.83361e-32
1.58615e-27
5.46683e-23
2.63988e-31
5.13664e-27
2.00045e-22
3.84216e-33
1.33785e-29
2.6486e-26
5.08831e-33
1.77305e-29
1.08191e-25
7.1414e-33
7.71608e-29
2.81175e-25
6.32895e-33
6.17345e-29
2.82797e-25
1.16777e-32
1.27537e-28
8.24775e-25
1.01058e-32
2.59323e-28
2.27881e-24
2.82722e-39
1.96392e-39
6.65793e-36
2.21562e-39
1.94771e-39
5.63862e-36
1.69313e-39
2.09821e-39
1.81531e-35
1.83313e-39
1.52895e-41
1.68532e-37
1.83428e-39
1.79451e-40
6.66285e-37
1.25118e-40
3.15222e-41
4.74596e-37
2.7288e-41
5.71901e-42
1.32545e-37
1.15319e-39
6.37548e-41
7.84268e-37
5.07506e-42
5.25599e-42
2.34511e-37
1.22457e-44
3.41193e-45
5.81433e-43
4.57143e-40
1.39326e-42
8.70697e-42
1.85574e-43
5.95033e-44
1.59613e-42
3.05485e-45
6.20513e-46
1.42488e-46
2.28415e-40
2.92612e-41
7.11656e-42
2.26826e-45
6.21883e-46
9.94124e-47
3.70726e-46
6.09625e-47
1.23955e-47
1.06043e-40
1.68202e-41
3.53793e-42
6.78296e-46
1.13401e-46
2.26903e-47
1.45586e-35
1.41172e-39
2.96406e-40
2.63742e-35
1.74769e-38
2.62925e-38
9.20553e-35
2.53817e-38
4.60526e-38
1.53875e-35
8.15747e-40
1.25102e-40
3.1874e-36
2.89402e-39
2.67103e-38
1.36848e-35
1.58837e-39
4.54671e-38
1.36023e-35
2.16502e-40
8.72821e-41
7.52913e-36
1.48536e-39
2.02109e-38
1.29366e-35
6.50671e-40
8.8442e-40
4.56262e-41
8.07322e-43
2.22216e-42
2.69143e-40
5.65103e-41
6.39512e-39
1.14608e-40
1.0627e-43
2.65527e-43
2.72934e-45
1.28106e-44
4.2106e-44
2.32964e-40
6.46548e-40
4.55273e-39
3.18742e-45
9.69395e-45
5.14086e-44
4.35339e-46
1.4093e-45
7.98202e-45
1.18925e-40
3.8056e-40
2.21462e-39
8.35733e-46
2.73815e-45
1.49457e-44
)
;

boundaryField
{
    fuel
    {
        type            fixedValue;
        value           uniform 0;
    }
    primary_air
    {
        type            fixedValue;
        value           uniform 0.23;
    }
    Secondary_air_RHS
    {
        type            fixedValue;
        value           uniform 0.23;
    }
    Secondary_air_LHS
    {
        type            fixedValue;
        value           uniform 0.23;
    }
    outlet
    {
        type            inletOutlet;
        inletValue      uniform 0;
        value           nonuniform List<scalar> 
18
(
0
1.18925e-40
0
0
3.8056e-40
0
0
2.21462e-39
0
0
1.06043e-40
0
0
1.68202e-41
0
0
3.53793e-42
0
)
;
    }
    stove_body
    {
        type            fixedValue;
        value           uniform 0;
    }
    frontAndBack
    {
        type            empty;
    }
}


// ************************************************************************* //
