/*--------------------------------*- C++ -*----------------------------------*\
  =========                 |
  \\      /  F ield         | OpenFOAM: The Open Source CFD Toolbox
   \\    /   O peration     | Website:  https://openfoam.org
    \\  /    A nd           | Version:  6
     \\/     M anipulation  |
\*---------------------------------------------------------------------------*/
FoamFile
{
    version     2.0;
    format      ascii;
    class       volScalarField;
    location    "1.5";
    object      p;
}
// * * * * * * * * * * * * * * * * * * * * * * * * * * * * * * * * * * * * * //

dimensions      [1 -1 -2 0 0 0 0];

internalField   nonuniform List<scalar> 
297
(
119848
119848
119850
199528
199530
199535
119851
119852
119855
119848
119849
119849
199527
199530
199535
119851
119852
119854
119848
119847
119849
199526
199529
199534
119851
119852
119854
97887.6
97862.6
97866.1
162681
162687
162697
97866.9
97862.3
97873.3
98058.4
97806.6
97866.6
162303
162456
162295
98014.1
97790
97888.9
97666.4
97409.2
97537.9
159403
161275
159550
97691.5
97390.6
97450.9
96149.2
96902.1
96093.6
160522
160232
160518
96036.2
96902.9
96203.4
97619
97523.1
97452.7
162459
161899
162238
97595.5
97540.5
97490.5
97699.4
97751.8
97587.8
162494
162620
162570
97558.7
97746.6
97703.8
92198.3
97316.9
93196.3
150189
159333
151725
92221.5
97305.5
93262.1
91870.2
97342
92929.4
149424
159325
151176
91910.9
97330.9
93024.3
92134.1
97355
93135.6
149940
159657
151655
92193.9
97344.4
93249.2
97768.7
97835.3
97799.5
162636
162690
162652
97794.7
97841.6
97781.8
97764.2
97831.5
97849.4
162700
162703
162709
97846.1
97836.2
97785.9
97765.9
97821.5
97865.5
162725
162712
162731
97859.4
97826.1
97788
97956.1
98068.8
98267.3
162744
162798
162856
97833.8
97924.5
98120.9
97901.1
97953.1
98078.3
162745
162752
162764
97776.4
97813.8
97944.5
97872.6
97842.7
97850.5
162762
162748
162714
97754.9
97722.1
97705.5
98127.2
97917.2
97820.5
162860
162785
162731
98254.1
98046
97934.7
97942.7
97803.5
97761.7
162762
162743
162737
98047.6
97922
97883.1
97692.6
97709.8
97739.3
162704
162739
162749
97799.2
97795.5
97839.2
98080.9
98136.1
98214.5
163005
162999
162957
98426.7
98448.9
98415.8
98044.3
98075.3
98091.6
162903
162889
162844
98381.3
98389.4
98266.1
98036.8
98073.5
97992.4
162750
162767
162739
98319.5
98347.6
98181.4
97838.6
97814.5
97764
162014
162034
161979
97727.1
97698.4
97664.8
94012.5
93988.1
93988.3
155208
155203
155195
93807.8
93773.1
93781.2
87339.9
87332.7
87330.6
140043
140035
140022
87189.3
87183.7
87184.8
98427.5
98426.9
98390.7
162936
162980
162990
98205
98134.4
98083.1
98283.6
98368.5
98341.9
162839
162880
162896
98087.3
98078.1
98051.1
98207.4
98334.1
98292.7
162750
162773
162758
97996.1
98082.8
98050.3
97715.2
97757.1
97791.2
162056
162111
162093
97794.8
97843.4
97867.2
93881.8
93875.2
93907.6
155337
155344
155350
94056
94054.4
94077
87307
87305.4
87310.9
140188
140201
140209
87428.6
87430
87436.8
)
;

boundaryField
{
    fuel
    {
        type            zeroGradient;
    }
    primary_air
    {
        type            zeroGradient;
    }
    Secondary_air_RHS
    {
        type            zeroGradient;
    }
    Secondary_air_LHS
    {
        type            zeroGradient;
    }
    outlet
    {
        type            totalPressure;
        rho             rho;
        psi             none;
        gamma           1;
        p0              uniform 100000;
        value           nonuniform List<scalar> 
18
(
90543
100000
90690
90525.6
100000
90682.3
90557.9
100000
90709.3
90626.3
100000
90447.6
90598.4
100000
90414
90604.7
100000
90431.7
)
;
    }
    stove_body
    {
        type            zeroGradient;
    }
    frontAndBack
    {
        type            empty;
    }
}


// ************************************************************************* //
