/*--------------------------------*- C++ -*----------------------------------*\
  =========                 |
  \\      /  F ield         | OpenFOAM: The Open Source CFD Toolbox
   \\    /   O peration     | Website:  https://openfoam.org
    \\  /    A nd           | Version:  6
     \\/     M anipulation  |
\*---------------------------------------------------------------------------*/
FoamFile
{
    version     2.0;
    format      ascii;
    class       surfaceScalarField;
    location    "1.5";
    object      phi;
}
// * * * * * * * * * * * * * * * * * * * * * * * * * * * * * * * * * * * * * //

dimensions      [1 0 -1 0 0 0 0];

internalField   nonuniform List<scalar> 
675
(
-7.91207e-06
-5.96901e-06
0.000146072
-1.58987e-05
-6.17877e-06
0.000144797
-4.29437e-05
0.000159083
-8.63161e-07
3.93381e-05
0.000160351
2.48215e-05
-9.44641e-06
0.000179912
3.87609e-05
0.000147371
1.07412e-05
0.000159803
-1.07694e-05
0.000142091
0.000159192
-1.17392e-05
-1.30858e-05
0.00017561
-1.28942e-05
-2.23015e-05
0.000170788
-5.20576e-05
0.000202995
-3.08951e-06
5.30021e-05
9.10882e-05
2.91902e-05
-1.17893e-06
0.000117686
5.27392e-05
6.58967e-05
5.6872e-06
0.000211125
-5.61757e-06
0.000154835
0.000210446
-2.81838e-05
8.12777e-05
3.77481e-06
1.4728e-05
8.40001e-05
4.72332e-05
-9.41904e-05
-2.39774e-05
-1.98913e-05
-9.28789e-05
-6.04364e-06
5.20865e-06
0.0040895
0.00218691
-0.00300852
0.00266839
0.0044517
0.000215123
0.00620866
-0.000360285
-7.43176e-05
-0.00358948
0.0111413
-0.00175148
-0.00619435
0.0177655
-0.00319519
0.0128347
0.0014647
-0.00181324
-0.00240423
0.000990788
-0.00229361
0.00625564
0.0037007
-0.0129446
-0.00617763
0.00117788
0.01149
0.0046341
-0.0111547
-0.00197632
-0.00352201
0.0204272
0.000489946
-0.00153802
0.0180126
-0.00465551
0.0226451
0.00517235
-0.010502
-0.00725816
0.0118949
-0.0141871
0.0013056
0.0132212
-0.0274652
-0.000778997
0.00286255
0.0107342
0.013673
-0.0255895
-0.0357762
-0.0128278
0.0822881
0.0308387
-0.00263492
-0.0430781
-0.0137004
0.0808801
0.00170956
-0.0250226
-5.23149e-05
0.0110404
-0.0279211
-0.0192484
-0.0132888
-0.0114593
0.0439785
0.0159818
0.00370208
-0.0328283
-0.00594631
-0.0135862
-0.0137554
0.0433289
-6.2797e-05
0.0147193
0.0248303
-0.0527883
-0.00204926
-0.00274629
-0.0520094
0.0604534
0.0119149
0.0239949
-0.05153
-0.0165402
-0.0104163
0.0416736
0.0181756
-0.0311018
-0.00626238
-0.0157316
0.0458354
0.00258228
-0.00807588
-0.0060012
-0.00882055
0.000628017
-0.0219537
-0.00979438
-0.0128058
0.00847624
0.00999227
-0.00172778
-0.0173839
-0.000106623
-0.0253945
0.00634039
-0.00951144
0.00708168
-0.00745447
-0.00365973
-0.0204065
-0.0130087
-0.0014055
0.00483902
-0.00946744
-0.0142891
0.00188331
-0.0110067
-0.0119215
-0.0152103
0.0137516
0.0070077
-0.0175998
0.00440037
-0.00155494
-0.0125572
-0.00156829
-0.0154307
0.0153444
-0.0158242
0.00487853
-0.0115475
-0.00973296
-0.0007788
-0.00101847
-0.0327405
0.000727544
-0.000507866
0.00973705
-0.000799682
-0.0312115
-0.00221713
0.000994227
0.0709688
0.00155239
0.000513841
-0.0478676
0.000778817
0.069212
-0.000769685
-0.0303321
0.000723247
0.0100621
-0.0335724
-0.00124324
-0.00015832
-0.0383868
0.00130647
-0.000384698
0.00757338
0.000245125
-0.0372787
-0.00209445
0.000127321
0.0613122
0.00172809
0.000391317
-0.0524652
-0.000332171
0.0599177
-0.00122244
-0.0360321
0.00132305
0.00790881
-0.0397162
-0.00163704
0.000160027
0.00150704
-0.00151505
0.000412643
-0.00256725
-0.000254465
0.00236845
0.00153748
-0.000467721
-0.00168497
0.00150067
0.00299069
-0.00123877
-0.00204255
-0.00919027
-0.00541177
-0.00060101
-0.00202003
-0.00219447
-0.00728176
-0.0111609
0.00315919
0.0020864
-0.0121717
-0.0118841
-0.00426466
0.000599062
-0.0063132
0.0014466
-0.0116112
-0.0117002
0.00460171
-0.00678143
-0.011573
-0.00413489
-0.00222888
-0.00319612
-0.00924297
0.00509375
0.000250436
2.66558e-05
-0.007429
-0.000742569
0.000416263
0.0033837
0.000322404
-0.000812215
-0.00755292
0.00142247
-0.000236374
-0.00550995
-0.00756614
-0.00126629
-0.000873757
-0.00231007
0.000313007
-0.00527574
-0.00756293
0.00195046
-0.000742175
-0.00824395
-0.00451199
0.00334297
0.000125472
-0.00754081
-0.000497644
0.00109113
-0.000585233
0.00211697
0.000753573
0.00136413
-7.87065e-05
-0.000252864
-0.0015428
-0.00259131
-0.000317539
-0.00146451
-0.00123996
-0.00295745
-0.00132949
-0.000974616
0.000532613
-0.000602685
-0.00979606
-0.000410458
-0.000960159
-0.00967479
0.00142564
-0.00155278
0.00157974
-0.00433641
-0.00692484
-0.0115822
0.000480462
-0.000993753
-0.00919678
-0.00114038
0.000197069
-0.0012952
0.00112943
-0.00743516
-0.00848021
-0.000290647
-0.00874065
-0.000888175
-0.00467709
-0.00536619
-0.00776894
-0.000315186
-0.000435606
-0.00744293
0.00084722
-0.00273233
0.000134022
-0.0051314
-0.00678834
-0.00877556
0.000515284
-0.000596333
-0.00703899
-0.000582842
-9.33344e-05
0.000381125
0.000699586
-0.00684073
-0.00731638
-7.97512e-06
-0.00735877
-0.00143644
-0.00550518
-0.00615671
-0.00105908
0.000538054
-0.00368788
-0.000109447
-0.00136412
-0.00746059
-0.00270602
-0.000294129
-0.00275761
-0.000135305
0.00147738
-0.00488452
-0.00091321
-0.00249296
-0.00652799
0.00887926
0.00132629
-0.00484393
-0.00536752
0.00857891
0.00115821
-0.00086403
-0.000479535
-0.000138085
0.00939358
-0.00140112
0.00130895
-0.00796153
0.0116544
-0.00125756
0.000169265
0.000460193
-0.00115507
0.00997712
-0.0042099
-0.00717709
0.0101517
-0.00143925
-0.00096816
0.00747074
-0.000396065
-0.00571943
-0.00620476
0.00727559
0.000581606
-0.00125655
-6.85059e-05
-0.000229323
0.00717119
3.9374e-05
0.000865556
-0.00714984
0.00869723
-0.000677351
-8.36111e-05
0.000374479
-0.00045264
0.00796384
-0.00496989
-0.00717256
0.00832922
-0.00248968
-0.000516184
0.00246081
-0.00154328
-0.00664263
0.00105241
0.000145626
0.00023061
0.00261722
0.00150423
-0.00478603
0.00236264
0.000330514
-0.000436545
0.00410243
-0.0075763
0.00193536
-0.00159388
0.000920576
0.000669217
0.000641233
0.000993886
-0.00323315
0.000969945
-0.00570058
-0.000575555
-0.00151353
0.00301803
0.00396094
-0.00162754
-0.00190632
-0.00114417
-0.00187702
-0.00140034
-0.000118172
0.00211502
-0.00514856
-0.00621312
-0.000395952
0.000963694
9.72339e-05
0.0030221
0.000482644
-0.00713783
0.000181177
-0.0090687
9.7067e-05
-0.00140831
0.00530155
0.0042843
-0.00143711
-0.00416513
-0.000598895
-0.00395323
-0.000716578
-0.000814223
0.00377507
-0.0110826
-0.0102161
-0.000724489
0.00118078
-0.000362994
0.00158932
0.00175548
-0.0112111
0.00109266
-0.0152189
7.13058e-05
-0.00129056
0.0077102
0.00394029
-0.00392108
-0.00234875
-0.0014533
-0.0022442
-0.002634
0.000525485
0.00590649
-0.0235492
-0.0133457
0.00581371
0.00913495
-0.0153321
0.00437358
0.0100682
-0.0198601
0.0105567
-0.0214235
-0.00198828
-0.00779643
0.0266742
-0.00359001
-0.0101375
0.0195062
-0.00978259
0.0145554
0.0098714
-0.0171651
-0.000937098
-0.0228977
-0.0240841
0.00267296
0.0082124
-0.0262319
0.00258079
0.00775148
-0.027534
0.00807843
-0.0269356
0.00486566
-0.00662553
0.0366838
0.00346659
-0.00611987
0.0348133
-0.00658855
0.0327282
0.00350255
-0.0273085
0.0031108
-0.0286411
-0.0275753
0.00066512
0.0198913
0.000101596
0.0198786
0.0200013
0.00266273
-0.019323
0.00229938
-0.0193276
-0.0194818
0.000552336
-0.000160195
-0.00160631
0.000856526
-0.00617961
0.00157138
0.0016032
-0.00478455
0.00146966
9.81186e-05
-0.00383623
-0.000979669
-0.0017516
0.000437102
-0.000983962
-0.00167563
-0.000929597
0.00284645
-0.00080918
-0.00554172
0.00150054
-0.00329797
0.000566709
-0.00348877
0.000357032
-0.00984064
0.00079911
0.00141653
-0.0104922
0.00140471
-0.000510768
-0.00427164
-0.000177067
-0.00377585
-0.000167859
-0.000478411
-0.00387398
-0.000962514
0.00505573
-0.00308002
-0.00880035
0.000287919
-0.00714859
-0.000112019
-0.00572373
0.00146742
-0.0130486
0.00242772
0.00377921
-0.0224256
0.00130379
0.000609852
-0.00408878
-0.000966488
-0.00212738
-0.000285872
-0.00177632
-0.00211151
-0.00119365
0.00727657
-0.00181642
-0.0144834
0.000644265
-0.0113899
-0.000665511
0.000761791
0.00975355
-0.0235923
-0.00947703
0.0100272
-0.0222414
0.00782472
-0.0167229
0.00345967
-0.0103056
0.0145162
0.00216934
-0.0100287
0.019274
-0.00908953
0.0263958
-0.003815
-0.0209993
-0.00548989
-0.0197671
-0.0152685
-0.00318521
0.00669798
-0.0271199
-0.00342723
0.0062627
-0.0282791
0.00677539
-0.0269414
-0.00338736
-0.00802673
0.0326676
-0.00473956
-0.00771086
0.0346341
-0.00813006
0.0365972
-0.00243714
-0.0266032
-0.00262156
-0.027309
-0.0260348
0.000205
0.0196462
-0.000545138
0.0194806
0.0194528
-0.00219849
-0.0200849
-0.00259712
-0.01995
-0.0199289
-4.27694e-05
-0.000639317
)
;

boundaryField
{
    fuel
    {
        type            calculated;
        value           nonuniform List<scalar> 
36
(
0.000126912
0.000211287
0.000126915
0.000126911
0.00021129
0.000126916
0.000126914
0.000211295
0.000126919
-0.000126912
-0.000211288
-0.000126915
-0.000126912
-0.000211291
-0.000126916
-0.000126914
-0.000211297
-0.000126919
0
0
0
0
0
0
0
0
0
0
0
0
0
0
0
0
0
0
)
;
    }
    primary_air
    {
        type            calculated;
        value           nonuniform List<scalar> 9(-0.00321893 -0.00534958 -0.00321825 -0.00321811 -0.0053498 -0.0032181 -0.00321822 -0.00535011 -0.00321846);
    }
    Secondary_air_RHS
    {
        type            calculated;
        value           nonuniform List<scalar> 9(0.00715087 0.0116417 0.00715593 0.00713039 0.0115996 0.00713768 0.00714622 0.0116364 0.00715493);
    }
    Secondary_air_LHS
    {
        type            calculated;
        value           nonuniform List<scalar> 9(0.0070743 0.0115239 0.00707608 0.00704912 0.0114652 0.00705225 0.00706937 0.0115048 0.00707396);
    }
    outlet
    {
        type            calculated;
        value           nonuniform List<scalar> 
18
(
-0.0469807
0.0746136
-0.0466549
-0.0470186
0.0744807
-0.0466719
-0.0469484
0.0733991
-0.0466123
-0.0467989
0.0732525
-0.0471927
-0.0468599
0.0744001
-0.0472652
-0.0468463
0.0745256
-0.047227
)
;
    }
    stove_body
    {
        type            calculated;
        value           uniform 0;
    }
    frontAndBack
    {
        type            empty;
        value           nonuniform 0();
    }
}


// ************************************************************************* //
