/*--------------------------------*- C++ -*----------------------------------*\
  =========                 |
  \\      /  F ield         | OpenFOAM: The Open Source CFD Toolbox
   \\    /   O peration     | Website:  https://openfoam.org
    \\  /    A nd           | Version:  6
     \\/     M anipulation  |
\*---------------------------------------------------------------------------*/
FoamFile
{
    version     2.0;
    format      ascii;
    class       volScalarField;
    location    "1.5";
    object      Qdot;
}
// * * * * * * * * * * * * * * * * * * * * * * * * * * * * * * * * * * * * * //

dimensions      [1 -1 -3 0 0 0 0];

internalField   nonuniform List<scalar> 
297
(
0
-0.000165164
0
-0.00019906
0
-0.00019906
0
0
-6.56337e-05
-0.000165164
-0.000165164
-6.56337e-05
0
0
-0.00019906
0
0
-9.95298e-05
0
0
-9.95298e-05
0
0
0
0
4.79164e-10
0
0
0
-7.04351e-11
-1.4087e-10
0
0
0
0
-3.52175e-11
0
0
0
0
0
0
0
0
0
0
0
0
-1.76088e-11
0
-3.52175e-11
0
0
2.39582e-10
0
0
0
4.79164e-10
0
4.79164e-10
0
0
0
0
0
0
0
-2.62391e-19
-6.55978e-20
0
0
0
0
-3.20302e-23
0
0
0
0
0
0
0
0
0
0
-4.40219e-12
0
0
0
2.39582e-10
0
0
-1.37568e-13
0
0
0
0
0
2.39582e-10
0
0
0
0
0
-1.71961e-14
0
2.39582e-10
2.39582e-10
0
1.91666e-09
1.91666e-09
0
0
0
0
0
0
-1.56397e-26
0
1.91666e-09
0
0
0
0
-3.81829e-30
-1.52732e-29
0
0
0
0
0
0
0
0
0
0
0
-9.10352e-37
0
0
0
0
0
1.91666e-09
0
-7.4576e-33
-3.64141e-36
0
0
0
0
0
0
0
-1.19322e-31
0
0
-2.98304e-32
0
0
-2.98304e-32
0
0
0
0
0
0
0
0
-2.22254e-40
0
0
-3.47272e-42
0
0
0
0
-1.16525e-34
0
0
0
0
0
1.91666e-09
0
0
0
0
0
0
0
0
0
-3.31184e-48
0
0
0
-1.65592e-48
-1.35653e-44
1.91666e-09
0
0
0
0
0
-1.03495e-49
1.91666e-09
0
0
0
0
0
0
-8.47831e-46
-3.23422e-51
0
0
0
0
-4.04277e-52
0
0
-1.29369e-50
0
0
0
0
-3.94802e-55
0
0
0
0
0
0
0
0
-4.93503e-56
0
0
0
0
-3.94802e-55
-9.87005e-56
0
0
0
-2.0699e-49
0
-2.64947e-47
0
0
0
0
-1.35653e-44
-8.2796e-49
0
-3.39132e-45
0
0
-1.35653e-44
0
0
1.91666e-09
0
0
0
-1.65592e-48
-2.64947e-47
0
0
0
0
0
0
0
0
0
-1.03495e-49
-1.01069e-52
1.91666e-09
0
0
1.91666e-09
0
0
3.83331e-09
0
0
0
0
0
0
0
-4.1398e-49
0
0
0
0
)
;

boundaryField
{
    fuel
    {
        type            calculated;
        value           uniform 0;
    }
    primary_air
    {
        type            calculated;
        value           uniform 0;
    }
    Secondary_air_RHS
    {
        type            calculated;
        value           uniform 0;
    }
    Secondary_air_LHS
    {
        type            calculated;
        value           uniform 0;
    }
    outlet
    {
        type            calculated;
        value           uniform 0;
    }
    stove_body
    {
        type            calculated;
        value           uniform 0;
    }
    frontAndBack
    {
        type            empty;
    }
}


// ************************************************************************* //
