/*--------------------------------*- C++ -*----------------------------------*\
  =========                 |
  \\      /  F ield         | OpenFOAM: The Open Source CFD Toolbox
   \\    /   O peration     | Website:  https://openfoam.org
    \\  /    A nd           | Version:  6
     \\/     M anipulation  |
\*---------------------------------------------------------------------------*/
FoamFile
{
    version     2.0;
    format      ascii;
    class       volScalarField;
    location    "1.5";
    object      T;
}
// * * * * * * * * * * * * * * * * * * * * * * * * * * * * * * * * * * * * * //

dimensions      [0 0 0 1 0 0 0];

internalField   nonuniform List<scalar> 
297
(
292.774
292.778
292.775
292.965
292.979
292.968
292.773
292.769
292.775
292.781
293.106
292.781
293.051
294.557
293.087
292.764
292.776
292.767
295.08
298.507
294.846
294.582
492.009
294.812
292.746
293.171
292.736
1299.52
910.691
622.824
459.473
398.275
400.822
1133.01
624.529
979.626
2235.72
2100.98
1998.78
1289.79
751.225
1095.8
2449.88
1970.47
1810.94
2237.68
2108.87
2005.22
1424.18
1093.14
1245.28
2453.43
2073.78
1813.65
1385.48
764.263
1209.49
2241.32
1072.51
2029.95
1476.34
834.833
1124.62
1392.07
548.323
882.724
2124.36
1067.03
1572.72
1383.32
616.197
742.618
299.018
299.091
299.035
299.388
299.189
299.233
299.181
299.221
299.15
2222.92
2069.15
1995.8
1688.07
1072.46
1512.79
2438.41
2036.12
1804.63
1856.09
2042.75
1519.82
1935.91
1072.21
1748.63
2008.88
2010.71
1399.08
1586.79
1916.5
1392.61
2220.15
1072.41
2014.01
1701.62
1891.43
1288.94
298.825
299.265
298.983
299.275
299.38
299.296
299.017
299.342
298.93
298.935
299.072
299.161
299.388
299.395
299.377
299.231
299.237
299.057
298.977
299.046
298.98
299.363
299.376
299.341
299.232
299.219
299.115
298.979
299.041
299.12
299.254
299.258
299.284
298.868
298.899
299.005
299.248
299.222
299.23
299.322
299.303
299.29
299.009
299.018
299.048
299.288
299.272
299.22
299.383
299.368
299.337
299.104
299.08
299.037
299
298.87
298.813
299.296
299.235
299.221
299.247
299.129
299.031
299.062
298.996
298.955
299.367
299.355
299.351
299.357
299.292
299.303
299.07
299.034
298.943
299.443
299.426
299.423
299.347
299.364
299.384
298.896
298.925
299.003
299.301
299.343
299.347
299.269
299.266
299.274
298.755
298.912
298.979
299.289
299.364
299.406
299.308
299.278
299.287
298.84
298.911
298.919
299.252
299.291
299.46
299.336
299.268
299.261
298.777
298.922
298.911
298.221
298.744
299.447
299.042
299.234
299.183
297.011
296.844
297.017
297.4
297.352
298.646
297.112
296.972
297.149
291.24
291.144
291.12
285.69
285.526
285.543
291.334
291.241
291.213
299.138
299.131
299.196
299.293
299.286
299.299
298.999
298.932
298.959
299.148
299.128
299.22
299.289
299.272
299.269
298.963
298.909
298.95
299.115
299.124
299.212
299.317
299.186
299.238
298.888
298.904
298.898
299.038
299.109
298.937
299.326
298.673
297.835
298.864
298.9
298.837
297.096
296.877
296.999
298.509
297.244
297.193
296.957
296.654
296.728
291.163
291.193
291.284
285.417
285.412
285.586
291.083
291.109
291.203
)
;

boundaryField
{
    fuel
    {
        type            fixedValue;
        value           uniform 293;
    }
    primary_air
    {
        type            fixedValue;
        value           uniform 293;
    }
    Secondary_air_RHS
    {
        type            fixedValue;
        value           uniform 293;
    }
    Secondary_air_LHS
    {
        type            fixedValue;
        value           uniform 293;
    }
    outlet
    {
        type            inletOutlet;
        inletValue      uniform 293;
        value           nonuniform List<scalar> 
18
(
293
285.418
293
293
285.413
293
293
285.586
293
293
285.691
293
293
285.527
293
293
285.544
293
)
;
    }
    stove_body
    {
        type            fixedValue;
        value           uniform 293;
    }
    frontAndBack
    {
        type            empty;
    }
}


// ************************************************************************* //
