/*--------------------------------*- C++ -*----------------------------------*\
  =========                 |
  \\      /  F ield         | OpenFOAM: The Open Source CFD Toolbox
   \\    /   O peration     | Website:  https://openfoam.org
    \\  /    A nd           | Version:  6
     \\/     M anipulation  |
\*---------------------------------------------------------------------------*/
FoamFile
{
    version     2.0;
    format      ascii;
    class       volVectorField;
    location    "1.5";
    object      U;
}
// * * * * * * * * * * * * * * * * * * * * * * * * * * * * * * * * * * * * * //

dimensions      [0 1 -1 0 0 0 0];

internalField   nonuniform List<vector> 
297
(
(27.2422 -0.0213354 0.234029)
(27.2429 -0.0585629 0.225203)
(27.2429 -0.0343288 0.254181)
(0.000141547 0.0104282 0.262169)
(0.000213392 0.0350474 0.260907)
(0.000255767 0.0265582 0.255263)
(-27.2386 0.0136846 0.276046)
(-27.2415 -0.000172926 0.227311)
(-27.239 -0.0131728 0.275281)
(27.2425 -0.0382581 0.265222)
(27.2724 -0.0618058 0.270447)
(27.2429 -0.0260259 0.298512)
(0.000154406 0.010569 0.0931764)
(0.00019858 0.0398883 0.251396)
(0.000259735 0.0308814 0.0700011)
(-27.2369 0.0138157 0.296659)
(-27.2417 -8.81215e-05 0.257947)
(-27.2373 -0.0122872 0.29536)
(27.4569 -0.131246 0.437612)
(23.1836 -0.055659 0.385227)
(27.4358 0.067015 0.474016)
(0.000135394 -0.0216101 0.240557)
(0.000256563 0.0450014 -0.115172)
(0.00021076 0.0467411 0.229373)
(-27.239 -0.00620691 0.507424)
(-24.5606 -0.00311365 0.38037)
(-27.2383 0.00567401 0.506957)
(78.7353 2.99402 -3.897)
(54.907 6.87362 2.40554)
(37.4419 2.1725 2.93379)
(-0.00131628 -1.38992 8.40023)
(-1.4075e-05 0.0042535 5.54954)
(0.000399249 1.16715 9.07594)
(-68.4411 1.91709 -2.27277)
(-37.5471 -0.422418 5.1745)
(-59.3009 -4.06331 4.00815)
(136.884 -1.60965 20.6358)
(129.134 6.8409 30.267)
(122.853 -14.4296 35.9143)
(-0.00797206 17.8737 98.1287)
(-0.00174054 0.23241 52.7382)
(0.00341372 -20.283 84.1813)
(-150.108 -0.12934 35.6646)
(-121.051 -3.53719 29.5193)
(-111.251 -7.34031 13.5806)
(134.575 -33.8802 1.51847)
(129.074 13.391 65.8242)
(121.019 6.66165 2.319)
(0.00512547 -29.6962 132.196)
(-0.00287927 -3.66476 5.37508)
(-0.0154876 20.2167 117.67)
(-147.462 -36.0859 17.3264)
(-126.837 15.2119 66.5719)
(-109.567 6.03554 -10.2742)
(85.1388 -26.9282 -112.417)
(46.5351 -5.43415 -36.0177)
(74.4503 20.4016 -89.9877)
(-0.0359359 -42.5241 33.8157)
(0.000115976 4.6394 -68.5626)
(0.0316661 13.8995 32.3101)
(-90.8114 -29.0259 -106.544)
(-50.804 3.56483 -37.5644)
(-69.1689 19.2382 -90.1884)
(85.6535 24.7707 -82.5746)
(33.6159 -6.71732 -51.2331)
(54.3065 -24.3312 -59.9136)
(-0.00711891 -25.4807 -32.0276)
(0.00265389 -3.74166 -52.7616)
(0.0084705 -0.675058 -32.3494)
(-85.0392 16.0498 -74.0315)
(-37.7617 9.20123 -54.0139)
(-45.7182 -25.366 -60.8478)
(18.4222 17.9335 -12.3854)
(18.4169 -9.96445 -13.296)
(18.4269 -17.6792 -19.6423)
(-0.00599807 11.2117 -14.845)
(-0.000220784 6.39967 -15.8539)
(0.00494124 -10.5963 -18.982)
(-18.4344 20.3287 -18.236)
(-18.4251 9.14568 -13.2966)
(-18.4347 -12.8786 -14.8138)
(121.711 -34.0934 -209.362)
(115.821 8.09912 58.6676)
(111.214 6.49795 -173.537)
(0.0059484 -35.3737 196.122)
(-0.00157251 -4.65302 -86.0465)
(0.0149135 17.0345 173.274)
(-133.829 -38.6957 -213.751)
(-113.812 9.80174 59.4528)
(-100.572 4.46128 -169.345)
(107.303 -29.1397 -191.269)
(117.159 2.74271 54.198)
(89.7474 14.8203 -151.953)
(0.0116455 -34.6983 222.238)
(-0.00157745 -2.85415 -87.591)
(0.0244319 18.0303 195.469)
(-116.294 -31.9398 -191.274)
(-115.186 4.49091 55.1004)
(-82.7556 13.1416 -148.407)
(94.1866 -29.9062 -168.33)
(110.829 -5.47843 33.1741)
(84.028 13.0192 -134.316)
(0.0180472 -42.711 246.668)
(-0.00169381 -0.0802746 -82.4662)
(0.0311917 14.6635 214.158)
(-101.695 -33.1403 -167.023)
(-109.202 -4.63072 34.4093)
(-77.8456 11.3138 -132.185)
(18.3453 25.4854 -5.00587)
(18.3865 -5.15773 -6.09104)
(18.3132 -29.0456 -9.54391)
(0.0011051 15.6973 -7.53638)
(0.000268559 -1.70752 -5.14838)
(-0.000752615 -15.8824 -6.62079)
(-18.3117 30.5623 -9.84979)
(-18.3875 -0.960992 -6.20643)
(-18.3462 -25.5145 -5.42211)
(18.4145 21.227 -0.57328)
(18.404 11.0972 0.929238)
(18.4093 -18.703 -1.90808)
(0.00348073 5.98188 -2.37811)
(0.000198706 0.383543 -1.83658)
(-0.00269887 -6.22134 -2.34211)
(-18.4076 21.0839 -1.07806)
(-18.4218 -7.50255 0.286286)
(-18.4032 -20.6941 -1.01356)
(18.4375 -6.79166 2.03004)
(18.4152 7.48245 2.7205)
(18.4169 4.9931 -1.61807)
(0.00398038 -0.0761559 -4.13997)
(0.000195184 -0.594216 -0.0261462)
(-0.00329381 -0.846198 -3.83462)
(-18.4338 -4.40238 -2.55843)
(-18.4387 -5.8238 2.86994)
(-18.4429 5.65613 1.69936)
(18.3155 -30.3837 -6.35928)
(18.3955 -25.0284 -9.62182)
(18.3448 -21.1461 -12.4827)
(-0.00518709 -19.8706 -4.96047)
(-0.00613793 -17.9748 -5.43551)
(-0.00622237 -13.2385 -5.24448)
(-18.3415 -26.2058 -4.06581)
(-18.4154 -21.9439 -7.21101)
(-18.3741 -15.3109 -10.2159)
(18.3692 -22.0612 -0.960149)
(18.4225 -22.7386 -6.15977)
(18.3078 -19.3165 -11.6073)
(-0.00528283 -14.373 2.10179)
(-0.0059104 -14.6624 2.04593)
(-0.00568629 -10.6923 2.0287)
(-18.3734 -21.9901 -1.00965)
(-18.438 -20.8425 -6.11544)
(-18.3149 -16.4753 -13.5033)
(18.4412 1.23266 -0.441351)
(18.4164 -11.923 -12.3143)
(18.2787 -16.9611 -16.0803)
(-0.00500961 -3.62049 -2.10682)
(-0.00513523 -5.43608 -0.337878)
(-0.00616317 -7.57918 -0.946357)
(-18.4511 -0.985045 2.21037)
(-18.4523 -8.55606 -7.43108)
(-18.32 -15.0168 -16.9903)
(18.3722 15.3752 -10.3642)
(18.4134 22.2601 -7.20274)
(18.3393 26.2981 -4.0738)
(0.00539159 13.514 -4.87867)
(0.00547847 18.6653 -5.48906)
(0.004847 20.1664 -5.09606)
(-18.3667 21.7671 -12.0306)
(-18.3992 26.0644 -8.34356)
(-18.3163 31.6261 -6.06798)
(18.313 16.5872 -14.0522)
(18.4372 21.2206 -6.0106)
(18.4119 22.4414 -1.22278)
(0.00446225 11.0299 2.14632)
(0.00503223 14.7472 2.10967)
(0.00514249 14.3947 2.10988)
(-18.3314 20.2661 -11.3948)
(-18.4264 24.5509 -5.7308)
(-18.3682 23.7374 -0.461734)
(18.3212 14.9879 -17.5268)
(18.453 8.72624 -6.99805)
(18.4411 1.37253 2.12425)
(0.00452949 7.65382 -0.998143)
(0.00364633 4.74496 -0.371628)
(0.00425604 3.38862 -2.12766)
(-18.2981 17.7633 -16.2795)
(-18.4325 13.5922 -12.7267)
(-18.4464 2.29941 -3.42806)
(18.4019 -8.20571 -3.28772)
(18.3877 3.20079 -10.8431)
(18.36 8.83537 -15.254)
(0.0146683 -4.67734 0.242344)
(0.0132732 4.26841 -5.76083)
(0.00854292 9.31 -6.54179)
(-18.3839 -3.97545 -6.81837)
(-18.3808 2.47053 -15.8549)
(-18.3379 12.8863 -20.0726)
(18.3877 -7.94212 1.49218)
(18.3466 9.17536 -13.093)
(18.3132 12.0094 -21.4587)
(0.0143029 -4.01116 7.23314)
(0.0133185 4.94633 -4.09293)
(0.00740039 9.29136 -3.54737)
(-18.3725 1.50916 3.5029)
(-18.3773 2.1808 -18.5501)
(-18.3229 14.4584 -22.0299)
(18.3917 -1.02457 5.81962)
(18.4397 10.1526 -15.9201)
(18.411 7.20826 -28.0051)
(0.0119926 -3.19853 11.0383)
(0.0116108 5.02512 -7.19908)
(0.00801558 6.74282 -6.00274)
(-18.3614 2.06303 -1.1766)
(-18.5479 3.60722 -21.0896)
(-18.4186 9.92202 -26.6047)
(18.3447 3.42862 -2.42346)
(18.3741 2.33589 -21.3454)
(18.3843 -5.85806 -32.4271)
(-0.00474388 1.28236 42.8437)
(-0.00494674 2.24391 27.5125)
(-0.00423728 -10.3544 18.8667)
(-18.3691 3.23743 -3.50919)
(-18.4199 3.27692 -29.2229)
(-18.4134 -9.90138 -43.0318)
(18.15 0.0268351 -91.5579)
(18.136 0.287288 -97.0318)
(18.1469 3.53672 -94.2603)
(-0.00905649 0.989324 68.0967)
(-0.00950913 1.79 61.0637)
(-0.00920723 -0.254445 55.4965)
(-18.1788 0.22765 -95.4176)
(-18.1686 -0.00826599 -101.134)
(-18.1805 5.4108 -96.1416)
(17.4114 0.144683 -134.126)
(17.4033 0.185073 -134.345)
(17.4019 0.0103627 -134.296)
(-0.00703611 0.58819 184.557)
(-0.00695884 1.09511 187.369)
(-0.00681033 0.102553 187.699)
(-17.4341 0.115143 -135.531)
(-17.4263 0.100635 -135.795)
(-17.4248 -0.0636957 -135.657)
(18.288 -11.5527 -19.6192)
(18.3741 -1.82394 -15.0335)
(18.3835 4.54546 -6.50509)
(-0.00944337 -8.80909 -6.51459)
(-0.0124146 -4.3849 -5.46093)
(-0.0130472 4.8492 0.0778737)
(-18.3595 -8.91096 -15.0735)
(-18.3871 -3.52156 -11.1301)
(-18.4057 7.73706 -4.01937)
(18.2736 -13.1936 -20.6365)
(18.3655 -3.59267 -17.3253)
(18.377 -0.0985094 3.55757)
(-0.00832092 -9.01282 -3.21794)
(-0.0123134 -5.17239 -3.72537)
(-0.0123409 4.44657 6.91171)
(-18.3118 -12.1056 -20.8374)
(-18.3481 -8.97627 -13.2064)
(-18.3992 7.25544 1.6241)
(18.406 -9.688 -25.7724)
(18.5304 -5.34633 -19.6697)
(18.3646 -1.67994 0.475833)
(-0.00895239 -6.90167 -5.67366)
(-0.0106406 -5.60309 -6.51005)
(-0.0102814 3.23131 10.5568)
(-18.3989 -7.35029 -27.1932)
(-18.4427 -9.91593 -15.6944)
(-18.3963 0.298027 4.84115)
(18.404 9.36381 -41.7927)
(18.4092 -2.8083 -27.4654)
(18.3605 -3.24482 -3.05231)
(0.00340065 9.98299 18.8145)
(0.00367672 -1.98863 27.1503)
(0.00322826 -1.38199 42.3083)
(-18.3815 5.47508 -31.2637)
(-18.3759 -1.56262 -21.4178)
(-18.3518 -3.51448 -2.55946)
(18.1761 -5.33997 -94.3093)
(18.1616 0.0655217 -99.8235)
(18.1715 -0.326809 -94.1267)
(0.00773338 0.201293 55.4843)
(0.0079168 -1.67783 60.6455)
(0.00748394 -1.0331 67.637)
(-18.1467 -3.23692 -93.0004)
(-18.1283 -0.49282 -96.3373)
(-18.1363 0.155648 -90.8979)
(17.4205 0.0714526 -134.783)
(17.422 -0.0889351 -134.919)
(17.4297 -0.111227 -134.665)
(0.00567511 -0.105174 187.833)
(0.00581039 -1.03253 187.491)
(0.00587244 -0.605949 184.855)
(-17.4013 -0.000480299 -133.622)
(-17.4028 -0.162587 -133.683)
(-17.4106 -0.139396 -133.469)
)
;

boundaryField
{
    fuel
    {
        type            fixedValue;
        value           uniform (0 0 0.25);
    }
    primary_air
    {
        type            fixedValue;
        value           uniform (0 0 2.5);
    }
    Secondary_air_RHS
    {
        type            fixedValue;
        value           uniform (0 58.3333 0);
    }
    Secondary_air_LHS
    {
        type            fixedValue;
        value           uniform (0 -58.3333 0);
    }
    outlet
    {
        type            pressureInletOutletVelocity;
        value           nonuniform List<vector> 
18
(
(0 0 -134.783)
(0.00567511 -0.105174 187.833)
(0 0 -133.622)
(0 0 -134.919)
(0.00581039 -1.03253 187.491)
(0 0 -133.683)
(0 0 -134.665)
(0.00587244 -0.605949 184.855)
(0 0 -133.469)
(0 0 -134.126)
(-0.00703611 0.58819 184.557)
(0 0 -135.531)
(0 0 -134.345)
(-0.00695884 1.09511 187.369)
(0 0 -135.795)
(0 0 -134.296)
(-0.00681033 0.102553 187.699)
(0 0 -135.657)
)
;
    }
    stove_body
    {
        type            noSlip;
    }
    frontAndBack
    {
        type            empty;
    }
}


// ************************************************************************* //
