/*--------------------------------*- C++ -*----------------------------------*\
  =========                 |
  \\      /  F ield         | OpenFOAM: The Open Source CFD Toolbox
   \\    /   O peration     | Website:  https://openfoam.org
    \\  /    A nd           | Version:  6
     \\/     M anipulation  |
\*---------------------------------------------------------------------------*/
FoamFile
{
    version     2.0;
    format      ascii;
    class       surfaceScalarField;
    location    "1";
    object      phi;
}
// * * * * * * * * * * * * * * * * * * * * * * * * * * * * * * * * * * * * * //

dimensions      [1 0 -1 0 0 0 0];

internalField   nonuniform List<scalar> 
675
(
-1.56507e-05
-7.36471e-07
0.000134869
-1.60728e-06
-4.42944e-05
0.0001494
-2.32851e-05
0.000140168
1.05266e-05
2.39575e-05
0.000166215
-1.04918e-05
4.42596e-05
0.000134817
2.68472e-07
0.000167058
2.08869e-06
0.000140571
1.60478e-05
0.00014945
0.000134588
-1.3072e-05
-1.16076e-05
0.000157991
-3.13657e-06
-5.10732e-05
0.000189629
-3.57093e-05
0.000171252
2.28012e-05
3.68831e-05
9.67807e-05
-2.17156e-05
5.09808e-05
8.00663e-05
1.05852e-05
0.000100582
3.56567e-06
0.000172595
1.34325e-05
0.000189656
0.000156854
-1.66165e-05
5.87459e-05
2.14921e-06
4.97546e-05
5.78632e-05
1.23706e-05
-6.04728e-05
-1.0924e-05
-4.98853e-05
-5.62481e-05
-2.72207e-06
1.5943e-05
0.00430849
0.00467336
-0.00574003
-0.00195814
0.00659078
0.00293793
0.0047804
-0.00349272
0.00435738
-0.00461377
0.0103348
-0.00451557
-0.00659017
0.0275411
-0.00482095
0.010537
0.00438511
-0.00574437
-0.00185837
0.00293903
-0.00342645
0.0127788
0.00870279
-0.0271654
-0.0109145
-0.00188123
0.0285524
0.0081291
-0.0225178
-0.00180048
-0.00872933
0.0296746
0.000964775
0.00194007
0.0210742
-0.00806288
0.027702
0.0127089
-0.0271478
-0.0109708
0.0285799
-0.022458
0.00195699
0.0202327
-0.0493047
-0.00301005
-0.00430735
0.0378371
0.0183829
-0.0438939
-0.050016
-0.0202419
0.120228
0.048836
0.00429628
-0.0863123
-0.0183493
0.113281
0.00201655
-0.0493803
-0.00291057
0.0379645
-0.0437199
-0.0264345
-0.025448
-0.0252429
0.0771548
0.0249758
0.0112477
-0.0332998
-0.0293548
-0.0247107
-0.0223275
0.0720003
0.00868645
0.0254644
0.016492
-0.07605
-0.00471578
-0.011237
-0.0678107
0.103737
0.0246598
0.0168717
-0.070954
-0.0264842
-0.0251986
0.0771861
0.0248948
-0.0332122
-0.0294797
-0.0223423
0.0718812
0.00375978
-0.00877201
-0.0200615
-0.00856466
0.0067214
-0.0277391
-0.0141755
-0.0168216
0.0181634
0.00868493
-0.019009
-0.0037543
-0.00675792
-0.03237
0.0141678
-0.0152581
0.00380024
-0.0201858
-0.00853402
-0.0277173
-0.0167645
-0.00129956
-0.000641163
-0.0181312
-0.0114773
0.000745282
-0.0183274
-0.00929556
-0.0190226
0.00840451
0.000532029
-0.0286071
0.00651294
-0.000757787
-0.0290077
0.00936708
-0.0274529
-0.00132982
-0.0183387
-0.0114386
-0.0183901
-0.0188827
-0.00143463
-0.000522097
-0.0580343
0.00137657
6.4947e-05
0.0349617
-0.000537566
-0.0526721
-0.00258569
0.000527048
0.104342
0.00300614
-6.52082e-05
-0.0917704
0.000534165
0.0978122
-0.00143948
-0.0580975
0.00137436
0.0350865
-0.0525091
-0.00141614
0.000269466
-0.0675411
0.00145561
-0.000400135
0.0324908
0.000518606
-0.0623768
-0.0023456
-0.000253462
0.0899351
0.00270372
0.000400394
-0.0976172
-0.000538315
0.0843765
-0.00141615
-0.0675852
0.00145627
0.032615
-0.0622392
-0.00187097
0.000646134
0.00186421
-0.000598617
0.000675735
-0.00234265
-0.000640614
0.00258208
0.00059944
-0.00068299
-0.00187556
0.00185915
0.00667779
-0.00117732
-0.00882826
-0.0148065
-0.00565721
-0.000896971
-0.0050993
-0.00116824
-0.00874859
-0.0147676
0.00666099
0.0011409
-0.0182816
-0.0193011
-0.00785675
0.000861161
-0.0162463
0.00117709
-0.0182659
-0.0193903
0.00657059
-0.00895342
-0.014812
-0.00582028
-0.00514039
-0.00859366
-0.0149369
0.00341558
0.000129492
-0.00204784
-0.0103289
-0.00377292
0.000997898
0.00108779
0.00013562
-0.00227606
-0.0103864
0.00431894
-0.000165489
-0.00784144
-0.0144583
-0.00370054
-0.00101322
-0.00621167
-0.000148341
-0.00714666
-0.0145347
0.00338411
-0.00211053
-0.0103874
-0.00384778
0.00107667
-0.00219132
-0.0104011
0.000227825
0.000513859
-0.0027936
3.1936e-05
0.00128023
0.000570875
-0.00282031
0.00136639
-0.000565698
-0.00812098
-0.00224885
-0.00131103
-0.000580599
-0.00824157
0.000228108
-0.0028974
-7.32876e-06
-0.00278137
-0.013427
-0.000196332
-0.00114657
-0.0138332
0.00163415
-0.00123074
0.00197433
-0.00489677
-0.010914
-0.0184395
0.000223824
-0.00136942
-0.0163382
-0.00161247
0.00114775
-0.00198134
0.00203683
-0.0144168
-0.0135813
-0.00113307
-0.0139167
-0.001278
-0.00505824
-0.0108398
-0.010568
-0.000237575
-0.000729952
-0.0106884
0.00107725
-0.0021903
0.000421628
-0.00555165
-0.0104582
-0.0158446
0.000256268
-0.000551912
-0.0133009
-0.00104791
0.000731509
-0.000364799
0.00288193
-0.0133571
-0.0105595
-0.000719349
-0.0107199
-0.00216625
-0.00574676
-0.0103963
-0.00350332
-4.93876e-05
-0.00524378
-0.000452519
-0.00131898
-0.00947924
-0.00891817
7.68581e-05
-0.00911305
0.000476048
0.00135671
-0.00890444
-0.00342462
-0.00511552
-0.00950595
0.0137584
0.00197657
-0.00502116
-0.0107155
0.013415
0.00160975
-0.00126868
-0.000227017
-0.00116671
0.0162421
-0.00198091
0.00205245
-0.0143376
0.0183342
-0.00163423
0.00115296
0.000194207
-0.0013858
0.0138827
-0.00489055
-0.0109705
0.0134847
-0.00123321
-0.00113037
0.0106791
0.000341436
-0.00570392
-0.01034
0.0105216
0.0010406
-0.00215444
-0.000266273
-0.000710183
0.0132195
-0.000444079
0.00289331
-0.0132753
0.0157596
-0.0010795
0.000734387
0.000232868
-0.000580996
0.0107018
-0.00553475
-0.010499
0.0105809
-0.00218869
-0.00070149
0.00507087
-0.00135016
-0.00942783
0.00340373
-0.000490274
-0.000102515
0.00906001
0.00130931
-0.00882652
0.00885687
0.000448998
5.56136e-05
0.00527742
-0.00950041
0.00354074
0.00454745
0.00169213
-0.00624025
0.00718803
0.00159917
-0.00424064
0.00171503
-0.00524349
0.00653529
-0.00174414
-0.00310058
0.0105541
-0.00161767
-0.000803443
-0.00171644
-0.000352878
0.00469115
-0.00643527
0.00749777
-0.0044237
-0.00518803
0.00355819
0.00150425
-0.0113032
0.00698326
0.00145002
-0.00911661
0.00107951
-0.00968081
0.00486778
-0.00151789
-0.00494783
0.0095185
-0.00144553
-0.00256002
-0.00118438
-0.00184666
0.00380628
-0.0117596
0.0072377
-0.00929987
-0.00963239
0.00472793
0.00316502
-0.0191965
0.00530954
0.00171538
-0.0114144
0.00084886
-0.0146494
0.00536922
-0.00305489
-0.00409916
0.0089376
-0.00159724
-0.00281735
-0.000848971
-3.88032e-05
0.00465639
-0.0194712
0.00547065
-0.0117108
-0.0145099
-0.00571152
0.0117906
-0.025268
-0.00165358
0.0104818
-0.0259496
0.0097338
-0.0260355
0.00120291
-0.0115944
0.0180607
-0.00111612
-0.010131
0.0201002
-0.00977152
0.0183417
-0.00591448
-0.0251564
-0.00183891
-0.0259191
-0.0261194
0.000645909
0.0063348
-0.0322357
0.00103745
0.00632338
-0.0326518
0.00688466
-0.0318711
-0.00106544
-0.00636147
0.0318632
-0.000800445
-0.00635737
0.0324919
-0.00691807
0.0313127
0.000688
-0.032173
0.00110466
-0.0326625
-0.0319023
9.9653e-06
0.0189984
-0.000313828
0.0189119
0.0189984
-0.000315706
-0.019001
3.80699e-05
-0.0189081
-0.0189949
6.17412e-05
-0.000278196
-0.0074266
0.00170493
-0.00519476
-0.00464383
0.00159775
-0.00438288
0.00172732
-0.00637336
-0.0105964
-0.00171914
-0.000394902
-0.00655196
-0.00159357
-0.000852132
-0.00169111
-0.00313271
-0.00728166
-0.00527688
-0.00460026
-0.00427476
-0.00629154
-0.00719566
0.00116069
-0.00962012
-0.00377922
0.00143932
-0.00924062
0.00151874
-0.0116735
-0.00957415
-0.00110595
-0.00190978
-0.00488189
-0.00145823
-0.00264576
-0.00150515
-0.00498967
-0.0069987
-0.0097802
-0.00354391
-0.00918769
-0.0113406
-0.00549788
0.000851137
-0.0144543
-0.00480516
0.00159786
-0.0115327
0.00306234
-0.0195433
-0.00900885
-0.000869399
-8.3436e-05
-0.00539158
-0.0017672
-0.00289686
-0.00319329
-0.00412439
-0.00530068
-0.0148547
-0.004642
-0.0116135
-0.0191754
0.00211245
0.00962604
-0.0261948
0.00611916
0.010423
-0.0259648
0.011904
-0.0253347
0.00100471
-0.00977393
0.018311
-0.00129089
-0.0103313
0.0201518
-0.0116113
0.0181007
0.00149012
-0.0261213
0.00557072
-0.0260265
-0.0252129
-0.00109414
0.0068688
-0.0319645
-0.000630206
0.00629522
-0.0327184
0.00629867
-0.0322563
0.000795247
-0.00688837
0.0313022
0.00109587
-0.00633088
0.0325123
-0.00634436
0.0318666
-0.00108329
-0.0319109
-0.000715358
-0.0327114
-0.0322607
0.000282306
0.0189846
-5.0828e-05
0.018903
0.0189869
-9.50962e-05
-0.0189947
0.000286127
-0.0189092
-0.0189927
0.00031477
-2.89884e-05
)
;

boundaryField
{
    fuel
    {
        type            calculated;
        value           nonuniform List<scalar> 
36
(
0.000119856
0.000199679
0.000119856
0.000119856
0.00019968
0.000119856
0.000119856
0.000199678
0.000119855
-0.000119856
-0.000199679
-0.000119856
-0.000119856
-0.000199679
-0.000119856
-0.000119856
-0.000199678
-0.000119855
0
0
0
0
0
0
0
0
0
0
0
0
0
0
0
0
0
0
)
;
    }
    primary_air
    {
        type            calculated;
        value           nonuniform List<scalar> 9(-0.00320721 -0.00533097 -0.0032071 -0.00320618 -0.00533039 -0.00320602 -0.00320663 -0.00533178 -0.00320656);
    }
    Secondary_air_RHS
    {
        type            calculated;
        value           nonuniform List<scalar> 9(0.0106932 0.017404 0.0106972 0.0106425 0.0171967 0.0106473 0.0108125 0.0173636 0.0108174);
    }
    Secondary_air_LHS
    {
        type            calculated;
        value           nonuniform List<scalar> 9(0.0106895 0.017426 0.0106844 0.0106568 0.0172791 0.0106512 0.010842 0.0175178 0.0108369);
    }
    outlet
    {
        type            calculated;
        value           nonuniform List<scalar> 
18
(
-0.051228
0.0693797
-0.0512226
-0.0512851
0.06996
-0.0512789
-0.0512908
0.0701359
-0.0512841
-0.0512493
0.0701691
-0.0512436
-0.0512444
0.0699508
-0.0512378
-0.051187
0.0693976
-0.051182
)
;
    }
    stove_body
    {
        type            calculated;
        value           uniform 0;
    }
    frontAndBack
    {
        type            empty;
        value           nonuniform 0();
    }
}


// ************************************************************************* //
