/*--------------------------------*- C++ -*----------------------------------*\
  =========                 |
  \\      /  F ield         | OpenFOAM: The Open Source CFD Toolbox
   \\    /   O peration     | Website:  https://openfoam.org
    \\  /    A nd           | Version:  6
     \\/     M anipulation  |
\*---------------------------------------------------------------------------*/
FoamFile
{
    version     2.0;
    format      ascii;
    class       volScalarField;
    location    "1";
    object      Qdot;
}
// * * * * * * * * * * * * * * * * * * * * * * * * * * * * * * * * * * * * * //

dimensions      [1 -1 -3 0 0 0 0];

internalField   nonuniform List<scalar> 
297
(
-0.000156956
0
-0.000156956
-0.000520918
0
0
-0.000103503
0
-0.000156956
-0.000260459
-0.000156956
-0.000103503
-0.000313912
-0.000313912
0
0
0
-0.000156956
-5.17514e-05
-0.000156956
7.55631e-10
3.02252e-09
0
3.02252e-09
-0.000208708
-0.000156956
-0.000156955
0
0
0
1.51126e-09
0
0
-2.77686e-11
-1.11074e-10
7.27862e-10
0
-3.47108e-12
3.77815e-10
0
1.51126e-09
7.27862e-10
3.77815e-10
-3.47108e-12
0
3.77815e-10
0
0
-1.38843e-11
1.48349e-09
0
0
-3.47108e-12
0
7.54763e-10
0
0
7.55631e-10
1.50953e-09
7.55631e-10
7.54763e-10
7.5216e-10
0
1.51126e-09
0
7.55631e-10
0
3.02252e-09
7.55631e-10
1.51126e-09
1.51126e-09
-2.64822e-17
3.02252e-09
-3.23269e-21
0
-5.05108e-23
-8.08173e-22
-2.02043e-22
0
0
0
0
-3.47108e-12
0
7.55631e-10
0
7.55631e-10
0
3.77815e-10
3.77815e-10
0
0
0
0
-1.73554e-12
7.55631e-10
0
-3.47108e-12
3.77815e-10
0
0
3.77815e-10
0
-1.73554e-12
3.77815e-10
0
3.74344e-10
3.77815e-10
0
3.02252e-09
0
-1.54147e-27
-2.46635e-26
0
0
3.02252e-09
0
0
3.02252e-09
-3.01068e-30
0
0
0
0
0
0
-2.94012e-33
-2.40854e-29
0
0
0
0
0
0
3.02252e-09
0
3.02252e-09
0
0
0
0
0
3.02252e-09
0
-9.18786e-35
0
-1.71137e-43
6.04505e-09
0
-1.09528e-41
-9.18786e-35
0
3.02252e-09
0
0
3.02252e-09
6.04505e-09
0
6.04505e-09
-1.14848e-35
3.02252e-09
0
-8.76223e-41
0
0
6.04505e-09
0
6.04505e-09
-1.75245e-40
0
-3.76335e-31
0
0
3.02252e-09
6.04505e-09
6.04505e-09
0
0
0
0
0
3.02252e-09
3.02252e-09
0
-1.40196e-39
0
0
0
3.02252e-09
0
-1.63209e-49
-2.67402e-45
0
0
0
-7.9692e-53
-6.52837e-49
0
3.02252e-09
3.02252e-09
3.02252e-09
0
6.04505e-09
0
0
0
0
0
0
-6.52837e-49
0
0
0
-3.89121e-56
-1.9923e-53
3.02252e-09
-4.86401e-57
0
-2.49037e-54
0
0
-1.02006e-50
0
0
3.02252e-09
3.02252e-09
0
0
0
3.02252e-09
0
-1.52e-58
0
0
-1.90001e-59
3.02252e-09
-1.94561e-56
3.02252e-09
3.02252e-09
-5.10029e-51
3.02252e-09
3.02252e-09
-1.94561e-56
0
3.02252e-09
-3.9846e-53
0
-1.63209e-49
-7.9692e-53
0
3.02252e-09
3.02252e-09
0
3.02252e-09
-3.89121e-56
-1.67126e-46
6.04505e-09
-6.22594e-55
3.02252e-09
0
3.02252e-09
3.02252e-09
-7.9692e-53
0
0
-1.27507e-51
6.04505e-09
0
0
0
-9.9615e-54
0
3.02252e-09
6.04505e-09
0
6.04505e-09
0
3.02252e-09
0
0
0
0
3.02252e-09
0
0
-1.55648e-55
-9.72803e-57
3.02252e-09
-1.94561e-56
0
0
0
0
3.02252e-09
3.02252e-09
-2.43201e-57
-7.60002e-59
)
;

boundaryField
{
    fuel
    {
        type            calculated;
        value           uniform 0;
    }
    primary_air
    {
        type            calculated;
        value           uniform 0;
    }
    Secondary_air_RHS
    {
        type            calculated;
        value           uniform 0;
    }
    Secondary_air_LHS
    {
        type            calculated;
        value           uniform 0;
    }
    outlet
    {
        type            calculated;
        value           uniform 0;
    }
    stove_body
    {
        type            calculated;
        value           uniform 0;
    }
    frontAndBack
    {
        type            empty;
    }
}


// ************************************************************************* //
