/*--------------------------------*- C++ -*----------------------------------*\
  =========                 |
  \\      /  F ield         | OpenFOAM: The Open Source CFD Toolbox
   \\    /   O peration     | Website:  https://openfoam.org
    \\  /    A nd           | Version:  6
     \\/     M anipulation  |
\*---------------------------------------------------------------------------*/
FoamFile
{
    version     2.0;
    format      ascii;
    class       volScalarField;
    location    "1";
    object      T;
}
// * * * * * * * * * * * * * * * * * * * * * * * * * * * * * * * * * * * * * //

dimensions      [0 0 0 1 0 0 0];

internalField   nonuniform List<scalar> 
297
(
292.811
292.811
292.811
292.895
292.889
292.895
292.811
292.811
292.811
292.822
292.804
292.818
293.659
293.141
293.681
292.818
292.804
292.821
291.762
292.454
291.832
391.656
313.69
395.285
291.765
292.454
291.836
1300.66
819.592
1354.74
647.378
655.661
605.469
1301.37
817.132
1351.42
1807.64
1846
2221.37
1478.17
650.186
1765.61
1808.35
1848.44
2230.4
1812.11
1788.87
2224.27
1333.22
880.628
1530.41
1812.36
1783.52
2232.84
1204.96
1086.59
1428.35
1966
923.999
2315.7
1205.51
1087.81
1428.69
551.203
442.339
832.767
1115.91
620.438
1413.44
549.01
441.92
832.762
301.853
302.032
301.892
302.08
302.015
302.113
301.915
302.049
301.935
1770.09
1761.61
2170.71
1469.8
925.247
1696.83
1766.76
1756.41
2181.89
1521.33
1756.5
1720.21
1564.17
922.9
1927.24
1521.37
1751.28
1725.2
1344.49
1747.78
1602.44
1920.67
922.616
2256.74
1344.82
1742.65
1606.7
301.55
302.193
301.603
301.956
302.24
301.959
301.64
302.205
301.658
301.921
302.064
301.944
302.176
302.233
302.192
301.946
302.101
301.976
302.077
302.033
302.088
302.374
302.267
302.412
302.09
302.042
302.101
301.493
301.541
301.659
301.832
301.849
301.944
301.542
301.582
301.709
301.957
301.849
301.887
302.105
302.097
302.157
301.989
301.879
301.921
302.195
302.124
301.98
302.434
302.418
302.398
302.201
302.138
301.994
301.639
301.51
301.462
301.949
301.849
301.83
301.707
301.588
301.541
301.885
301.843
301.949
302.133
302.078
302.084
301.91
301.865
301.971
301.976
302.121
302.181
302.355
302.376
302.394
301.977
302.113
302.182
301.981
301.956
301.754
302.338
302.285
302.1
302.13
302.108
301.859
302.007
301.975
301.805
302.454
302.385
302.258
302.067
302.044
301.855
301.937
301.841
301.779
302.522
302.425
302.397
301.952
301.873
301.8
301.82
301.682
301.65
302.734
302.4
302.616
301.827
301.702
301.675
298.877
298.765
298.941
300.312
300.757
301.568
298.879
298.767
298.91
292.105
292.12
292.154
289.144
289.451
289.483
292.11
292.125
292.159
301.792
302.023
302.017
302.088
302.263
302.32
301.846
302.078
302.09
301.818
301.989
301.957
302.286
302.413
302.489
301.845
302.022
302.047
301.797
301.847
301.855
302.44
302.465
302.577
301.801
301.862
301.969
301.691
301.718
301.746
302.657
302.441
302.832
301.679
301.719
301.866
298.936
298.783
298.886
301.659
301.28
300.365
298.945
298.767
298.901
292.163
292.132
292.114
289.458
289.141
289.182
292.161
292.13
292.111
)
;

boundaryField
{
    fuel
    {
        type            fixedValue;
        value           uniform 293;
    }
    primary_air
    {
        type            fixedValue;
        value           uniform 293;
    }
    Secondary_air_RHS
    {
        type            fixedValue;
        value           uniform 293;
    }
    Secondary_air_LHS
    {
        type            fixedValue;
        value           uniform 293;
    }
    outlet
    {
        type            inletOutlet;
        inletValue      uniform 293;
        value           nonuniform List<scalar> 
18
(
293
289.458
293
293
289.141
293
293
289.182
293
293
289.144
293
293
289.451
293
293
289.481
293
)
;
    }
    stove_body
    {
        type            fixedValue;
        value           uniform 293;
    }
    frontAndBack
    {
        type            empty;
    }
}


// ************************************************************************* //
