/*--------------------------------*- C++ -*----------------------------------*\
  =========                 |
  \\      /  F ield         | OpenFOAM: The Open Source CFD Toolbox
   \\    /   O peration     | Website:  https://openfoam.org
    \\  /    A nd           | Version:  6
     \\/     M anipulation  |
\*---------------------------------------------------------------------------*/
FoamFile
{
    version     2.0;
    format      ascii;
    class       volVectorField;
    location    "1";
    object      U;
}
// * * * * * * * * * * * * * * * * * * * * * * * * * * * * * * * * * * * * * //

dimensions      [0 1 -1 0 0 0 0];

internalField   nonuniform List<vector> 
297
(
(17.2854 -0.0410282 0.24099)
(17.284 -0.0449524 0.275805)
(17.2842 -0.00320055 0.247884)
(-1.82797e-06 0.0151456 0.256159)
(-1.50655e-05 0.000147671 0.247385)
(-2.84299e-05 -0.0149702 0.256496)
(-17.2842 0.00441204 0.248489)
(-17.284 0.0471179 0.275858)
(-17.2854 0.0425182 0.240705)
(17.2858 -0.0535893 0.265955)
(17.2834 -0.0419037 0.292602)
(17.2841 0.0113238 0.285905)
(-2.08891e-07 0.0615245 0.2071)
(-1.51005e-05 0.00203826 0.110655)
(-3.0168e-05 -0.0594936 0.210991)
(-17.2842 -0.0107093 0.286723)
(-17.2834 0.0443215 0.292671)
(-17.2858 0.0545028 0.265493)
(15.6314 -0.134521 0.392276)
(17.2645 -0.0371749 0.484685)
(15.7719 0.100288 0.405895)
(-4.79939e-06 0.102244 0.045429)
(-1.31083e-05 0.006625 0.164244)
(-2.23036e-05 -0.11418 0.0405557)
(-15.6468 -0.102173 0.406546)
(-17.2646 0.0341813 0.484817)
(-15.7675 0.132898 0.392021)
(50.2142 7.67547 12.6088)
(31.3679 3.06644 17.3787)
(52.1482 -7.75091 15.8112)
(-0.000190093 2.26191 13.6865)
(-0.000278651 0.801255 7.64184)
(-0.000114013 -2.92703 14.7069)
(-50.2433 7.76781 12.4621)
(-31.2753 3.31006 17.3187)
(-52.0153 -7.65327 16.19)
(70.3351 7.29851 20.0224)
(72.0679 6.84908 95.6669)
(86.4032 -11.7617 43.2758)
(0.00160442 33.909 150.081)
(0.000777519 0.0658059 88.5009)
(-4.56455e-05 -41.8828 166.274)
(-70.3571 7.60698 20.2853)
(-72.1543 6.01117 95.8381)
(-86.7572 -11.5391 43.3797)
(68.9889 -16.7615 -44.8969)
(70.1817 -4.11712 132.869)
(84.5015 29.9913 -36.8516)
(0.00150669 -36.8772 198.881)
(0.000574365 1.70377 -18.8712)
(-0.000205697 39.5122 217.578)
(-68.9919 -17.3023 -44.4926)
(-69.9657 -3.25052 132.932)
(-84.8292 29.5939 -36.9439)
(47.3834 -32.4634 -165.669)
(41.5987 -3.70102 -22.5422)
(56.1714 40.5738 -181.14)
(-0.0023361 -20.3909 -6.27855)
(-0.000695937 0.556948 -121.637)
(0.000798547 32.3602 3.15717)
(-47.409 -32.5221 -165.64)
(-41.6464 -3.90692 -22.1948)
(-56.182 40.5715 -181.016)
(21.5476 41.1301 -99.7953)
(17.234 -10.0918 -76.6933)
(32.5364 -36.6605 -118.94)
(0.000170409 12.2258 -98.9539)
(2.00408e-05 8.34402 -90.5759)
(7.26576e-05 -5.1351 -113.092)
(-21.4617 41.0059 -99.6939)
(-17.2179 -10.0439 -76.5989)
(-32.5363 -36.6718 -118.81)
(11.8021 23.809 -20.8458)
(11.8012 -7.55268 -15.9533)
(11.8032 -23.3236 -21.5712)
(8.50331e-05 19.5971 -18.9297)
(0.000112434 3.56439 -18.9195)
(0.00011136 -16.2404 -18.2539)
(-11.8042 23.6899 -20.9531)
(-11.802 -7.51884 -16.0266)
(-11.8047 -23.3498 -21.5697)
(61.2026 -12.5639 -346.647)
(66.5002 -4.4552 175.366)
(74.5011 27.9436 -378.894)
(-0.00614901 -31.8069 283.843)
(0.000148227 5.49779 -149.558)
(0.00563377 36.9054 313.682)
(-61.1004 -12.9979 -346.696)
(-66.3081 -4.3827 175.459)
(-74.8714 27.657 -379.443)
(56.7544 -22.7265 -294.004)
(60.0892 -4.39422 171.836)
(64.4872 34.4116 -313.588)
(-0.00726602 -34.7715 317.306)
(6.72472e-05 5.18748 -155.089)
(0.00769913 38.4433 348.077)
(-56.7505 -22.9181 -294.517)
(-59.9064 -4.39568 171.942)
(-64.6912 34.3006 -313.317)
(52.0639 -20.6041 -258.378)
(60.8351 -3.60884 161.942)
(61.802 32.6226 -278.086)
(-0.00741476 -27.5414 345.514)
(-1.92933e-05 4.89241 -156.294)
(0.00828309 36.0419 393.208)
(-52.0938 -20.841 -258.622)
(-60.6504 -3.78902 162.087)
(-61.9606 32.4755 -277.976)
(11.7331 38.9098 -10.6512)
(11.7745 2.60876 -11.0495)
(11.7351 -38.5913 -11.062)
(0.000138775 28.8072 -11.4263)
(0.000185063 -1.86859 -11.3863)
(0.000118261 -29.0885 -11.1021)
(-11.7362 38.6746 -10.8262)
(-11.7767 2.30825 -11.0563)
(-11.7367 -39.101 -10.8994)
(11.7923 23.2109 -3.97293)
(11.8122 -1.17108 -1.47837)
(11.7933 -23.2228 -4.02979)
(0.000149325 17.6737 -5.32756)
(0.000249895 1.12316 -5.60389)
(9.765e-05 -17.9499 -5.29856)
(-11.7927 23.1924 -3.99254)
(-11.8131 -1.24388 -1.5106)
(-11.7944 -23.3512 -3.93841)
(11.8154 -0.83254 -4.76802)
(11.8175 0.125189 0.999161)
(11.8156 1.38119 -4.90539)
(0.000144901 6.96707 -2.71869)
(0.000255352 -1.54506 -2.09831)
(6.61323e-05 -7.31135 -2.49326)
(-11.8153 -0.704335 -4.81274)
(-11.8171 0.150709 1.02993)
(-11.8161 1.41154 -4.93021)
(11.7281 -41.0325 -4.63235)
(11.7773 -37.1716 -6.97252)
(11.7604 -32.4894 -9.39221)
(-0.000170868 -32.4873 -3.95287)
(-7.50733e-05 -30.4424 -3.82455)
(0.000233521 -25.6298 -4.11171)
(-11.7297 -41.6549 -4.487)
(-11.7792 -37.6402 -6.90822)
(-11.7617 -31.8743 -9.58959)
(11.7713 -31.2983 -2.30473)
(11.8007 -32.6729 -7.91299)
(11.7502 -28.5046 -14.6012)
(-0.000177774 -26.8222 -0.302125)
(-0.000210828 -26.9113 0.929965)
(-5.48922e-05 -22.4373 2.01022)
(-11.7732 -31.4192 -2.35489)
(-11.8026 -32.771 -8.22782)
(-11.747 -28.1878 -15.0976)
(11.8235 -6.7073 -4.53465)
(11.8215 -18.2895 -12.9228)
(11.7546 -24.6355 -20.8076)
(-0.00018575 -14.9229 2.65158)
(-0.000276852 -15.7592 3.88858)
(-0.000465943 -16.7227 3.84359)
(-11.8242 -6.66685 -4.58604)
(-11.8238 -18.0876 -12.7871)
(-11.7564 -24.6026 -21.2765)
(11.759 31.5318 -9.56449)
(11.7758 36.909 -6.99848)
(11.7268 41.2339 -4.56408)
(-0.000312083 25.472 -4.09753)
(-0.000317688 30.2531 -3.85281)
(-5.83701e-05 32.3597 -3.98578)
(-11.7623 32.5344 -9.27267)
(-11.7796 37.5038 -6.85685)
(-11.73 41.1651 -4.57197)
(11.7456 28.0721 -14.9228)
(11.8005 32.5453 -8.16366)
(11.7712 31.2739 -2.4202)
(-0.000203753 22.2826 2.08176)
(-0.000215446 26.7691 1.02104)
(-6.49708e-05 26.7231 -0.284593)
(-11.751 28.5148 -14.6306)
(-11.8018 32.764 -7.9275)
(-11.7722 31.3589 -2.24215)
(11.7547 24.4329 -21.0914)
(11.8216 17.8283 -12.6339)
(11.8228 6.64731 -4.40574)
(-0.00012606 16.6024 3.75485)
(-0.000261053 15.6916 3.78598)
(-0.000133782 14.8131 2.58754)
(-11.7555 24.6861 -20.7961)
(-11.8221 18.4138 -12.9693)
(-11.8232 6.86344 -4.53826)
(11.7305 9.50939 -16.1108)
(11.7305 14.3869 -11.6697)
(11.7447 22.9006 -13.4937)
(0.000604374 8.67847 -7.83792)
(0.000807978 12.6353 -4.26723)
(0.000345182 19.0706 -5.00898)
(-11.7343 10.4499 -15.8987)
(-11.7324 15.0064 -11.459)
(-11.7467 23.1689 -13.0968)
(11.7389 3.42377 -22.7458)
(11.7444 12.9713 -17.9874)
(11.7366 23.5233 -22.403)
(-4.53055e-05 6.18349 -5.66267)
(0.000272881 9.98463 -1.85865)
(9.12584e-05 17.9356 -1.70891)
(-11.7407 5.6024 -24.5077)
(-11.7451 13.3322 -19.0841)
(-11.7425 23.584 -22.6768)
(11.7987 2.46674 -27.8458)
(11.7515 15.0786 -27.0017)
(11.7442 15.2084 -32.6894)
(-0.000415468 5.10913 -9.14541)
(-0.000230929 10.7223 -5.90227)
(-0.000101212 14.6798 0.597598)
(-11.798 4.19786 -29.8287)
(-11.7503 14.8866 -28.0616)
(-11.7444 15.5414 -32.3016)
(11.7824 -2.07687 -46.1371)
(11.7731 -3.37494 -46.6083)
(11.7771 -9.84038 -50.3557)
(0.000946886 -2.50725 15.7437)
(0.000593878 2.31409 20.888)
(0.000435643 -9.03676 18.9391)
(-11.7748 -3.38002 -46.0999)
(-11.767 -3.00325 -46.0629)
(-11.7767 -9.79063 -50.5128)
(11.6231 0.959206 -113.414)
(11.6164 -0.698049 -115.562)
(11.6201 4.45042 -112.392)
(1.78957e-05 -0.830245 61.334)
(9.76025e-05 0.686381 63.2617)
(6.21028e-05 -1.43639 60.1557)
(-11.6231 0.999581 -113.02)
(-11.6161 -0.637187 -115.623)
(-11.6186 4.44619 -112.563)
(11.1264 -0.0101602 -150.75)
(11.1268 -0.0657416 -150.73)
(11.1281 -0.0844284 -150.506)
(0.000153591 -0.315259 179.614)
(0.000129043 0.265755 179.242)
(0.000114755 -0.458937 177.836)
(-11.1262 0.00380705 -150.728)
(-11.1266 -0.044608 -150.705)
(-11.128 -0.0756671 -150.487)
(11.7439 -23.1358 -13.2457)
(11.7291 -14.7234 -11.5072)
(11.7302 -10.0995 -15.8326)
(-0.000173239 -19.1614 -5.09703)
(-0.000711786 -12.6369 -4.33273)
(-0.00061921 -8.85322 -7.86018)
(-11.7477 -22.962 -13.6104)
(-11.7346 -14.7024 -11.8156)
(-11.7339 -9.91715 -16.3574)
(11.7405 -23.5891 -22.5155)
(11.741 -13.0716 -18.6714)
(11.7364 -5.33081 -23.9177)
(-0.00018324 -18.0538 -1.79238)
(-0.000524946 -10.0425 -1.96635)
(-0.000154142 -6.20535 -5.74045)
(-11.7377 -23.4761 -22.7627)
(-11.7464 -12.9929 -18.3686)
(-11.7404 -3.64313 -23.2106)
(11.7437 -15.5316 -32.2208)
(11.7465 -14.8473 -27.795)
(11.7936 -4.65205 -29.7258)
(-0.00011978 -14.8262 0.49809)
(-2.38027e-05 -10.8053 -6.07383)
(0.00039669 -5.07256 -9.19311)
(-11.7446 -15.1785 -33.0148)
(-11.7544 -15.17 -27.1861)
(-11.8011 -2.00695 -27.7809)
(11.7787 9.91872 -50.6201)
(11.7748 3.38105 -46.3518)
(11.7796 2.92584 -46.8771)
(0.000232529 8.96469 18.7984)
(0.000308433 -2.30384 20.9728)
(-2.09058e-05 2.55296 15.7169)
(-11.778 9.89613 -50.8053)
(-11.7748 3.07612 -46.7101)
(-11.7844 2.66717 -45.7878)
(11.6204 -4.42143 -112.825)
(11.6176 0.545516 -115.852)
(11.6242 -0.792999 -113.394)
(0.000261366 1.43248 60.1849)
(0.00028566 -0.67893 63.4268)
(0.000331427 0.841541 61.4683)
(-11.6201 -4.4813 -112.519)
(-11.6162 0.782006 -115.808)
(-11.6239 -1.22253 -113.491)
(11.1282 0.0764721 -150.663)
(11.127 0.0482207 -150.886)
(11.1265 -0.0020401 -150.909)
(7.01831e-05 0.447832 177.777)
(5.19422e-05 -0.28004 179.075)
(3.17317e-05 0.312719 179.554)
(-11.128 0.0846047 -150.642)
(-11.1268 0.0613225 -150.862)
(-11.1263 0.00686727 -150.882)
)
;

boundaryField
{
    fuel
    {
        type            fixedValue;
        value           uniform (0 0 0.25);
    }
    primary_air
    {
        type            fixedValue;
        value           uniform (0 0 2.5);
    }
    Secondary_air_RHS
    {
        type            fixedValue;
        value           uniform (0 100 0);
    }
    Secondary_air_LHS
    {
        type            fixedValue;
        value           uniform (0 -100 0);
    }
    outlet
    {
        type            pressureInletOutletVelocity;
        value           nonuniform List<vector> 
18
(
(0 0 -150.663)
(7.01831e-05 0.447832 177.777)
(0 0 -150.642)
(0 0 -150.886)
(5.19422e-05 -0.28004 179.075)
(0 0 -150.862)
(0 0 -150.909)
(3.17317e-05 0.312719 179.554)
(0 0 -150.882)
(0 0 -150.75)
(0.000153591 -0.315259 179.614)
(0 0 -150.728)
(0 0 -150.73)
(0.000129043 0.265755 179.242)
(0 0 -150.705)
(0 0 -150.506)
(0.000114755 -0.458937 177.836)
(0 0 -150.487)
)
;
    }
    stove_body
    {
        type            noSlip;
    }
    frontAndBack
    {
        type            empty;
    }
}


// ************************************************************************* //
