/*--------------------------------*- C++ -*----------------------------------*\
  =========                 |
  \\      /  F ield         | OpenFOAM: The Open Source CFD Toolbox
   \\    /   O peration     | Website:  https://openfoam.org
    \\  /    A nd           | Version:  6
     \\/     M anipulation  |
\*---------------------------------------------------------------------------*/
FoamFile
{
    version     2.0;
    format      ascii;
    class       volScalarField;
    location    "2";
    object      O2;
}
// * * * * * * * * * * * * * * * * * * * * * * * * * * * * * * * * * * * * * //

dimensions      [0 0 0 0 0 0 0];

internalField   nonuniform List<scalar> 
297
(
0
0
0
0
0
0
0
0
0
0
0
0
0
0
0
0
0
0
0
0
0
0
0
0
0
0
0
0.0424628
0.0536117
0.103543
0.0173461
0.026361
0.0792512
0.0421906
0.0535777
0.105576
0
0.00587045
0.0584688
0
0.000303287
0.046424
0
0.005286
0.0553486
0
0.000679134
0.0413961
0
0.00024269
0.0415681
0
0.000911163
0.0379883
0
0
0
1.00285e-05
3.38545e-05
0
5.87373e-07
0
0
0
0
0
0
0
0
0
0
0
0
0
0
0
0
0
0
0
0
0
0.000271353
0.0067825
0
0.000242847
0.0231041
0
4.77727e-06
0.00380002
0
2.47977e-06
0
0
0.000242562
0.001788
0
2.3486e-06
0
0
8.11181e-07
0
0
0.000240829
0
0
1.97961e-06
0
0
0
0
0
0
0
0
0
0
0
0
0
0
0
0
0
0
0
0
0
0
0
0
0
0
0
0
0
0
1.28526e-28
2.1146e-20
1.10648e-24
4.06576e-29
0
0
1.08716e-29
0
4.99781e-25
1.3352e-29
6.6248e-22
1.45305e-25
6.99624e-30
7.28756e-21
1.15861e-24
4.31086e-29
1.14734e-21
1.32952e-25
5.75171e-30
1.3497e-22
1.23294e-26
4.08875e-30
0
1.29717e-27
5.78516e-31
7.58022e-29
3.19648e-28
1.01854e-25
1.09423e-27
4.31095e-28
7.46568e-26
1.52785e-26
1.40802e-26
0
4.76661e-28
4.15629e-27
4.11892e-27
2.18837e-26
4.69245e-26
4.88066e-26
1.86333e-26
1.62477e-26
1.10633e-26
1.1718e-28
3.23921e-27
5.1583e-27
1.86846e-25
2.39224e-25
1.64383e-25
1.04877e-25
5.35732e-26
2.14259e-26
3.78649e-31
4.36722e-31
7.57189e-31
5.43093e-27
4.02826e-27
3.32831e-27
1.39142e-26
1.80537e-26
1.74577e-26
3.60189e-31
4.47859e-31
9.35208e-31
5.47902e-27
3.69503e-27
3.78209e-27
1.43272e-26
2.19728e-26
2.08197e-26
5.93239e-31
3.99034e-31
1.17518e-30
1.58501e-26
5.10204e-26
1.28137e-25
1.51531e-26
2.58813e-26
1.37909e-25
1.75071e-31
3.2677e-31
9.11932e-31
1.22187e-26
4.05613e-26
7.42925e-26
1.60591e-26
6.06279e-26
1.40241e-25
6.43033e-32
2.63171e-31
1.06163e-30
5.51806e-27
2.8246e-26
6.06337e-26
1.81931e-26
1.17631e-25
1.93653e-25
2.20379e-32
1.76989e-31
4.7512e-31
5.98652e-27
4.60805e-26
1.20295e-25
1.12497e-26
8.87595e-26
2.59083e-25
1.00777e-32
9.89046e-37
2.71095e-37
2.78268e-33
5.59719e-36
1.88185e-35
2.92816e-33
2.18985e-36
2.65475e-35
4.0907e-34
1.45502e-38
2.81491e-38
5.10228e-34
9.92306e-38
1.74336e-35
9.15444e-34
2.55948e-38
8.72772e-36
1.38466e-34
2.27034e-39
2.38426e-39
2.82232e-34
2.09237e-38
1.21981e-35
1.29288e-35
3.56964e-40
2.41015e-39
6.13732e-40
7.20257e-41
3.28309e-40
6.28291e-39
1.84407e-39
4.2154e-36
1.4356e-40
9.5893e-41
2.73356e-40
6.93578e-43
6.97835e-42
2.08913e-41
3.67365e-38
4.61438e-37
2.76964e-36
6.60888e-43
5.39333e-42
2.39132e-41
9.23148e-44
9.30473e-43
4.3744e-42
2.69262e-38
2.65411e-37
1.28342e-36
1.60634e-43
1.63623e-42
7.53704e-42
)
;

boundaryField
{
    fuel
    {
        type            fixedValue;
        value           uniform 0;
    }
    primary_air
    {
        type            fixedValue;
        value           uniform 0.23;
    }
    Secondary_air_RHS
    {
        type            fixedValue;
        value           uniform 0.23;
    }
    Secondary_air_LHS
    {
        type            fixedValue;
        value           uniform 0.23;
    }
    outlet
    {
        type            inletOutlet;
        inletValue      uniform 0;
        value           nonuniform List<scalar> 
18
(
0
2.69262e-38
0
0
2.65411e-37
0
0
1.28342e-36
0
0
5.98652e-27
0
0
4.60805e-26
0
0
1.20295e-25
0
)
;
    }
    stove_body
    {
        type            fixedValue;
        value           uniform 0;
    }
    frontAndBack
    {
        type            empty;
    }
}


// ************************************************************************* //
