/*--------------------------------*- C++ -*----------------------------------*\
  =========                 |
  \\      /  F ield         | OpenFOAM: The Open Source CFD Toolbox
   \\    /   O peration     | Website:  https://openfoam.org
    \\  /    A nd           | Version:  6
     \\/     M anipulation  |
\*---------------------------------------------------------------------------*/
FoamFile
{
    version     2.0;
    format      ascii;
    class       surfaceScalarField;
    location    "2";
    object      phi;
}
// * * * * * * * * * * * * * * * * * * * * * * * * * * * * * * * * * * * * * //

dimensions      [1 0 -1 0 0 0 0];

internalField   nonuniform List<scalar> 
675
(
-8.11094e-08
-4.98019e-05
0.000147011
-1.23311e-07
-4.98678e-05
0.000147868
-4.97897e-05
0.000146903
-4.02986e-06
4.98019e-05
0.000180013
4.15425e-06
4.98678e-05
0.000164704
4.97895e-05
0.000180292
-8.11717e-08
0.000147011
-1.23213e-07
0.000147868
0.000146903
5.40865e-08
-5.31012e-05
0.000169067
-3.1412e-07
-5.36022e-05
0.000171213
-5.27817e-05
0.000168475
-7.17942e-06
5.31012e-05
0.000138705
6.9032e-06
5.36023e-05
0.000100942
5.27815e-05
0.000139313
5.40852e-08
0.000169067
-3.14044e-07
0.000171212
0.000168475
-4.44949e-06
1.42706e-05
3.10004e-06
3.60062e-06
1.23991e-05
1.41458e-05
-1.42706e-05
-1.03788e-05
-3.60046e-06
-1.23991e-05
-4.44941e-06
3.10018e-06
0.0253142
-0.0174952
-0.00333292
0.0270493
-0.00853274
0.00975418
0.000949721
0.0276914
0.0351509
0.0177361
-0.0662036
0.0387081
0.00838898
-0.0164469
-0.00224122
0.0508816
0.0254063
-0.00452804
0.0257518
0.00898415
0.0271147
0.0261111
-0.0125592
-0.0162991
0.0208585
0.000151516
0.0162077
0.00958681
0.0390179
0.0383422
0.00994835
-0.127423
0.0291693
-0.00259656
-0.000662747
-0.00993515
0.0976127
0.0288691
-0.0206952
0.0246407
0.0147977
0.0370341
0.0154267
0.00675104
-0.0459395
0.0324561
0.0107786
-0.0159303
0.0124059
0.059675
0.0347203
-0.00838959
-0.151671
0.0192866
-0.0119108
0.0379227
-0.0126674
0.147687
0.0186468
-0.0420819
0.0357322
-0.0126459
0.0590925
-0.0135194
0.0265134
-0.0666716
0.0723277
-0.0184017
-0.00947028
-0.00992301
0.0257075
-0.00399585
0.0439246
-0.0613959
-0.03861
-0.0210943
-0.0617172
0.148395
-0.0315886
0.00948715
-0.0105359
-0.0189083
0.0024074
0.0531054
-0.0905829
-0.0175787
-0.0749247
0.0686011
-0.0230271
-0.0160578
0.0231142
0.0431312
-0.0628641
-0.0243059
-0.0207953
-0.031848
-0.0223492
-0.00934198
-0.00638141
0.000771293
0.020014
-0.0421637
0.0218472
-0.0513327
-0.0410299
0.00624918
-0.022346
-0.00210837
0.0188588
-0.0225738
-0.0340195
-0.023771
-0.00875837
0.0188472
-0.0146814
0.000841351
-0.0160629
-0.014185
-0.00222041
-0.00312799
0.00390938
0.00270828
-0.0244141
0.000884682
-0.0285607
-0.0334653
-0.00057524
-0.0162607
-0.00375855
-0.00772738
-0.0107049
-0.0208879
-0.013495
-0.00774328
0.000772848
-0.00181385
0.000621954
-0.0507769
0.00281546
0.000180819
-0.0204668
-0.0137019
0.0698191
-0.00117548
-0.000149069
-0.160188
0.00470448
6.15996e-05
0.0319276
0.0147482
0.113681
-0.00200755
-0.0474609
0.00254824
-0.0174483
0.0707021
-0.00187495
0.00102192
-0.0557406
0.00058731
8.36005e-05
-0.0227319
-0.00208811
0.0661794
-0.00167319
-0.000304804
-0.167959
0.00232453
0.000108701
0.0277204
0.00219235
0.101571
-0.00221272
-0.0533904
0.000359188
-0.0202234
0.0675569
-0.00248448
0.013663
0.000429052
0.000344972
-0.00108611
-0.00764225
-0.00923975
0.00128171
0.000123056
0.00106645
-0.00270948
2.61891e-05
-0.00393959
-0.000719089
-0.00369458
-0.00745557
-0.00760748
0.000141939
0.000643299
0.000110538
0.0060827
-0.0105863
-0.0124345
0.000310395
-0.01317
-0.00415236
-0.01691
-0.00112139
-0.0107605
-9.08752e-05
-0.00720399
-0.0175604
-0.00148446
-0.00542512
-0.0137609
-0.0105427
0.000132975
0.00192345
-0.0122472
-0.00918509
0.00120391
-0.00214354
0.00624109
-0.00995889
0.000452271
0.000843654
0.000260097
0.00505048
-0.00931464
-0.00760459
-0.00220561
-0.00604228
0.00401291
-0.0109331
-0.00180033
-0.00487802
-6.16865e-05
-0.00437793
-0.0132446
-0.00417154
0.00417348
-0.00796011
-0.00989182
0.00410653
0.00197652
-0.00993769
-0.00378463
0.00222528
-0.00115322
-0.00538519
0.00165357
0.000901626
-0.00228273
-0.00388691
-0.00313335
0.00360209
-0.00338402
-0.00293932
-0.00177991
-0.00443285
-0.00297671
0.0035489
-0.00167288
-0.00112117
-0.0113547
0.000331873
0.000549434
-0.0119976
0.00168078
-0.000882333
0.00158199
-0.00515654
-0.00830687
-0.0160213
-0.000196702
-0.000911819
-0.0133951
-0.00161978
0.000655153
-0.00155922
0.00142833
-0.0118411
-0.0120945
-0.00040184
-0.0125434
-0.00116898
-0.00547823
-0.00855322
-0.00956774
0.000268908
0.000454488
-0.00935516
0.00103789
-0.00209197
0.000119348
-0.00586366
-0.0087062
-0.0131591
-0.000121072
-0.000406702
-0.0104673
-0.000984152
7.67214e-06
-1.3997e-05
0.00190817
-0.0109502
-0.00997783
-0.000512317
-0.00969409
-0.00243894
-0.0062648
-0.00886433
-0.00230669
0.000202526
-0.00428102
-0.000193159
-0.0013664
-0.00877052
-0.00407248
-0.000261889
-0.00444419
0.000282678
0.00143243
-0.00544382
-0.00191109
-0.00406994
-0.00885938
0.00759913
0.00169979
-0.00218191
-0.00709027
0.00767742
0.000749888
-0.000815831
0.000140668
9.63722e-05
0.00449833
0.000855277
0.00137101
-0.00506813
0.00417161
0.000750327
0.000298383
0.000297729
-0.000124275
0.0147205
0.00085562
-0.014754
0.0143575
0.00108971
0.000866879
-0.000910981
0.00157266
0.00127635
-0.00412352
-0.00462618
0.000825412
0.00203605
0.00115893
0.000466661
-0.00450547
0.000705866
0.00593088
0.000810145
-0.00566008
-0.000139601
0.00242574
3.58353e-05
-0.000613264
0.00928849
0.00175464
-0.00949789
0.00903365
0.00118676
0.00192968
0.000622695
0.00141782
-0.000789838
0.00168549
0.000896329
0.000880079
-0.00688058
0.000969663
0.0132833
-0.00385506
0.000335786
8.63472e-05
-0.00702494
0.00974592
-0.00551316
-0.00281902
0.00237094
0.000422908
0.0028166
0.00205848
-0.0077059
0.00174758
-0.00601432
0.00353696
-0.00223935
0.00117889
0.00443678
-0.00092387
0.0021537
-0.000958661
0.00209436
0.00971282
-0.0119145
0.0151208
-0.00631269
-0.000600369
-0.00233564
0.00224542
0.000486072
0.00181503
0.00197101
-0.0138448
0.00161964
-0.00994927
0.00322414
-0.00193689
0.00224346
0.00230125
-0.000496164
0.00561675
-0.000504476
0.00735528
0.0077257
-0.0215316
0.0107508
-0.00980876
0.000151193
-0.00257372
0.00166829
0.00136635
0.00366291
0.00307232
-0.0231712
0.00131075
-0.00840379
-0.00245075
-0.00395682
0.0104155
-0.00777435
-0.000236106
0.0143188
0.000479798
0.0137294
0.00885435
-0.0342786
0.000395399
-0.00155859
0.0107807
0.00753722
0.0149044
-0.0210949
-0.00401806
0.0169349
-0.0286105
0.0165132
-0.0290097
-0.00816076
0.00167171
0.0320404
-0.00463971
0.00507053
0.0228598
0.00383063
0.0219471
0.00660788
-0.0393265
0.0156906
-0.00568747
0.0301883
0.00451534
0.00861447
-0.03436
0.00238832
0.00849563
-0.0351183
0.00856106
-0.0353262
0.00679591
-0.00123729
0.0352356
0.00946531
-0.00361838
0.0324558
-0.00107066
0.0412013
-0.00179504
-0.0389299
0.00555741
-0.0168012
0.0345188
0.000549608
0.0160357
0.000302783
0.016136
0.0159953
0.00176347
-0.0215181
0.00212437
-0.0232003
-0.0225409
-0.0117723
-0.0128262
-0.00255232
0.00147255
-0.00720595
0.00214176
0.00183234
-0.00654946
0.0016282
0.000469466
-0.00556119
-0.00161738
-0.00325288
0.00153255
-0.00185919
-0.00336357
-0.00167528
0.00495409
-0.00273797
-0.00739287
0.00214046
-0.00674768
0.0004137
-0.00514499
0.00103521
-0.0117963
0.000875002
0.00157364
-0.0141662
0.00163762
-0.000331544
-0.00622177
-0.00111994
-0.00588203
0.000134416
-0.00159852
-0.00650794
-0.00166366
0.00850407
-0.00516978
-0.0121804
0.000929323
-0.0144635
-0.000381072
-0.00763682
0.00162041
-0.0145548
0.00341073
0.00429069
-0.0295163
0.00145787
0.00159303
-0.00559149
-0.00166379
-0.00249499
0.000263979
-0.00438241
-0.00365043
-0.00146518
0.0117944
-0.00782375
-0.0148644
0.00342663
-0.0301203
0.00151629
0.00251428
0.0103093
-0.0275151
-0.0118827
0.0107515
-0.0259417
0.00846642
-0.0187611
0.00429896
-0.0102437
0.0138159
0.0022932
-0.0106968
0.0199586
-0.00831607
0.0311131
0.00257646
-0.0277321
-0.0120678
-0.0262628
-0.0189981
-0.00396506
0.00696553
-0.0306361
-0.00455723
0.0062581
-0.0317284
0.00684059
-0.0302811
-0.00427516
-0.00681582
0.0320518
-0.00688051
-0.00609545
0.0351117
-0.00668113
0.0379635
-0.00393868
-0.0307266
-0.00458692
-0.0318266
-0.0303808
0.00014988
0.0187691
-0.000609195
0.018619
0.0186231
-0.00316123
-0.018709
-0.00381852
-0.0185589
-0.0185628
0.000153906
-0.000606696
)
;

boundaryField
{
    fuel
    {
        type            calculated;
        value           nonuniform List<scalar> 
36
(
0.000128325
0.000213885
0.000128325
0.000128322
0.000213876
0.000128322
0.000128325
0.000213884
0.000128325
-0.000128325
-0.000213882
-0.000128325
-0.000128322
-0.000213872
-0.000128322
-0.000128325
-0.000213882
-0.000128325
0
0
0
0
0
0
0
0
0
0
0
0
0
0
0
0
0
0
)
;
    }
    primary_air
    {
        type            calculated;
        value           nonuniform List<scalar> 9(-0.00323749 -0.00536525 -0.00321919 -0.00322728 -0.00534574 -0.00322415 -0.0032012 -0.00530898 -0.00321386);
    }
    Secondary_air_RHS
    {
        type            calculated;
        value           nonuniform List<scalar> 9(0.00602129 0.0103368 0.00597184 0.00601557 0.0102512 0.00595916 0.00605179 0.0102372 0.00599386);
    }
    Secondary_air_LHS
    {
        type            calculated;
        value           nonuniform List<scalar> 9(0.00641063 0.00969082 0.00631263 0.00641976 0.00963676 0.00631782 0.00646134 0.00969634 0.00635537);
    }
    outlet
    {
        type            calculated;
        value           nonuniform List<scalar> 
18
(
-0.0496498
0.0728193
-0.0496868
-0.0496859
0.0730734
-0.0497234
-0.0496138
0.0714566
-0.04965
-0.0510346
0.0711287
-0.0487956
-0.0510962
0.0715564
-0.0390496
-0.0511065
0.0820091
-0.000941629
)
;
    }
    stove_body
    {
        type            calculated;
        value           uniform 0;
    }
    frontAndBack
    {
        type            empty;
        value           nonuniform 0();
    }
}


// ************************************************************************* //
