/*--------------------------------*- C++ -*----------------------------------*\
  =========                 |
  \\      /  F ield         | OpenFOAM: The Open Source CFD Toolbox
   \\    /   O peration     | Website:  https://openfoam.org
    \\  /    A nd           | Version:  6
     \\/     M anipulation  |
\*---------------------------------------------------------------------------*/
FoamFile
{
    version     2.0;
    format      ascii;
    class       volVectorField;
    location    "2";
    object      U;
}
// * * * * * * * * * * * * * * * * * * * * * * * * * * * * * * * * * * * * * //

dimensions      [0 1 -1 0 0 0 0];

internalField   nonuniform List<vector> 
297
(
(20.9303 -0.00712353 0.244114)
(20.9302 -0.000629981 0.241868)
(20.9303 0.00712942 0.243999)
(-4.81428e-09 0.00388379 0.255742)
(-4.8138e-09 0.000189861 0.248127)
(-4.4435e-09 -0.00371976 0.255519)
(-20.9303 -0.00712357 0.244114)
(-20.9302 -0.000629891 0.241867)
(-20.9303 0.00712954 0.243998)
(20.931 -0.008226 0.260948)
(20.9461 -0.00033925 0.265553)
(20.9309 0.00730382 0.260685)
(-4.89618e-09 0.0087138 0.188346)
(-4.77498e-09 0.000360268 0.217156)
(-4.58216e-09 -0.011444 0.193612)
(-20.931 -0.00822593 0.260949)
(-20.9461 -0.000339058 0.265553)
(-20.9309 0.00730399 0.260685)
(21.0034 -0.0609184 0.426344)
(21.1709 -0.00411913 0.430204)
(20.9939 0.0584539 0.425499)
(-4.51006e-09 -0.0523512 0.176325)
(-4.40667e-09 -0.00308148 -0.0730351)
(-4.34619e-09 0.0785314 0.164669)
(-21.0034 -0.0609186 0.426345)
(-21.1709 -0.00411846 0.430205)
(-20.9939 0.0584548 0.425501)
(44.7635 23.6117 -30.0425)
(42.0938 37.128 -14.3746)
(35.0499 48.3513 24.0446)
(-0.061272 5.28026 -86.229)
(-0.0101858 35.8589 -52.8444)
(0.0352362 50.3668 23.3711)
(-44.2094 23.7094 -30.5696)
(-42.2123 36.3118 -14.3778)
(-34.7662 46.9379 24.0889)
(56.2852 11.926 -4.65357)
(53.3183 59.1567 68.3994)
(40.4853 29.4058 97.4574)
(0.292563 -26.3098 -146.082)
(0.126327 55.0076 -21.8466)
(-0.127725 34.5732 91.6869)
(-50.9363 13.8713 -7.89306)
(-49.3222 61.8046 60.8503)
(-41.3144 32.4904 96.4059)
(59.3273 -33.8107 -34.5948)
(57.5421 40.6059 33.8169)
(48.9659 90.2927 209.714)
(-0.494556 -43.5592 -180.932)
(-0.28022 63.0471 32.1387)
(0.2165 62.8408 127.867)
(-51.1594 -20.6729 -34.2939)
(-52.5895 41.4804 23.1566)
(-45.4131 84.8014 201.37)
(45.6879 -49.0599 -131.783)
(58.6412 -75.9221 -51.7859)
(59.9956 60.2176 122.671)
(0.496673 -21.3221 -280.506)
(-0.107309 -70.1813 -40.9139)
(-0.149398 40.9898 110.377)
(-39.6845 -47.3201 -134.908)
(-56.8644 -84.1011 -59.8001)
(-57.5486 55.3541 113.711)
(42.2977 -39.9595 -112.425)
(59.5558 -65.0644 -24.9135)
(61.4943 16.8163 59.6516)
(-0.132282 -50.0875 -95.1167)
(0.0279978 -50.7196 -67.2579)
(0.185816 -4.65198 20.4408)
(-35.993 -19.9058 -114.153)
(-55.9471 -64.8127 -39.0363)
(-58.2709 15.6831 51.2412)
(26.1931 -11.1314 -34.9327)
(56.3503 -38.6532 -31.4784)
(61.4435 -7.33593 40.3685)
(0.00783579 -5.05619 -40.8845)
(-0.0221145 -33.008 -31.5182)
(-0.00813564 -23.3986 3.82037)
(-22.6735 7.62171 -34.2154)
(-48.4918 -37.0546 -36.2057)
(-58.6523 -7.80965 33.7454)
(52.8567 -70.7674 -192.539)
(55.3553 -56.0233 -77.0042)
(55.9925 71.1469 235.575)
(-0.156717 -57.2567 -317.087)
(-0.305422 29.5374 59.0873)
(-0.0881128 59.0162 172.612)
(-42.8978 -57.2833 -149.763)
(-54.8472 -68.994 -60.8537)
(-54.5042 67.5721 232.22)
(47.7823 -64.4132 -168.325)
(55.2518 -59.7938 -80.0686)
(54.3224 71.3339 245.224)
(-0.166168 -50.9312 -310.398)
(-0.286074 16.2833 54.1721)
(-0.100475 60.7425 187.048)
(-39.2616 -57.5353 -148.426)
(-53.9109 -78.0242 -70.623)
(-53.5963 67.7301 241.633)
(47.5458 -65.274 -149.421)
(56.9004 -62.284 -80.4518)
(53.6195 80.0491 261.486)
(-0.189681 -52.4426 -299.159)
(-0.271314 -12.1512 68.6439)
(-0.106648 57.9397 215.705)
(-43.085 -57.5277 -145.492)
(-56.3265 -85.1793 -72.1663)
(-51.6521 75.8222 256.53)
(17.5352 -0.112716 -11.5203)
(25.8497 -36.6728 -3.90719)
(25.7982 -34.8385 2.99944)
(0.00577163 -12.7631 -10.3602)
(0.000443985 -27.4073 -8.31957)
(-0.00875562 -29.1859 -6.76182)
(-14.2242 24.9272 -14.1313)
(-16.1723 -35.8102 -4.89118)
(-17.3081 -36.1116 -1.93238)
(17.1226 -25.2609 -2.09673)
(17.2776 -32.6481 2.11641)
(17.1118 -31.6406 6.18212)
(0.00606115 -7.91443 -6.05477)
(0.00704846 -16.6817 -2.87201)
(-0.00678091 -19.307 0.974537)
(-14.3576 3.09756 3.32458)
(-14.5599 -29.704 1.79283)
(-14.5332 -29.5403 2.53996)
(16.2028 -2.36553 -0.11406)
(15.8533 -15.5513 1.21367)
(15.6693 -15.4251 4.81176)
(0.00465173 -8.2856 -1.86221)
(0.012973 -6.90322 -2.68501)
(-0.0038875 -3.75312 -2.91382)
(-14.4362 -11.8701 0.423824)
(-14.5071 -12.314 3.20888)
(-14.3933 -2.41219 3.17582)
(14.1674 -35.4435 -6.73473)
(14.2006 -31.9116 -9.77895)
(14.1492 -24.9164 -14.4038)
(-0.00220777 -28.9257 -6.12993)
(-0.0033052 -26.1396 -7.19236)
(-0.00595023 -20.5235 -7.62677)
(-14.1859 -37.6471 -8.02135)
(-14.22 -33.4139 -10.2886)
(-14.1663 -25.6028 -15.2261)
(14.2148 -28.4037 1.25441)
(14.2285 -28.7166 -4.74837)
(14.1357 -24.5782 -13.6544)
(0.00251087 -22.537 1.87365)
(0.000751633 -22.3752 1.8084)
(-0.00331495 -17.4772 1.68384)
(-14.2253 -28.7314 -0.487704)
(-14.2413 -30.8124 -6.02789)
(-14.1457 -24.532 -14.551)
(14.2414 -2.15387 -0.810007)
(14.2483 -14.7424 -14.315)
(14.1471 -21.2286 -20.1227)
(0.00675238 -5.96119 0.178369)
(0.00511175 -8.79717 1.9964)
(-0.000397849 -11.1747 0.845308)
(-14.2522 0.466207 -2.99547)
(-14.253 -14.4964 -13.9291)
(-14.1543 -21.3828 -20.7202)
(14.2599 23.0918 -12.003)
(14.6346 22.3162 -9.06173)
(14.6155 26.4521 -6.54177)
(-0.0213285 8.81557 -3.52273)
(-0.0104925 7.0387 -2.54799)
(-0.00326104 10.0343 -0.387418)
(-14.0639 45.1578 -10.645)
(-14.0824 42.0959 -9.73142)
(-14.0894 39.671 -7.0995)
(14.7515 12.4543 -3.30272)
(17.204 -12.4221 4.56748)
(17.181 -20.3019 1.48228)
(-0.0277762 -5.96016 5.59359)
(-0.0157761 -12.2215 2.18677)
(-0.00405044 -9.50265 -2.97596)
(-14.2804 34.3193 4.03761)
(-14.2838 28.0046 6.70381)
(-14.2166 26.6752 7.41709)
(14.4975 10.789 2.76051)
(16.6027 -1.60542 5.11812)
(16.8136 6.55392 5.37837)
(-0.0289124 -21.1815 5.61895)
(-0.0172584 -10.2457 2.4871)
(-0.00515383 -7.03291 1.20622)
(-14.5004 -21.5181 4.78193)
(-14.4204 -16.469 2.81963)
(-14.3724 -11.6993 2.40608)
(14.1653 -5.21129 -6.7994)
(14.147 1.89856 -19.8336)
(14.1531 7.4977 -17.3997)
(0.0163104 6.05464 -6.96941)
(-0.00501314 5.80047 -4.58872)
(-0.0232274 8.86809 -4.16223)
(-13.8872 19.8386 -29.7592)
(-13.9438 25.8798 -22.624)
(-14.091 43.345 -17.3753)
(14.1887 -4.72001 2.07927)
(14.1495 1.56514 -29.701)
(14.1515 3.22556 -22.0921)
(0.00430605 0.687904 6.90733)
(-0.0218008 5.15922 6.90753)
(-0.0331059 5.92833 11.2832)
(-13.9529 5.27604 -45.8433)
(-14.0712 19.4675 -26.6495)
(-14.2126 33.8294 -5.22068)
(14.1803 -2.23788 4.6626)
(14.2442 1.42345 -37.125)
(14.1845 0.403055 -26.2318)
(-0.00817834 -0.885538 5.35504)
(-0.0299944 -10.3646 17.0859)
(-0.0384486 -18.4272 17.5957)
(-14.1472 2.02477 -56.9147)
(-14.1546 17.5952 -18.193)
(-14.4243 -20.5515 17.3164)
(14.1014 1.83166 -16.4475)
(14.1158 1.20956 -55.9591)
(14.071 -0.384104 -57.6492)
(-0.0643801 0.132625 51.9377)
(-0.0663716 -2.57676 33.4845)
(-0.0701503 -7.33706 33.6163)
(-14.1861 -10.257 -85.4699)
(-14.3053 14.686 35.265)
(-14.3036 -6.65192 64.9629)
(13.9718 0.828944 -115.405)
(13.9704 1.69113 -120.093)
(13.9345 1.04127 -120.506)
(-0.0324283 1.82528 78.4708)
(-0.0323303 2.69367 64.2776)
(-0.0359606 0.262979 66.4469)
(-13.9045 2.6823 -123.143)
(-13.9437 -1.75953 -65.7548)
(-14.091 -0.331413 102.571)
(13.5324 0.124642 -149.889)
(13.5282 0.197733 -150.129)
(13.4914 0.0740407 -150.17)
(0.0672805 0.422477 181.027)
(0.0725356 0.414462 182.077)
(0.0771053 -0.213809 207.054)
(-13.2978 -2.9559 -141.706)
(-13.3122 -6.22671 -108.17)
(-13.8257 -3.89248 -1.44132)
(14.1445 -14.5594 -23.4965)
(14.1772 -2.82767 -20.5129)
(14.1807 4.98815 -7.93282)
(-0.00416729 -12.7996 -10.5269)
(-0.000466854 -3.82743 -9.2762)
(0.00230024 3.85316 0.607663)
(-14.1671 -15.3344 -24.2831)
(-14.1825 -2.71863 -21.2101)
(-14.1845 4.62022 -8.53853)
(14.1396 -17.0394 -25.6935)
(14.1731 -5.6801 -23.7081)
(14.1726 -0.191225 6.7831)
(-0.00194019 -12.7686 -6.79003)
(0.000825107 -5.16448 -7.02303)
(0.00280355 1.93318 11.8368)
(-14.1559 -17.4261 -26.7467)
(-14.1751 -4.98452 -24.1517)
(-14.1736 -0.888535 7.13867)
(14.1876 -12.3129 -32.6722)
(14.2969 -4.79394 -27.503)
(14.1576 -2.4262 -0.569992)
(0.000185071 -7.25067 -7.82749)
(0.00187572 -5.88485 -11.7255)
(0.00293249 2.07401 16.0634)
(-14.1941 -11.7934 -33.3285)
(-14.3 -5.51658 -28.1034)
(-14.1557 -2.37029 -1.13773)
(14.1844 9.75846 -54.1023)
(14.204 -1.50872 -37.571)
(14.1695 -5.01019 -4.85041)
(-0.000518345 11.802 14.9792)
(-0.00044958 -1.80225 25.2061)
(-0.000287251 -1.99335 49.1659)
(-14.1938 10.0296 -54.81)
(-14.2095 -1.70605 -38.2746)
(-14.1731 -4.97372 -5.17069)
(14.009 -6.12404 -106.725)
(13.9989 -0.537863 -111.343)
(14.0052 -0.360462 -105.082)
(-0.000595934 -0.609755 55.5205)
(-0.000741596 -1.94901 63.7591)
(-0.000804728 -1.68739 74.7766)
(-14.0099 -6.24727 -107.099)
(-13.9974 -0.499982 -111.725)
(-14.0064 -0.327015 -105.485)
(13.4355 0.0505274 -144.621)
(13.4355 -0.116539 -144.758)
(13.4431 -0.128502 -144.484)
(-0.000580016 -0.491819 185.127)
(-0.000574318 -1.30085 185.613)
(-0.000567324 -1.00837 181.621)
(-13.4373 0.052611 -144.759)
(-13.4373 -0.114534 -144.898)
(-13.4449 -0.128313 -144.619)
)
;

boundaryField
{
    fuel
    {
        type            fixedValue;
        value           uniform (0 0 0.25);
    }
    primary_air
    {
        type            fixedValue;
        value           uniform (0 0 2.5);
    }
    Secondary_air_RHS
    {
        type            fixedValue;
        value           uniform (0 52.7778 0);
    }
    Secondary_air_LHS
    {
        type            fixedValue;
        value           uniform (0 -52.7778 0);
    }
    outlet
    {
        type            pressureInletOutletVelocity;
        value           nonuniform List<vector> 
18
(
(0 0 -144.621)
(-0.000580016 -0.491819 185.127)
(0 0 -144.759)
(0 0 -144.758)
(-0.000574318 -1.30085 185.613)
(0 0 -144.898)
(0 0 -144.484)
(-0.000567324 -1.00837 181.621)
(0 0 -144.619)
(0 0 -149.889)
(0.0672805 0.422477 181.027)
(0 0 -141.706)
(0 0 -150.129)
(0.0725356 0.414462 182.077)
(0 0 -108.17)
(0 0 -150.17)
(0.0771053 -0.213809 207.054)
(0 0 -1.44132)
)
;
    }
    stove_body
    {
        type            noSlip;
    }
    frontAndBack
    {
        type            empty;
    }
}


// ************************************************************************* //
