/*--------------------------------*- C++ -*----------------------------------*\
  =========                 |
  \\      /  F ield         | OpenFOAM: The Open Source CFD Toolbox
   \\    /   O peration     | Website:  https://openfoam.org
    \\  /    A nd           | Version:  6
     \\/     M anipulation  |
\*---------------------------------------------------------------------------*/
FoamFile
{
    version     2.0;
    format      ascii;
    class       volScalarField;
    location    "2.5";
    object      p;
}
// * * * * * * * * * * * * * * * * * * * * * * * * * * * * * * * * * * * * * //

dimensions      [1 -1 -2 0 0 0 0];

internalField   nonuniform List<scalar> 
297
(
119808
119808
119808
198590
198590
198590
119808
119808
119808
119808
119808
119808
198590
198590
198590
119808
119808
119808
119808
119808
119808
198590
198590
198590
119808
119808
119808
97396.7
97413.3
97406.3
161056
161094
161159
97392
97408
97401.7
97349.1
97304.3
97302.8
160684
160805
160765
97342.6
97296.2
97295.5
97228.9
97239.2
96951.8
158652
159907
158708
97225.9
97230.7
96945.1
96284
96652.1
96421.3
159817
159485
159596
96298.6
96675
96454.3
96803.8
96890.3
96733.2
160645
160396
160499
96803.1
96887.7
96769.6
96962.5
97115.8
96869.9
160707
160621
160561
96957.9
97109.4
96894.8
95275
97334.4
96038.3
152801
158403
155399
95278.4
97342
96030.8
95019
97300.5
95872.7
152235
158331
154875
95024.9
97309.5
95866.1
95014.1
97224
95751.8
152798
158434
154932
95022.5
97234.3
95748.7
97397
97510.7
97368.2
160731
160744
160822
97369.2
97530.3
97417.3
97469.5
97564.7
97472.8
160752
160822
160926
97482
97580.3
97492.1
97493.9
97550.2
97518.4
160774
160868
160978
97518.7
97574.9
97523.5
97353.3
97243.8
97097.4
160767
160706
160538
97673
97596.7
97803
97269.7
97057.4
96760.7
160742
160693
160486
97432.9
97333.6
97487.6
97264.2
97011.9
96654.7
160787
160673
160359
97377.1
97271.9
97234.5
97777.7
97551.8
97628
160524
160684
160709
97116
97256
97352.3
97434.9
97268.6
97385.2
160473
160664
160665
96776.6
97072.5
97286.7
97176.2
97214.6
97322.5
160345
160641
160686
96657
97019.6
97277.7
99148.1
98826.7
98316.5
160547
160432
160382
99306
98562.4
97532.8
98757
98388.4
97904.9
160060
159857
160023
98361.3
97459.8
96806.7
98193.5
97804.2
97416.6
159293
159094
159377
97232
96566.9
96215.6
95657.8
95641.8
95609.5
155005
154915
154749
92872.8
92810.5
92709.4
89882.1
89930.8
89972.7
146795
146776
146713
88713.4
88669.1
88577.8
83845.2
83844.6
83844.4
134646
134593
134518
86232.5
86390.7
86600.7
97517.5
98547.4
99285.9
160406
160460
160575
98307.5
98791.2
99096.6
96784.2
97440
98349
160064
159902
160105
97924.3
98378
98729
96190.8
96544.9
97240.1
159423
159161
159363
97461.1
97826.5
98193.5
92767.2
92876.5
92964.9
154864
155050
155146
95723.6
95752.7
95767
88710.9
88787.6
88807.2
146912
146980
146998
90115.9
90074.8
90028.5
86738.2
86522
86361.1
134711
134785
134835
83993.4
83993.5
83993.7
)
;

boundaryField
{
    fuel
    {
        type            zeroGradient;
    }
    primary_air
    {
        type            zeroGradient;
    }
    Secondary_air_RHS
    {
        type            zeroGradient;
    }
    Secondary_air_LHS
    {
        type            zeroGradient;
    }
    outlet
    {
        type            totalPressure;
        rho             rho;
        psi             none;
        gamma           1;
        p0              uniform 100000;
        value           nonuniform List<scalar> 
18
(
99993
100000
86501.7
93257.4
100000
86373.8
87756.7
100000
86331.5
86175.6
100000
87645.1
86215.4
100000
93208.5
86250.4
100000
99992.6
)
;
    }
    stove_body
    {
        type            zeroGradient;
    }
    frontAndBack
    {
        type            empty;
    }
}


// ************************************************************************* //
