/*--------------------------------*- C++ -*----------------------------------*\
  =========                 |
  \\      /  F ield         | OpenFOAM: The Open Source CFD Toolbox
   \\    /   O peration     | Website:  https://openfoam.org
    \\  /    A nd           | Version:  6
     \\/     M anipulation  |
\*---------------------------------------------------------------------------*/
FoamFile
{
    version     2.0;
    format      ascii;
    class       volVectorField;
    location    "2.5";
    object      U;
}
// * * * * * * * * * * * * * * * * * * * * * * * * * * * * * * * * * * * * * //

dimensions      [0 1 -1 0 0 0 0];

internalField   nonuniform List<vector> 
297
(
(68.7038 -0.0325751 0.286922)
(68.7009 -0.0149209 0.263498)
(68.7021 0.028192 0.265954)
(3.70671e-05 0.0436352 0.317682)
(3.66253e-05 0.00945763 0.346854)
(3.64536e-05 -0.0377724 0.344551)
(-68.7034 -0.0301775 0.281979)
(-68.7009 -0.0131474 0.263289)
(-68.702 0.028781 0.265247)
(68.8279 -0.0146994 0.274763)
(68.7189 0.00264456 0.283465)
(68.7461 0.00393106 0.28471)
(3.74991e-05 0.0894848 -0.214309)
(3.66986e-05 0.0774658 -0.205307)
(3.66344e-05 -0.128752 -0.225455)
(-68.7895 -0.013587 0.278198)
(-68.7179 0.00592518 0.283561)
(-68.7415 0.00495879 0.284238)
(69.034 -0.092348 0.577331)
(68.7807 -0.0239473 0.55334)
(68.8057 0.0395886 0.557795)
(3.11419e-05 -0.150675 0.457035)
(3.19749e-05 0.0188588 0.506143)
(3.12783e-05 0.101 0.522648)
(-69.0473 -0.0864668 0.573688)
(-68.7802 -0.0164433 0.55346)
(-68.8058 0.0415948 0.556773)
(63.7816 7.17066 -7.87729)
(62.1753 6.69171 -3.94555)
(55.1826 3.53975 3.16426)
(-0.000592764 1.95922 4.21615)
(-0.000666854 -0.307827 4.06297)
(-0.000555003 0.403986 6.31197)
(-63.7884 7.1077 -7.80987)
(-62.1992 6.73811 -3.78167)
(-55.1267 3.52035 3.42366)
(69.8584 11.5451 -14.9999)
(70.2445 10.3022 -10.6475)
(64.2007 11.2299 11.2365)
(-0.000942093 11.3206 38.3124)
(-0.00108923 1.44535 29.3146)
(-0.000939744 0.286085 35.9782)
(-69.9032 11.4065 -15.1108)
(-70.5159 10.4712 -10.7287)
(-64.1931 11.2989 11.0585)
(68.9406 8.84804 -20.0682)
(71.8164 -11.7517 -2.94476)
(92.1889 -16.0077 35.4553)
(-0.000467531 -8.44394 54.2141)
(-0.00140376 -4.53924 12.4897)
(-0.00107929 10.5996 57.1278)
(-68.993 8.61704 -20.1997)
(-73.8482 -11.9314 -2.98505)
(-93.938 -15.9855 37.2134)
(62.6044 -0.760465 -53.8855)
(59.7948 -6.1788 -30.6303)
(71.6263 -0.00436611 -38.0525)
(0.00264845 0.581368 -1.72379)
(0.0040991 8.64746 -38.2567)
(0.00635994 -5.22745 32.4071)
(-62.4317 -0.979431 -53.5061)
(-60.2027 -6.58884 -30.5892)
(-72.7567 -0.00889975 -37.8227)
(57.6918 20.4862 -39.1313)
(59.7392 -5.19349 -38.7165)
(69.775 -9.14573 -22.0033)
(-0.000128871 -1.61099 -11.5659)
(-0.000438148 3.68098 -17.7341)
(0.00703292 -8.14914 23.8886)
(-57.2738 20.8219 -38.5684)
(-60.3273 -5.14769 -38.6652)
(-72.4581 -7.15083 -21.8889)
(49.7201 21.4714 -30.5952)
(56.6063 -15.9193 -29.8942)
(62.9905 -24.2691 -23.7795)
(-0.000667679 1.38033 -4.05322)
(-0.000964619 2.94587 -21.8721)
(0.00480575 -4.82713 22.5736)
(-49.0851 22.0878 -30.4428)
(-55.149 -16.7365 -29.1897)
(-64.0922 -21.7642 -24.2598)
(58.1271 11.5388 -64.9179)
(59.8616 -19.8204 -16.2642)
(93.9551 -42.8707 -30.1594)
(0.000589953 -6.27765 75.16)
(0.00125898 -3.12284 -40.222)
(-0.00140177 1.31603 76.4975)
(-58.0412 11.2886 -64.6837)
(-61.6702 -20.5398 -16.0276)
(-97.0397 -44.3026 -30.0442)
(58.2494 6.64517 -68.0612)
(57.39 -13.8292 -15.2302)
(76.0311 -15.4904 -41.5307)
(0.000900964 -4.60986 84.0211)
(0.00153501 0.942272 -41.897)
(-0.00116833 1.64465 83.4676)
(-58.1677 6.39547 -67.7832)
(-58.3914 -14.4325 -14.8565)
(-77.791 -15.8004 -41.6274)
(59.8253 3.09533 -64.549)
(58.7469 -11.0345 -20.2103)
(68.2757 -8.73547 -39.9344)
(0.00124409 -2.87807 83.3224)
(0.00180954 3.09186 -40.6247)
(-0.000550211 -5.30901 90.3719)
(-59.7267 2.86344 -64.2213)
(-59.7954 -11.4111 -19.7894)
(-69.6615 -8.88823 -39.8906)
(47.0278 37.9236 -8.23456)
(49.5453 -1.23248 -9.56082)
(50.3485 -40.1899 -8.95292)
(-0.00343203 -3.588 -4.89979)
(0.00301859 -8.60286 -5.68448)
(0.00914559 -2.57058 16.0447)
(-46.6878 40.3281 -9.91633)
(-50.491 -5.13889 -10.7371)
(-51.4226 -37.109 -7.15208)
(47.0486 29.5741 -0.522046)
(48.4903 -5.62339 -1.69919)
(49.4362 -30.0327 3.14827)
(0.00146813 0.146794 -3.38866)
(0.00215825 -7.89042 -5.13744)
(0.00357333 -0.679136 7.77872)
(-46.8793 28.3594 3.75719)
(-49.6225 -14.665 -2.43319)
(-50.6488 -29.8218 -0.361212)
(47.3496 1.4525 2.16471)
(48.8555 -2.48916 0.301885)
(49.6778 2.54978 -1.63509)
(0.00294646 -8.36005 -1.70808)
(0.00323185 -6.85903 -0.896175)
(0.000781079 2.78728 -0.23249)
(-48.5542 -7.6672 -2.56241)
(-50.0183 -9.25989 1.82697)
(-50.2088 -4.87358 3.62674)
(46.1146 -45.4788 -4.69848)
(45.8887 -50.4667 -8.53222)
(45.7005 -53.6907 -9.53102)
(0.0351229 -2.73021 -1.80772)
(0.0392002 -13.2446 -3.02255)
(0.0775689 -18.4058 -3.35953)
(-45.1687 -39.7175 -3.05574)
(-46.4023 -45.3463 -7.64114)
(-46.7789 -41.3175 -14.1915)
(49.1031 -32.5593 7.54599)
(47.3723 -34.8343 7.113)
(46.4885 -41.2551 5.07774)
(0.0268391 7.52909 1.51728)
(0.0430102 17.3634 4.74078)
(0.0821303 -7.23534 10.315)
(-48.7627 -30.9095 3.89188)
(-46.8532 -34.7611 -1.75129)
(-46.9432 -26.5507 -10.2452)
(49.641 1.9366 8.72622)
(48.5677 7.64555 9.77123)
(48.894 18.6152 11.8778)
(0.0167021 9.46438 -1.66005)
(0.0374068 18.6802 1.09594)
(0.0770822 25.8476 5.02008)
(-49.5882 -8.74128 12.6663)
(-47.1375 0.906984 13.8417)
(-47.0254 -14.736 -15.7502)
(46.7933 42.6723 -14.4247)
(46.4241 47.0137 -7.77984)
(45.3728 41.4342 -2.80652)
(-0.0725953 18.8511 -3.01725)
(-0.0328701 12.5294 -3.99198)
(-0.0306442 5.09152 0.408922)
(-45.5451 53.7723 -9.63753)
(-45.7211 50.3516 -8.60594)
(-45.977 45.8375 -5.05288)
(46.9557 27.9405 -11.1157)
(46.8083 35.9638 -2.15665)
(46.2685 31.7566 3.06137)
(-0.072744 8.15519 9.73851)
(-0.0227718 -15.0416 1.79927)
(-0.011425 -4.45358 -1.61928)
(-46.4938 41.4977 5.3306)
(-46.6837 35.434 7.5905)
(-46.5607 33.2704 8.1386)
(47.052 16.0814 -14.58)
(47.1279 -2.89168 15.1616)
(47.3506 8.44515 12.2734)
(-0.0589049 -22.2578 5.35146)
(-0.0226259 -13.1342 1.32759)
(-0.00525103 -8.43059 -0.220891)
(-46.9534 -19.9983 9.29873)
(-47.2058 -11.0668 5.3626)
(-47.1568 -6.46684 3.78578)
(46.5087 7.59855 -24.9248)
(46.5836 20.899 -22.5405)
(46.5593 32.3045 -17.6718)
(0.0172394 13.0078 -9.61854)
(-0.0289937 14.7977 -6.41953)
(-0.0856789 20.6323 -2.94337)
(-45.0022 24.2727 -31.8556)
(-44.7331 31.1815 -23.5761)
(-46.1018 51.4928 -17.8561)
(46.186 5.40455 -36.8119)
(46.2361 13.8819 -31.8909)
(46.6593 21.8665 -24.9517)
(-0.0430792 7.27306 -8.51648)
(-0.102577 11.0042 2.87468)
(-0.120793 15.4482 12.1095)
(-45.455 6.01035 -55.0904)
(-45.5398 21.9851 -30.2211)
(-46.7719 39.5369 -4.88397)
(47.4648 -0.635712 -48.9273)
(46.9509 7.6854 -44.533)
(47.2525 9.25347 -33.4529)
(-0.105666 4.52054 -18.2577)
(-0.13618 -5.93328 16.3264)
(-0.130559 -17.8762 19.3396)
(-47.2718 3.45207 -71.5731)
(-45.8492 20.6628 -21.7484)
(-45.9553 -15.27 22.2385)
(46.5077 -4.12793 -77.5671)
(46.2273 -6.39207 -71.1996)
(46.1963 -3.80897 -72.0691)
(-0.320945 -2.73157 34.5722)
(-0.325392 -0.356395 48.3447)
(-0.334336 -10.8086 44.26)
(-46.9878 -8.74052 -103.762)
(-46.7563 11.306 14.1809)
(-46.9027 -2.92856 68.8437)
(45.6944 1.06999 -137.722)
(45.6515 0.402356 -136.969)
(45.544 0.74948 -136.541)
(-0.141837 0.973134 72.2358)
(-0.152108 3.554 78.174)
(-0.167815 -1.71508 75.9393)
(-45.6522 2.69651 -138.319)
(-45.6704 -5.47386 -76.5757)
(-45.5989 1.66053 111.779)
(43.7939 -0.167613 -167.038)
(43.7729 -0.0464567 -166.758)
(43.6671 -0.111053 -166.513)
(0.298162 -1.19513 162.95)
(0.314339 0.59668 173.532)
(0.335394 -0.897173 199.052)
(-42.988 -5.51509 -156.581)
(-42.7518 -7.58109 -112.574)
(-43.783 -3.63505 -3.57734)
(46.2044 -51.4405 -17.5848)
(44.8373 -31.2257 -23.5276)
(45.2267 -24.4203 -31.8206)
(0.0864798 -20.2639 -2.89183)
(0.0267772 -14.5622 -6.1895)
(-0.0207 -12.911 -9.44957)
(-46.5579 -31.3764 -17.1789)
(-46.5726 -20.0527 -22.1579)
(-46.5137 -7.28577 -24.044)
(46.7795 -39.8409 -4.78704)
(45.5352 -21.8301 -30.1124)
(45.5602 -6.22864 -55.0549)
(0.125464 -15.1032 12.4615)
(0.103638 -10.8846 2.71766)
(0.0414209 -7.30155 -8.43881)
(-46.6611 -21.4693 -23.7736)
(-46.2544 -13.2899 -31.0882)
(-46.1903 -5.14708 -35.7896)
(47.5405 13.153 23.4704)
(45.8078 -20.6483 -21.8018)
(47.3133 -3.53968 -71.4167)
(0.149648 20.7526 19.5319)
(0.144711 7.32053 17.2569)
(0.104842 -4.6354 -17.9388)
(-47.2275 -8.79976 -31.9784)
(-46.9265 -7.55607 -43.0181)
(-47.4376 0.757681 -47.4457)
(47.4934 1.89167 69.4113)
(46.9773 -10.3483 16.401)
(46.9554 8.81944 -103.044)
(0.355229 11.7222 44.3854)
(0.338045 0.237116 48.8002)
(0.322879 2.00339 34.7959)
(-46.1905 3.7011 -72.058)
(-46.2135 6.33077 -70.1255)
(-46.476 3.91721 -75.9367)
(46.4461 -2.33697 112.306)
(45.8916 5.84489 -75.3613)
(45.6947 -2.58012 -137.449)
(0.173173 1.70474 76.6435)
(0.155949 -3.76732 77.7425)
(0.148041 -1.40374 71.0133)
(-45.1799 -0.721791 -135.211)
(-45.6332 -0.467981 -135.627)
(-45.6875 -0.924419 -136.375)
(44.5193 3.1985 -3.49827)
(42.9629 7.60957 -112.139)
(43.0357 5.54821 -155.773)
(-0.339353 0.758438 202.157)
(-0.313871 -0.618077 173.976)
(-0.295323 1.10894 162.632)
(-43.6185 0.0909208 -164.745)
(-43.7601 0.064982 -165.645)
(-43.7854 0.143851 -165.943)
)
;

boundaryField
{
    fuel
    {
        type            fixedValue;
        value           uniform (0 0 0.25);
    }
    primary_air
    {
        type            fixedValue;
        value           uniform (0 0 2.5);
    }
    Secondary_air_RHS
    {
        type            fixedValue;
        value           uniform (0 50 0);
    }
    Secondary_air_LHS
    {
        type            fixedValue;
        value           uniform (0 -50 0);
    }
    outlet
    {
        type            pressureInletOutletVelocity;
        value           nonuniform List<vector> 
18
(
(0 0 -3.49827)
(-0.339353 0.758438 202.157)
(0 0 -164.745)
(0 0 -112.139)
(-0.313871 -0.618077 173.976)
(0 0 -165.645)
(0 0 -155.773)
(-0.295323 1.10894 162.632)
(0 0 -165.943)
(0 0 -167.038)
(0.298162 -1.19513 162.95)
(0 0 -156.581)
(0 0 -166.758)
(0.314339 0.59668 173.532)
(0 0 -112.574)
(0 0 -166.513)
(0.335394 -0.897173 199.052)
(0 0 -3.57734)
)
;
    }
    stove_body
    {
        type            noSlip;
    }
    frontAndBack
    {
        type            empty;
    }
}


// ************************************************************************* //
