/*--------------------------------*- C++ -*----------------------------------*\
  =========                 |
  \\      /  F ield         | OpenFOAM: The Open Source CFD Toolbox
   \\    /   O peration     | Website:  https://openfoam.org
    \\  /    A nd           | Version:  6
     \\/     M anipulation  |
\*---------------------------------------------------------------------------*/
FoamFile
{
    version     2.0;
    format      ascii;
    class       volScalarField;
    location    "0.0025";
    object      O2;
}
// * * * * * * * * * * * * * * * * * * * * * * * * * * * * * * * * * * * * * //

dimensions      [0 0 0 0 0 0 0];

internalField   nonuniform List<scalar> 
3773
(
0
0
0
0
0
0
0
0
0
0
0
0
0
0
0
0
0
0
0
0
0
0
0
0
0
0
0
0
0
0
0
0
0
0
0
0
0
0
0
0
0
0
0
0
0
0
0
0
0
0
0
0
0
0
0
0
0
0
0
0
0
0
0
0
0
0
0
0
0
0
0
0
0
0
0
0
0
0
0
0
0
0
0
0
0
0
0
0
0
0
0
0
0
0
0
0
0
0
0
0
0
0
0
0
0
0
0
0
0
0
0
0
0
0
0
0
0
0
0
0
0
0
0
0
0
0
0
0
0
0
0
0
0
0
0
0
0
0
0
0
0
0
0
0
0
0
0
0
0
0
0
0
0
0
0
0
0
0
0
0
0
0
0
0
0
0
0
0
0
0
0
0
0
0
0
0
0
0
0
0
0
0
0
0
0
0
0
0
0
0
0
0
0
0
0
0
0
0
0
0
0
0
0
0
0
0
0
0
0
0
0
0
0
0
0
0
0
0
0
0
0
0
0
0
0
0
0
0
0
0
0
0
0
0
0
0
0
0
0
0
0
0
0
0
0
0
0
0
0
0
0
0
0
0
0
0
0
0
0
0
0
0
0
0
0
0
0
0
0
0
0
0
0
0
0
0
0
0
0
0
0
0
0
0
0
0
0
0
0
0
0
0
0
0
0
0
0
0
0
0
0
0
0
0
0
0
0
0
0
0
0
0
0
0
0
0
0
0
0
0
0
0
0
0
0
0
0
0
0
0
0
0
0
0
0
0
0
0
0
0
0
0
0
0.00207712
0.00207799
0.00207662
0.00207653
0.00207652
0.0020765
0.00207457
0.00240319
0.00240434
0.00240331
0.00240289
0.00240263
0.00240293
0.00240252
0.0026548
0.00265532
0.00265542
0.00265547
0.00265536
0.00265535
0.00265536
0.00271901
0.00271995
0.00271983
0.00271995
0.00271988
0.00271972
0.0027192
0.00265589
0.00265606
0.00265626
0.00265627
0.00265559
0.00265507
0.00265341
0.00239532
0.00239421
0.00239581
0.00239582
0.00239685
0.00239867
0.00239883
0.00207252
0.00207245
0.00207346
0.00207314
0.00207327
0.00207395
0.00207414
1.60834e-06
1.69268e-06
1.56472e-06
1.67763e-06
1.64e-06
1.53161e-06
1.59091e-06
1.58566e-06
1.60894e-06
1.54656e-06
1.48239e-06
1.54413e-06
1.56419e-06
1.47829e-06
2.32294e-06
2.26972e-06
2.27378e-06
2.22242e-06
2.1066e-06
2.07561e-06
2.22315e-06
1.46726e-06
1.49247e-06
1.48364e-06
1.49263e-06
1.52745e-06
1.57149e-06
1.66892e-06
1.69036e-06
1.65967e-06
1.69867e-06
1.68942e-06
1.92521e-06
2.04742e-06
2.19472e-06
1.30541e-06
1.1606e-06
1.26399e-06
1.17078e-06
1.25146e-06
1.26961e-06
1.27681e-06
1.21857e-06
1.23286e-06
1.4157e-06
1.39797e-06
1.36616e-06
1.4046e-06
1.49138e-06
9.84677e-10
1.10097e-09
1.07577e-09
1.11548e-09
9.63779e-10
5.01782e-10
1.17468e-09
2.11033e-09
2.08385e-09
2.00218e-09
1.74485e-09
1.84881e-09
1.76223e-09
1.6304e-09
2.31841e-09
2.21315e-09
2.29079e-09
1.56759e-09
2.1547e-09
1.92624e-09
1.52766e-09
1.91258e-09
2.0106e-09
1.96217e-09
1.18592e-09
1.82143e-09
1.22952e-09
1.13596e-09
2.72927e-09
2.73285e-09
2.81936e-09
2.3903e-09
2.38135e-09
2.09034e-09
1.79042e-09
1.04576e-09
7.49788e-10
8.85262e-10
8.32921e-10
1.17335e-09
1.23012e-09
1.20267e-09
4.83496e-10
4.96385e-10
6.21672e-10
7.60684e-10
8.52023e-10
9.01701e-10
8.68024e-10
0
1.34284e-13
1.51474e-13
1.69457e-13
2.87946e-13
4.41305e-13
0
4.8092e-13
7.57496e-13
7.15936e-13
9.38274e-13
9.91505e-13
4.93125e-12
9.66104e-13
1.83055e-12
2.68413e-12
1.52538e-12
1.64171e-12
1.80137e-12
2.75892e-12
1.38611e-12
1.51413e-12
1.32984e-12
1.3075e-12
1.22874e-12
1.38099e-12
9.32823e-13
9.46574e-13
2.27096e-12
1.75697e-12
2.48094e-12
1.33282e-12
1.98353e-12
1.81861e-12
1.28946e-12
2.31694e-14
8.96055e-13
2.84374e-13
2.40991e-13
2.61097e-13
4.56635e-13
3.60373e-13
0
4.78559e-13
2.34297e-13
1.84526e-13
1.57031e-13
9.71232e-14
0
0
0
5.30163e-16
1.47649e-16
1.70656e-15
3.07275e-13
0
0
5.40002e-15
1.39944e-15
3.50494e-16
3.59573e-14
4.15457e-11
0
0
4.83779e-12
2.77939e-14
1.53304e-15
2.01811e-14
7.54442e-12
0
0
4.25599e-14
1.38643e-15
7.17421e-16
3.40443e-15
4.43516e-13
0
0
8.98716e-14
6.6538e-15
5.94099e-16
7.45844e-15
8.75599e-15
0
0
8.88671e-12
1.31513e-13
2.60813e-16
2.61252e-15
0
0
0
2.9195e-12
9.4475e-14
1.05352e-15
9.87216e-14
0
0
0
0
6.26535e-16
1.72054e-16
6.71047e-15
2.15844e-12
0
0
4.57939e-14
5.75056e-15
2.31213e-16
1.82817e-13
1.73689e-10
0
0
3.59151e-11
2.16331e-13
5.90194e-16
1.15391e-13
3.67762e-11
0
0
1.31726e-13
2.88497e-15
3.60159e-17
1.16955e-14
3.14779e-13
0
0
1.65265e-13
4.01066e-14
1.51552e-16
6.65631e-14
0
0
0
7.41884e-11
1.28788e-12
1.1896e-15
3.47893e-15
0
0
0
2.55015e-11
9.96575e-13
7.29152e-15
4.80964e-13
0
0
0
0
0
5.43595e-16
1.24953e-14
6.21873e-12
0
0
0
1.3595e-14
4.04333e-16
2.13505e-13
1.80274e-10
0
0
5.55182e-11
3.79358e-13
9.28531e-16
1.61293e-13
4.29877e-11
0
0
0
3.80161e-15
4.72463e-17
1.30642e-14
0
0
0
0
5.81133e-14
4.57812e-16
1.75098e-13
2.5806e-13
0
0
1.32066e-10
2.69031e-12
2.13038e-15
1.17479e-16
0
0
0
5.40715e-11
2.8711e-12
1.63736e-14
5.78029e-13
0
0
0
0
3.53832e-18
1.65683e-20
6.39106e-21
0
0
0
0
7.96155e-20
2.20476e-21
8.98434e-20
3.97645e-16
0
0
0
4.53622e-17
3.73239e-18
3.16745e-16
3.35828e-13
0
0
8.69749e-16
6.73048e-18
3.40895e-19
1.26371e-16
1.03639e-13
0
0
0
1.20937e-17
3.21774e-19
6.55935e-16
1.54492e-13
0
0
1.30659e-18
1.67328e-17
1.03153e-19
2.72859e-21
0
0
0
0
3.95302e-17
4.9213e-19
0
0
0
5.14389e-26
1.9991e-23
1.37332e-22
9.90932e-24
4.90802e-21
4.17334e-18
5.71919e-16
8.18638e-24
6.63512e-22
1.78572e-22
1.29106e-23
5.1141e-20
8.27189e-17
1.82308e-14
1.49683e-21
7.25175e-20
1.12142e-20
8.85137e-23
1.23924e-19
1.6806e-16
1.51004e-13
2.70413e-22
1.48991e-20
1.28869e-21
7.72516e-24
9.04215e-21
1.32074e-17
2.5717e-14
1.00865e-22
6.2201e-21
3.37594e-22
9.4182e-24
1.87292e-20
6.18197e-18
5.41378e-18
2.56105e-23
1.40988e-21
4.94627e-22
2.32828e-24
1.08226e-22
1.3761e-20
6.7174e-22
7.92853e-25
1.54948e-22
2.29716e-21
2.27081e-23
1.75724e-23
6.19716e-21
2.38767e-23
1.32574e-29
8.15177e-28
1.93694e-27
4.71398e-27
7.23506e-25
6.80502e-22
1.25574e-19
1.29995e-27
2.1903e-26
8.1753e-27
9.42682e-27
1.80654e-23
1.21446e-20
4.63469e-18
8.36224e-26
1.70908e-24
3.23926e-25
2.894e-26
3.50159e-23
1.93529e-20
1.01353e-17
1.56277e-26
3.59711e-25
1.07697e-25
2.28516e-27
2.18159e-24
1.24396e-21
7.38604e-19
7.46681e-27
1.77001e-25
7.06996e-27
8.84093e-28
7.89961e-25
2.55602e-22
4.13258e-22
2.50106e-27
5.8523e-26
9.15928e-27
6.26176e-29
1.69543e-26
1.73768e-24
1.54798e-25
1.45336e-28
5.2496e-27
3.55351e-26
2.7859e-28
6.50184e-28
2.23126e-25
4.99985e-27
2.50518e-32
1.1171e-31
2.94577e-32
1.30663e-31
6.00981e-29
1.90991e-26
3.86836e-24
1.1791e-30
1.52021e-30
4.16626e-31
2.16111e-30
4.44325e-27
1.24548e-24
1.52442e-22
1.24035e-28
1.52695e-28
9.47793e-30
9.19267e-30
5.56899e-27
9.03764e-25
2.90994e-22
2.28316e-29
2.65815e-29
4.07421e-30
6.62512e-31
2.39157e-28
5.14333e-26
4.98731e-23
2.70237e-31
3.26956e-30
1.32662e-31
1.51693e-31
5.57556e-29
1.10962e-26
1.10446e-26
2.30526e-31
1.19141e-30
2.12879e-31
8.50976e-33
1.10221e-29
1.95481e-27
2.29467e-28
2.44016e-32
3.24884e-31
9.06286e-31
8.54335e-33
3.18876e-29
2.43995e-27
5.97311e-28
1.00289e-32
5.74258e-34
2.40134e-35
2.07181e-35
8.74832e-33
4.92405e-31
1.34818e-28
3.74375e-31
7.85871e-33
3.75053e-34
4.41341e-34
2.05761e-31
2.70179e-29
5.22113e-27
6.12642e-29
1.15141e-31
2.10599e-33
1.78071e-33
2.29129e-31
2.40947e-29
1.35834e-26
1.34774e-29
2.30695e-32
3.39652e-34
1.31056e-34
1.35334e-32
1.71259e-30
9.24804e-28
2.17808e-32
4.57319e-34
1.25045e-35
3.68034e-35
4.40009e-33
3.34854e-31
5.05465e-29
3.50036e-32
2.64144e-34
1.65018e-35
6.80471e-36
2.26986e-33
7.79071e-32
1.64414e-31
5.23198e-34
6.77194e-36
7.34967e-36
2.21218e-36
5.3907e-34
4.51971e-31
2.05095e-31
1.06988e-34
4.48413e-35
1.12223e-36
8.37274e-38
3.93076e-36
1.70914e-34
6.86054e-32
3.60365e-33
1.89009e-33
7.23278e-35
1.54934e-36
4.29716e-35
6.63855e-34
6.04199e-31
7.22018e-33
8.48831e-34
6.09982e-35
1.36685e-36
1.3454e-35
6.82368e-34
2.2933e-31
8.59729e-34
9.06635e-35
3.76864e-36
7.22782e-38
7.44299e-37
4.69103e-35
1.58162e-32
1.13967e-32
3.23535e-35
6.78883e-37
1.93359e-38
2.01706e-37
8.35557e-36
1.6962e-33
2.13609e-32
4.87919e-35
1.18871e-36
2.38897e-38
1.59473e-37
2.39065e-36
4.13489e-34
8.19023e-34
3.7565e-37
3.77197e-38
1.05198e-38
1.10777e-37
7.94317e-36
7.34935e-34
1.86177e-36
1.26798e-37
1.05193e-38
1.10585e-37
4.68724e-36
7.86031e-35
1.08212e-33
1.72027e-35
7.29206e-37
2.12769e-38
1.57645e-38
1.78794e-36
9.02465e-35
2.48714e-33
1.21728e-37
5.19876e-38
5.89171e-39
5.76714e-40
2.83475e-38
2.97923e-37
6.02466e-36
2.07923e-38
2.69668e-39
4.56902e-40
3.34339e-41
4.85854e-40
4.02859e-39
2.1533e-37
2.86121e-37
1.98783e-38
1.36299e-39
5.53345e-41
7.53164e-40
4.69256e-39
6.96128e-38
7.98992e-35
3.07176e-36
7.52275e-38
1.3253e-39
1.51223e-38
2.18205e-37
3.21761e-36
1.67589e-35
1.32199e-36
1.0951e-37
6.68211e-39
9.29393e-38
1.08459e-36
1.17699e-35
0
0
0
4.47166e-16
2.56878e-15
0
0
0
0
0
2.62779e-18
7.45224e-17
0
0
0
0
1.52842e-17
6.67673e-18
4.25681e-16
0
0
0
0
1.88048e-16
2.24086e-18
0
0
0
0
0
3.39253e-16
1.17003e-17
1.65593e-14
1.07801e-11
0
0
0
5.97736e-16
0
0
0
0
0
0
3.70364e-13
4.41137e-15
0
0
0
0
0
0
2.24235e-16
1.99534e-15
0
0
0
0
2.00627e-17
2.6841e-19
5.01786e-17
0
0
0
0
1.36236e-19
6.42278e-18
3.81722e-16
0
0
0
0
1.82692e-16
4.1699e-18
0
0
0
0
0
1.45847e-15
6.16139e-19
1.55113e-14
1.20477e-11
0
0
0
2.74435e-17
0
0
0
0
0
0
2.70497e-14
2.1732e-15
0
0
0
0
0
0
1.22528e-16
7.08332e-16
0
0
0
0
2.51317e-17
1.72744e-19
5.10889e-17
0
0
0
0
1.53182e-18
5.74009e-18
4.77014e-16
0
0
0
3.354e-13
1.87717e-16
4.02012e-18
0
0
0
0
0
1.39969e-15
5.21291e-19
0
0
0
0
0
2.70226e-17
2.57413e-21
1.33394e-17
0
0
0
0
3.6746e-15
8.57775e-16
0
0
0
0
0
0
2.62353e-17
3.67018e-16
0
0
0
0
5.7349e-18
1.52575e-19
8.53388e-17
8.41781e-12
0
0
0
6.57901e-18
5.32484e-18
5.45003e-16
0
0
0
2.49731e-11
2.3371e-16
3.92692e-19
2.1559e-15
0
0
0
0
0
4.17816e-19
0
0
0
0
0
0
1.44006e-20
3.43225e-17
0
0
0
0
0
5.92136e-16
0
0
0
0
0
0
8.51983e-18
2.73937e-16
0
0
0
0
1.64231e-17
1.3209e-19
2.14932e-16
5.01914e-11
0
0
0
1.25931e-17
4.55026e-18
4.95261e-16
0
0
0
6.44917e-11
2.79392e-16
3.33564e-19
5.99799e-15
2.94157e-12
0
0
0
0
3.84708e-19
4.47547e-17
0
0
0
0
0
7.1615e-20
2.82349e-16
8.86831e-13
0
0
0
0
1.20617e-16
0
0
0
0
0
0
1.5727e-18
1.99906e-16
0
0
0
0
2.60702e-17
1.09623e-19
2.72496e-16
7.61487e-11
0
0
0
1.65453e-17
4.32832e-18
4.9996e-16
0
0
0
7.29289e-11
2.59745e-16
3.11527e-19
1.25021e-14
1.22201e-11
0
0
1.38095e-12
9.90538e-18
3.59363e-19
3.12206e-16
0
0
0
0
0
1.33601e-19
0
0
0
0
0
0
5.83743e-17
0
0
0
0
0
4.16387e-15
7.77363e-19
0
0
0
0
0
0
6.46829e-20
1.67385e-16
4.88198e-11
0
0
0
3.53549e-17
4.05725e-18
5.28946e-16
0
0
0
3.91381e-11
1.41347e-16
3.00819e-19
1.18603e-14
1.00431e-11
0
0
0
1.16052e-17
3.43729e-19
5.27667e-16
0
0
0
7.31991e-12
1.1209e-17
2.39069e-19
6.48452e-19
0
0
0
0
0
3.14338e-17
0
0
0
1.80165e-41
4.4277e-42
6.25028e-43
2.21768e-41
3.76551e-40
2.8149e-39
1.09124e-38
6.76602e-41
1.35944e-41
1.53623e-42
6.54622e-42
1.50837e-40
1.66022e-39
9.28059e-39
2.24351e-42
8.69916e-43
1.5914e-43
1.31583e-43
2.14799e-42
2.15849e-41
1.08231e-40
5.05837e-43
8.73565e-44
1.18176e-44
1.51238e-45
2.59575e-44
5.80697e-43
4.78652e-42
5.42044e-42
1.12671e-42
1.24355e-43
1.20486e-44
3.66461e-44
2.86297e-43
1.36499e-42
3.0706e-40
5.95196e-41
6.21899e-42
4.66408e-43
1.19961e-42
5.88404e-42
1.53362e-41
1.65893e-40
5.32977e-41
8.02123e-42
1.1407e-42
5.8567e-42
3.60699e-41
1.2475e-40
4.94205e-46
1.98244e-46
5.08699e-47
1.85564e-45
2.4096e-44
1.35613e-43
3.26852e-43
6.87115e-46
2.34521e-46
6.83162e-47
3.56272e-46
6.08433e-45
2.86916e-44
9.30045e-44
9.02692e-47
7.6609e-47
2.81444e-47
4.46491e-47
4.97862e-46
2.88596e-45
4.34077e-45
2.18564e-47
1.42501e-47
6.32056e-48
3.18123e-48
2.72597e-47
1.14232e-46
2.17738e-46
2.16453e-46
1.56849e-46
3.69417e-47
1.03862e-47
1.13449e-47
3.90793e-47
5.61912e-47
3.30314e-45
1.18787e-45
3.39921e-46
6.7216e-47
1.42445e-46
2.59717e-46
3.21462e-46
5.20313e-45
2.64753e-45
8.3871e-46
1.86156e-46
4.89682e-46
1.96517e-45
4.12374e-45
2.05288e-47
4.32226e-48
6.48167e-49
3.92392e-47
7.36089e-46
3.60551e-45
1.47577e-44
2.05793e-49
5.72362e-50
2.08177e-50
2.51837e-48
2.80311e-47
4.82679e-47
3.52451e-47
4.88528e-51
4.75755e-51
3.98583e-51
1.34851e-49
1.43442e-48
1.59852e-48
2.03055e-49
1.03275e-51
1.9952e-51
2.31303e-51
4.37418e-51
1.75476e-50
2.15072e-50
1.08892e-50
8.93743e-51
6.2742e-50
6.77981e-50
9.61352e-50
1.36812e-49
5.20386e-50
2.99678e-51
8.14637e-49
1.21433e-48
7.97724e-49
7.4194e-49
8.60725e-49
8.89828e-49
1.38718e-49
1.34392e-46
4.78916e-47
1.29708e-47
4.2153e-48
1.29328e-47
3.67954e-47
1.10377e-46
1.45461e-48
2.84555e-49
4.3542e-50
3.03873e-48
6.21866e-47
2.82549e-46
1.17198e-45
1.97143e-51
2.92822e-51
1.58502e-51
3.13475e-49
3.22201e-48
3.91441e-48
3.82208e-49
1.05756e-53
1.09227e-52
9.13786e-53
2.2469e-50
2.54549e-49
1.97396e-49
2.35368e-51
4.63459e-54
1.5902e-52
1.59016e-52
4.22624e-52
3.38154e-51
3.04644e-51
6.92922e-53
1.53879e-52
1.03009e-50
1.21966e-50
4.79631e-51
1.61229e-50
1.24778e-50
1.7618e-52
1.28025e-50
1.65952e-49
1.7261e-49
5.64831e-50
1.76277e-49
1.4796e-49
4.89934e-51
1.44228e-47
6.39516e-48
2.6128e-48
4.92483e-49
2.03749e-48
5.03851e-48
1.20038e-47
7.94289e-50
2.63313e-50
5.62353e-51
1.27729e-48
1.25522e-47
4.52544e-47
9.87083e-47
6.40259e-53
5.70972e-52
3.06479e-52
1.63785e-49
1.07867e-48
1.33185e-48
2.90931e-50
2.63664e-54
2.80165e-53
1.75312e-53
1.12858e-50
8.27904e-50
9.20398e-50
1.71923e-51
3.54258e-54
6.96442e-53
4.76683e-53
1.89314e-52
1.45114e-51
1.57842e-51
6.91119e-53
1.14391e-52
4.6229e-51
3.22487e-51
1.16817e-51
6.29051e-51
7.33487e-51
1.83185e-52
2.39818e-51
6.61478e-50
4.70511e-50
1.59952e-50
7.26327e-50
7.52479e-50
2.39435e-51
3.1638e-48
1.68875e-48
5.79757e-49
1.07427e-49
5.09954e-49
1.21106e-48
1.59434e-48
1.16759e-50
4.23512e-51
6.43513e-52
2.51219e-49
2.3409e-48
8.49523e-48
2.05514e-47
2.22926e-52
2.0821e-52
5.1911e-53
2.61301e-50
2.82573e-49
7.41305e-49
5.64921e-49
5.95125e-54
1.01747e-53
2.3208e-54
1.4151e-51
1.50771e-50
5.1149e-50
1.84984e-50
9.5872e-54
2.79541e-53
9.29698e-54
2.89061e-53
3.37306e-52
8.71995e-52
2.75586e-52
7.16742e-52
2.19079e-51
5.82475e-52
1.81559e-52
1.82674e-51
4.45288e-51
1.32984e-51
2.27289e-50
3.57597e-50
1.01655e-50
3.06373e-51
2.70835e-50
5.54682e-50
2.75454e-50
6.47109e-49
4.93414e-49
8.99071e-50
2.35564e-50
1.61082e-49
4.77342e-49
4.72842e-49
1.31005e-51
3.00065e-52
3.58937e-53
2.37225e-50
2.4508e-49
1.12799e-48
3.62557e-48
7.85515e-53
2.41752e-53
4.56828e-54
2.83241e-51
3.92928e-50
1.4167e-49
3.23114e-49
1.56047e-54
1.42481e-54
2.32613e-55
1.68037e-52
2.08704e-51
6.0559e-51
1.52816e-50
5.93289e-54
4.12997e-54
1.64236e-54
7.9368e-54
7.7961e-53
1.53909e-52
1.93138e-52
2.61455e-52
1.94648e-52
9.66854e-53
4.42844e-53
3.95416e-52
9.35339e-52
7.08531e-52
1.13478e-50
5.80393e-51
1.04419e-51
3.5024e-52
4.08326e-51
1.21155e-50
2.32241e-50
1.2362e-49
6.00688e-50
7.06449e-51
1.9995e-51
3.15326e-50
8.37742e-50
1.6533e-49
6.80165e-44
4.71309e-49
9.32617e-54
7.84074e-54
1.21518e-53
1.60504e-53
1.16794e-53
1.68185e-44
7.3768e-50
6.65526e-55
6.29929e-55
1.13598e-54
1.44602e-54
7.23794e-55
1.20533e-45
1.12177e-50
1.04964e-55
1.16907e-56
3.35195e-56
5.69725e-56
4.50664e-56
4.98001e-47
8.97622e-52
1.61477e-56
4.3033e-58
9.987e-59
5.35469e-58
4.9042e-58
1.58829e-47
1.53893e-52
2.02913e-57
1.14178e-57
3.4091e-57
5.29829e-57
2.19032e-57
5.48443e-47
4.36979e-52
2.72344e-56
5.62455e-56
1.09625e-55
1.27051e-55
7.4592e-56
8.185e-46
5.89933e-51
3.98009e-55
7.28928e-55
9.93552e-55
1.34417e-54
1.08293e-54
1.89754e-45
3.60505e-50
2.41205e-53
4.95606e-53
7.12978e-53
8.46503e-53
6.49214e-53
1.28597e-46
8.77765e-52
1.72172e-54
3.64983e-54
5.76037e-54
6.45755e-54
3.69843e-54
8.43218e-48
1.89823e-52
2.537e-56
7.32075e-56
2.47368e-55
3.3834e-55
1.72507e-55
3.40924e-51
1.09234e-55
1.49693e-59
8.63229e-59
7.20201e-58
3.96716e-57
1.84121e-57
1.02324e-49
2.49416e-54
2.03941e-57
7.03698e-57
2.43106e-56
3.39585e-56
1.45691e-56
6.3016e-49
7.51716e-54
1.47907e-55
3.16299e-55
5.17911e-55
5.96956e-55
3.76996e-55
2.94428e-47
3.79588e-52
2.09107e-54
4.22976e-54
5.25369e-54
6.97007e-54
5.99546e-54
7.93903e-47
1.3234e-51
8.32748e-53
1.37831e-52
2.60698e-52
3.0234e-52
3.43168e-52
1.32246e-48
1.74186e-53
2.80027e-54
6.53437e-54
1.20717e-53
1.42451e-53
1.13946e-53
1.25785e-49
3.42183e-54
3.70882e-56
1.17615e-55
4.49444e-55
5.71844e-55
4.93614e-55
4.51965e-53
1.51746e-56
3.18539e-59
3.49333e-58
3.31292e-57
1.11223e-56
7.43591e-57
1.42696e-51
4.54536e-56
4.20653e-57
1.33108e-56
5.70469e-56
7.72326e-56
4.87479e-56
9.58201e-51
4.47456e-55
3.04715e-55
7.48425e-55
1.37656e-54
1.64007e-54
1.23626e-54
9.04978e-49
2.29727e-53
1.05449e-53
1.72387e-53
2.6907e-53
3.58641e-53
3.46567e-53
5.65759e-48
2.84464e-52
2.98278e-52
5.5825e-52
8.19906e-52
8.48193e-52
8.11296e-52
2.57869e-50
1.29004e-54
1.26907e-54
3.50593e-54
7.22274e-54
1.12811e-53
5.31356e-54
2.36606e-51
9.23941e-56
1.39544e-56
3.55491e-56
1.42851e-55
2.29579e-55
1.0934e-55
6.91462e-54
1.02785e-57
7.22291e-59
5.10053e-58
3.2051e-57
6.58473e-57
2.56461e-57
2.30445e-53
2.06449e-57
1.90004e-57
5.15695e-57
2.26941e-56
3.28764e-56
2.85107e-56
5.12951e-52
9.92086e-56
1.67526e-55
4.41977e-55
9.32411e-55
1.491e-54
9.16482e-55
5.13891e-50
1.6759e-53
3.51724e-53
6.24366e-53
1.06766e-52
1.13223e-52
1.20416e-52
4.81772e-49
6.99983e-52
2.42883e-51
6.16353e-51
5.55056e-51
2.91893e-51
2.54348e-51
7.11102e-52
8.59351e-55
2.89031e-54
7.75607e-54
7.77845e-54
2.72602e-54
1.64585e-54
4.09507e-53
3.21224e-57
1.33505e-57
3.2981e-57
5.95641e-57
9.72918e-57
2.21304e-56
1.22173e-55
7.94197e-59
1.21057e-59
4.44187e-59
1.12547e-58
2.52804e-58
3.60015e-58
4.31686e-55
1.20074e-58
1.4634e-58
3.81084e-58
8.05637e-58
1.16749e-57
2.1177e-57
2.84005e-53
5.93261e-56
2.14935e-55
6.37976e-55
7.57969e-55
2.6935e-55
1.62317e-55
4.51164e-51
5.24374e-53
1.99813e-52
4.80246e-52
3.65114e-52
2.0333e-52
2.17347e-52
6.52585e-50
3.48017e-52
2.65879e-50
3.78506e-50
2.58187e-50
8.78035e-51
6.2615e-51
1.68136e-52
3.64091e-54
1.7418e-53
3.23048e-52
1.70549e-52
3.34282e-53
9.87179e-54
1.16511e-54
3.43275e-57
2.17668e-57
1.43666e-56
5.40483e-57
4.09746e-58
3.5065e-58
6.72843e-57
1.64833e-58
4.3573e-59
4.25793e-58
5.37967e-59
5.23667e-60
1.19796e-59
2.57744e-56
3.04195e-58
2.72773e-58
1.90683e-57
7.15793e-58
5.05797e-59
3.29981e-59
1.30095e-53
2.87683e-55
1.26596e-54
2.36506e-53
1.67992e-53
3.36332e-54
1.03567e-54
3.52011e-51
2.69383e-53
2.11813e-51
3.05113e-51
2.10085e-51
7.55986e-52
4.58458e-52
1.46878e-48
8.43556e-49
3.92088e-49
2.18375e-49
1.16404e-49
3.63513e-50
1.22105e-50
1.17997e-49
4.55022e-50
1.51929e-50
6.8344e-51
2.17878e-51
3.66078e-52
4.43992e-53
1.33612e-52
7.10139e-53
1.86125e-53
2.62465e-54
2.76027e-55
1.34626e-56
1.82143e-58
1.15874e-54
2.82502e-54
6.23598e-55
6.1989e-56
4.75661e-57
3.0455e-58
8.68239e-60
7.1787e-54
5.75219e-54
1.5155e-54
2.9636e-55
2.92851e-56
1.72011e-57
1.94203e-59
1.00461e-50
3.2438e-51
1.12796e-51
5.05715e-52
2.16338e-52
3.66215e-53
4.64702e-54
8.54413e-50
5.92805e-50
3.00178e-50
1.72153e-50
8.99567e-51
3.11679e-51
1.1076e-51
1.13056e-57
1.26261e-57
1.04475e-57
4.96602e-58
7.12254e-57
1.04761e-51
1.06887e-46
7.38893e-59
1.03204e-58
8.00969e-59
4.2238e-59
1.68534e-57
3.87284e-52
1.24583e-46
4.25147e-60
4.28294e-60
2.91295e-60
1.57314e-60
4.26158e-57
4.71403e-52
2.51563e-47
7.77752e-60
8.26531e-60
1.46331e-60
1.57943e-59
6.89818e-57
3.49099e-52
1.00739e-47
8.4537e-58
1.67728e-57
1.32245e-57
3.29357e-58
5.14371e-57
5.62389e-52
3.10768e-47
2.78006e-56
4.45808e-56
3.87132e-56
1.68828e-56
2.00527e-56
2.39913e-51
7.67913e-46
4.13355e-55
4.96119e-55
4.22589e-55
2.12603e-55
2.32078e-55
1.09044e-50
1.03463e-45
6.37923e-57
6.6922e-57
4.91506e-57
3.19316e-57
2.86444e-57
6.68985e-53
3.37097e-48
3.21275e-58
4.53562e-58
3.85883e-58
2.07616e-58
1.43204e-58
5.42062e-54
9.74943e-49
1.46496e-59
2.4567e-59
1.6542e-59
4.24064e-60
2.04082e-58
6.24054e-54
1.49368e-49
3.83702e-59
1.15808e-58
1.89746e-59
2.05704e-60
1.29498e-60
2.38102e-56
5.22301e-52
4.91251e-57
1.12827e-56
7.68895e-57
2.1406e-57
8.22614e-58
7.67144e-54
1.94491e-49
1.24964e-55
1.95327e-55
1.71341e-55
1.02705e-55
4.60294e-56
3.58767e-53
6.1391e-48
2.18352e-54
2.75046e-54
2.2457e-54
1.48655e-54
6.98204e-55
6.61351e-52
3.18176e-47
2.20719e-56
2.07303e-56
1.73814e-56
8.43843e-57
4.94113e-57
2.7495e-54
7.65291e-50
7.57552e-58
9.32787e-58
7.67661e-58
3.61233e-58
1.44553e-58
9.3522e-56
7.04718e-51
2.45356e-59
3.0107e-59
2.15867e-59
5.01893e-60
7.97449e-60
1.00352e-55
1.93185e-51
1.77874e-58
2.71015e-58
7.99723e-59
8.33495e-60
7.70469e-61
1.32358e-57
1.4626e-54
1.50375e-56
1.63766e-56
1.25345e-56
2.97777e-57
9.1563e-58
1.25088e-55
2.35345e-51
3.50043e-55
4.08821e-55
3.36886e-55
1.69837e-55
6.59687e-56
7.8215e-55
5.15277e-50
1.0254e-53
8.90858e-54
7.43979e-54
3.65736e-54
2.1392e-54
3.38302e-53
1.60267e-48
8.68574e-56
7.95755e-56
7.97176e-56
5.26439e-56
2.55642e-56
2.25097e-55
4.04734e-51
6.30041e-58
9.43728e-58
5.59037e-58
2.45099e-58
7.64426e-59
2.48373e-57
1.68979e-52
2.0954e-59
2.43277e-59
1.18317e-59
2.39431e-60
1.24435e-60
2.51655e-57
3.61846e-53
7.04953e-59
1.56243e-58
6.96767e-59
1.06253e-59
1.51584e-60
8.25079e-59
2.19933e-55
3.72078e-57
6.47082e-57
3.81282e-57
8.83949e-58
3.26774e-58
3.29993e-57
3.8314e-53
1.74136e-55
3.21728e-55
1.97291e-55
8.77614e-56
2.95091e-56
5.00374e-56
1.63487e-51
2.50558e-53
2.4813e-53
2.20183e-53
1.23464e-53
6.22036e-54
6.46771e-54
8.42652e-50
1.60953e-55
1.56191e-55
3.45971e-55
3.11314e-55
1.20918e-55
5.19252e-56
2.76563e-52
2.12499e-58
2.7095e-58
6.51454e-58
1.1247e-57
3.43847e-58
2.43912e-58
3.91426e-54
2.38203e-60
1.12649e-60
4.94266e-61
1.91943e-61
9.4663e-62
8.01799e-59
6.30086e-55
1.46167e-59
7.70538e-60
2.42318e-60
9.45338e-61
2.3725e-61
4.47357e-60
4.07033e-57
9.94542e-58
3.65863e-58
1.44174e-58
7.82671e-59
3.04579e-59
1.18945e-58
7.14937e-55
7.05175e-56
1.11039e-55
2.01427e-55
1.84828e-55
5.86166e-56
2.22551e-56
7.31254e-53
7.76031e-53
8.11596e-53
1.19223e-52
1.06332e-52
3.72053e-53
1.3987e-53
4.78928e-51
5.19613e-55
6.59499e-55
1.84802e-54
3.26464e-54
3.69078e-54
3.88448e-56
2.70428e-53
8.10939e-58
3.15444e-57
1.61698e-56
3.25904e-56
1.6131e-57
5.31346e-58
7.4324e-55
3.65351e-62
5.8149e-62
9.89447e-61
3.0385e-60
4.30185e-61
6.33602e-60
1.55414e-56
4.87201e-61
1.68464e-61
1.29776e-60
9.50018e-60
9.53747e-61
4.11622e-60
2.2815e-58
1.66033e-59
1.37827e-59
1.39313e-58
3.31507e-58
5.09874e-59
8.64797e-59
2.73011e-56
4.34714e-55
1.35587e-54
4.01626e-54
7.97981e-54
4.1614e-55
1.0065e-55
3.21523e-53
1.92113e-52
2.34545e-52
6.47001e-52
1.06075e-51
9.05604e-52
6.30719e-54
2.389e-51
1.03738e-54
3.23695e-54
8.55902e-54
2.00088e-53
6.55498e-53
1.80993e-52
3.99349e-52
4.26503e-57
3.61576e-56
2.1337e-55
6.86016e-55
1.5792e-54
5.82429e-54
2.5701e-53
1.96117e-62
2.35393e-60
5.20763e-59
5.09835e-58
3.65357e-57
1.32795e-56
1.76287e-56
2.20237e-61
7.11103e-60
1.05856e-58
1.35018e-57
1.32048e-56
5.57134e-56
1.30032e-56
5.5363e-60
3.41442e-58
6.43222e-57
5.68021e-56
4.04607e-55
1.45739e-54
2.4684e-54
1.9727e-54
1.49515e-53
5.14088e-53
1.64087e-52
4.12655e-52
1.47739e-51
3.95705e-51
3.76967e-52
1.11189e-51
2.81072e-51
6.38728e-51
1.38877e-50
2.44511e-50
5.03725e-50
2.90429e-74
1.40102e-72
1.3355e-71
1.00144e-70
1.70842e-69
9.84835e-66
9.0757e-62
6.54413e-75
2.12559e-73
2.02119e-72
1.10942e-71
1.71558e-70
6.90987e-67
4.68599e-63
1.04627e-75
1.30488e-74
1.46761e-73
1.33978e-72
9.1403e-72
5.88153e-68
2.40337e-64
1.2169e-74
1.93435e-73
1.41809e-72
9.52629e-72
1.85448e-70
5.66852e-67
2.96879e-63
3.33443e-73
7.01787e-72
3.4565e-71
3.19422e-70
6.81471e-69
2.39616e-65
2.66305e-61
5.37434e-72
7.89417e-71
6.87655e-70
6.31119e-69
6.63144e-68
4.39553e-64
3.92224e-60
3.14425e-71
5.4498e-70
5.62551e-69
4.54141e-68
8.79535e-67
6.71279e-63
4.30651e-59
1.59074e-73
8.8063e-72
6.09401e-71
6.37643e-70
5.55574e-69
6.17311e-65
6.7206e-61
2.94499e-74
9.01902e-73
5.29308e-72
4.21295e-71
4.30304e-70
3.87983e-66
2.62625e-62
3.70229e-75
8.14046e-74
4.27258e-73
3.27784e-72
2.40499e-71
1.71456e-67
9.87478e-64
3.30593e-74
5.55048e-73
3.31999e-72
3.23615e-71
1.72295e-70
8.44284e-67
4.24176e-63
1.69579e-72
3.40384e-71
2.18513e-70
2.19461e-69
1.18699e-68
7.23519e-65
5.7434e-61
2.41638e-71
5.44585e-70
3.70025e-69
3.15463e-68
2.15733e-67
1.53656e-63
1.56714e-59
1.64186e-70
3.55906e-69
2.78137e-68
2.78834e-67
2.65253e-66
2.64782e-62
3.10455e-58
9.17957e-73
2.85764e-71
1.9071e-70
1.79883e-69
2.56537e-68
3.89183e-64
2.88274e-60
1.20328e-73
2.50909e-72
1.99945e-71
1.57176e-70
1.79992e-69
1.97174e-65
1.05893e-61
1.19508e-74
1.65871e-73
1.24381e-72
8.75868e-72
9.8773e-71
7.65998e-67
4.0978e-63
1.42288e-73
2.2872e-72
1.18987e-71
8.13492e-71
5.57596e-70
2.55292e-66
1.61295e-62
8.19747e-72
1.55288e-70
8.79086e-70
6.27113e-69
4.69796e-68
2.16759e-64
1.86156e-60
7.32188e-71
2.54431e-69
1.42698e-68
1.11417e-67
9.14149e-67
5.11319e-63
6.0337e-59
5.33617e-70
1.84023e-68
1.2825e-67
1.16198e-66
1.24544e-65
9.2054e-62
1.99568e-57
2.28765e-72
6.811e-71
7.11163e-70
6.09822e-69
4.44502e-68
6.83417e-64
1.26015e-59
3.11181e-73
7.24004e-72
6.83868e-71
4.93045e-70
3.84608e-69
3.08512e-65
1.97909e-61
2.1259e-74
3.739e-73
3.9185e-72
2.32563e-71
1.50731e-70
1.0733e-66
4.20748e-63
2.74595e-73
5.06319e-72
3.46597e-71
1.89196e-70
1.03474e-69
3.74078e-66
1.76976e-62
1.88358e-71
3.50511e-70
2.63546e-69
1.79037e-68
8.78236e-68
2.51215e-64
1.15277e-60
2.4855e-70
6.57998e-69
3.9404e-68
3.31319e-67
2.38144e-66
8.91831e-63
6.23e-59
1.77479e-69
3.79424e-68
3.33776e-67
3.651e-66
2.59416e-65
1.70121e-61
3.66128e-57
7.84787e-72
1.61647e-70
1.58994e-69
9.13059e-69
8.01352e-68
7.32551e-64
1.66665e-59
8.26713e-73
1.68911e-71
1.48497e-70
8.71948e-70
6.50586e-69
2.72404e-65
1.09405e-61
4.89073e-74
9.6589e-73
7.815e-72
3.43347e-71
3.45687e-70
7.93021e-67
2.37749e-63
6.61413e-73
9.03888e-72
4.18167e-71
2.52835e-70
2.54468e-69
5.00644e-66
5.98153e-63
5.00109e-71
8.01718e-70
3.86673e-69
2.85652e-68
2.45652e-67
2.96465e-64
4.83442e-61
4.94479e-70
1.24883e-68
7.12962e-68
5.72388e-67
4.48811e-66
9.81619e-63
4.20528e-59
4.01778e-69
9.44048e-68
5.49489e-67
5.09956e-66
5.72061e-65
2.58448e-61
5.83686e-57
1.55896e-71
2.06519e-70
2.14358e-69
1.30693e-68
1.10004e-67
6.3897e-64
2.15193e-59
1.42913e-72
2.2511e-71
1.9028e-70
1.1491e-69
7.24146e-69
1.56597e-65
5.36692e-62
5.40023e-74
6.75784e-73
5.20068e-72
2.53633e-71
2.5516e-70
3.75794e-67
3.8846e-64
4.244e-73
7.19257e-72
4.03599e-71
1.99136e-70
2.02171e-69
3.84985e-66
6.38178e-63
3.20076e-71
6.54759e-70
3.84849e-69
2.89158e-68
1.87231e-67
1.44148e-64
1.19016e-61
6.544e-70
1.40855e-68
8.68999e-68
8.1357e-67
4.99757e-66
5.65822e-63
2.28543e-59
5.18521e-69
1.35544e-67
8.82621e-67
8.80266e-66
7.62725e-65
2.25034e-61
6.9897e-57
1.75225e-71
2.34803e-70
2.95775e-69
1.72187e-68
1.3734e-67
3.19625e-64
1.76922e-59
1.77847e-72
2.66977e-71
2.25899e-70
1.31949e-69
8.13746e-69
1.34296e-65
1.59716e-61
1.10752e-73
1.57976e-72
7.37893e-72
1.75447e-71
2.03541e-70
4.75242e-67
1.48607e-63
6.91259e-73
1.05603e-71
4.46002e-71
1.22055e-70
5.02085e-67
1.9662e-64
1.03842e-62
7.33438e-71
1.12686e-69
3.94333e-69
1.66265e-68
1.45696e-67
1.80459e-64
6.27475e-61
7.36624e-70
1.55085e-68
9.0875e-68
9.40976e-67
5.49205e-66
4.59613e-63
6.16434e-59
7.29681e-69
1.51692e-67
1.08959e-66
1.16696e-65
1.02651e-64
1.10397e-61
6.08746e-57
3.80535e-77
6.29201e-76
5.05877e-73
1.2229e-68
1.52617e-67
2.15689e-66
4.25875e-65
1.84438e-78
4.32514e-77
8.38153e-75
7.1954e-73
5.15261e-73
1.15058e-69
1.4589e-67
9.93896e-76
1.73514e-74
9.07193e-74
4.84897e-73
5.58407e-72
2.14158e-68
4.58535e-65
5.45985e-74
8.80839e-73
3.91128e-72
2.0932e-71
1.21879e-68
5.65954e-66
4.91288e-64
8.57568e-73
1.26887e-71
5.19439e-71
5.64328e-70
3.98259e-69
8.52961e-66
2.05015e-62
1.02437e-75
2.27666e-74
1.16084e-72
1.05067e-69
5.95141e-70
5.67585e-67
6.74996e-65
2.08046e-74
4.5521e-73
5.19229e-70
1.18865e-65
1.19093e-64
1.70178e-63
2.19978e-62
1.09155e-79
9.29362e-78
5.693e-76
2.39848e-74
3.9045e-73
3.99004e-72
8.2766e-71
3.30625e-82
2.87479e-80
6.88769e-79
2.65579e-77
6.50157e-76
2.4216e-74
1.11144e-72
1.4369e-77
3.88146e-76
2.20957e-74
1.61624e-72
9.26017e-71
6.79732e-69
9.13715e-67
2.92421e-75
5.00539e-74
2.77853e-73
5.88392e-72
4.18095e-70
1.41481e-67
2.56846e-65
1.51898e-74
2.77611e-73
1.09218e-71
8.673e-70
4.87401e-68
3.47202e-66
4.43037e-64
2.62731e-79
2.03255e-77
4.35927e-76
1.5036e-74
3.17042e-73
1.16218e-71
5.15388e-70
6.62062e-77
4.44709e-75
2.62423e-73
1.7108e-71
1.91661e-70
2.54649e-69
3.01862e-68
2.15863e-85
1.40025e-83
7.4125e-82
2.6983e-80
4.74947e-79
5.34317e-78
1.00743e-76
4.28949e-85
1.51814e-83
1.45009e-81
9.69056e-80
6.88495e-78
3.97147e-76
3.96621e-74
3.77671e-79
1.41586e-77
1.43379e-75
9.75624e-74
6.55735e-72
3.59393e-70
3.97506e-68
2.0515e-76
3.5238e-75
2.0582e-74
4.21749e-73
2.18869e-71
4.40397e-69
8.48087e-67
7.83427e-76
1.13651e-74
6.16483e-73
4.24516e-71
2.91913e-69
1.18909e-67
1.0102e-65
9.04325e-82
1.20825e-80
6.12472e-79
3.90431e-77
2.97126e-75
1.28285e-73
1.0458e-71
1.15885e-82
8.11037e-81
5.21808e-79
1.95365e-77
2.35139e-76
3.37239e-75
5.48066e-74
2.55978e-91
1.45449e-89
8.20971e-88
4.18131e-86
1.14358e-84
2.81855e-83
2.10568e-81
2.507e-86
3.82544e-85
3.66688e-83
2.44683e-81
1.84327e-79
1.13769e-77
9.44023e-76
2.01052e-80
3.59786e-79
3.5057e-77
2.338e-75
1.67552e-73
1.03027e-71
9.45081e-70
1.68921e-77
2.72343e-76
1.56096e-75
2.60059e-74
1.01401e-72
1.59665e-70
3.15756e-68
2.21447e-77
3.1575e-76
1.65366e-74
1.82086e-72
7.70151e-71
3.78539e-69
4.8636e-67
2.43542e-83
3.69958e-82
1.84014e-80
1.83804e-78
8.27328e-77
4.1328e-75
4.95123e-73
1.66154e-88
9.91858e-87
5.93043e-85
3.14997e-83
4.58751e-82
1.45421e-80
9.80517e-79
2.62154e-93
4.43685e-92
7.93314e-90
1.06104e-86
5.39758e-85
9.07605e-84
8.37886e-83
1.15784e-87
1.92182e-86
1.70924e-84
1.1526e-82
8.45058e-81
4.79793e-79
4.19516e-77
9.84675e-82
1.78485e-80
1.60617e-78
1.07093e-76
7.2258e-75
4.11381e-73
4.15777e-71
2.84628e-78
3.48957e-77
2.12057e-76
2.7036e-75
7.83178e-74
8.78396e-72
2.50852e-69
9.76692e-79
1.74371e-77
7.81275e-76
9.08178e-74
3.87373e-72
1.68318e-70
2.47057e-68
1.05402e-84
2.15902e-83
8.99406e-82
1.02931e-79
4.84117e-78
1.95067e-76
2.74142e-74
2.29501e-90
5.48238e-89
2.61309e-87
4.53804e-85
3.34445e-82
4.50149e-82
5.59864e-80
1.55383e-94
1.97093e-93
1.73579e-91
5.90996e-90
5.65503e-88
3.03381e-86
4.26035e-84
7.24242e-89
1.10221e-87
9.57294e-86
5.75051e-84
4.24958e-82
2.39048e-80