/*--------------------------------*- C++ -*----------------------------------*\
  =========                 |
  \\      /  F ield         | OpenFOAM: The Open Source CFD Toolbox
   \\    /   O peration     | Website:  https://openfoam.org
    \\  /    A nd           | Version:  6
     \\/     M anipulation  |
\*---------------------------------------------------------------------------*/
FoamFile
{
    version     2.0;
    format      ascii;
    class       volScalarField;
    location    "0.0025";
    object      p;
}
// * * * * * * * * * * * * * * * * * * * * * * * * * * * * * * * * * * * * * //

dimensions      [1 -1 -2 0 0 0 0];

internalField   nonuniform List<scalar> 
3773
(
39770.3
39771.1
39771.8
39771.9
39770.8
39769.2
39768
98333.2
98333.2
98333.5
98333.9
98334
98333.5
98334
134138
134139
134139
134139
134139
134139
134138
146128
146128
146127
146127
146127
146128
146128
134139
134139
134139
134139
134138
134138
134138
98328.8
98329.7
98329.7
98328.9
98329.3
98329.3
98329.2
39767.9
39767.9
39768.7
39769.7
39768.9
39768.1
39767.7
39769.7
39771.8
39772.3
39772.2
39771.4
39770.2
39767.9
98333.4
98332.3
98333
98333.5
98333.4
98332.6
98333.7
134138
134139
134139
134140
134139
134139
134139
146128
146128
146127
146127
146127
146128
146128
134140
134139
134139
134139
134139
134139
134138
98329
98328.8
98328.9
98329.2
98328.6
98328
98329.1
39767.4
39768
39769.4
39769.8
39769.6
39769.3
39767.4
39766
39769.9
39770.7
39770.1
39769.3
39768
39764.6
98336.3
98332.9
98333.7
98334.3
98334.4
98334.3
98336.3
134139
134140
134140
134140
134140
134140
134140
146128
146127
146127
146126
146127
146127
146127
134140
134140
134139
134139
134139
134139
134139
98331.8
98329.9
98329.9
98331.8
98329.7
98329.1
98331.7
39763.7
39766.1
39767.5
39765.9
39767.6
39767.8
39764.2
39765.1
39769.7
39771.3
39771.3
39769.9
39767.2
39763.7
98338.2
98333.5
98334.3
98334.2
98335
98336.3
98338.6
134139
134140
134140
134141
134140
134140
134140
146127
146127
146126
146126
146126
146127
146127
134140
134140
134140
134140
134139
134138
134139
98334
98330.9
98330.9
98333.1
98330.8
98331.1
98334.1
39762.5
39766
39767.3
39765.6
39768.1
39767.1
39763.2
39765.4
39771.6
39771.3
39772.7
39771.3
39767.7
39764.2
98338
98332.8
98334.7
98333.6
98334.7
98336.5
98338.7
134139
134140
134140
134141
134140
134140
134140
146126
146126
146126
146125
146126
146126
146126
134140
134139
134139
134139
134138
134138
134139
98334.1
98331.7
98330.9
98333
98330.6
98331.9
98334.4
39762.8
39766.1
39767.9
39767
39769.5
39766.9
39763.5
39765.9
39770
39768.3
39771.6
39770.7
39768.2
39764.9
98337.5
98335.1
98337.4
98335.4
98335.7
98336.4
98338.1
134139
134140
134140
134140
134140
134140
134140
146126
146126
146125
146125
146125
146126
146126
134139
134139
134139
134139
134138
134138
134138
98333.7
98334.2
98332.3
98334.3
98332.6
98332.4
98333.8
39763.2
39763.7
39767.1
39765.7
39768.1
39766.7
39764.1
39767.3
39765.9
39769.3
39769.8
39768.9
39767.8
39766.5
98336.4
98338.6
98337.2
98337.2
98337
98336.4
98336.9
134138
134139
134140
134140
134140
134140
134140
146125
146125
146125
146125
146125
146125
146126
134139
134139
134139
134139
134139
134138
134138
98332.4
98333.8
98333.4
98333.8
98335.8
98332.6
98332.5
39764.8
39764
39766.2
39766.8
39763.3
39766.3
39765.8
46928.3
46929.1
46929.9
46931.4
46933.5
46936.5
46939.1
115860
115861
115863
115866
115869
115874
115878
157959
157960
157961
157962
157965
157968
157970
172058
172058
172057
172056
172056
172058
172059
157980
157978
157973
157970
157968
157969
157969
115890
115885
115879
115873
115870
115869
115870
46942.7
46939.4
46934.1
46930.4
46928.8
46928.8
46929.2
47007
47006.8
47006.7
47005.5
47001.7
46993.1
47003.8
116066
116067
116069
116069
116068
116073
116067
158277
158278
158279
158281
158281
158280
158279
172405
172404
172405
172406
172407
172407
172407
158286
158285
158284
158286
158286
158287
158288
116084
116077
116077
116077
116077
116078
116078
46993.1
47003
47004
47004.4
47005.1
47006.5
47008
47208.8
47208.2
47205
47208.2
47196.1
47195.9
47197.6
116665
116665
116667
116661
116662
116654
116645
159133
159134
159136
159140
159138
159135
159134
173356
173356
173358
173361
173366
173367
173367
159126
159128
159131
159136
159141
159143
159143
116658
116662
116667
116672
116677
116679
116679
47188.9
47192.3
47196.1
47199.4
47202.4
47204.9
47205.9
47708.1
47705.9
47704.4
47700
47695.8
47697.2
47682.1
117878
117884
117878
117875
117874
117862
117855
160746
160749
160747
160747
160748
160749
160745
175095
175095
175096
175099
175106
175105
175113
160723
160724
160726
160732
160741
160744
160745
117851
117853
117858
117862
117870
117873
117872
47690.4
47691.9
47692.2
47693.7
47699.6
47702.4
47703.1
48526.1
48529.1
48547
48529
48548.8
48529.4
48527.4
119717
119719
119737
119730
119742
119723
119708
163082
163091
163088
163088
163093
163087
163076
177574
177572
177578
177585
177597
177587
177592
163077
163070
163069
163083
163088
163090
163096
119707
119704
119694
119701
119717
119714
119717
48537.4
48528.7
48515.7
48521.8
48545.7
48534.1
48533.5
49480.7
49531.4
49497.3
49487.2
49491.9
49480.5
49478.2
121729
121761
121763
121758
121750
121738
121786
165726
165731
165768
165786
165777
165768
165781
180428
180438
180457
180469
180451
180468
180443
165782
165791
165790
165788
165787
165790
165781
121775
121775
121770
121776
121770
121748
121784
49513.1
49508.1
49497.1
49496.1
49505.4
49513.2
49529.4
50355
50288.1
50303.7
50328.6
50322.7
50331.9
50311.3
123542
123529
123554
123540
123535
123566
123583
168080
168102
168150
168136
168137
168156
168143
182923
182981
183065
183056
183002
183004
182949
168054
168084
168179
168157
168103
168082
168036
123523
123508
123566
123568
123534
123521
123492
50312.2
50336
50298.4
50301.2
50303.5
50328.8
50302.3
51617.1
51430.6
51401.5
51400.8
51378
51396.8
51456.1
125649
125629
125652
125653
125578
125636
125674
170314
170361
170362
170474
170454
170452
170406
185400
185642
185688
185727
185672
185778
185485
170295
170391
170370
170358
170412
170310
170254
125589
125626
125626
125605
125588
125582
125574
51489.1
51500.3
51428.7
51400.4
51383.5
51388.3
51569.5
51672.5
51616.6
51654.4
51684.5
51648.8
51608
51651.5
126100
126162
126229
126264
126243
126177
126113
171046
171121
171160
171176
171188
171134
171055
186068
186129
186118
186120
186151
186130
186062
171008
171080
171125
171133
171124
171071
170999
126043
126136
126181
126202
126172
126103
126034
51640.4
51627.4
51643.7
51663.1
51626.1
51580
51624.6
51608.7
51680.1
51764.9
51825.6
51758.3
51685.9
51622
126092
126204
126336
126390
126342
126226
126107
171030
171082
171166
171193
171194
171119
171054
185978
186013
186033
186027
186032
186009
185977
171012
171067
171134
171146
171114
171030
170976
126052
126164
126289
126330
126268
126130
126022
51598.6
51663.8
51739.3
51803.2
51732.1
51645.9
51579.4
51320.9
51518.1
51646.6
51733.2
51626.8
51527.4
51350.6
125573
125769
125929
125967
125919
125775
125601
170297
170376
170455
170483
170474
170423
170327
185154
185194
185182
185195
185209
185189
185139
170300
170360
170416
170417
170401
170330
170245
125558
125746
125888
125917
125861
125698
125513
51325.6
51505.4
51630.5
51706.2
51606.7
51477.7
51297
50542
50850.9
51280.7
51526.6
51234
50843.8
50577.7
124182
124525
124891
124979
124829
124525
124226
168812
168934
168974
168994
169028
168967
168826
183620
183627
183552
183546
183563
183635
183610
168795
168910
168934
168933
168912
168885
168759
124159
124483
124859
124936
124828
124454
124132
50527.4
50860.8
51352.2
51538.7
51228.3
50790.2
50507.6
48619.6
49380.3
51328.7
52427.5
51128.6
49194
48636.6
120799
121821
123993
125051
123926
121810
120846
165620
166394
167281
167586
167292
166407
165638
180633
181215
181540
181641
181541
181225
180631
165586
166346
167226
167544
167231
166337
165591
120771
121788
124048
125084
123956
121774
120776
48621.5
49438
51473.6
52563.1
51276.7
49313.5
48598.3
45110.9
48286.2
53857.5
56919.6
54075.3
48413.3
45088.3
115021
119744
126060
129305
126066
119723
115030
160528
164103
167057
168036
167104
164145
160618
176265
178861
180367
180643
180394
178890
176309
160516
164067
167053
168055
167055
164119
160611
115075
119699
125984
129366
126142
119723
115044
45021.8
48104.9
53705.2
56768
53870.3
48259.8
45012.4
50900.8
50847.8
50807
50809.8
50809.1
50824
50839.3
124240
124287
124245
124279
124225
124315
124290
168729
168690
168694
168731
168813
168676
168725
183562
183508
183580
183538
183557
183385
183476
168644
168647
168697
168693
168694
168559
168616
124226
124167
124302
124312
124221
124237
124149
50830.9
50900.5
50796.3
50780.9
50803.5
50865.5
50862.9
50972.9
50919.4
50872.2
50871.3
50860.5
50883.3
50903.4
124341
124438
124393
124384
124358
124423
124394
168794
168753
168757
168793
168877
168736
168786
183609
183545
183622
183573
183602
183420
183508
168705
168705
168754
168748
168744
168616
168677
124331
124272
124409
124420
124329
124333
124249
50894.3
50964.9
50860.2
50839.6
50870.9
50936.8
50934.1
51048.3
50967.9
50922.4
50916
50912.7
50943.8
50964.6
124440
124530
124551
124482
124469
124531
124504
168850
168801
168816
168850
168946
168799
168844
183654
183583
183670
183618
183654
183473
183534
168762
168768
168804
168804
168802
168676
168732
124439
124361
124517
124484
124448
124426
124350
50957.3
51029.5
50929.4
50899.6
50943.4
51016.5
51005.7
51129.7
51029.6
51003.3
50982.6
50961.5
51007.7
51032
124534
124620
124612
124568
124581
124640
124612
168907
168874
168867
168910
169006
168867
168904
183723
183652
183741
183690
183729
183559
183586
168824
168825
168858
168870
168865
168744
168791
124545
124446
124622
124591
124547
124506
124446
51027.6
51095.2
51000.6
50969
51022.8
51114.4
51083.2
51213.7
51101.8
51082.7
51065
51053.3
51070.7
51103.2
124611
124702
124677
124642
124690
124729
124706
168967
168946
168921
168978
169083
168942
168967
183805
183741
183822
183780
183811
183667
183660
168893
168898
168922
168942
168939
168817
168853
124638
124516
124723
124681
124666
124614
124525
51101.7
51156.9
51069.1
51046.4
51080.4
51187.3
51161.2
51289.8
51164.7
51138.5
51125.9
51101.1
51124.9
51164.7
124682
124790
124745
124704
124790
124808
124798
169036
169025
168991
169053
169166
169028
169045
183905
183845
183918
183886
183901
183790
183758
168975
168986
169000
169025
169019
168906
168926
124730
124571
124796
124765
124760
124711
124597
51165.9
51209.6
51147.5
51113
51134.9
51243
51233.2
51343.3
51200.4
51184.1
51163.3
51141.3
51163.3
51204.5
124778
124897
124846
124798
124898
124907
124908
169148
169144
169111
169173
169287
169159
169173
184054
184008
184075
184050
184053
183975
183918
169105
169103
169120
169148
169138
169038
169042
124840
124673
124907
124869
124874
124826
124693
51209
51249.2
51193.7
51152.2
51166.8
51271.2
51284.6
48445
51824.7
57748.9
60970.1
57849.1
51881.3
48447.6
119211
123977
130749
134510
130667
123934
119326
162674
165945
168892
170053
168916
166005
162753
176963
179471
180992
181406
181022
179499
177007
162693
165941
168892
170124
168925
166006
162773
119322
123906
130701
134648
130759
123988
119352
48394.9
51755.7
57611.6
60995.4
57811.7
51853.4
48388.2
49739
52982.1
58621
61742.7
58662
53045.4
49785.8
120808
125388
132034
135681
131942
125386
120943
163595
166742
169579
170735
169580
166801
163669
177418
179909
181348
181826
181381
179935
177464
163641
166743
169567
170819
169615
166812
163698
120934
125350
132002
135869
131994
125451
120958
49704.4
52960.7
58517.7
61833.9
58670.5
53056.7
49711.6
50433.7
53812.3
59079.9
61920.9
59081.6
53893.7
50531.8
121703
126398
132598
135924
132536
126350
121891
164335
167419
170095
171149
170077
167460
164417
177859
180304
181716
182198
181750
180340
177910
164423
167405
170076
171246
170132
167477
164445
121805
126309
132658
136069
132610
126420
121812
50405.9
53817.5
59028.5
62042
59118.1
53922.8
50450
50435.1
54417.8
59148.3
61570.2
59155.1
54474.5
50556.1
122028
126902
132682
135522
132580
126945
122163
164911
167874
170370
171352
170343
167923
164948
178209
180639
182040
182522
182071
180686
178279
164995
167870
170348
171456
170408
167943
165003
122085
126906
132615
135715
132621
127043
122125
50445.8
54423.8
59145.4
61685.8
59180.7
54547
50498
50231.7
54666.5
58950.6
61003.9
58975.6
54714.2
50359.3
122147
127191
132471
134912
132386
127224
122262
165220
168120
170491
171440
170452
168176
165264
178454
180869
182272
182785
182302
180919
178530
165289
168119
170463
171553
170512
168196
165316
122208
127192
132426
135031
132431
127353
122274
50277.4
54697.3
58975.8
61068.9
58968.9
54810.2
50328.4
50311.6
54766.7
58660.5
60458.7
58719.6
54821.9
50409.7
122341
127358
132236
134393
132186
127404
122426
165323
168217
170537
171444
170490
168274
165386
178605
180993
182419
182936
182442
181047
178689
165396
168216
170490
171554
170550
168293
165429
122386
127384
132233
134471
132203
127540
122467
50353.3
54817.5
58705.4
60471
58672.4
54921.1
50422.8
50394.7
54783.7
58496.4
60196.2
58568.1
54851.3
50468.1
122488
127431
132100
134129
132068
127494
122557
165324
168240
170563
171453
170518
168292
165390
178661
181027
182483
183014
182505
181080
178744
165394
168239
170511
171561
170567
168307
165428
122527
127480
132122
134176
132088
127627
122610
50438.9
54848.8
58561.6
60166.1
58518.6
54952.8
50514
48541.8
48870.6
49879.7
52228.6
57158.7
64458.7
73100
118948
119046
119678
121215
125057
129516
135670
161127
160040
158978
158181
157843
157742
158024
175202
173974
172543
170956
169296
167508
165701
161124
160039
158954
158149
157865
157800
158000
118843
118785
119131
120848
124322
128978
135147
48402.2
48659.7
49514.1
51973.1
56744.4
63897.7
72612.7
49061
48589
48796.8
50502.1
54212.1
60385.7
68822.3
119363
118681
118775
120066
122710
126490
132208
161477
160130
158977
158148
157672
157383
157441
175362
174041
172577
171005
169383
167627
165775
161479
160134
158982
158157
157736
157422
157365
119321
118513
118431
119602
122165
126158
131861
48916.7
48431.4
48593.1
50229.4
53865.7
59856.1
68332.5
48930.1
47731.4
47229
47847.4
49859.6
54168.8
61709.8
119238
117995
117388
117664
119048
121734
126382
161861
160262
158932
157954
157301
156766
156439
175582
174133
172603
171070
169552
167824
165869
161865
160274
158959
157997
157372
156781
156365
119242
117881
117137
117356
118813
121579
126207
48777.1
47575.8
47085.2
47670.7
49575.9
53747
61318.5
48172.5
46906.3
46133.1
46058.3
46866.1
49038.8
54520.8
118989
117396
116266
115743
116168
117736
121042
162186
160393
158876
157700
156890
156159
155374
175805
174236
172660
171159
169706
168009
165929
162165
160419
158918
157753
156927
156141
155320
118966
117347
116139
115617
116047
117597
120905
48021.9
46743.4
45994.3
45916.9
46608.5
48695.6
54239.5
47658.6
46489.1
45768.9
45580.4
46037.2
46808.6
49738.1
118871
117157
115786
114908
114780
115432
117537
162345
160458
158768
157448
156594
155788
154585
176000
174350
172718
171200
169748
168097
165885
162384
160565
158786
157503
156606
155759
154550
118863
117147
115772
114890
114726
115321
117457
47527.9
46351.5
45657.1
45457.5
45860.8
46618.8
49467.4
47611.6
46455.2
45891.1
45875
46326.6
46718.2
48108.1
118949
117127
115657
114724
114549
114701
115652
162408
160442
158576
157238
156434
155648
154275
176133
174475
172772
171196
169717
168054
165770
162491
160545
158660
157302
156447
155621
154255
118975
117164
115688
114733
114476
114589
115525
47528
46351.7
45813.4
45788.5
46207.5
46608.2
47894.5
47762.4
46722.2
46274.6
46336.3
46681.6
47096.7
47601.1
119015
117164
115850
115174
114933
114897
114809
162374
160426
158594
157243
156445
155513
153946
176199
174545
172825
171199
169682
167891
165242
162482
160541
158691
157312
156465
155485
153923
119060
117221
115894
115175
114854
114799
114675
47733.2
46668.2
46204.6
46247.4
46568.9
46962
47385.1
72497.2
64044.9
56838
52100.8
49653.4
48725.6
48409.2
135398
129362
124694
121356
119421
118896
118820
158156
157938
158028
158247
159039
160083
161133
165739
167499
169267
170925
172532
173967
175190
158134
157842
157897
158209
159044
160117
161146
135560
129311
124647
121471
119462
118910
118867
72941.9
64270
56909.4
52102.5
49686
48797.4
48477.1
68215.5
59966.6
53998.7
50298.1
48639.3
48457.8
48924.1
132056
126415
122463
119888
118705
118670
119331
157539
157551
157850
158246
159066
160187
161491
165828
167631
169361
170951
172594
174037
175344
157531
157453
157764
158222
159071
160199
161477
132126
126334
122440
119947
118688
118653
119371
68666
60163.1
54023.4
50319.9
48672.7
48498.7
48970.1
61387.5
53858.3
49676
47662.3
47051
47559.1
48765.8
126337
121769
118907
117468
117324
117999
119224
156501
156889
157452
158064
159015
160309
161834
165939
167843
169542
171050
172592
174115
175552
156540
156832
157381
158054
159019
160308
161846
126368
121674
118946
117522
117308
117995
119295
61575.4
54001.9
49744.8
47750.5
47123
47601.8
48789.6
54170.6
48760
46682.3
45905.2
45949.9
46713.2
48001.7
120884
117692
116063
115610
116200
117347
118928
155389
156205
156983
157782
158942
160402
162089
166026
168041
169708
171150
172640
174210
175763
155488
156234
156994
157809
158977
160439
162132
121086
117748
116142
115695
116262
117421
119019
54413.8
48950.4
46792.6
46007.4
46044.6
46786.4
48050.4
49354.9
46557.6
45831.8
45416
45591.9
46310.8
47491.3
117284
115283
114684
114824
115726
117082
118768
154553
155777
156630
157483
158805
160472
162258
165988
168136
169764
171192
172695
174317
175952
154700
155888
156716
157577
158893
160550
162371
117563
115452
114792
114932
115832
117203
118890
49647.1
46756.8
45963.9
45526.6
45702.6
46391.4
47563.9
47869.8
46513.2
46128.3
45718.7
45743.8
46312.5
47482.3
115327
114459
114399
114639
115598
117048
118857
154181
155587
156437
157257
158589
160455
162398
165867
168106
169739
171193
172749
174437
176085
154388
155759
156579
157385
158716
160554
162481
115612
114696
114587
114803
115745
117188
118964
48021.5
46674.8
46277.2
45841.3
45851.1
46393
47539.4
47385.3
46863.6
46483.5
46194.5
46132.1
46623.3
47682.1
114481
114629
114759
115077
115790
117096
118937
153811
155421
156431
157254
158591
160422
162362
165331
167952
169712
171200
172805
174512
176160
154040
155633
156608
157413
158738
160546
162468
114760
114892
114993
115294
115964
117231
119027
47521.1
47063.3
46657
46319.8
46233.6
46668.1
47707.3
90688.8
90728.8
90270.9
89338
87766.1
84349.9
79372.3
157253
156917
155826
153581
150542
146312
141267
161005
160836
160515
160102
159625
158967
158502
160387
160503
160819
161354
162095
163073
164262
160678
160500
160204
159883
159497
158936
158508
157202
156651
155348
153204
150437
146448
141514
90622.4
90516.6
90127.6
89492.8
88026.1
84569.2
79730.6
88645.7
88453.1
87796.7
86529.8
84173.3
80568
75615
154869
154376
152789
150443
146992
142857
138037
159982
159840
159513
159063
158570
158152
157816
159991
160119
160485
161077
161904
162996
164281
159798
159671
159386
158948
158517
158162
157841
154871
154362
152797
150540
147204
143100
138206
88882.7
88694.8
88119.9
86978
84381.9
80642.4
75828.6
84886.1
84367.5
83546.9
81546.7
78207
74191.1
69092.6
150293
149415
147534
144683
140886
136708
131980
158044
157870
157537
157138
156805
156674
156549
159224
159390
159824
160515
161484
162779
164245
158114
157972
157683
157247
156901
156775
156643
150460
149674
147974
145150
141316
137061
132162
85540.1
85050.7
84217.6
82050.9
78433
74316.5
69183
80344.3
79552
78050.9
75222.7
71558.7
67479.4
62201
144554
143514
141353
137981
134095
130051
125681
155472
155260
154941
154630
154540
154760
155021
158165
158366
158869
159684
160852
162430
164119
155784
155631
155326
154923
154744
154918
155157
144985
144042
141974
138512
134562
130433
125983
81246.6
80498.4
78762.1
75655.8
71827.9
67783.6
62526.5
75414.6
74669.8
72760.5
69631.6
65971.8
61867.9
56573.7
138249
137142
134813
131454
128192
124783
121177
152564
152301
151971
151805
152064
152689
153485
156889
157111
157670
158552
159912
161768
163778
153022
152844
152492
152176
152289
152871
153651
138919
137951
135347
131769
128435
125058
121467
76399.7
75544.7
73199.4
69905.8
66342.2
62396.9
57076.9
70504.1
70162.3
68771.9
66060.2
62191.4
57633.9
53013.4
131819
131003
128913
125865
123378
120870
118120
149826
149537
149205
149159
149695
150671
152144
155538
155762
156313
157249
158713
160675
163148
150299
150084
149652
149415
149898
150895
152377
132498
131721
129393
126147
123570
121052
118368
71319.3
70599.7
69192.3
66468.6
62403.1
57837
53317.1
64542.2
64471
64153.1
63336.1
58498.2
53688.6
50058.2
125398
125028
123697
121462
119278
117081
115210
147353
147092
146757
146822
147486
148736
150613
154182
154434
154958
155854
157252
159013
161441
147721
147503
147129
147084
147765
148950
150822
125944
125415
124078
121627
119311
117237
115428
65144.3
64661.2
64659
63229.8
58538.8
53777.4
50252.3
42286.4
42085.8
41899.9
41596
41103
40886.6
40647
104930
104641
104364
104205
103939
103469
102906
138676
138720
138785
139008
139315
139591
139710
149583
149716
149953
150243
150511
150621
150345
138671
138701
138802
139018
139376
139666
139793
104802
104526
104285
104155
103929
103482
102962
41665.4
41635.9
41639.4
41582.6
41009.9
40730
40453.7
38607.3
38563.6
38517.7
38508.6
38628.6
38678.4
38714.8
93599.5
93670.9
93818.9
93958.4
94056.3
94152.6
94274.4
125980
126031
126119
126239
126347
126411
126475
137041
137063
137093
137122
137131
137109
137076
126033
126086
126170
126286
126386
126446
126509
93675.8
93747.3
93894.1
94037.3
94132.1
94228
94342.7
38775.3
38708.8
38621.2
38625.6
38779.5
38864.9
38920.9
37087.3
37124.3
37184.4
37233.2
37294.5
37363.4
37394.1
87783.7
87849.1
87951.8
88069.7
88164.9
88230.6
88256.3
117867
117876
117886
117886
117876
117849
117832
127889
127874
127848
127821
127789
127755
127746
117895
117894
117902
117911
117889
117858
117835
87787
87853.8
87957.7
88073.8
88158.9
88208.3
88224.2
37114.8
37159.5
37224.5
37262.5
37307.1
37348.4
37360.3
36856.2
36866.2
36867.9
36869.2
36887.3
36905
36925.2
85085.7
85086.2
85088.6
85096.8
85099.3
85087.8
85072.1
112913
112908
112898
112884
112868
112855
112849
122047
122047
122040
122029
122018
122006
122000
112920
112914
112902
112886
112866
112851
112841
85091.6
85093.4
85095.1
85101.4
85106.3
85101.9
85089.7
36896.3
36901.8
36901.8
36905.4
36916.3
36919.2
36933.4
36507.2
36506.6
36501.2
36493
36492.8
36500.3
36500.2
83995.3
83985.6
83973.1
83966.5
83960.2
83948.6
83941.5
110073
110073
110073
110078
110080
110080
110087
118101
118105
118110
118119
118130
118140
118146
110032
110030
110017
110006
109998
109993
110007
83990.6
83991.9
83985.2
83980.8
83990.3
83999.9
83999.6
36555.3
36551.9
36556.1
36566.5
36564.5
36556.3
36547.6
38276.5
38277.6
38281
38284.1
38295.8
38298.1
38293
84890.5
84887.9
84886.7
84888.6
84888.1
84882.6
84880.6
107627
107630
107636
107648
107652
107646
107645
114033
114034
114036
114042
114053
114064
114075
107572
107572
107561
107553
107549
107537
107548
84878.7
84883.6
84885.3
84888.3
84900.4
84911
84916.1
38284.4
38290.3
38308
38325.2
38337.5
38342.2
38334.6
48907.9
48910.1
48906.3
48896.2
48884.8
48877.2
48873.8
84524.7
84526.5
84528.6
84527.8
84525.3
84522.1
84520.3
102936
102941
102947
102953
102953
102950
102946
107976
107978
107983
107989
107995
108002
108009
102937
102942
102948
102954
102956
102952
102951
84522.6
84526
84534.5
84539
84539.5
84543
84536.9
48890.2
48886.7
48882
48872
48864.6
48860.2
48852.5
79744.5
84475.4
87848.7
89420.4
90327.1
90928.1
91277.9
141538
146368
150269
152942
154897
156132
156792
158399
158811
159330
159583
159812
160076
160238
164197
162996
161992
161217
160659
160301
160181
158251
158626
159188
159597
159929
160126
160191
141060
146018
150164
153024
154907
155429
154824
79558
84539.5
87963
89407.5
89921.8
89613.8
88445.8
75921.7
80772.8
84493.3
87079.2
88381.4
89008.8
89170.7
138173
142970
147014
150288
152440
153878
154322
157738
158033
158339
158669
158996
159219
159315
164200
162902
161791
160944
160338
159963
159824
157573
157848
158216
158676
159085
159351
159426
137844
142679
146762
149992
151854
152905
152972
75625.3
80536.4
84189.1
86547
87393.5
87263.1
86820.8
69447.2
74772.4
78930
82380.5
84621.8
85342.3
85571
132068
136897
141172
144994
147801
149340
149885
156508
156626
156715
156992
157367
157549
157594
164149
162669
161364
160392
159697
159273
159103
156380
156493
156629
156996
157418
157765
157941
131882
136710
140891
144510
147006
148587
149615
69016.4
74050.5
78059
81468.4
83109.9
83655.9
84254.4
62730.1
68145.3
72449.6
76390.7
79466.9
80861.3
81290.7
125954
130413
134623
138601
141946
143805
144503
155023
154780
154568
154691
155023
155232
155313
164003
162307
160723
159563
158759
158282
158085
154956
154720
154543
154734
155150
155555
155829
125806
130302
134306
138142
141518
143708
145127
62333.6
67477.2
71405.4
75093.5
77946.2
79685.7
80897.4
57106.6
62486.1
66831.2
70802.4
74099.9
75937
76500.7
121466
125158
128699
132109
135545
137852
138625
153519
152753
152184
152003
152240
152579
152711
163655
161649
159788
158426
157550
157033
156838
153496
152729
152149
152002
152360
152859
153243
121339
124867
128285
131736
135355
137971
139450
56862.7
62043.8
66035
69715.2
72884.7
75009.3
76071.7
53425.6
58147
62828
67112.3
70188.3
70934.6
71304.3
118477
121260
123909
126557
129717
131768
132393
152264
150811
149839
149329
149521
150004
150161
163032
160551
158588
157130
156229
155714
155511
152244
150793
149865
149398
149662
150189
150644
118271
120981
123581
126363
129562
131822
132855
53221.2
57788
62420
66767
68850.5
69982.1
70209.1
50420.4
54083
58762.4
63860.9
66216.7
64938.1
65160.8
115573
117468
119688
121990
124531
125427
125868
150741
148869
147649
146993
146974
147449
147658
161333
158892
157133
155738
154867
154373
154147
150719
148868
147725
147095
147145
147615
148007
115372
117227
119425
122070
124245
125373
125720
50313.4
53883.1
58672.6
64367.3
64236.4
64096.1
63479.6
40806
40974.7
41123
41539.7
41981.6
42470
42622.9
103057
103621
104099
104363
104518
104798
105081
139713
139586
139292
138954
138718
138630
138608
150147
150425
150318
150052
149762
149524
149388
139772
139658
139393
139064
138854
138785
138737
103271
103790
104220
104407
104551
104873
105156
40906.8
41149
41297
41387.8
41896.6
42096.6
42372.6
38898.6
38887.7
38863.3
38781.3
38760.4
38857.5
38887.1
94343.8
94235.9
94150.2
94058.4
93926
93769.3
93695.3
126397
126332
126266
126162
126057
125983
125938
136957
136990
137016
137015
136997
136980
136970
126475
126410
126345
126241
126123
126036
125979
94386.9
94270.6
94168.7
94069.5
93922.4
93783.5
93731.1
39067.6
39021.8
38958.4
38834.5
38883.4
38975.2
39053.2
37389.5
37367.7
37317.7
37270
37223.8
37158.1
37111.7
88196.5
88174
88116.7
88032
87925
87826.3
87762.2
117738
117755
117784
117808
117807
117808
117808
127683
127690
127726
127761
127788
127811
127824
117840
117859
117891
117912
117907
117894
117888
88243
88228
88177.8
88094.5
87983.2
87882.8
87814.7
37346.9
37334.2
37305
37275.5
37247.3
37185.7
37137.8
36939.5
36927.9
36918.7
36896.7
36880.7
36867.7
36854.7
85077.1
85085.9
85092.3
85089.6
85081.5
85076.7
85074.9
112812
112819
112834
112852
112867
112877
112883
121971
121979
121991
122004
122016
122023
122024
112843
112850
112865
112886
112900
112910
112913
85081.2
85096.4
85103.9
85099.1
85087.4
85082.5
85082
36926.6
36903
36894.6
36883.3
36880.4
36874
36863.7
36522.4
36527.8
36530.1
36532.9
36528.1
36517.7
36514.3
83992.8
83988.4
83988.9
83991.6
84002.8
84019.7
84029.3
110062
110053
110053
110055
110057
110061
110059
118167
118158
118144
118128
118113
118101
118096
110090
110084
110087
110084
110086
110090
110088
83960.4
83968
83967.4
83961.9
83966.7
83979.8
83989.4
36513.7
36512.2
36514.2
36519.4
36516.4
36509.9
36510.7
38303.3
38308
38306.4
38301.9
38297.8
38291.1
38291.4
84895.3
84891.1
84892
84891.8
84899
84911
84917.6
107615
107611
107612
107612
107608
107607
107600
114093
114080
114066
114049
114034
114024
114018
107647
107651
107659
107647
107642
107644
107642
84890
84891
84888.6
84882
84883.9
84891.7
84896.1
38299.2
38306.8
38302.4
38295.3
38281.8
38274.2
38275.6
48864.3
48869
48869.6
48869
48871.4
48873.2
48874.2
84512.5
84512.3
84512.9
84511.2
84511.4
84512.7
84515.2
102939
102940
102941
102940
102937
102933
102929
107990
107987
107983
107977
107971
107966
107964
102942
102946
102949
102945
102940
102936
102933
84530.7
84529.1
84527.7
84531.3
84530.7
84526.7
84523.6
48885.1
48890.2
48891.9
48899.8
48908.2
48911
48910
)
;

boundaryField
{
    fuel
    {
        type            zeroGradient;
    }
    primary_air
    {
        type            zeroGradient;
    }
    Secondary_air_RHS
    {
        type            zeroGradient;
    }
    Secondary_air_LHS
    {
        type            zeroGradient;
    }
    outlet
    {
        type            totalPressure;
        rho             rho;
        psi             none;
        gamma           1;
        p0              uniform 100000;
        value           nonuniform List<scalar> 
98
(
44421.8
73130.4
100000
100000
100000
73141.6
44379.5
44358.1
73139.2
100000
100000
100000
73142.5
44362.5
44360.1
73137.5
100000
100000
100000
73134.9
44411.4
44391.8
73129.9
100000
100000
100000
73141.2
44348.5
44377.3
73130
100000
100000
100000
73135.3
44328.3
44377.2
73132.7
100000
100000
100000
73134.1
44330.1
44404.4
73130.8
100000
100000
100000
73136.5
44384.4
44378.4
73132.6
100000
100000
100000
73131.4
44379.8
44327.8
73128.2
100000
100000
100000
73120.2
44374.4
44329.3
73131.8
100000
100000
100000
73133.2
44331.7
44388.7
73127.8
100000
100000
100000
73128.3
44400.4
44358.8
73138.2
100000
100000
100000
73128.4
44408.3
44382.9
73125.5
100000
100000
100000
73129.8
44398.5
44388
73132.2
100000
100000
100000
73127.4
44431.8
)
;
    }
    stove_body
    {
        type            zeroGradient;
    }
    frontAndBack
    {
        type            empty;
    }
}


// ************************************************************************* //
