/*--------------------------------*- C++ -*----------------------------------*\
  =========                 |
  \\      /  F ield         | OpenFOAM: The Open Source CFD Toolbox
   \\    /   O peration     | Website:  https://openfoam.org
    \\  /    A nd           | Version:  6
     \\/     M anipulation  |
\*---------------------------------------------------------------------------*/
FoamFile
{
    version     2.0;
    format      ascii;
    class       surfaceScalarField;
    location    "0.0025";
    object      phi;
}
// * * * * * * * * * * * * * * * * * * * * * * * * * * * * * * * * * * * * * //

dimensions      [1 0 -1 0 0 0 0];

internalField   nonuniform List<scalar> 
10143
(
-5.35105e-07
-3.34011e-05
2.40954e-05
-1.91241e-07
-3.24956e-05
2.17406e-05
4.63121e-07
-3.23926e-05
2.13148e-05
6.65264e-07
-3.25491e-05
2.18977e-05
8.07519e-07
-3.25596e-05
2.19016e-05
7.51067e-07
-3.29871e-05
2.24567e-05
-3.40964e-05
2.50147e-05
8.90401e-07
-3.20991e-05
1.11724e-05
1.01552e-06
-3.25037e-05
1.27129e-05
2.33369e-07
-3.2579e-05
1.36501e-05
-2.98063e-07
-3.22891e-05
1.30239e-05
5.05027e-08
-3.21763e-05
1.21002e-05
-6.41491e-07
-3.26265e-05
1.34294e-05
-3.21252e-05
1.09544e-05
3.21662e-07
-1.53855e-05
1.07231e-05
5.42396e-07
-1.59487e-05
1.11025e-05
-9.97319e-09
-1.65151e-05
1.24295e-05
2.77549e-07
-1.64294e-05
1.16744e-05
9.65742e-07
-1.63437e-05
1.13001e-05
-4.52467e-07
-1.64864e-05
1.32344e-05
-1.54064e-05
1.05213e-05
3.99096e-07
1.55822e-05
6.12141e-06
1.38924e-06
1.60933e-05
4.41068e-06
1.61615e-07
1.67318e-05
5.31572e-06
-1.2342e-06
1.66833e-05
5.57948e-06
-2.25643e-06
1.65134e-05
5.6064e-06
-1.37946e-06
1.6673e-05
3.49101e-06
1.5767e-05
5.10786e-06
-6.5306e-08
3.25566e-05
1.07852e-05
-5.16247e-08
3.26827e-05
1.07903e-05
-4.63001e-07
3.31694e-05
1.17719e-05
-1.41111e-07
3.27846e-05
1.14409e-05
6.76845e-07
3.26095e-05
1.09055e-05
-3.13601e-07
3.30381e-05
1.23563e-05
3.26489e-05
1.0389e-05
5.02958e-07
3.43163e-05
1.13046e-05
1.06502e-06
3.34633e-05
1.22387e-05
-3.3679e-07
3.35764e-05
1.40337e-05
-5.93323e-07
3.35587e-05
1.23908e-05
-3.12569e-07
3.33761e-05
1.17455e-05
-6.32173e-07
3.34308e-05
1.29808e-05
3.45633e-05
1.09498e-05
-4.83766e-07
2.52326e-05
-3.24016e-07
2.3349e-05
-4.14506e-08
2.31414e-05
-5.72086e-07
2.37536e-05
-1.76446e-07
2.27586e-05
6.52841e-07
2.21127e-05
2.54593e-05
-1.42369e-06
-1.9865e-05
2.5514e-05
-7.24411e-07
-2.10904e-05
2.23127e-05
1.13694e-07
-2.04531e-05
2.08077e-05
7.26095e-07
-2.05023e-05
2.17908e-05
1.18163e-06
-2.1066e-05
2.26344e-05
1.22315e-06
-2.19569e-05
2.48681e-05
-2.0682e-05
2.70674e-05
1.06113e-06
-2.21157e-05
7.94091e-06
6.10845e-08
-2.25325e-05
1.09849e-05
2.03227e-07
-2.39717e-05
1.31061e-05
5.22795e-07
-2.36352e-05
1.18939e-05
8.3371e-07
-2.34709e-05
1.01756e-05
-3.99391e-07
-2.29572e-05
1.13548e-05
-2.27042e-05
7.92907e-06
7.35171e-07
-1.19416e-05
1.19569e-05
5.56559e-07
-1.00395e-05
1.05797e-05
2.04123e-07
-1.33824e-05
1.41672e-05
7.17714e-07
-1.30427e-05
1.23824e-05
1.23419e-06
-1.26829e-05
1.18064e-05
-3.10853e-07
-1.04553e-05
1.4328e-05
-1.20658e-05
1.20444e-05
1.52763e-07
1.11129e-05
4.56701e-06
1.90255e-06
1.08509e-05
3.33741e-06
1.79645e-07
1.25714e-05
2.55236e-06
-1.48158e-06
1.26272e-05
3.00398e-06
-2.74648e-06
1.26034e-05
3.15758e-06
-1.29064e-06
1.19487e-05
1.30056e-06
1.13567e-05
2.17782e-06
8.26026e-08
2.23053e-05
1.12358e-05
-1.37078e-07
2.35134e-05
1.04931e-05
-3.48347e-07
2.41202e-05
1.21799e-05
2.41271e-07
2.37169e-05
1.15568e-05
8.38721e-07
2.36879e-05
1.10077e-05
-1.30658e-07
2.40253e-05
1.30718e-05
2.23907e-05
1.14539e-05
5.7059e-07
2.06929e-05
8.39302e-06
3.28245e-07
2.08851e-05
1.06847e-05
-5.39289e-07
2.13756e-05
1.37754e-05
1.99713e-07
2.13489e-05
9.57114e-06
3.69934e-07
2.1071e-05
1.0116e-05
-3.07673e-07
2.19931e-05
1.158e-05
2.08215e-05
7.50119e-06
-9.26852e-07
2.73842e-05
-1.18213e-06
2.42325e-05
-1.91577e-07
2.40161e-05
-6.26833e-07
2.64857e-05
1.91716e-08
2.34616e-05
1.09542e-06
2.33582e-05
2.75663e-05
-2.24132e-06
-1.38343e-05
1.89943e-05
-6.02936e-07
-1.85065e-05
1.71805e-05
2.02767e-07
-1.75529e-05
1.48835e-05
7.96643e-07
-1.68906e-05
1.50322e-05
1.60391e-06
-1.75231e-05
1.66933e-05
1.63125e-06
-1.79405e-05
2.06579e-05
-1.49331e-05
2.10742e-05
1.74375e-06
-2.1164e-05
8.9266e-06
-9.1497e-08
-2.11332e-05
1.07161e-05
3.93458e-07
-2.41486e-05
1.61342e-05
5.40429e-07
-2.32915e-05
1.45653e-05
3.12476e-07
-2.25914e-05
1.14637e-05
-8.97636e-07
-2.05888e-05
1.00255e-05
-1.99867e-05
7.46513e-06
7.39774e-07
-1.13334e-05
1.33486e-05
4.88792e-07
-8.721e-06
1.03472e-05
2.20696e-07
-1.39165e-05
1.54158e-05
7.38946e-07
-1.39175e-05
1.42429e-05
1.0837e-06
-1.33426e-05
1.41131e-05
-2.20162e-07
-7.72642e-06
1.48773e-05
-9.8277e-06
1.35561e-05
-1.00014e-07
9.51097e-06
5.28881e-06
1.86168e-06
8.24747e-06
5.83132e-06
1.6756e-07
1.04964e-05
1.10937e-06
-1.49293e-06
1.09636e-05
1.00545e-06
-2.96909e-06
1.27256e-05
-8.21886e-08
-1.29742e-06
1.16848e-05
1.75944e-06
9.04011e-06
3.62566e-06
1.40986e-07
2.01381e-05
1.229e-05
-2.44596e-07
2.10518e-05
1.00696e-05
-2.28447e-07
2.08375e-05
1.35635e-05
2.72951e-07
2.08022e-05
1.29081e-05
6.17834e-07
2.30847e-05
1.21891e-05
4.37239e-08
2.28111e-05
1.45329e-05
1.97378e-05
1.25797e-05
8.54761e-07
1.45551e-05
8.44216e-06
3.20306e-07
1.76517e-05
9.42414e-06
-7.60213e-07
1.79597e-05
1.30826e-05
6.09687e-07
1.40926e-05
1.03336e-05
-1.47696e-07
1.79921e-05
1.17562e-05
-7.46683e-07
1.9595e-05
1.05092e-05
1.48823e-05
6.78125e-06
-1.42018e-06
2.09536e-05
-1.28334e-06
1.99954e-05
2.60342e-07
1.81999e-05
-1.20822e-06
1.88893e-05
1.65169e-07
1.75967e-05
1.67053e-06
1.97656e-05
2.16055e-05
-2.8217e-06
-1.4504e-05
1.46126e-05
-5.118e-07
-2.22034e-05
1.58186e-05
1.75813e-07
-2.1172e-05
1.49527e-05
9.94204e-07
-2.10709e-05
1.46093e-05
2.14712e-06
-2.00969e-05
1.4583e-05
1.80062e-06
-1.75476e-05
1.69725e-05
-1.50209e-05
1.60558e-05
2.18076e-06
-2.15748e-05
8.74889e-06
2.19709e-07
-2.23658e-05
8.23054e-06
4.29422e-07
-2.30449e-05
1.21757e-05
2.863e-07
-2.28703e-05
1.12268e-05
-5.27609e-07
-2.25908e-05
9.80184e-06
-1.14667e-06
-2.05904e-05
9.04176e-06
-2.07722e-05
7.08918e-06
6.59511e-07
-1.01497e-05
1.29953e-05
5.8799e-07
-1.06368e-05
1.08472e-05
3.16507e-07
-1.10864e-05
1.59146e-05
8.58106e-07
-1.18299e-05
1.47389e-05
8.71946e-07
-1.15042e-05
1.49183e-05
-1.50325e-07
-7.94472e-06
1.4467e-05
-8.80558e-06
1.30894e-05
5.92416e-08
9.74635e-06
6.72917e-06
1.21323e-06
9.51885e-06
5.83699e-06
1.11206e-07
1.11143e-05
1.17352e-06
-1.69362e-06
1.1974e-05
1.25184e-07
-2.62404e-06
1.07943e-05
-1.70858e-07
-1.14878e-06
1.02443e-05
3.50767e-06
8.74011e-06
6.42961e-06
9.63331e-08
2.07687e-05
1.28042e-05
-1.50918e-07
2.05951e-05
1.11479e-05
-9.88951e-08
2.22659e-05
1.40701e-05
3.00997e-07
2.28971e-05
1.32354e-05
6.2633e-07
2.23025e-05
1.21422e-05
5.25939e-08
2.28471e-05
1.37806e-05
2.08548e-05
1.21281e-05
1.14452e-06
1.46789e-05
8.3185e-06
2.61234e-07
1.72851e-05
7.88619e-06
-8.50996e-07
2.02864e-05
1.10656e-05
1.04642e-06
1.47461e-05
1.17299e-05
-1.02666e-06
2.1328e-05
9.63864e-06
-9.46884e-07
2.0073e-05
8.5392e-06
1.49737e-05
6.53943e-06
-1.57695e-06
1.5546e-05
-1.39758e-06
1.57019e-05
3.6655e-07
1.60372e-05
-1.47411e-06
1.32322e-05
6.49466e-07
1.61772e-05
1.83284e-06
1.78739e-05
1.66344e-05
-2.96995e-06
-1.42489e-05
9.84241e-06
-4.10281e-07
-2.07377e-05
1.36229e-05
-2.3682e-08
-1.93446e-05
1.31163e-05
1.05901e-06
-2.04931e-05
1.31359e-05
2.52393e-06
-2.01343e-05
1.23172e-05
1.87115e-06
-1.60216e-05
1.15739e-05
-1.47951e-05
1.07963e-05
2.28317e-06
-2.21235e-05
9.26989e-06
1.60494e-07
-2.27125e-05
6.48335e-06
4.77902e-07
-2.09599e-05
8.42707e-06
2.48666e-07
-2.20643e-05
7.54879e-06
-1.06563e-06
-2.13368e-05
7.58447e-06
-1.26424e-06
-2.09298e-05
9.30383e-06
-2.24403e-05
8.52734e-06
8.19935e-07
-1.0987e-05
1.27854e-05
7.2639e-07
-1.14178e-05
1.16321e-05
4.37809e-07
-8.58998e-06
1.48938e-05
9.54219e-07
-1.00721e-05
1.40303e-05
5.83289e-07
-8.30178e-06
1.3274e-05
-1.64026e-07
-8.16568e-06
1.3576e-05
-1.03474e-05
1.25729e-05
-6.05615e-08
1.0003e-05
7.15863e-06
5.50376e-07
1.00394e-05
5.04172e-06
-4.63234e-08
1.12918e-05
2.98312e-06
-1.74012e-06
1.10927e-05
1.73593e-06
-1.9527e-06
9.74494e-06
3.22649e-06
-7.63522e-07
1.0195e-05
5.28723e-06
1.039e-05
6.33371e-06
1.69671e-07
2.17051e-05
1.25591e-05
-2.60317e-07
2.17273e-05
1.16858e-05
-1.25933e-08
2.28362e-05
1.42934e-05
2.61424e-07
2.25241e-05
1.3359e-05
5.48994e-07
2.04083e-05
1.20084e-05
-3.62641e-08
2.29029e-05
1.27466e-05
2.22795e-05
1.19208e-05
1.25018e-06
1.49113e-05
8.73914e-06
-3.35486e-08
1.75433e-05
7.18442e-06
-3.33348e-07
1.87386e-05
9.7442e-06
7.99551e-07
1.75885e-05
9.46113e-06
-1.67809e-06
2.02179e-05
7.4624e-06
-8.36289e-07
1.67886e-05
9.23522e-06
1.4865e-05
7.89762e-06
-1.58655e-06
1.03926e-05
-1.30433e-06
1.22219e-05
-1.11164e-07
1.24451e-05
-1.03763e-06
1.08875e-05
1.1571e-06
1.31521e-05
1.59755e-06
1.22712e-05
1.1342e-05
-2.69022e-06
-1.59196e-05
6.36378e-06
-2.04501e-07
-2.05076e-05
1.14657e-05
-9.16104e-08
-1.90568e-05
8.8744e-06
9.54574e-07
-1.95627e-05
1.0652e-05
2.18272e-06
-1.99859e-05
1.03289e-05
2.00839e-06
-1.81407e-05
8.78319e-06
-1.59924e-05
6.60759e-06
1.83225e-06
-2.38252e-05
1.07967e-05
-9.38216e-08
-2.3528e-05
6.59043e-06
6.50503e-07
-2.37934e-05
9.69974e-06
3.64569e-07
-2.37132e-05
7.65105e-06
-1.24785e-06
-2.25949e-05
7.12884e-06
-1.10915e-06
-2.33565e-05
9.58185e-06
-2.33751e-05
1.03919e-05
1.18975e-06
-1.31501e-05
1.28459e-05
6.34572e-07
-1.13779e-05
1.1182e-05
5.56581e-07
-1.00053e-05
1.22068e-05
7.86877e-07
-1.06922e-05
1.18068e-05
4.62649e-07
-9.31269e-06
1.13592e-05
-1.9384e-07
-9.70599e-06
1.17976e-05
-1.14177e-05
1.22695e-05
-4.58986e-07
1.16846e-05
4.13988e-06
2.6201e-07
9.59043e-06
4.61736e-06
-2.30061e-07
1.07507e-05
3.83244e-06
-1.50518e-06
9.89189e-06
3.49076e-06
-1.59732e-06
1.05617e-05
4.66843e-06
-7.54335e-07
1.20802e-05
3.9434e-06
1.18682e-05
3.63815e-06
5.10586e-07
2.35212e-05
1.19924e-05
-4.35893e-07
2.33544e-05
9.73798e-06
5.63048e-08
2.29238e-05
1.26276e-05
6.45358e-08
2.27072e-05
1.15071e-05
3.88349e-07
2.21218e-05
1.10403e-05
-1.02099e-07
2.45462e-05
1.18498e-05
2.34767e-05
1.20625e-05
9.52873e-07
1.65234e-05
1.02635e-05
-2.00727e-07
2.00711e-05
8.51801e-06
1.49305e-07
1.83526e-05
9.31893e-06
4.66324e-07
1.96108e-05
9.03641e-06
-1.62939e-06
2.07993e-05
5.46569e-06
-4.76234e-07
1.78726e-05
1.02687e-05
1.61437e-05
1.01093e-05
-1.45074e-06
6.56797e-06
-1.08604e-06
9.82684e-06
-3.6251e-07
9.04409e-06
-7.63536e-07
8.21541e-06
1.14148e-06
1.23982e-05
1.4129e-06
8.56397e-06
6.89658e-06
-2.08411e-06
-1.6456e-05
-4.10946e-07
-1.68633e-05
1.51053e-07
-1.65232e-05
9.32398e-07
-1.59128e-05
1.7661e-06
-1.6239e-05
1.90442e-06
-1.68462e-05
-1.65578e-05
1.41181e-06
-2.04548e-05
3.86782e-07
-2.06929e-05
7.18658e-07
-2.05404e-05
4.68813e-07
-2.04471e-05
-1.10867e-06
-2.00576e-05
-7.09399e-07
-2.03448e-05
-2.00133e-05
1.37191e-06
-7.66171e-06
4.47914e-07
-7.4185e-06
7.9293e-07
-7.37693e-06
7.88381e-07
-7.57709e-06
4.64351e-07
-7.14799e-06
-1.11409e-07
-6.73459e-06
-6.55665e-06
-4.53367e-07
7.88584e-06
1.82906e-07
7.4177e-06
-3.25751e-07
7.67025e-06
-1.40752e-06
7.67247e-06
-1.76971e-06
8.64918e-06
-9.80422e-07
7.3424e-06
6.95572e-06
5.66212e-07
2.05624e-05
-3.96138e-07
1.97854e-05
2.10681e-07
2.08126e-05
1.06333e-07
2.04282e-05
5.22761e-07
2.06912e-05
-6.89736e-09
2.09362e-05
2.03142e-05
6.59685e-07
1.69555e-05
-1.51968e-07
1.54786e-05
5.71303e-07
1.66959e-05
-1.50419e-07
1.69558e-05
-1.21291e-06
1.52783e-05
-2.35151e-07
1.71497e-05
1.68352e-05
-1.1723e-06
-1.1033e-06
-6.0483e-07
-2.24114e-07
5.18185e-07
1.13014e-06
-1.54117e-06
-0.000486011
-0.00098064
-4.07913e-06
-0.00048585
-0.000980019
-5.0536e-06
-0.000485494
-0.000980368
-3.74533e-06
-0.000485178
-0.000979604
-2.55923e-06
-0.000484276
-0.000978484
-2.30573e-06
-0.00048424
-0.000977378
-0.000484907
-0.000980749
1.8312e-06
-0.000527704
-0.00205024
2.48626e-06
-0.000527462
-0.00204954
1.21916e-06
-0.000525855
-0.00205008
2.97164e-06
-0.000523821
-0.00205048
2.42758e-06
-0.000523864
-0.00204969
4.03545e-07
-0.000521969
-0.00204927
-0.000519746
-0.00204992
1.44991e-06
-0.000243289
-0.00254671
-2.1912e-06
-0.000238535
-0.00254723
-3.54481e-06
-0.00024083
-0.0025469
-5.85897e-06
-0.000242888
-0.0025458
-5.29556e-06
-0.000242333
-0.00254588
-2.65956e-06
-0.000243335
-0.00254459
-0.000246312
-0.00254244
-2.75567e-06
0.000232598
-0.00270171
7.27577e-09
0.000230597
-0.00270122
1.85098e-07
0.000230322
-0.00270316
-1.1144e-06
0.000229309
-0.00270375
-8.40778e-07
0.000227917
-0.00270382
1.57893e-06
0.000226279
-0.0027041
0.000227509
-0.00270424
9.12909e-06
0.000501816
-0.00253821
1.1352e-05
0.000504216
-0.00253818
9.48938e-06
0.000506335
-0.0025399
5.40357e-06
0.00050701
-0.00254151
1.92004e-06
0.000508012
-0.00254451
-3.65262e-07
0.000510775
-0.00254781
0.000512941
-0.00255122
2.38126e-06
0.000477942
-0.00206713
4.68223e-06
0.000477598
-0.00206936
4.20005e-06
0.000478942
-0.00206704
4.56509e-06
0.000479676
-0.00206818
4.7389e-06
0.000479584
-0.00206628
2.25153e-06
0.00047912
-0.00206261
0.000479652
-0.00206146
1.36534e-06
-0.00098463
4.47449e-06
-0.000987053
4.53656e-06
-0.000985672
4.58939e-06
-0.000986139
4.455e-06
-0.000985987
2.56683e-06
-0.000985423
-0.000984881
4.11942e-08
-0.00044893
-0.00194718
-6.97956e-07
-0.000449033
-0.00194569
-4.05642e-06
-0.000449271
-0.00194568
6.18534e-08
-0.000454428
-0.00194616
4.82675e-07
-0.000451025
-0.00194471
-8.76877e-06
-0.000457279
-0.0019469
-0.000456359
-0.00194579
2.43514e-06
-0.000496936
-0.00407701
3.80503e-06
-0.000496708
-0.00407478
-1.15047e-06
-0.000496665
-0.00407501
5.53785e-06
-0.000494461
-0.00406664
-2.04338e-06
-0.000495212
-0.004073
-1.16545e-06
-0.000489643
-0.00406912
-0.000488854
-0.00406219
-6.40424e-07
-0.000207802
-0.00502582
-3.9942e-06
-0.000205325
-0.00502661
8.21471e-07
-0.000207926
-0.00502614
-9.33594e-06
-0.000213333
-0.00502906
-5.07382e-06
-0.000212505
-0.00502073
2.8559e-07
-0.000214637
-0.00501729
-0.000219083
-0.00501912
-2.87183e-06
0.000208548
-0.00529184
-2.81467e-06
0.000209216
-0.00529298
-1.6691e-06
0.000206958
-0.00529453
-3.21684e-07
0.000206003
-0.00529664
4.76512e-07
0.000200709
-0.00529297
2.27819e-06
0.000196228
-0.00528993
0.000197878
-0.00528904
1.09886e-05
0.000472875
-0.00501448
8.61675e-06
0.000473844
-0.00501513
4.70796e-06
0.000474589
-0.00501555
-4.08407e-06
0.000475613
-0.00501807
-9.86896e-06
0.000478267
-0.00501891
-7.32173e-06
0.000482394
-0.00502136
0.000484157
-0.00502395
-4.79261e-07
0.000450671
-0.00408391
3.43092e-06
0.0004464
-0.00408519
2.90218e-06
0.000447986
-0.00408542
7.13037e-06
0.000449556
-0.00408519
6.88993e-06
0.000449313
-0.00409058
2.70963e-06
0.000444834
-0.00409346
0.000444051
-0.00409753
-3.7901e-06
-0.00196218
2.97078e-06
-0.00196282
5.16455e-06
-0.00196117
5.43147e-06
-0.0019599
6.21876e-06
-0.00195827
2.41686e-06
-0.00195563
-0.00195443
-8.22695e-07
-0.000356326
-0.00291417
6.61684e-07
-0.000357458
-0.00291234
-5.58581e-06
-0.000355739
-0.00291339
5.4056e-06
-0.000367448
-0.00291226
-4.37665e-06
-0.000361515
-0.00291295
-1.00336e-05
-0.000363036
-0.00291526
-0.000366767
-0.00291104
5.06727e-06
-0.000396238
-0.00597842
3.52082e-06
-0.000398047
-0.00597831
1.11118e-05
-0.000403225
-0.00597593
-4.74954e-07
-0.000422919
-0.00597438
6.6901e-06
-0.0004018
-0.00597018
9.10654e-06
-0.000397588
-0.00596468
-0.000422827
-0.00596562
-1.97925e-06
-0.000193129
-0.0073027
-3.80318e-06
-0.000189035
-0.00730279
-1.11614e-06
-0.000196071
-0.00730158
3.60941e-06
-0.000183317
-0.00730262
5.35647e-06
-0.000197692
-0.00729639
3.16078e-06
-0.000196223
-0.00729684
-0.000185295
-0.00729431
-8.05917e-06
0.000192483
-0.00769009
-5.46824e-06
0.000186202
-0.00768914
-6.39796e-06
0.00018483
-0.00769064
8.36789e-06
0.000179281
-0.00768964
6.36837e-06
0.000183131
-0.00769179
4.15593e-06
0.000186053
-0.00768661
0.000189314
-0.00768168
9.1355e-06
0.000385255
-0.00729429
6.55755e-06
0.000391165
-0.00729569
-6.31169e-07
0.000392397
-0.00729724
-6.19846e-06
0.000394823
-0.00729953
-1.71587e-05
0.000387962
-0.00729983
-1.01258e-05
0.000383178
-0.00729688
0.00037757
-0.00729242
5.27615e-07
0.000371949
-0.00595735
2.79962e-07
0.000382025
-0.00595998
5.06299e-06
0.000380537
-0.00595932
7.03475e-07
0.00038223
-0.00596107
7.90403e-06
0.000373843
-0.00596624
1.89963e-06
0.000359645
-0.00597974
0.00035567
-0.00599085
9.30755e-09
-0.00293161
6.03335e-06
-0.00293334
7.6469e-06
-0.00293033
9.6514e-06
-0.0029277
1.26207e-05
-0.00292914
6.10203e-06
-0.0029242
-0.00292476
1.68737e-06
-0.000268003
-0.00394659
-1.11244e-06
-0.000270782
-0.00393745
-5.70587e-06
-0.000264976
-0.00394331
5.38885e-06
-0.000272999
-0.00394501
-1.17792e-05
-0.000276942
-0.00393952
-1.48372e-06
-0.000269428
-0.0039466
-0.000274417
-0.00394845
2.67994e-06
-0.000300028
-0.00778329
1.51322e-05
-0.000294488
-0.00778457
-1.39305e-06
-0.000297673
-0.00778107
1.83487e-05
-0.000300657
-0.00776564
1.67086e-05
-0.000298148
-0.00776779
-5.41999e-06
-0.000310096
-0.00776287
-0.000302542
-0.00774682
-2.8808e-06
-0.000168205
-0.00938567
-3.75479e-06
-0.000165513
-0.0093906
5.88937e-06
-0.000166157
-0.00938054
1.2433e-05
-0.000170066
-0.0093813
1.35351e-05
-0.000164804
-0.00938335
1.13074e-05
-0.000162688
-0.00938775
-0.000176111
-0.00938337
-8.67116e-06
0.000146704
-0.00984105
-9.15074e-06
0.000150188
-0.00984099
-6.3769e-06
0.000144908
-0.00984816
5.88448e-06
0.000141831
-0.00985036
1.55333e-05
0.000145491
-0.00986
1.65598e-05
0.000156326
-0.00985737
0.000169978
-0.00986307
1.45524e-05
0.000335603
-0.00937159
6.45165e-06
0.000334023
-0.00937979
-4.66855e-06
0.000328438
-0.00938612
-6.7494e-06
0.000327066
-0.00939028
-1.327e-05
0.000315597
-0.00939485
1.35684e-06
0.000298806
-0.00939425
0.000284237
-0.00939071
-1.02826e-05
0.000279048
-0.00778576
-2.03592e-06
0.00028784
-0.00777593
2.10816e-06
0.000289748
-0.00776221
-7.57913e-06
0.000288979
-0.00776421
-9.30944e-06
0.000292479
-0.00776708
-1.10837e-05
0.000273967
-0.00777222
0.000272543
-0.00777845
5.28644e-07
-0.00396925
8.16937e-06
-0.0039785
1.18381e-05
-0.00396015
7.83591e-06
-0.00395365
2.00644e-05
-0.00395764
9.05662e-06
-0.00394898
-0.00395977
8.78149e-06
-0.0001357
-0.00504936
-1.3272e-05
-0.00016295
-0.0050273
-6.42315e-06
-0.000123682
-0.00502535
1.51929e-05
-0.00014616
-0.00504088
-2.38407e-05
-0.00015309
-0.0050233
-1.86259e-05
-0.000157119
-0.00502573
-0.000134043
-0.00501798
-2.3418e-05
-0.00029213
-0.00935671
5.11087e-05
-0.000257546
-0.00927295
4.58318e-06
-0.000266816
-0.00929611
3.5667e-05
-0.000285231
-0.00930617
3.4361e-06
-0.00026413
-0.00927229
4.15883e-05
-0.000282314
-0.00925756
-0.000297738
-0.00928301
1.31139e-06
-0.000156077
-0.0112257
9.92743e-06
-0.000157303
-0.0112514
-2.70955e-06
-0.000168235
-0.0112548
2.27633e-05
-0.000169803
-0.0112442
5.83346e-06
-0.00014471
-0.0112633
1.67609e-05
-0.000158925
-0.0112444
-0.000166056
-0.011256
-1.83921e-05
0.000189357
-0.0118385
-1.58744e-05
0.000181072
-0.0118386
-1.83263e-05
0.00015994
-0.0118539
-8.93042e-06
0.000148186
-0.0118476
1.62415e-05
0.000164218
-0.0118495
1.12518e-05
0.000153687
-0.0118573
0.000171986
-0.0118575
-5.38285e-07
0.00028946
-0.0112543
3.72393e-06
0.000305775
-0.0112424
-2.73861e-05
0.000298564
-0.0112607
-6.05587e-06
0.000302923
-0.0112558
-2.27347e-05
0.000283786
-0.0112608
1.24913e-05
0.000285401
-0.0112642
0.000286199
-0.0112642
-1.02061e-05
0.000101102
-0.0093137
1.83975e-05
0.000129128
-0.00933077
4.31342e-06
0.000134298
-0.00930578
-3.4825e-05
0.000134095
-0.00931809
-1.57077e-05
0.000156497
-0.00930357
-3.24811e-06
0.0001524
-0.00932251
0.000151072
-0.00936488
1.27193e-05
-0.00503649
3.77953e-05
-0.00507583
2.69277e-05
-0.00505911
6.18688e-06
-0.00506142
3.49943e-05
-0.00505114
-5.8479e-06
-0.00505138
-0.0050723
5.20931e-05
-0.000537435
-0.00532591
2.96771e-06
-0.000507561
-0.00528507
-7.0098e-06
-0.000529064
-0.00529264
-1.11236e-05
-0.000510152
-0.00529564
1.1974e-05
-0.000508003
-0.00524697
6.08626e-06
-0.000522345
-0.00525878
-0.000542254
-0.00525791
0.00011936
-0.000429915
-0.010583
-7.54256e-06
-0.000443734
-0.0105092
2.38425e-05
-0.000403761
-0.0104981
8.92118e-05
-0.000440076
-0.0105731
3.25536e-05
-0.000428093
-0.0105042
-1.63013e-05
-0.000451652
-0.0105447
-0.000434441
-0.0104945
-1.04477e-05
-0.000195583
-0.0129191
-6.93956e-06
-0.000142585
-0.0129573
6.53723e-06
-0.000153186
-0.0129881
1.34467e-05
-0.000194134
-0.0129959
8.22088e-07
-0.000125115
-0.0129659
-1.02629e-05
-0.000168584
-0.0129664
-0.000152709
-0.0129839
-2.21105e-05
0.000174151
-0.0136064
-2.82137e-05
0.000190409
-0.0136369
-8.2732e-06
0.000158554
-0.0136474
-3.35614e-05
0.000175162
-0.0136758
1.272e-05
0.000179623
-0.0136785
1.35244e-05
0.000197031
-0.0136611
0.000183433
-0.0135983
6.12882e-06
0.000415321
-0.0129202
-9.84128e-06
0.000441547
-0.0129292
-1.41156e-05
0.000432404
-0.0129754
-1.6129e-05
0.000428493
-0.0129883
-7.38372e-06
0.000467219
-0.0129763
-3.0906e-05
0.000413973
-0.0129222
0.000464145
-0.0129279
-4.45265e-05
0.000526611
-0.0104715
3.10176e-05
0.000540998
-0.0105659
2.41813e-06
0.000513896
-0.0105316
-1.20618e-05
0.000497676
-0.0105163
-6.51063e-05
0.000542539
-0.0105408
-7.40381e-05
0.000522817
-0.0104894
0.000558926
-0.0105644
-3.41878e-05
-0.0052523
3.92718e-05
-0.00528344
2.05742e-05
-0.0052493
1.33157e-05
-0.00526135
5.62222e-05
-0.0052549
-4.01762e-05
-0.00531258
-0.0053443
8.01255e-05
-0.00122493
-0.00473445
3.48442e-05
-0.00122574
-0.00474851
-3.08267e-05
-0.00122255
-0.00460894
4.70188e-05
-0.00120826
-0.00463102
7.25308e-06
-0.00119419
-0.0046113
3.11984e-05
-0.00122233
-0.00471123
-0.00124736
-0.00456507
0.000148918
-0.00149673
-0.0116654
2.21336e-05
-0.00148629
-0.0113625
2.08093e-05
-0.00146478
-0.0113963
0.000129405
-0.00149268
-0.0117005
2.11618e-05
-0.00146864
-0.0114419
3.23853e-05
-0.00148423
-0.0114849
-0.00146517
-0.0114943
-6.10796e-05
-0.000594206
-0.0149784
-9.25423e-05
-0.000618415
-0.0149284
-1.7404e-05
-0.000574686
-0.0151768
4.52506e-05
-0.000616454
-0.0151314
-5.03839e-06
-0.000631953
-0.0149449
5.25233e-05
-0.000590753
-0.0150482
-0.000507055
-0.0150722
-9.86644e-05
0.000601735
-0.0157961
-7.81072e-05
0.000580548
-0.015917
-2.04587e-05
0.00055771
-0.0159493
2.14339e-05
0.00061039
-0.0160402
1.549e-05
0.000640597
-0.0160875
2.98537e-05
0.000653773
-0.0159389
0.000568701
-0.0156753
-6.65124e-05
0.0014424
-0.014947
-7.05807e-05
0.00152709
-0.0150382
-2.99429e-05
0.00146069
-0.0150943
-1.86385e-05
0.00146131
-0.0151155
7.04777e-05
0.00146071
-0.0151109
1.52694e-05
0.00144994
-0.0148899
0.00148697
-0.0149867
-0.000122609
0.00118979
-0.0113656
-1.54112e-05
0.00124136
-0.0114818
2.14468e-05
0.0012582
-0.0114972
-6.04622e-05
0.00120529
-0.0114169
-5.28506e-05
0.00122384
-0.0115076
-0.000129388
0.00116828
-0.0113415
0.00120745
-0.0116338
-6.63287e-05
-0.00458356
6.84026e-05
-0.00482378
-5.97163e-06
-0.00458009
1.09598e-06
-0.00453947
-7.19542e-06
-0.00456047
-6.55273e-05
-0.00463348
-0.00476811
0.000148373
0.00115474
-0.0059661
0.00388752
-4.97829e-05
0.00178752
-0.00601141
0.00368831
1.30727e-05
0.00173125
-0.00614287
0.00369587
3.15978e-05
0.00174718
-0.00621677
0.00381939
6.04166e-05
0.00176212
-0.0061373
0.00370304
-9.43707e-05
0.00173459
-0.0060097
0.00372022
0.00140076
-0.00600953
0.00376396
-0.000170348
0.000921062
-0.0130126
0.0123385
-0.000115042
0.00180094
-0.013372
0.0120754
-8.40604e-06
0.00182789
-0.0135178
0.0121205
0.000121628
0.00167005
-0.0135601
0.0123487
0.000201268
0.00190278
-0.0135979
0.0121713
8.92652e-05
0.0017553
-0.0133456
0.0122253
0.00145186
-0.01315
0.0121161
-0.000463509
0.000297101
-0.0163801
0.0165962
-0.000197025
0.000608874
-0.0165272
0.0164379
-4.25465e-07
0.000741254
-0.0166854
0.0165416
-2.86334e-05
0.000711642
-0.0167383
0.0166905
0.000358925
0.000839592
-0.0166824
0.0164183
0.000223519
0.000734284
-0.016583
0.0165865
0.000488931
-0.0163021
0.0165192
-0.000213897
-0.000579213
-0.0170037
0.0177347
-0.000295469
-0.000421445
-0.0173038
0.0178396
-0.000133284
-0.000801438
-0.0174448
0.017941
-2.78509e-06
-0.000710253
-0.0174536
0.0180537
0.000313974
-0.000644367
-0.0173531
0.0180028
0.000417076
-0.000683951
-0.0172964
0.0179409
-0.000128691
-0.0170928
0.0175743
-1.77825e-05
-0.00151727
-0.0163178
0.016401
-0.000383118
-0.00106207
-0.0166207
0.0166484
-0.000178938
-0.00185267
-0.0166933
0.0165675
5.93332e-05
-0.00182982
-0.0167423
0.0165885
0.000141855
-0.00176517
-0.0166818
0.0166713
0.000391793
-0.00183655
-0.0165689
0.0164075
-0.000834735
-0.0162898
0.0164729
-0.000121676
-0.00147945
-0.0131202
0.0120265
-0.000109523
-0.00140785
-0.0132563
0.0123476
-0.000201461
-0.00177729
-0.0135739
0.012214
1.37259e-05
-0.001725
-0.0135522
0.0120918
9.93662e-05
-0.00171512
-0.0134589
0.0121554
6.53277e-05
-0.00173182
-0.01327
0.0120247
-0.00114822
-0.0129531
0.0123529
3.40382e-06
-0.00593456
0.00371026
3.90761e-05
-0.00588037
0.00381186
-4.91346e-05
-0.00606161
0.00369158
4.3349e-05
-0.00614464
0.00365814
5.30739e-05
-0.00607944
0.00371426
-0.000127379
-0.00594941
0.00367637
-0.00593041
0.00391144
9.70047e-05
-7.47806e-05
-0.00655321
-0.000218739
0.00101228
-0.00722802
-0.000115576
0.000996737
-0.00770436
0.000146617
0.000995622
-0.00793855
0.000237821
0.00100381
-0.00770441
-4.92814e-05
0.00100509
-0.00723999
-4.40346e-05
-0.00657344
-0.000456152
0.000107444
-0.013389
-0.000487093
0.00110591
-0.0143633
-0.000189278
0.00112972
-0.0148685
0.000263093
0.00113827
-0.0150441
0.000495768
0.00112985
-0.0149382
0.000517629
0.00110697
-0.0143564
9.04554e-05
-0.0134471
-0.000737496
6.432e-06
-0.0161611
-0.00053156
0.000432267
-0.0167806
-0.000177683
0.000450046
-0.017079
0.000186778
0.000424924
-0.0170947
0.000564712
0.000412325
-0.017057
0.00072576
0.00039364
-0.0167947
1.69924e-05
-0.016135
-0.000767184
-3.38589e-06
-0.0167676
-0.000554261
-0.000373579
-0.0172595
-0.00019523
-0.000440727
-0.0174878
0.000140358
-0.000446893
-0.0175091
0.000547881
-0.00043845
-0.0174669
0.000785046
-0.000418484
-0.0172668
-2.80877e-05
-0.0167777
-0.000695949
-9.91304e-05
-0.0161351
-0.000556198
-0.00111473
-0.0167345
-0.000200604
-0.00111213
-0.0170343
0.000163219
-0.00111466
-0.0171424
0.000516323
-0.00112424
-0.0170783
0.000714154
-0.00109735
-0.0167984
-7.9331e-05
-0.0161358
-0.000525419
3.59437e-05
-0.0133925
-0.000466188
-0.0010169
-0.0144137
-0.000247197
-0.000998697
-0.014907
0.000156663
-0.001001
-0.0149355
0.000451831
-0.000993184
-0.0148415
0.000422099
-0.000999944
-0.0142757
8.71338e-05
-0.0133453
4.07252e-05
-0.00651721
-0.00022083
-0.00718254
-0.000129512
-0.00764127
0.000111265
-0.00786731
0.000199423
-0.00763967
-0.000101786
-0.00716245
-0.00649875
-0.000504329
-8.84144e-05
-0.00639944
-0.000819713
0.00122949
-0.00850338
-0.000351113
0.00126886
-0.00972257
0.000387686
0.00130076
-0.0102648
0.000826196
0.00128322
-0.00971053
0.000499736
0.00122173
-0.00848962
-9.85705e-05
-0.00640472
-0.00131519
6.00609e-06
-0.0127741
-0.00124342
0.00147015
-0.0154589
-0.00039931
0.00159347
-0.016826
0.000496686
0.00157337
-0.017006
0.00124419
0.00155792
-0.0168727
0.00130572
0.0014479
-0.0154327
-2.56486e-05
-0.0128079
-0.00136898
-3.02366e-05
-0.0152465
-0.00101518
0.000570784
-0.0168264
-0.000353167
0.000613823
-0.0174075
0.000314729
0.000616914
-0.017366
0.00103736
0.000623826
-0.0173967
0.0013914
0.000563843
-0.0168375
-4.9298e-05
-0.0152405
-0.00138318
3.13909e-05
-0.0157973
-0.00093915
-0.000560144
-0.0169288
-0.000311349
-0.000625667
-0.0172647
0.00027099
-0.000616719
-0.0172647
0.000926896
-0.000619306
-0.0172469
0.00139999
-0.000571851
-0.016921
3.80448e-05
-0.015801
-0.00137926
1.4744e-05
-0.0152381
-0.00102416
-0.00146346
-0.0167362
-0.000336834
-0.0015405
-0.0173541
0.000307177
-0.00155284
-0.0174357
0.000999245
-0.00157284
-0.017409
0.00136234
-0.0014533
-0.0168347
2.62288e-05
-0.0152409
-0.00132435
9.85647e-05
-0.0127948
-0.00125353
-0.0012415
-0.0155527
-0.000495903
-0.0012705
-0.0168414
0.000429718
-0.00129198
-0.0168965
0.00120349
-0.00126532
-0.0167981
0.00127339
-0.0012141
-0.015366
8.84389e-05
-0.012742
-0.000495328
-0.00638258
-0.000837365
-0.00844927
-0.000379905
-0.00966887
0.000369457
-0.0102115
0.000802009
-0.00965388
0.000481989
-0.00842866
-0.00635295
-0.00180551
0.000537407
-0.00546073
-0.00187746
0.00144642
-0.00990702
-0.000767644
0.00153489
-0.0122799
0.000832964
0.00150624
-0.0134274
0.00187183
0.00158184
-0.0122807
0.0017811
0.00145744
-0.00989053
0.000533904
-0.00546421
-0.00289815
0.000654494
-0.0105522
-0.00257644
0.0018246
-0.0166669
-0.000797916
0.00207045
-0.0196294
0.000899571
0.00201647
-0.0197726
0.00252046
0.00197764
-0.0196937
0.00286734
0.0017771
-0.0166098
0.000607387
-0.010608
-0.00222395
0.00022778
-0.0129489
-0.00171601
0.000709389
-0.0166357
-0.000581123
0.000778588
-0.0177613
0.000474354
0.000791591
-0.0176505
0.00174602
0.000846216
-0.0177855
0.00225453
0.00072385
-0.01667
0.000230807
-0.0129631
-0.00190847
-0.000254721
-0.0136113
-0.0013609
-0.000722819
-0.0162182
-0.000438391
-0.000813106
-0.0168143
0.000390574
-0.000794217
-0.0167447
0.00135139
-0.000801729
-0.0167933
0.00191613
-0.000738998
-0.0162033
-0.000232934
-0.0136103
-0.00224701
-0.000624158
-0.0129537
-0.00172413
-0.00180828
-0.0165569
-0.000551978
-0.00201342
-0.0177376
0.00050393
-0.00200017
-0.0176934
0.00170039
-0.00207632
-0.0177639
0.00223576
-0.00179103
-0.0166717
-0.000621707
-0.0129585
-0.0029151
-0.000536769
-0.0106164
-0.00256791
-0.0014545
-0.0167732
-0.000864868
-0.0015465
-0.0196444
0.000801682
-0.00150903
-0.0197047
0.00253093
-0.0015377
-0.0196764
0.00283133
-0.00143349
-0.0165452
-0.000517003
-0.0105604
-0.00178314
-0.00544731
-0.00186823
-0.00985034
-0.000782192
-0.0122887
0.000809194
-0.0134107
0.00185657
-0.0122406
0.00177141
-0.00983026
-0.00541722
-0.0029661
0.000185097
-0.00272603
-0.00332436
0.00116057
-0.0101781
-0.0014588
0.000849868
-0.014359
0.00151687
0.000161497
-0.0163839
0.00331196
0.000943228
-0.0144276
0.00293908
0.001195
-0.0101907
0.000177501
-0.00271776
-0.0050308
0.000327145
-0.00574109
-0.00494819
0.00117834
-0.0166697
-0.00183565
0.00127823
-0.0231798
0.0017728
0.00108525
-0.0248064
0.0048683
0.00128352
-0.0233379
0.00500485
0.00121319
-0.0166959
0.000318416
-0.00584214
-0.00389309
0.000159501
-0.00896569
-0.00366124
0.000379737
-0.0162186
-0.00132206
0.000660519
-0.0197772
0.00120169