/*--------------------------------*- C++ -*----------------------------------*\
  =========                 |
  \\      /  F ield         | OpenFOAM: The Open Source CFD Toolbox
   \\    /   O peration     | Website:  https://openfoam.org
    \\  /    A nd           | Version:  6
     \\/     M anipulation  |
\*---------------------------------------------------------------------------*/
FoamFile
{
    version     2.0;
    format      ascii;
    class       volScalarField;
    location    "0.0025";
    object      T;
}
// * * * * * * * * * * * * * * * * * * * * * * * * * * * * * * * * * * * * * //

dimensions      [0 0 0 1 0 0 0];

internalField   nonuniform List<scalar> 
3773
(
216.368
215.826
215.882
215.927
215.874
215.855
216.343
277.672
277.429
277.364
277.361
277.352
277.452
277.778
312.359
312.607
312.612
312.605
312.602
312.592
312.432
322.244
322.312
322.341
322.343
322.338
322.336
322.254
312.45
312.5
312.668
312.666
312.656
312.644
312.479
277.929
277.585
277.598
277.57
277.551
277.595
277.899
216.323
216.024
215.984
216.013
215.987
215.91
216.379
210.884
210.131
209.824
209.761
210.001
210.239
209.957
271.703
275.334
275.307
275.23
275.207
275.518
272.93
313.91
311.996
311.944
312.041
312.242
311.947
313.837
324.652
324.75
324.695
324.725
324.731
324.624
325.167
314.246
313.943
312.492
312.407
312.335
312.172
314.213
272.136
271.863
274.916
275.069
275.06
275.589
272.454
210.347
210.6
209.859
209.867
209.805
210.106
209.967
209.643
209.971
209.156
209.173
209.637
210.437
209.588
269.936
273.146
272.349
270.706
270.721
273.42
270.44
314.175
312.231
313.401
314.344
314.13
311.842
314.156
325.319
324.629
324.902
325.336
325.415
324.676
325.311
314.17
311.853
313.15
313.955
314.223
312.919
314.158
270.176
273.297
272.557
270.887
271.271
272.55
270.424
209.493
210.355
209.169
208.96
209.074
210.086
209.537
209.485
210.696
210.191
210.251
210.046
210.308
209.539
269.985
274.519
273.929
273.496
271.726
273.8
270.162
314.194
311.266
312.015
312.316
313.452
311.101
314.132
325.324
324.574
324.842
325.139
325.02
324.874
325.288
314.203
310.774
313.317
314.489
313.62
311.013
314.142
270.056
274.393
272.037
270.458
272.093
274.106
270.148
209.44
210.411
210.109
208.852
209.824
210.298
209.494
209.512
210.087
209.931
209.472
209.832
210.101
209.461
270.085
274.502
274.435
274.72
274.641
274.144
270.16
314.241
311.742
311.393
312.055
311.632
310.716
314.197
325.335
324.433
324.835
324.707
324.677
324.933
325.31
314.234
311.277
311.758
312.904
313.042
310.999
314.203
270.165
274.441
274.241
272.809
272.953
273.947
270.188
209.502
210.122
209.989
209.323
209.513
210.17
209.453
209.546
210.161
208.438
210.234
210.324
210.051
209.499
270.396
274.777
275.674
274.437
274.622
274.54
270.428
314.357
311.433
311.618
311.073
311.035
310.839
314.29
325.365
324.454
324.475
324.667
324.4
324.958
325.341
314.34
311.886
311.324
311.618
311.274
312.131
314.296
270.501
275.631
274.789
275.732
274.66
273.286
270.441
209.54
208.652
210.057
208.465
210.581
210.096
209.496
210.206
208.205
209.98
209.972
209.975
210.108
210.194
274.182
275.355
274.366
274.048
274.077
274.33
274.189
311.688
312.183
311.216
311.582
311.103
311.561
311.186
325.476
326.13
325.921
325.935
326.235
325.469
326.278
311.684
315.028
311.617
311.198
315.655
311.646
311.17
274.216
269.409
274.178
274.367
270.676
274.325
274.21
210.285
209.69
210.046
210.028
207.961
210.172
210.248
219.587
219.515
219.523
219.536
219.546
219.556
219.586
285.178
285.156
285.15
285.182
285.144
285.121
285.186
328.319
328.282
328.289
328.267
328.296
328.291
328.249
340.098
340.1
340.098
340.1
340.095
340.097
340.09
328.232
328.266
328.247
328.24
328.227
328.243
328.258
285.028
284.981
285.022
285.025
285.047
285.042
285.067
219.491
219.525
219.514
219.497
219.488
219.48
219.531
220.449
220.399
220.379
220.406
220.411
220.45
220.497
287.209
287.229
287.135
287.631
287.055
287.078
287.713
326.762
326.7
326.787
326.376
326.79
326.7
326.306
340.07
340.078
340.063
340.103
340.047
340.055
340.035
326.949
326.842
326.713
326.658
326.636
326.831
326.812
287.062
286.74
286.951
287.094
287.204
286.956
286.988
219.759
220.408
220.395
220.343
220.333
220.287
220.366
219.875
219.863
219.704
219.858
219.807
220.392
219.958
285.012
285.105
284.709
286.991
284.771
284.791
287.017
329.202
329.069
329.478
327.53
329.29
328.863
327.527
340.731
340.667
340.693
340.884
340.714
340.799
340.901
328.271
327.335
327.497
327.224
328.066
329.255
329.545
285.793
287.083
286.898
287.523
286.483
284.761
284.184
220.055
220.12
220.029
219.796
219.718
219.626
219.763
221.218
221.254
221.166
220.934
220.956
221.015
220.909
285.712
285.376
284.946
285.864
285.54
285.933
285.89
329.224
329.359
329.728
329.409
329.41
328.702
329.063
341.629
341.622
341.579
341.713
341.563
341.896
341.835
327.938
327.28
327.23
327.473
327.532
329.113
329.332
287.646
288.528
288.632
288.53
288.495
285.756
285.332
220.616
220.58
220.587
220.304
220.643
220.906
220.923
222.991
223.295
223.39
223.055
222.487
223.386
223.792
288.61
288.781
287.325
289.758
288.847
289.687
289.555
329.155
329.048
330.026
329.448
329.143
328.49
328.097
343.036
343.267
343.032
343.373
342.997
343.532
343.295
330.759
328.821
328.472
329.146
328.422
329.372
328.252
286.882
289.7
289.677
289.313
290.477
288.815
289.878
223.112
222.56
221.998
221.713
222.792
222.397
222.753
230.969
228.617
229.517
228.614
230.09
231.4
230.277
294.588
297.166
297.462
296.071
297.522
296.594
296.863
333.64
331.878
331.761
332.374
331.646
331.569
331.474
345.667
345.046
345.362
345.096
345.463
345.373
345.96
332.126
331.455
331.754
333.013
331.995
332.748
331.964
295.816
296.986
296.648
294.896
296.641
294.434
298.501
230.378
232.702
230.281
229.517
231.714
227.454
229.991
243.277
243.419
242.735
244.073
242.059
244.854
245.018
306.588
304.256
304.737
304.767
303.424
303
304.054
334.702
335.597
334.187
334.519
334.818
334.675
334.342
346.979
346.681
346.677
346.676
346.587
346.621
347.153
335.269
335.054
334.369
335.552
334.39
335.084
335.895
301.39
305.049
303.209
302.17
303.336
305.942
305.597
245.37
247.218
245.17
244.616
246.308
240.014
241.54
225.677
225.468
225.924
226.081
226.313
225.961
225.761
288.366
283.465
287.184
286.724
285.795
286.378
287.085
329.569
331.37
328.885
330.167
329.7
329.81
329.536
347.172
347.004
346.555
346.558
346.366
346.437
347.178
328.833
331.586
330.568
328.819
328.998
328.625
332.433
286.911
285.768
284.563
287.182
287.112
287.172
285.976
226.312
226.173
226.391
226.461
226.047
226.06
225.57
226.563
226.791
227.098
227.627
227.463
227.166
225.941
291.591
289.411
289.449
288.79
287.356
288.705
290.661
331.48
330.502
330.61
331.945
332.111
331.078
333.036
347.57
347.735
347.216
347.851
347.735
347.727
347.641
332.483
333.015
331.829
330.791
330.493
330.168
331.761
289.951
285.177
287.942
290.065
288.991
289.517
292.154
226.801
227.381
227.448
227.715
227.387
227.238
226.225
227.202
228.552
228.983
229.562
229.223
229.165
226.482
292.005
288.575
288.393
288.555
286.825
288.75
291.699
331.754
329.684
329.68
332.05
330.467
329.632
333.023
347.489
347.322
346.911
347.88
347.757
347.793
347.695
332.355
332.773
330.839
330.526
329.808
329.355
332.035
291.091
284.158
287.174
290.023
287.033
288.669
292.508
227.412
229.247
229.208
229.544
229.331
229.118
226.891
228.572
232.439
232.674
232.382
232.464
233.092
227.947
290.846
288.329
287.565
288.821
286.098
288.437
291.25
330.797
328.914
328.287
331.944
328.622
329.147
331.504
346.785
346.619
346.257
347.352
347.162
347.458
347.029
331.165
331.874
329.269
330.705
329.558
329.166
331.149
289.929
284.756
286.492
289.746
284.553
288.403
291.166
228.897
233.506
232.589
232.144
232.68
233.059
228.519
232.132
241.011
239.844
235.62
238.358
241.153
231.749
292.858
290.894
288.655
290.175
285.952
291.101
292.556
331.022
329.619
327.381
331.346
328.633
330.712
331.036
346.279
346.412
345.616
346.827
346.234
346.928
346.474
330.629
331.571
327.76
331.897
330.705
330.702
331.372
290.557
288.904
287.847
288.862
283.478
290.787
291.875
232.985
242.242
238.813
234.932
238.394
241.087
232.227
240.626
258.219
252.906
239.336
248.18
255.062
240.47
299.152
300.347
290.989
285.069
286.186
296.918
297.821
332.708
330.89
324.956
329.131
327.848
332.864
333.162
346.364
346.218
344.788
345.856
345.162
346.432
346.442
333.804
332.027
326.425
330.407
329.167
332.696
333.716
299.018
298.771
287.984
282.891
284.598
296.706
297.054
242.373
257.838
251.076
238.047
247.605
255.648
240.757
274.031
277.945
270.472
254.004
272.449
282.006
278.445
312.503
305.447
294.067
278.055
290.191
305.182
309.566
330.497
330.148
322.316
323.515
326.415
331.623
331.284
344.35
344.639
343.404
343.83
343.912
344.853
344.423
333.104
330.777
324.978
324.929
327.219
331.229
331.319
306.937
303.695
291.25
275.177
289.37
305.146
309.441
278.662
281.053
276.324
253.958
277.44
279.41
277.816
258.972
243.534
258.494
259.336
255.118
250.49
261.426
300.251
298.458
300.215
298.876
298.171
301.068
297.306
333.33
335.542
332.541
333.237
333.233
333.466
333.134
347.464
347.098
346.666
346.644
346.497
346.448
347.414
332.119
334.656
333.302
332.232
332.706
332.756
336.588
298.091
303.519
297.604
298.363
299.807
300.203
299.516
258.469
252.508
257.142
260.088
258.2
249.334
256.015
253.943
239.973
251.987
251.56
248.211
241.286
251.043
296.933
294.023
297.815
296.814
294.601
298.432
295.487
332.848
334.588
332.108
332.779
332.91
332.667
332.127
347.411
347.079
346.648
346.61
346.452
346.41
347.354
331.672
333.917
332.98
331.92
332.288
332.366
335.93
295.897
298.263
295.144
296.214
297.69
297.609
296.832
253.172
244.138
251.652
254.828
251.526
240.426
249.535
248.597
234.797
241.745
247.926
242.796
238.805
247.413
295.767
292.218
294.597
295.177
291.907
295.659
293.366
331.651
334.058
331.356
332.135
332.361
331.996
331.796
347.34
347.028
346.607
346.537
346.398
346.305
347.261
331.181
333.622
332.725
331.353
331.866
331.951
335.192
293.659
296.133
292.632
293.863
293.765
294.291
294.31
247.716
241.702
245.108
247.542
241.855
236.494
247.158
242.042
232.647
238.739
241.424
239.5
236.872
237.044
293.738
289.567
292.401
292.878
290.082
292.788
291.822
331.252
333.159
330.686
331.919
331.91
331.706
330.968
347.279
346.929
346.519
346.481
346.317
346.265
347.156
330.669
332.908
332.341
330.575
331.246
330.859
334.682
291.605
294.299
290.421
292.419
292.488
292.243
292.074
241.505
234.968
239.878
242.311
239.215
232.407
238.249
234.535
230.982
231.932
235.765
235.973
231.726
234.009
292.536
287.859
290.816
290.32
288.026
289.71
289.395
330.815
332.909
330.422
331.361
331.361
331.164
330.752
347.244
346.879
346.474
346.427
346.29
346.197
347.052
329.972
332.64
331.597
330.224
330.598
330.191
334.186
290.181
290.602
287.649
289.579
290.953
290.77
290.066
233.976
233.426
235.607
236.01
232.358
231.058
235.608
232.18
226.604
230.116
231.278
229.883
230.016
231.287
290.899
285.199
288.853
288.82
287.296
288.709
288.699
330.154
332.163
329.938
330.851
330.809
330.764
330.352
347.234
346.877
346.421
346.394
346.304
346.188
347.052
329.574
332.242
331.314
329.796
330.042
329.634
333.504
288.673
288.997
286.446
288.508
288.729
288.855
287.495
231.712
229.266
231.093
229.047
230.569
229.48
231.891
226.921
225.358
225.851
226.101
226.238
225.911
225.743
289.524
284.099
287.761
287.922
286.205
287.223
287.506
329.954
331.88
329.414
330.621
330.312
330.324
329.995
347.242
346.936
346.432
346.439
346.348
346.282
347.106
329.156
331.994
330.99
329.369
329.554
329.288
333.043
287.358
287.247
285.255
287.693
287.864
287.77
286.856
226.231
227.72
226.374
226.341
225.994
226.086
226.796
304
307.646
300.377
274.61
301.554
308.461
303.155
293.408
298.852
298.244
280.165
297.26
298.63
293.492
312.944
321.487
319.974
316.42
323.313
322.354
313.69
338.058
341.527
341.53
341.526
342.297
341.781
338.106
313.804
321.967
322.417
317.376
323.156
322.324
313.575
294.001
299.095
297.515
277.238
296.61
297.943
292.468
304.378
309.043
302.32
272.12
302.546
307.272
303.188
325.95
325.888
309.115
274.778
311.095
327.211
326.469
309.239
307.364
299.81
277.569
299.824
307.879
310.092
315.426
321.194
318.026
313.284
321.086
321.856
315.91
338.248
341.239
340.702
340.482
341.456
341.527
338.415
315.454
321.441
320.392
313.841
320.88
321.98
316.079
310.344
308.322
299.708
274.394
299.226
307.396
309.289
325.242
326.65
312.736
270.331
312.279
324.302
323.432
330.783
331.119
310.619
271.044
315.87
333.016
331.401
309.965
307.48
298.622
275.794
299.31
307.859
311.045
317.172
321.861
318.254
313.394
320.721
322.477
317.356
338.269
341.578
340.673
340.457
341.773
341.943
338.367
316.682
322.209
320.03
313.764
320.122
322.225
318.112
311.668
308.303
297.875
274.453
298.066
308.828
311.16
330.654
332.359
311.415
272.004
315.262
331.947
331.294
324.87
326.424
303.33
263.194
307.837
327.257
326.431
305.185
304.113
293.659
271.492
294.048
304.284
305.872
319.329
322.864
318.953
313.446
320.434
322.865
320.125
339.298
341.513
340.622
340.375
341.809
342.039
339.446
319.282
322.516
320
313.436
320.155
322.682
319.891
306.149
304.181
294.46
269.512
292.46
304.822
306.348
325.463
325.026
308.995
263.768
303.337
326.603
324.834
313.643
309.518
287
256.67
286.121
312.088
313.033
302.911
298.118
285.342
268.185
284.954
298.042
303.181
321.935
323.981
319.896
314.326
321.129
323.646
322.37
340.202
341.686
340.535
340.251
341.914
342.609
340.288
321.78
323.198
320.607
313.884
321.007
323.573
322.27
303.254
298.72
285.094
264.782
284.413
298.809
303.83
316.373
314.157
288.028
251.836
283.845
314.547
315.714
305.786
292.301
260.948
244.456
257.454
294.368
304.626
298.636
291.401
277.462
265.475
277.055
289.147
299.184
326.7
326.033
322.508
315.888
324.157
325.929
327.057
341.986
342.403
340.673
339.785
341.947
343.083
341.945
326.914
325.942
322.606
314.13
322.534
325.21
326.616
298.791
289.705
276.294
265.319
278.578
288.683
299.942
303.545
297.918
256.578
242.86
260.288
294.079
304.874
265.156
250.619
241.338
239.261
241.807
249.15
264.273
285.62
286.058
278.663
266.137
277.953
281.209
287.801
329.331
325.826
323.593
318.123
326.049
328.669
326.818
342.239
342.661
340.773
338.186
341.227
343.1
342.731
330.105
330.091
319.613
309.447
319.55
325.277
329.005
284.349
279.848
282.944
277.899
285.618
285.178
285.483
260.513
251.444
241.28
238.585
243.471
248.574
263.043
307.605
310.104
313.333
319.073
323.61
333.446
348.522
294.915
298.62
303.397
312.85
317.197
323.598
333.08
302.088
298.439
296.057
295.104
295.915
297.716
300.127
332.689
329.869
326.255
322.12
317.67
313.107
307.123
302.724
299.085
296.605
295.41
295.947
297.092
299.13
293.792
297.866
303.339
315.784
320.284
325.321
335.652
308.112
310.334
312.603
320.079
323.626
333.551
348.97
327.284
326.808
327.322
330.985
334.721
339.309
347.771
317.638
322.192
325.999
331.951
333.973
337.105
346.699
307.553
305.103
304.166
304.525
307.296
309.384
313.15
334.23
331.986
329.573
324.54
318.538
316.243
312.009
307.604
305.155
304.195
304.469
307.252
309.181
313.11
316.881
321.499
325.388
331.762
333.824
337.081
346.732
325.645
325.571
325.893
329.328
331.221
337.197
351.597
330.789
327.489
326.119
325.486
327.504
333.994
336.64
317.045
318.67
321.575
325.608
326.997
329.806
337.08
309.563
308.356
307.305
307.35
309.471
311.151
314.962
334.79
332.658
331.103
325.148
320.519
318.568
314.769
309.782
308.404
307.254
307.256
309.44
311.158
315.162
317.059
318.207
320.641
324.503
326.157
329.217
337.115
330.281
326.735
325.303
324.484
325.174
328.532
340.11
322.936
320.854
317.789
316.665
319.135
323.029
331.264
309.047
309.693
311.566
313.8
315.356
317.242
325.713
311.345
309.555
307.803
307.068
307.969
309.179
312.828
334.632
332.39
331.419
325.77
321.796
320.236
316.855
312.265
309.782
308.033
307.327
308.26
309.451
313.124
309.356
309.927
313.19
314.108
316.002
318.258
326.322
319.873
316.775
312.602
311.244
312.66
322.904
327.93
307.907
301.154
292.296
289.026
292.36
300.657
316.235
304.563
305.161
307.449
307.858
310.212
313.705
320.798
314.991
312.262
309.871
307.753
307.572
308.025
309.462
335.523
332.852
332.03
328.111
325.397
322.726
319.835
315.568
312.941
310.041
308.056
307.768
308.082
309.458
305.106
305.423
307.699
308.448
310.032
313.667
320.418
309.103
305.227
298.591
296.148
299.932
308.231
320.544
296.805
287.999
284.37
275.548
273.594
281.679
310.318
303.409
304.68
307.794
307.342
307.251
308.646
314.73
323.457
320.178
317.829
315.462
314.151
310.571
307.638
339.187
336.882
335.753
333.973
331.376
328.338
324.46
323.211
320.182
318.007
315.487
314.06
310.456
307.578
303.972
305.046
307.965
307.687
307.269
308.257
314.536
301.085
290.09
286.015
275.558
269.567
273.191
312.132
267.148
266.147
263.513
262.704
263.488
265.807
295.917
291.912
292.449
293.065
294.244
298.489
301.802
312.067
328.206
325.551
325.699
326.802
326.774
319.764
310.958
339.991
338.13
337.756
338.403
337.515
334.428
328.821
327.461
325.622
324.97
326.24
326.319
319.244
310.637
291.297
292.799
293.073
295.623
298.598
301.629
311.71
267.047
265.909
262.901
262.401
263.311
267.523
294.792
348.705
332.072
326.298
315.642
312.766
311.05
309.286
329.19
323.045
316.531
310.088
304.697
299.919
295.906
301.262
298.363
296.58
295.267
296.095
298.278
301.803
307.041
313.291
317.881
322.344
326.466
330.068
332.842
300.924
297.418
296.36
295.533
296.7
299.198
302.897
333.268
324.418
320.93
311.101
305.007
299.987
295.848
345.266
334.185
328.214
316.805
312.743
310.605
308.748
349.055
335.434
330.605
327.284
325.427
325.33
325.804
346.46
336.34
333.492
331.472
324.086
320.065
315.969
312.739
308.807
306.763
303.762
303.282
304.22
306.745
311.207
315.562
317.888
324.619
328.701
331.475
333.876
313.762
309.923
307.894
305.116
304.566
305.391
307.629
346.85
337.288
333.951
331.976
325.946
322.025
317.548
351.944
336.606
332.095
328.04
325.192
325.177
326.131
339.648
333.103
330.475
326.993
326.71
327.272
330.34
336.177
328.097
325.381
324.072
320.499
317.675
316.185
315.347
310.954
309.315
306.93
306.838
307.705
308.9
314.315
318.158
320.087
325.208
330.722
332.105
334.347
315.223
311.602
309.871
307.617
307.543
308.398
309.67
338.128
330.184
327.15
325.634
321.946
319.385
318.088
337.412
334.418
327.696
325.203
325.448
326.465
329.629
326.506
318.297
313.152
311.589
314.527
317.142
320.106
326.896
318.282
316.015
313.816
311.074
309.073
308.465
313.01
309.284
307.93
307.179
307.896
309.466
311.493
316.395
320.052
321.685
326.203
331.376
331.982
334.324
313.094
309.347
308.124
307.248
308.005
309.63
311.665
326.368
317.6
315.474
313.887
311.806
310.011
309.375
332.59
323.819
319.9
317.085
318.896
320.685
323.561
320.631
308.348
299.346
298.244
300.302
305.64
310.338
319.425
312.677
309.883
307.143
306.326
304.489
304.151
309.627
308.259
307.796
308.27
310.671
312.315
314.645
320.139
321.864
325.817
328.607
332.145
333.202
335.672
309.418
307.975
307.438
307.624
309.902
311.956
314.67
320.432
313.968
309.297
308.092
307.525
305.249
304.688
315.411
299.493
290.781
291.771
298.023
303.102
307.21
303.388
272.843
272.612
272.339
285.201
291.475
299.391
315.587
308.772
306.887
307.064
307.231
304.18
302.939
307.694
310.746
314.297
316.72
318.62
321.03
323.934
324.892
328.754
332.028
334.691
336.244
337.375
339.617
307.322
309.884
313.512
314.898
317.333
320.081
323.045
314.388
308.592
307.387
307.311
307.797
304.865
303.572
308.542
281.126
268.899
272.387
285.482
289.747
299.147
294.818
265.175
263.007
260.947
261.757
265.359
267.205
311.494
300.998
297.739
293.721
292.571
291.825
290.457
310.829
319.758
327.101
327.234
325.955
325.849
328.464
329.688
335.165
338.125
338.88
337.848
338.56
340.386
309.776
319.307
326.681
326.826
325.84
325.679
328.052
311.561
301.719
299.252
293.663
292.456
292.036
290.702
294.538
265.409
263.74
262.748
264.288
264.325
265.529
354.631
356.711
362.158
362.459
363.251
359.827
353.287
336.586
339.312
346.099
342.152
343.972
339.479
335.041
306.971
300.64
302.355
306.231
303.389
304.411
303.362
300.946
300.185
300.704
301.685
302.689
303.503
305.352
303.257
302.898
301.646
301.527
304.874
302.426
302.506
343.203
333.099
340.654
342.308
340.773
340.202
335.691
357.963
353.92
358.112
360.461
362.947
359.63
353.48
374.476
373.698
373.739
372.107
369.739
366.409
356.364
364.079
364.15
363.523
362.415
359.999
356.144
350.221
319.109
317.518
319.027
319.426
318.158
316.399
314.129
307.369
306.603
307.369
307.857
308.337
309.113
310.166
318.462
316.372
317.98
319.275
318.713
317.398
315.258
360.254
362.295
361.949
362.223
360.475
356.732
350.14
374.008
374.653
373.909
374.651
371.641
367.52
358.169
369.032
368.547
369.542
365.696
357.284
352.752
347.267
362.076
361.28
360.029
357.649
352.175
345.387
338.386
326.117
324.683
324.336
323.521
321.443
318.681
316.831
310.074
309.733
310.567
311.194
311.123
311.776
313.057
330.577
324.704
324.319
324.027
322.039
319.82
317.053
356.96
360.789
359.968
358.611
353.288
346.969
340.885
370.842
369.436
369.293
366.122
358.987
354.245
345.851
364.204
360.825
354.253
353.024
350.214
344.272
337.423
354.747
353.138
350.085
346.098
341.366
338.017
331.931
324.577
323.666
323.392
321.53
318.817
316.847
314.335
312.38
311.915
312.449
312.487
312.829
314.019
315.337
325.099
324.008
323.816
322.208
319.286
317.1
314.623
353.543
353.593
350.649
347.145
342.346
337.15
332.264
360.693
363.893
355.7
350.415
350.647
346.82
341.119
349.004
347.657
345.768
348.193
334.477
334.141
331.564
345.781
344.212
340.536
340.091
334.172
329.562
324.214
322.682
322.185
320.879
318.241
316.888
314.563
312.202
313.662
313.085
313.436
313.877
314.523
315.115
316.632
327.308
323.345
320.611
318.973
317.16
314.58
311.875
344.679
345.187
341.803
339.832
334.908
331.834
325.177
352.15
347.878
348.866
343.379
333.008
335.995
332.609
341.924
344.127
342.363
340.447
328.937
328.642
324.961
338.676
337.521
335.373
333.514
328.839
327.027
322.513
316.687
315.461
313.937
312.356
311.774
309.885
308.401
314.152
314.036
314.735
314.897
315.917
317.609
320.971
317.775
316.694
314.558
312.824
311.963
310.143
308.262
340.184
337.96
336.074
332.713
328.989
326.821
322.861
346.181
341.599
337.6
331.313
327.251
326.186
325.335
337.725
337.233
336.252
333.794
324.932
321.868
319.495
335.652
334.632
332.754
330.944
326.946
324.273
321.123
318.866
317.721
315.404
310.138
308.695
308.357
307.389
315.291
315.337
315.747
316.315
315.892
318.574
322.986
323.449
320.171
316.281
311.06
309.105
308.463
307.099
335.492
334.842
332.592
330.292
327.013
324.482
321.393
337.434
336.617
334.744
326.13
324.526
321.375
318.386
329.772
329.789
328.632
310.165
321.549
317.903
314.543
328.572
327.763
326.93
324.943
323.191
322.372
320.098
314.533
313.234
310.86
307.779
305.381
306.091
306.201
313.113
312.656
312.314
312.65
312.548
313.81
316.174
315.155
313.746
311.033
308.162
305.202
305.695
305.62
328.647
327.78
326.786
324.81
323.399
322.542
320.165
329.126
329.284
328.686
311.94
321.769
317.674
314.339
292.559
292.188
292.851
291.52
291.449
290.665
290.783
316.524
316.156
315.84
316.064
316.375
315.906
316.522
308.465
306.92
306.022
304.746
304.428
305.594
304.809
306.07
307.651
307.38
307.886
309.044
309.893
311.711
306.325
306.604
305.486
304.095
303.655
304.768
303.639
316.622
316.305
315.915
316.153
316.376
315.942
316.65
292.819
292.656
293.45
291.652
291.855
291.088
291.357
281.292
281.156
281.55
281.44
281.723
282.267
282.346
309.002
309.158
309.099
309.197
309.439
309.169
309.244
301.818
302.885
302.854
302.747
303.403
304.049
303.976
304.628
302.834
302.638
302.769
303.624
304.199
308.726
302.781
301.772
302.161
301.86
302.304
303.144
302.512
308.967
309.105
309.141
309.244
309.351
309.126
309.351
281.378
281.44
281.717
281.527
281.916
282.307
282.515
277.858
277.811
277.851
278.247
278.21
278.384
278.404
304.987
304.917
304.87
304.774
304.935
304.843
305.102
301.514
302.747
302.662
302.561
302.875
303.193
303.611
301.745
302.516
302.377
302.407
303.059
303.483
302.813
302.206
301.589
301.926
301.902
302.104
302.689
302.577
304.894
304.792
304.907
304.731
304.815
304.83
305.119
277.941
278.125
277.923
278.323
278.535
278.409
278.66
276.239
276.136
276.133
276.444
276.168
276.5
276.32
303.276
303.267
303.25
303.135
303.167
303.104
303.267
300.119
300.716
300.556
300.538
300.429
300.244
300.425
300.172
301.503
301.459
301.35
301.567
301.622
301.43
300.074
300.056
300.168
300.408
300.551
300.47
300.449
303.29
303.197
303.271
303.147
303.106
303.143
303.384
276.331
276.499
276.216
276.545
276.567
276.54
276.62
277.275
277.247
277.249
277.595
277.277
277.634
277.316
303.243
303.242
303.239
303.152
303.225
303.159
303.225
303.009
303.19
303.088
303.091
303.05
302.907
302.651
298.466
300.032
299.988
299.908
300.006
299.928
296.422
302.721
302.867
302.922
303.078
303.19
303.071
302.884
303.236
303.165
303.248
303.163
303.164
303.194
303.198
277.306
277.6
277.241
277.659
277.68
277.685
277.695
292.63
292.632
292.632
291.944
292.627
291.926
292.58
305.128
305.128
305.126
305.004
305.111
305.001
305.106
302.341
302.386
302.327
302.343
302.344
302.272
301.938
288.002
289.267
289.155
289.246
289.227
289.032
287.902
302.01
302.276
302.417
302.391
302.469
302.396
302.139
305.113
305.004
305.122
305.006
305
305.005
304.997
292.588
291.94
292.626
291.934
291.932
291.935
291.931
353.005
358.315
361.48
359.135
357.539
353.416
359.523
336.124
338.55
342.658
339.907
335.814
334.973
339.165
300.478
302.989
300.857
301.71
304.336
299.677
308.155
305.406
303.577
302.523
301.951
301.358
300.681
301.523
299.88
301.073
301.999
302.662
302.858
300.299
302.038
338.485
342.618
345.414
345.552
346.199
338.505
330.342
353.354
359.956
363.687
363.473
363.478
359.971
342.172
358.087
364.954
369.927
372.563
373.517
374.559
373.985
350.406
355.732
359.284
360.782
360.657
361.245
361.346
314.362
316.489
317.505
317.795
315.859
313.778
317.122
310.907
309.749
308.916
308.3
307.731
306.609
307.548
314.694
316.999
318.754
320.152
319.838
318.36
324.274
350.133
355.846
359.586
361.888
362.351
361.619
353.306
356.717
366.501
369.929
373.062
373.917
374.228
369.5
346.362
356.354
356.794
361.076
368.268
369.917
369.937
339.564
346.384
351.721
356.707
358.597
359.862
358.419
316.196
318.97
321.619
323.519
322.767
321.726
323.25
313.498
312.522
311.894
311.518
310.833
310.146
311.678
316.552
319.77
322.415
324.72
325.181
324.813
324.861
339.277
345.222
351.526
356.175
358.815
359.46
358.419
348.706
352.821
356.654
361.075
366.273
367.91
368.213
337.904
341.331
345.54
353.796
356.477
360.775
363.752
330.709
335.808
341.034
346.48
350.509
352.476
350.088
314.294
317.065
319.42
321.522
323.258
324.395
329.757
315.901
314.29
313.082
312.754
312.574
312.215
313.041
314.431
317.067
319.63
321.252
323.425
324.445
323.515
332.103
337.334
341.072
346.375
351.093
352.778
354.822
340.448
346.267
345.044
354.449
359.142
358.745
365.636
330.082
334.421
335.33
340.209
346.327
350.661
350.975
326.251
331.643
334.713
337.723
341.975
346.388
346.174
311.943
314.619
317.396
319.416
320.819
322.782
327.423
317.002
315.544
314.796
314.01
313.686
313.189
313.655
311.877
314.457
316.879
319.218
320.549
321.368
321.246
325.349
331.611
334.179
337.724
341.492
345.553
346.797
330.523
337.115
337.051
338.471
345.834
353.038
355.332
325.575
329.277
331.472
334.577
342.31
345.927
346.498
323.017
327.05
329.467
333.048
335.926
338.441
342.243
308.366
310.055
311.663
313.137
313.663
315.807
317.394
320.881
317.577
316.01
315
314.623
313.931
314.07
308.295
310.018
311.586
312.87
313.762
316.333
319.106
323.123
327.273
329.58
333.25
335.932
337.847
338.211
326.222
326.242
327.288
333.096
341.601
340.274
344.486
318.894
322.162
325.07
331.056
336.559
338.044
338.109
321.556
324.578
327.311
330.818
333.294
335.015
336.238
307.489
308.502
309.053
311.054
314.494
318.589
319.699
322.544
318.4
315.864
316.237
315.572
315.019
314.894
307.372
308.472
308.909
310.256
315.014
317.582
318.274
321.712
324.747
327.217
331.212
332.961
334.86
334.959
319.063
322.179
324.167
330.932
334.791
335.991
337.782
315.147
318.248
321.747
326.963
329.808
329.891
330.615
320.329
322.557
323.449
325.579
327.307
327.91
329.23
306.4
305.973
305.297
307.486
310.482
313.066
314.837
317.785
313.566
312.358
312.346
311.881
312.124
312.974
306.179
306.312
305.593
307.208
310.522
312.879
315.723
320.462
322.777
323.592
325.671
326.971
328.108
327.813
314.419
318.048
320.552
327.33
327.293
328.383
327.987
291.314
291.073
292.027
292.005
293.453
292.926
293.316
316.653
316.053
316.482
316.186
315.957
316.261
316.7
304.488
305.625
304.504
304.925
306.239
306.754
307.643
307.509
309.653
308.637
307.765
307.248
307.229
305.405
304.718
305.283
304.278
304.525
305.732
306.558
306.331
316.653
316.078
316.503
316.269
315.974
316.362
316.776
291.603
291.413
292.275
291.955
294.177
292.503
293.335
282.603
282.201
281.809
281.616
281.85
281.597
281.679
309.208
309.189
309.417
309.255
309.05
309.098
309.049
303.384
304.081
303.537
303.142
303.251
302.794
303.793
305.806
303.81
303.448
302.619
302.792
302.991
303.831
301.995
303.057
302.846
302.186
302.701
302.676
302.355
309.385
309.244
309.399
309.358
309.167
309.277
309.122
282.367
282.13
281.935
281.417
281.779
281.452
281.592
278.638
278.162
278.285
278.301
278.113
278.035
278.089
305.063
304.921
304.933
304.81
304.825
304.813
304.914
303.074
303.197
303.06
302.901
302.943
302.611
302.775
302.205
303.042
302.96
302.227
302.612
302.858
300.86
301.999
302.35
302.321
302.053
302.558
302.68
301.688
305.089
304.918
304.856
304.832
304.891
304.866
304.921
278.385
278.132
278.495
278.078
277.909
277.84
277.906
276.61
276.236
276.232
276.494
276.458
276.425
276.503
303.32
303.222
303.197
303.171
303.22
303.209
303.377
300.198
300.199
300.485
300.464
300.484
300.496
299.873
300.404
301.118
301.549
301.142
301.821
302.144
300.018
300.266
300
300.143
300.411
300.702
300.958
299.762
303.352
303.182
303.07
303.202
303.24
303.256
303.269
276.293
276.2
276.535
276.196
276.182
276.151
276.267
277.721
277.271
277.261
277.638
277.609
277.588
277.632
303.162
303.252
303.235
303.156
303.17
303.171
303.198
302.52
302.866
303.002
302.941
302.976
302.989
302.508
298.522
299.452
299.845
299.691
300.304
300.608
296.019
302.879
302.828
302.878
303.083
303.222
303.399
302.636
303.213
303.237
303.133
303.219
303.227
303.23