/*--------------------------------*- C++ -*----------------------------------*\
  =========                 |
  \\      /  F ield         | OpenFOAM: The Open Source CFD Toolbox
   \\    /   O peration     | Website:  https://openfoam.org
    \\  /    A nd           | Version:  6
     \\/     M anipulation  |
\*---------------------------------------------------------------------------*/
FoamFile
{
    version     2.0;
    format      ascii;
    class       volVectorField;
    location    "0.0025";
    object      U;
}
// * * * * * * * * * * * * * * * * * * * * * * * * * * * * * * * * * * * * * //

dimensions      [0 1 -1 0 0 0 0];

internalField   nonuniform List<vector> 
3773
(
(26.0716 -0.0865219 0.134599)
(25.972 -0.00359349 0.106719)
(25.9831 0.0365087 0.0882733)
(25.9911 0.00819267 0.0956677)
(25.9811 0.014845 0.0964613)
(25.9763 0.0313687 0.0923921)
(26.0817 0.0705738 0.124045)
(9.26071 0.0124155 0.0390033)
(9.24219 -0.0386225 0.0464265)
(9.24049 -0.0245876 0.0567358)
(9.2402 0.0191959 0.0564601)
(9.23948 0.0217258 0.0587907)
(9.2435 0.0279421 0.0807952)
(9.26554 -0.00109352 0.089631)
(3.87746 0.0381723 0.0325727)
(3.87549 -0.00904305 0.0419449)
(3.87544 -0.0293678 0.0536814)
(3.87536 0.0162751 0.050845)
(3.87532 0.0287159 0.0524811)
(3.87533 0.0152372 0.0707302)
(3.87834 -0.0147138 0.0571282)
(0.000105901 0.00995089 0.0435246)
(-1.46166e-05 0.0266355 0.0405108)
(-5.61313e-05 0.0250568 0.0430412)
(-3.99904e-05 -0.0112623 0.0423019)
(-4.70927e-05 -0.040244 0.0400967)
(-4.42941e-05 -0.0428469 0.0295827)
(-3.22031e-05 -0.0217197 0.0338701)
(-3.87889 0.0294141 0.0349443)
(-3.87641 -0.0172917 0.0398533)
(-3.87656 -0.0347268 0.0461888)
(-3.87655 0.00703437 0.0458489)
(-3.8764 0.0197443 0.0473073)
(-3.87634 0.011718 0.0627705)
(-3.87925 -0.0124465 0.0508884)
(-9.27072 0.0040262 0.0307564)
(-9.25037 -0.0465363 0.0449761)
(-9.24988 -0.0274695 0.0608293)
(-9.24854 0.00916833 0.0545771)
(-9.24763 0.0140109 0.0574203)
(-9.24892 0.0306628 0.078677)
(-9.27025 0.00279927 0.0909771)
(-26.0719 -0.0607723 0.146328)
(-25.9931 -0.00729315 0.113148)
(-25.9987 0.0071267 0.110242)
(-26.0034 -0.0173867 0.116408)
(-26.0001 -0.0199383 0.106768)
(-25.9856 0.00358866 0.099345)
(-26.086 0.0526718 0.138305)
(24.5595 -0.091739 0.384069)
(24.4247 -0.0352883 0.335408)
(24.3879 0.00942583 0.310938)
(24.3796 0.0126891 0.321959)
(24.4088 0.0215733 0.328277)
(24.4382 0.0431264 0.348582)
(24.4413 0.0786806 0.390284)
(8.70862 0.0136322 0.0364794)
(8.81861 -0.0448709 0.0587129)
(8.8181 -0.0384214 0.0830039)
(8.8153 0.0224003 0.0772579)
(8.81447 0.0429433 0.0719349)
(8.82553 0.0467602 0.10511)
(8.74805 0.0039461 0.093294)
(3.73428 0.041928 0.0576737)
(3.71042 -0.000831054 0.059519)
(3.71001 -0.02752 0.0856121)
(3.71077 0.0161973 0.0767039)
(3.71301 0.039857 0.074689)
(3.71058 0.0207931 0.100089)
(3.7333 -0.0189602 0.0792635)
(9.76553e-05 0.00703818 0.0459222)
(-8.82247e-06 0.0294483 0.0380436)
(-3.89226e-05 0.0296057 0.037296)
(-4.8169e-05 -0.0138335 0.0383901)
(-5.37252e-05 -0.0467232 0.0369105)
(-5.0845e-05 -0.0454649 0.019348)
(-4.62988e-05 -0.0194303 0.0261125)
(-3.7385 0.0319808 0.0545041)
(-3.73173 -0.0147875 0.0558693)
(-3.71666 -0.0349099 0.0706861)
(-3.71523 0.00798243 0.0678609)
(-3.71425 0.0299966 0.0665354)
(-3.71307 0.0158978 0.0879194)
(-3.73807 -0.0168174 0.0705941)
(-8.72345 0.0127486 0.0327723)
(-8.7057 -0.0481995 0.0582307)
(-8.8063 -0.0432986 0.0901398)
(-8.8103 0.0108813 0.066886)
(-8.80943 0.0346591 0.0727771)
(-8.82806 0.0484275 0.10613)
(-8.73312 0.00717582 0.0921979)
(-24.498 -0.0633085 0.40584)
(-24.488 -0.0359671 0.358703)
(-24.3954 -0.0160919 0.351617)
(-24.3984 -0.0144912 0.371003)
(-24.3889 -0.0169663 0.342812)
(-24.4198 0.0150237 0.340126)
(-24.4437 0.0616841 0.406012)
(24.3162 -0.104236 0.330902)
(24.3118 -0.0501882 0.29075)
(24.2149 0.0127124 0.255628)
(24.2199 0.0181389 0.262737)
(24.2743 0.0284761 0.286696)
(24.3699 0.0574722 0.344008)
(24.3096 0.088996 0.366903)
(8.64315 0.0167386 0.0805948)
(8.7372 -0.0349573 0.103362)
(8.71132 -0.0331724 0.130824)
(8.65889 0.0159561 0.120035)
(8.65947 0.0405173 0.100425)
(8.74604 0.0417958 0.0984342)
(8.65974 -0.000358604 0.0677188)
(3.73387 0.0393716 0.0989145)
(3.70784 0.000399773 0.0799918)
(3.72139 -0.0249486 0.110054)
(3.73252 0.011835 0.0998626)
(3.73019 0.0413513 0.0957225)
(3.70323 0.0223509 0.10402)
(3.73381 -0.0215879 0.0916512)
(8.47209e-05 0.00655612 0.0371358)
(-1.73746e-05 0.0261774 0.0341344)
(-3.16432e-05 0.0276789 0.0155412)
(-6.64503e-05 -0.0129766 0.0168517)
(-7.25413e-05 -0.0495789 0.0136526)
(-7.01416e-05 -0.0475841 0.0123599)
(-7.0946e-05 -0.0193568 0.020715)
(-3.73435 0.0308403 0.0882104)
(-3.70371 -0.0135269 0.0766204)
(-3.71908 -0.033728 0.0953082)
(-3.72832 0.00570045 0.0906963)
(-3.73153 0.0313819 0.0845196)
(-3.71611 0.0170038 0.0971645)
(-3.73423 -0.0189181 0.0854387)
(-8.65147 0.0113375 0.0877233)
(-8.7425 -0.0392896 0.0980834)
(-8.71922 -0.0412758 0.124777)
(-8.66579 0.00347583 0.0986011)
(-8.67752 0.0371089 0.103251)
(-8.71859 0.042716 0.103403)
(-8.65962 0.000821965 0.0637306)
(-24.2953 -0.0800276 0.360551)
(-24.36 -0.0476945 0.329236)
(-24.217 -0.00443148 0.305206)
(-24.1986 -0.0176252 0.330247)
(-24.2061 -0.0300181 0.297023)
(-24.3256 0.0296601 0.321278)
(-24.304 0.080052 0.375551)
(24.2872 -0.112625 0.236117)
(24.3831 -0.0584553 0.229821)
(24.3252 0.011485 0.203824)
(24.3321 0.02215 0.199323)
(24.3117 0.0437839 0.213551)
(24.3462 0.0686811 0.267767)
(24.2943 0.0924337 0.269553)
(8.64418 0.0185518 0.0788487)
(8.78076 -0.0222884 0.0836984)
(8.76145 -0.0264442 0.119318)
(8.74769 0.00825934 0.10774)
(8.6911 0.0319594 0.0884083)
(8.75773 0.0327607 0.0771841)
(8.65028 -0.00328477 0.0572592)
(3.73384 0.0347707 0.098235)
(3.69603 0.00228047 0.0792748)
(3.70488 -0.0202216 0.114945)
(3.70846 0.0100892 0.107637)
(3.72202 0.0425713 0.106831)
(3.69415 0.0211777 0.104748)
(3.73306 -0.0228521 0.095953)
(7.08662e-05 0.00933647 0.0409234)
(-4.35235e-05 0.0215044 0.0398684)
(-2.71448e-05 0.0204173 0.0101794)
(-8.40074e-05 -0.0144469 0.00591867)
(-9.59753e-05 -0.0488207 0.00109246)
(-9.66016e-05 -0.0433603 0.0188072)
(-9.75064e-05 -0.0181398 0.0334955)
(-3.73446 0.0277591 0.0913004)
(-3.69054 -0.0110012 0.0779593)
(-3.72065 -0.0295268 0.100641)
(-3.73439 0.00368885 0.0948154)
(-3.7243 0.0335194 0.0882287)
(-3.69316 0.0184831 0.100061)
(-3.73359 -0.0213464 0.0875583)
(-8.64737 0.010813 0.0794372)
(-8.77768 -0.0310095 0.0795339)
(-8.70173 -0.0380045 0.103874)
(-8.65118 0.000264813 0.0963172)
(-8.70329 0.0350825 0.0914214)
(-8.76747 0.0330218 0.0787144)
(-8.6502 -0.00424113 0.0549179)
(-24.2827 -0.0874314 0.260236)
(-24.3586 -0.0520957 0.255054)
(-24.3195 -0.0019538 0.23799)
(-24.1797 -0.021431 0.218669)
(-24.2829 -0.0285732 0.235303)
(-24.341 0.0416152 0.269944)
(-24.2887 0.0877691 0.276827)
(24.2904 -0.107685 0.171372)
(24.3136 -0.059682 0.208212)
(24.2966 0.0051788 0.194319)
(24.2415 0.0206455 0.189916)
(24.2874 0.0546256 0.184621)
(24.3233 0.076617 0.201149)
(24.285 0.0905505 0.194998)
(8.64742 0.018724 0.0803138)
(8.78032 -0.0168245 0.0646623)
(8.77788 -0.0233931 0.0905561)
(8.78707 0.00323785 0.0837812)
(8.78436 0.0281347 0.0768228)
(8.76881 0.0279969 0.0784146)
(8.64994 -0.0077731 0.0659303)
(3.73437 0.0316134 0.0935863)
(3.70172 0.00682636 0.0819146)
(3.69756 -0.0146646 0.113969)
(3.70545 0.00888109 0.105618)
(3.70041 0.0421583 0.103528)
(3.68933 0.0181809 0.101208)
(3.73359 -0.0244367 0.0929532)
(5.63487e-05 0.00817323 0.0468076)
(-5.68618e-05 0.0143368 0.0362505)
(-3.9941e-05 0.0127941 0.0143155)
(-9.49681e-05 -0.0161019 0.00647114)
(-0.000107586 -0.0435588 0.010569)
(-0.000113738 -0.0342859 0.0286704)
(-0.000119039 -0.0134859 0.0410932)
(-3.73465 0.0249777 0.0914033)
(-3.69641 -0.00934022 0.083027)
(-3.70208 -0.0270407 0.103441)
(-3.71554 0.00121732 0.0974091)
(-3.71751 0.0340084 0.0870644)
(-3.69292 0.017062 0.0939541)
(-3.73409 -0.0236754 0.0849922)
(-8.65076 0.0115517 0.0763102)
(-8.77892 -0.0266078 0.0655185)
(-8.77222 -0.033141 0.0925295)
(-8.72631 -0.00150976 0.0916795)
(-8.73105 0.0287046 0.0774846)
(-8.76241 0.0273373 0.0795261)
(-8.65122 -0.00861529 0.0647505)
(-24.2897 -0.0845614 0.181368)
(-24.3243 -0.0513501 0.191045)
(-24.309 -0.0106074 0.195357)
(-24.2305 -0.0200547 0.16006)
(-24.2469 -0.0124001 0.204521)
(-24.3306 0.0465762 0.215073)
(-24.2835 0.0839341 0.201833)
(24.2919 -0.0978427 0.0844204)
(24.3238 -0.0497904 0.157315)
(24.1275 0.00422743 0.129063)
(24.3317 0.0191 0.143987)
(24.3427 0.045898 0.135133)
(24.3153 0.0734608 0.121372)
(24.2878 0.090341 0.096985)
(8.65705 0.0131974 0.0961416)
(8.78869 -0.0176518 0.0808244)
(8.81701 -0.019007 0.114257)
(8.77754 0.00273151 0.10764)
(8.7835 0.0256545 0.106022)
(8.78102 0.0276192 0.120904)
(8.6583 -0.00912295 0.113783)
(3.73556 0.0297776 0.101813)
(3.69785 0.0114576 0.0888422)
(3.69983 -0.0105814 0.109986)
(3.69348 0.00585575 0.106407)
(3.69313 0.0395622 0.10327)
(3.6906 0.0164355 0.103471)
(3.73471 -0.0265662 0.099894)
(4.61608e-05 0.00417843 0.0420864)
(-4.77217e-05 0.00731753 0.0354626)
(-5.59052e-05 0.00826605 0.024251)
(-9.15689e-05 -0.0152894 0.0179845)
(-9.26275e-05 -0.0387912 0.0258181)
(-0.000123179 -0.0305919 0.0303332)
(-0.000130477 -0.011319 0.0356337)
(-3.73572 0.023824 0.0950438)
(-3.70348 -0.00622307 0.080405)
(-3.69683 -0.0242139 0.107139)
(-3.70018 -0.00278963 0.102101)
(-3.69616 0.0311201 0.0964252)
(-3.7063 0.0149434 0.100033)
(-3.73519 -0.0252091 0.0980947)
(-8.66103 0.00687772 0.091825)
(-8.8164 -0.0222576 0.0910877)
(-8.78966 -0.0269457 0.118329)
(-8.81971 -0.00526508 0.118652)
(-8.78542 0.0297688 0.0992186)
(-8.74118 0.0271378 0.122072)
(-8.65908 -0.0103227 0.105125)
(-24.292 -0.0825781 0.0952402)
(-24.1535 -0.0439855 0.134802)
(-24.3155 -0.012555 0.125666)
(-24.1305 -0.0172503 0.106719)
(-24.3718 -0.00842308 0.156526)
(-24.3204 0.0400571 0.119888)
(-24.2869 0.0833583 0.100713)
(24.3343 -0.0856866 0.124164)
(24.1033 -0.0386113 0.164742)
(24.3073 0.00230844 0.150086)
(24.3062 0.0221285 0.158864)
(24.307 0.0389209 0.156769)
(24.3229 0.0635936 0.154484)
(24.3338 0.0853123 0.131068)
(8.77009 0.0101995 0.0281293)
(8.80766 -0.010024 0.0260324)
(8.77585 -0.0114857 0.0533716)
(8.76569 -0.000552261 0.0459538)
(8.76671 0.0298571 0.0443298)
(8.77491 0.0343389 0.0581957)
(8.77052 -0.00846147 0.052931)
(3.70099 0.0272278 0.0420223)
(3.70671 0.0115251 0.0318617)
(3.69527 -0.00707711 0.0397243)
(3.69958 0.00655055 0.0417186)
(3.69393 0.0405889 0.0407681)
(3.69945 0.0165646 0.0403123)
(3.69497 -0.0279127 0.0401357)
(4.4979e-05 0.00392739 0.00527926)
(-4.10453e-05 0.00584076 0.00658827)
(-7.01441e-05 0.00659934 0.00134398)
(-8.9535e-05 -0.0152174 -0.000616509)
(-7.02554e-05 -0.0404508 0.00248575)
(-0.00013225 -0.0325967 0.000386884)
(-0.000135673 -0.0116889 0.00202291)
(-3.70126 0.0198266 0.0356639)
(-3.74091 -0.00535151 0.0214912)
(-3.70033 -0.0189068 0.0395517)
(-3.69533 -0.00326803 0.0375917)
(-3.74811 0.0339726 0.0383965)
(-3.70081 0.0179506 0.0412077)
(-3.69518 -0.0259581 0.0420582)
(-8.77182 0.00879943 0.026926)
(-8.61804 -0.0193416 0.0405202)
(-8.77037 -0.021162 0.0486065)
(-8.77636 -0.00975563 0.052335)
(-8.65849 0.0307541 0.0382088)
(-8.77504 0.0304043 0.0535313)
(-8.77148 -0.0128698 0.0424623)
(-24.3439 -0.0750682 0.133041)
(-24.2749 -0.0406186 0.165469)
(-24.3156 -0.0182483 0.151632)
(-24.3134 -0.00799978 0.145377)
(-24.0758 -0.0125041 0.173376)
(-24.3301 0.0213613 0.144952)
(-24.3394 0.0816518 0.131262)
(25.4004 -0.0511993 -3.36133)
(25.3918 -0.0114716 -3.34347)
(25.3927 -0.000728974 -3.34733)
(25.394 -0.0279189 -3.3464)
(25.395 -0.00547326 -3.34134)
(25.3958 -0.0211014 -3.33208)
(25.3988 -0.00320898 -3.3442)
(9.11124 0.0192324 -3.65451)
(9.1104 0.0190985 -3.64994)
(9.11009 0.000139688 -3.65233)
(9.11089 -0.00306413 -3.65448)
(9.10942 0.0114885 -3.65204)
(9.10833 0.00599659 -3.65103)
(9.11006 -0.00890192 -3.66084)
(3.89415 0.013582 -3.84581)
(3.89354 0.000243324 -3.85145)
(3.89339 -0.0113647 -3.84979)
(3.89285 -0.00691294 -3.84645)
(3.89289 -0.0122445 -3.84882)
(3.89253 -0.00819143 -3.84889)
(3.89185 -0.00484419 -3.84859)
(0.00139558 -0.00952811 -3.89093)
(0.001146 -0.0061834 -3.88836)
(0.000805774 0.00497735 -3.89172)
(0.000487001 -0.0014551 -3.8928)
(0.000196753 -0.00319838 -3.89228)
(2.77836e-05 0.00215404 -3.89221)
(-4.89102e-05 0.00227129 -3.88994)
(-3.89048 0.0131522 -3.83426)
(-3.89122 0.0236184 -3.83091)
(-3.89149 0.022301 -3.83379)
(-3.89185 0.0123744 -3.83701)
(-3.89197 0.00587167 -3.84328)
(-3.89231 0.00453899 -3.84965)
(-3.89254 -0.000715655 -3.85795)
(-9.1046 0.0347381 -3.68122)
(-9.10353 0.00978226 -3.69419)
(-9.10546 -0.00680382 -3.68779)
(-9.106 0.0204828 -3.68984)
(-9.10694 0.013204 -3.68731)
(-9.10688 0.000817856 -3.68275)
(-9.1077 -0.00989469 -3.68801)
(-25.3884 0.0232197 -3.34541)
(-25.3929 0.0229174 -3.37176)
(-25.3926 -0.00454679 -3.36416)
(-25.3912 0.0314328 -3.36422)
(-25.3903 0.0173196 -3.36293)
(-25.3893 0.00634204 -3.36265)
(-25.395 0.024874 -3.36152)
(25.5082 -0.026508 -9.98877)
(25.5027 0.00902293 -9.97479)
(25.5006 -0.00419729 -9.97574)
(25.5041 -0.0190614 -9.97751)
(25.506 0.0154215 -9.96639)
(25.5149 -0.0253025 -9.96927)
(25.515 -0.020198 -9.98018)
(9.18226 0.025832 -11.0166)
(9.18292 0.0226741 -11.0125)
(9.17998 -0.0049566 -11.0112)
(9.19594 -0.00198104 -11.0192)
(9.17804 0.0157162 -11.0026)
(9.17891 -0.00683079 -10.9929)
(9.1987 -0.0228718 -11.0181)
(3.87872 0.00455639 -11.3885)
(3.87785 -0.00608661 -11.3926)
(3.8788 -0.00393565 -11.3935)
(3.87401 -0.00500909 -11.3811)
(3.87901 -0.0153008 -11.3847)
(3.87755 -0.00899563 -11.3766)
(3.87334 -0.0053912 -11.3616)
(0.000623913 -0.006055 -11.4905)
(0.000481697 -0.00766543 -11.4922)
(0.000334668 -0.00176537 -11.4965)
(0.000333539 -0.0024236 -11.5012)
(0.00034123 -0.00205385 -11.4941)
(0.000445458 0.00577644 -11.4901)
(0.000571782 0.00557255 -11.4857)
(-3.87948 0.0193711 -11.362)
(-3.87866 0.0249595 -11.3593)
(-3.87725 0.0124786 -11.3582)
(-3.87669 -0.00241026 -11.3635)
(-3.87643 -0.013382 -11.3682)
(-3.87865 -0.0171895 -11.3853)
(-3.87839 -0.0129214 -11.3948)
(-9.17804 0.0158386 -11.0626)
(-9.16732 0.000319428 -11.061)
(-9.17397 -0.000577849 -11.0649)
(-9.1786 0.0211266 -11.0716)
(-9.18213 0.0224681 -11.0801)
(-9.1742 -0.00184574 -11.0671)
(-9.17516 -0.0183074 -11.0736)
(-25.4366 -0.0140312 -10.0296)
(-25.5066 -0.00245995 -10.0717)
(-25.5048 0.00721096 -10.0587)
(-25.4986 0.0350254 -10.0522)
(-25.4972 0.0220569 -10.0425)
(-25.4915 0.0104151 -10.0282)
(-25.5 0.0276332 -10.0204)
(25.4566 -0.0311695 -16.4136)
(25.4554 0.00801098 -16.4119)
(25.4385 -0.00296471 -16.4038)
(25.4541 -0.0109611 -16.4096)
(25.4532 0.0172206 -16.4105)
(25.5198 -0.0384126 -16.4775)
(25.4674 -0.0243991 -16.4149)
(9.11831 0.0267707 -17.8381)
(9.12142 0.0252516 -17.8469)
(9.10894 0.00863911 -17.8119)
(9.18265 0.00556134 -17.9354)
(9.11221 0.0218872 -17.8049)
(9.11322 0.0137686 -17.7939)
(9.18505 -0.0128183 -17.9138)
(3.91092 0.00429912 -18.5312)
(3.90929 -0.00634978 -18.5233)
(3.91409 -0.00833187 -18.5477)
(3.89146 0.00696713 -18.4461)
(3.9127 0.00975661 -18.5178)
(3.90835 0.00254792 -18.4825)
(3.89303 -0.00220372 -18.4115)
(-0.00045492 -0.0111949 -18.5408)
(-0.000442733 -0.0156729 -18.5418)
(-0.000319329 -0.00802404 -18.547)
(-0.000222693 0.00110967 -18.5596)
(0.000214481 0.0110658 -18.547)
(0.000563834 0.0140187 -18.5403)
(0.000600362 0.00756198 -18.5363)
(-3.90046 0.0162155 -18.4563)
(-3.88908 0.0196305 -18.4057)
(-3.89065 0.00464317 -18.417)
(-3.88716 -0.00877592 -18.4066)
(-3.89701 -0.0211446 -18.4537)
(-3.91104 -0.0280366 -18.5171)
(-3.91448 -0.0168965 -18.5247)
(-9.14474 0.0159065 -17.8721)
(-9.18562 -0.00146866 -17.9537)
(-9.17916 -0.00272469 -17.9433)
(-9.19899 0.0145743 -17.9849)
(-9.16542 0.0183374 -17.9403)
(-9.11027 0.00101381 -17.8571)
(-9.09167 -0.0173752 -17.8373)
(-25.4842 -0.00171977 -16.5749)
(-25.491 0.0162673 -16.5736)
(-25.4798 0.0188141 -16.5562)
(-25.4524 0.0483795 -16.5262)
(-25.4429 0.0472815 -16.5163)
(-25.4315 0.0385458 -16.4782)
(-25.4469 0.0389043 -16.4772)
(25.6089 -0.0221407 -23.0538)
(25.6148 0.011942 -23.0362)
(25.6041 -0.0103263 -23.0552)
(25.5786 -0.0103978 -23.0301)
(25.5827 -0.00181383 -23.0246)
(25.5869 -0.0364578 -23.0465)
(25.5797 -0.00115159 -23.0704)
(9.13639 0.0246484 -24.1704)
(9.12559 0.0373068 -24.1579)
(9.11235 0.00777879 -24.1051)
(9.14211 0.0124103 -24.1596)
(9.1323 0.0494892 -24.1256)
(9.14588 0.0115258 -24.1608)
(9.14582 -0.0209562 -24.1119)
(3.90767 0.00396123 -24.7962)
(3.90885 -0.00757107 -24.8083)
(3.91376 -0.000657815 -24.8168)
(3.91031 0.0227313 -24.8039)
(3.91087 0.0267285 -24.7863)
(3.90312 0.0195533 -24.752)
(3.90859 0.00456432 -24.763)
(-0.00150117 -0.0119056 -24.8234)
(-0.00163827 -0.0201427 -24.8284)
(-0.00136078 -0.0121296 -24.834)
(-0.000958367 -0.00115485 -24.8478)
(-0.000478722 0.0177964 -24.8522)
(-0.000384352 0.034094 -24.8654)
(-1.19132e-05 0.0190121 -24.8558)
(-3.89472 0.021687 -24.6733)
(-3.88681 0.0249959 -24.6448)
(-3.88595 0.000708601 -24.6444)
(-3.88857 -0.0136712 -24.6784)
(-3.88902 -0.0175004 -24.6811)
(-3.90742 -0.0110862 -24.798)
(-3.91068 -0.00462833 -24.7968)
(-9.20008 0.00133301 -24.3046)
(-9.22802 -0.0168223 -24.3718)
(-9.23112 -0.00666337 -24.3538)
(-9.22793 -0.00242301 -24.3481)
(-9.22632 -0.0111716 -24.3717)
(-9.13843 -0.0300529 -24.1744)
(-9.12492 -0.0336848 -24.1561)
(-25.5419 -0.00198581 -23.1598)
(-25.5376 0.0237276 -23.1611)
(-25.5388 0.0350747 -23.0937)
(-25.506 0.0508911 -23.0316)
(-25.5442 0.0630762 -23.0836)
(-25.5741 0.0615302 -23.0712)
(-25.5758 0.0389905 -23.1193)
(25.7832 0.00799117 -29.9935)
(25.8174 0.00688672 -29.8913)
(25.825 -0.0447936 -29.8918)
(25.7935 0.00879709 -29.8915)
(25.7212 -0.0112508 -29.8382)
(25.8285 -0.0991257 -29.9855)
(25.876 -0.0348224 -29.9378)
(9.20918 0.00341179 -30.083)
(9.21435 0.053208 -29.9437)
(9.16531 0.0491493 -29.8758)
(9.24476 0.037618 -30.0503)
(9.21359 0.0597728 -29.9421)
(9.24275 0.0525597 -29.9492)
(9.2394 0.0301507 -30.0129)
(3.8938 0.0047221 -30.2329)
(3.89202 0.010201 -30.2572)
(3.90289 0.00730555 -30.3298)
(3.89698 0.0225948 -30.2472)
(3.89325 0.0282014 -30.2585)
(3.88627 0.016931 -30.2036)
(3.88318 0.00906775 -30.183)
(-0.000292992 -0.0199625 -30.4056)
(-0.00131834 -0.0362735 -30.4157)
(-0.00119174 -0.028776 -30.4243)
(-0.000273332 -0.0266521 -30.4402)
(-0.000354639 0.00298551 -30.4441)
(0.000192466 0.0310453 -30.4852)
(0.00123433 0.0137675 -30.4741)
(-3.91365 0.00801846 -30.3891)
(-3.89083 0.006573 -30.2204)
(-3.88783 -0.0268578 -30.2291)
(-3.89539 -0.0340079 -30.2612)
(-3.8865 -0.0253243 -30.2284)
(-3.89718 -0.0105045 -30.2904)
(-3.88399 0.0066788 -30.2178)
(-9.15348 -0.0102834 -29.8567)
(-9.24367 0.00369213 -30.1278)
(-9.24476 0.0280127 -30.0839)
(-9.2333 -0.0276572 -30.0561)
(-9.26731 -0.0482759 -30.1096)
(-9.2157 -0.0403347 -30.0013)
(-9.25009 -0.0350916 -30.2329)
(-25.7914 0.0072364 -29.9944)
(-25.7298 0.113925 -30.1356)
(-25.6709 0.151145 -29.9631)
(-25.6354 0.0661788 -29.9077)
(-25.7498 0.103374 -30.0564)
(-25.7071 0.0602449 -29.9015)
(-25.7494 -0.0228851 -30.0498)
(26.5718 0.157406 -37.6017)
(26.2886 0.171145 -37.0837)
(26.407 -0.0617555 -37.1933)
(26.3071 -0.0313157 -37.2342)
(26.4718 0.0209804 -36.9818)
(26.6246 0.0157127 -37.3354)
(26.5067 0.0398417 -37.2104)
(9.37869 0.174113 -35.2827)
(9.45181 0.164783 -35.3414)
(9.46971 -0.00669445 -35.2924)
(9.42833 0.118942 -35.3032)
(9.47428 0.165992 -35.2785)
(9.44587 0.0212002 -35.2345)
(9.45158 -0.0301325 -35.2007)
(3.94013 -0.0227462 -34.8202)
(3.91764 -0.0275257 -34.7368)
(3.91661 0.0138169 -34.7722)
(3.92458 0.0137805 -34.8292)
(3.91544 0.0124494 -34.7782)
(3.91674 -0.00400702 -34.7052)
(3.91041 -0.0225056 -34.6983)
(0.00359691 -0.0186446 -34.8074)
(0.00381915 -0.0514866 -34.789)
(0.00136635 -0.037775 -34.8665)
(0.000137037 -0.0321403 -34.8555)
(0.000595929 -0.0213297 -34.8421)
(0.00140087 0.0231874 -34.8639)
(-1.03456e-05 0.0165521 -34.8863)
(-3.91782 0.0271958 -34.697)
(-3.91036 0.00204691 -34.6352)
(-3.91552 -0.0371515 -34.7379)
(-3.9308 -0.0256967 -34.889)
(-3.918 -0.024776 -34.7545)
(-3.92952 -0.0367324 -34.8518)
(-3.91629 -0.0250704 -34.6755)
(-9.41631 -0.07443 -35.1003)
(-9.45447 -0.0220014 -35.3936)
(-9.44531 0.0602416 -35.2639)
(-9.38897 -0.0166122 -35.106)
(-9.44417 -0.0792035 -35.3578)
(-9.37421 -0.180764 -35.0714)
(-9.49942 -0.128892 -35.6284)
(-26.501 -0.178097 -37.249)
(-26.7665 0.0057669 -37.8596)
(-26.4963 0.204323 -37.2673)
(-26.4079 0.0287396 -37.1946)
(-26.6517 0.200113 -37.4349)
(-26.1559 0.0298313 -37.0066)
(-26.4461 -0.169743 -37.5591)
(27.8666 0.330779 -41.1127)
(27.9093 0.35648 -40.37)
(27.8296 -0.146664 -40.6113)
(27.9676 0.0838895 -40.7708)
(27.7428 0.172996 -40.3093)
(28.0623 0.0398575 -40.707)
(28.0929 0.124772 -40.681)
(9.70909 0.196991 -39.8094)
(9.64089 0.264585 -39.2533)
(9.66055 -0.00356939 -39.3302)
(9.65921 0.155318 -39.7917)
(9.61788 0.224508 -39.1383)
(9.60255 0.070085 -39.2326)
(9.6372 0.0647717 -38.9222)
(3.93124 -0.164917 -37.8032)
(3.94579 -0.194186 -38.4166)
(3.93193 -0.023386 -38.2823)
(3.93657 -0.0451839 -38.3467)
(3.93693 0.0417414 -38.4461)
(3.93276 0.128492 -37.9908)
(3.92445 0.0200659 -37.7992)
(-0.00165742 -0.0704996 -38.1394)
(-0.00114882 -0.201577 -38.2579)
(0.00183666 -0.136804 -38.5725)
(0.00132267 0.0806238 -38.5111)
(-0.00210156 0.0469487 -38.1838)
(-0.00465515 -0.00992125 -38.3393)
(-0.00675712 0.023855 -38.4493)
(-3.93979 0.0276911 -38.0793)
(-3.94121 -0.102781 -37.8365)
(-3.93266 -0.183451 -37.9859)
(-3.94639 -0.0060615 -38.3139)
(-3.93263 0.00686245 -38.0999)
(-3.94238 0.0915575 -38.2613)
(-3.95123 0.126727 -37.9956)
(-9.55018 -0.270936 -38.6313)
(-9.66508 -0.155797 -39.5496)
(-9.61473 0.0958383 -38.9597)
(-9.58033 -0.105914 -38.9228)
(-9.61344 -0.112064 -39.3091)
(-9.69286 -0.250593 -39.2359)
(-9.6826 -0.218342 -39.6522)
(-28.1223 -0.352498 -40.599)
(-28.3176 -0.0145766 -41.3821)
(-28.1127 0.281946 -40.7123)
(-28.0475 -0.0908664 -40.5291)
(-28.2348 0.0655502 -40.6552)
(-27.5032 -0.201561 -40.0601)
(-27.681 -0.300856 -40.8227)
(25.8101 0.236875 -31.8485)
(25.9 0.166657 -32.0998)
(25.9658 -0.011676 -32.5724)
(25.9855 0.0594177 -32.212)
(26.0074 0.227186 -32.6101)
(25.9692 -0.0463968 -31.7764)
(25.8755 -0.219218 -32.9674)
(9.01847 -0.218956 -41.2301)
(8.96739 -0.428304 -41.572)
(9.08602 -0.125736 -42.4596)
(9.08031 0.160539 -41.652)
(9.05578 0.352667 -42.5698)
(9.06872 0.359235 -41.5839)
(9.04931 0.126928 -42.133)
(3.83982 -0.413364 -46.3987)
(3.87695 -0.65413 -46.557)
(3.84969 -0.303026 -46.6325)
(3.86038 0.0309978 -46.9057)
(3.85716 0.359912 -46.715)
(3.86518 0.523113 -46.6201)
(3.83299 0.305267 -46.3332)
(-0.00121702 -0.325422 -46.9247)
(0.00185424 -0.505747 -47.1744)
(0.000477588 -0.376155 -47.1764)
(-0.0071662 -0.191967 -47.4122)
(-0.00260202 0.307187 -47.6408)
(-0.00880298 0.778938 -46.9858)
(-0.00947947 0.46626 -46.6227)
(-3.82215 -0.174136 -46.0613)
(-3.8788 -0.444362 -46.8853)
(-3.87044 -0.480015 -46.8266)
(-3.85252 -0.161823 -46.7325)
(-3.8528 0.243474 -46.7415)
(-3.85792 0.565013 -46.2245)
(-3.88991 0.364095 -46.5253)
(-9.03889 -0.0279927 -41.9011)
(-8.98419 -0.285093 -40.6642)
(-9.00364 -0.514554 -41.9034)
(-9.08877 -0.143548 -42.472)
(-9.09396 0.148268 -41.8198)
(-9.08769 0.241816 -41.836)
(-8.94835 0.1461 -40.8976)
(-25.9174 0.124246 -32.5192)
(-25.9606 0.10218 -30.1753)
(-26.0054 -0.147326 -31.9662)
(-26.0206 0.0484317 -32.4978)
(-25.9773 0.19166 -32.1065)
(-25.9773 -0.139823 -31.8764)
(-25.8034 -0.203815 -31.6033)
(25.84 0.0974043 -41.3036)
(26.0288 -0.294608 -42.5676)
(26.058 -0.873061 -44.0883)
(26.1119 0.059438 -45.1249)
(26.1036 0.999332 -44.1528)
(26.0769 0.468275 -42.7904)
(25.7795 -0.0241657 -41.3103)
(9.17012 -0.699214 -45.4774)
(9.13705 -1.21213 -46.6439)
(9.13353 -0.859955 -47.472)
(9.10898 0.086207 -47.9365)
(9.06908 0.939294 -47.3114)
(9.11521 1.30046 -46.5281)
(9.14188 0.782786 -45.4518)
(3.87373 -0.885377 -46.3205)
(3.8606 -1.3562 -46.9818)
(3.85642 -0.735965 -47.5901)
(3.86535 0.00509318 -47.8852)
(3.87071 0.753425 -47.729)
(3.86615 1.41105 -47.197)
(3.88149 0.909219 -46.4502)
(-0.00242016 -0.946503 -46.1994)
(-0.00257373 -1.40255 -47.0217)
(-0.00218663 -0.696477 -47.4428)
(-0.00266905 -0.0669681 -47.5947)
(-0.00402743 0.66435 -47.4228)
(-0.00392358 1.41171 -47.0478)
(-0.00343866 0.934691 -46.2696)
(-3.87552 -0.902251 -46.3365)
(-3.89242 -1.40308 -47.3649)
(-3.87446 -0.708575 -47.6593)
(-3.85894 -0.0401275 -47.7942)
(-3.86164 0.666407 -47.5939)
(-3.8617 1.3414 -47.0406)
(-3.88193 0.883167 -46.2732)
(-9.12211 -0.772183 -45.239)
(-9.00118 -1.28569 -46.2135)
(-9.08742 -0.901126 -47.5176)
(-9.15206 -0.0906434 -47.7657)
(-9.12267 0.771939 -47.4322)
(-9.14372 1.1374 -46.3641)
(-9.19278 0.661904 -45.44)
(-25.8752 0.0218567 -41.0707)
(-26.0883 -0.451847 -42.4659)
(-26.0952 -0.929017 -43.8079)
(-26.1221 -0.0329316 -44.5592)
(-26.0931 0.826656 -43.8529)
(-26.0837 0.233437 -42.3311)
(-25.8092 -0.135193 -40.9692)
(25.9941 -1.20644 -42.2518)
(26.2096 -3.53829 -50.0189)
(26.2449 -2.93152 -54.5489)
(26.2955 0.0832203 -56.6521)
(26.2755 3.05785 -54.6013)
(26.2809 3.53305 -50.1289)
(25.9091 1.16222 -42.1943)
(9.21839 -1.69079 -44.8468)
(9.09795 -3.49398 -49.2398)
(9.08357 -1.98607 -51.5786)
(9.08213 0.109052 -52.1319)
(9.03669 2.09604 -51.5863)
(9.10422 3.47651 -49.3222)
(9.20836 1.68419 -44.9687)
(3.87125 -1.49843 -44.9379)
(3.84104 -2.70657 -47.0613)
(3.83301 -1.31662 -47.9692)
(3.856 -0.037489 -48.2128)
(3.84105 1.29316 -47.9402)
(3.83783 2.75176 -47.0199)
(3.88438 1.53985 -45.0475)
(-0.00109882 -1.47814 -44.8614)
(-0.000949573 -2.53178 -46.3786)
(-0.00196018 -1.14737 -46.9215)
(-0.00289686 -0.0416093 -47.0619)
(-0.00498689 1.09791 -46.9743)
(-0.00553414 2.54441 -46.4383)
(-0.00485596 1.49729 -44.896)
(-3.88112 -1.52003 -44.9453)
(-3.87983 -2.75052 -47.2759)
(-3.85017 -1.31136 -47.9852)
(-3.84326 -0.0387315 -48.232)
(-3.83993 1.25258 -48.0076)
(-3.84283 2.69269 -47.0381)
(-3.88019 1.49958 -44.9677)
(-9.19261 -1.6902 -44.731)
(-8.96237 -3.47622 -48.7198)
(-9.04834 -2.1271 -51.4347)
(-9.13085 -0.0480968 -52.0541)
(-9.04434 1.9745 -51.2132)
(-9.1048 3.37586 -49.0607)
(-9.23738 1.64324 -44.8091)
(-26.0167 -1.16809 -42.1471)
(-26.2891 -3.55859 -49.7987)
(-26.2729 -3.06372 -54.2424)
(-26.2926 -0.00830146 -56.3323)
(-26.2871 2.94851 -54.2128)
(-26.2763 3.42743 -49.7574)
(-25.9594 1.14715 -41.8787)
(26.2574 -4.1656 -37.3181)
(26.6414 -9.94606 -57.8155)
(26.635 -6.93149 -71.4066)
(26.5452 0.171624 -77.4215)
(26.616 7.08062 -71.3067)
(26.7137 9.87042 -57.8424)
(26.1787 4.08596 -37.187)
(9.18384 -3.38245 -39.0579)
(9.07739 -7.70471 -51.6136)
(9.03892 -4.20594 -58.7622)
(9.07281 0.11693 -60.0483)
(8.99714 4.23476 -58.6247)
(9.08343 7.59932 -51.4904)
(9.19476 3.35783 -39.2375)
(3.85564 -2.11585 -39.5982)
(3.82298 -4.79007 -45.8257)
(3.80414 -2.16362 -48.321)
(3.84427 -0.108463 -48.9051)
(3.8098 2.07732 -48.4098)
(3.82378 4.85651 -45.9453)
(3.86037 2.16787 -39.6603)
(0.000157991 -1.72714 -39.6691)
(-0.00102464 -3.88525 -44.2988)
(-0.00243245 -1.52976 -45.8016)
(-0.00411611 -0.0475652 -45.9907)
(-0.00451881 1.47584 -45.8687)
(-0.00586632 3.89394 -44.3857)
(-0.0050962 1.73912 -39.7254)
(-3.86082 -2.15887 -39.6205)
(-3.85908 -4.86008 -46.0034)
(-3.81895 -2.15494 -48.3571)
(-3.83456 -0.0645462 -48.9076)
(-3.82609 2.09118 -48.5453)
(-3.83115 4.79656 -45.9338)
(-3.86389 2.13711 -39.6498)
(-9.15628 -3.39128 -39.0706)
(-8.96633 -7.64777 -51.3748)
(-9.00647 -4.2455 -58.6417)
(-9.10263 -0.0430554 -59.9095)
(-8.9491 4.08486 -58.1603)
(-9.08509 7.5645 -51.3174)
(-9.196 3.31382 -39.0466)
(-26.2905 -4.13315 -37.2941)
(-26.7647 -9.89921 -57.7164)
(-26.626 -6.92634 -71.1088)
(-26.5201 0.0869357 -76.9585)
(-26.6413 6.9673 -70.9437)
(-26.7171 9.7951 -57.4357)
(-26.2512 4.1196 -37.0265)
(26.7062 -6.83596 -20.9539)
(27.6683 -16.2668 -70.5305)
(27.4206 -12.8647 -98.8894)
(26.6201 0.177917 -108.585)
(27.2598 12.9119 -98.3602)
(27.6889 16.0917 -70.3968)
(26.6553 6.78165 -20.9807)
(9.28129 -5.67063 -21.816)
(9.18488 -14.0025 -56.1029)
(9.026 -9.08473 -76.2892)
(9.05157 -0.0858851 -79.4866)
(8.95642 8.82977 -75.7982)
(9.19525 13.8831 -55.7652)
(9.26654 5.61314 -21.9502)
(3.87422 -2.95534 -26.4982)
(3.83566 -10.1544 -45.7436)
(3.78124 -4.80263 -53.5953)
(3.82396 -0.136308 -54.4564)
(3.79871 4.70898 -53.8712)
(3.84814 10.2116 -45.9476)
(3.87051 3.00183 -26.5336)
(-0.00106724 -1.58344 -28.8883)
(-0.00150638 -8.09132 -42.9667)
(-0.00248751 -3.07557 -47.3503)
(-0.00383334 -0.0335136 -47.4462)
(-0.00729316 3.01606 -47.3334)
(-0.00516361 8.09802 -42.94)
(-0.00421469 1.60628 -28.8682)
(-3.87158 -3.00777 -26.4879)
(-3.86173 -10.2167 -45.8357)
(-3.78877 -4.78055 -53.7102)
(-3.83428 -0.0698489 -54.6475)
(-3.82556 4.77359 -54.1046)
(-3.85386 10.1946 -46.0042)
(-3.88212 2.98811 -26.5503)
(-9.20983 -5.61034 -21.9255)
(-9.12233 -13.8919 -56.0244)
(-8.99514 -8.99144 -76.0769)
(-9.00866 -0.0521829 -79.044)
(-8.87012 8.68931 -75.2694)
(-9.18881 13.8564 -55.5477)
(-9.2523 5.57865 -21.8952)
(-26.8064 -6.8492 -21.0344)
(-27.8004 -16.2158 -70.5452)
(-27.2699 -12.6646 -98.8629)
(-26.5315 0.29988 -108.517)
(-27.2682 12.7313 -98.3801)
(-27.6915 15.8881 -70.2274)
(-26.7234 6.82542 -20.7927)
(27.8593 -8.33706 -8.44748)
(29.7504 -4.74805 -93.6818)
(28.7049 -7.2304 -120.492)
(26.7652 0.254152 -122.065)
(28.2407 7.04253 -120.55)
(29.4663 4.14754 -93.6705)
(27.8394 8.27907 -8.40933)
(9.62912 -8.16032 -9.49697)
(9.59749 -13.5026 -70.6848)
(9.02325 -11.0178 -92.6133)
(8.64396 -0.260831 -96.5537)
(8.89798 10.5934 -92.1234)
(9.5061 13.3644 -70.5632)
(9.5829 8.04603 -9.92295)
(3.9935 -3.00482 -20.5166)
(3.92587 -14.9063 -52.4279)
(3.71062 -9.09441 -65.027)
(3.68101 -0.0953243 -65.6333)
(3.74867 9.06879 -65.523)
(3.95014 14.9786 -52.7798)
(3.99518 3.05548 -20.5395)
(-0.00215903 0.482389 -25.5763)
(-0.00301337 -12.0592 -46.6999)
(-0.00349977 -5.86088 -54.4565)
(-0.00263865 0.0221865 -54.0396)
(-0.00382822 5.88397 -54.4418)
(-0.00442857 12.0916 -46.6324)
(-0.0029914 -0.444269 -25.4935)
(-4.00939 -3.10629 -20.4193)
(-3.94275 -14.9183 -52.5001)
(-3.72552 -9.13913 -65.1971)
(-3.69374 0.00139391 -65.8502)
(-3.76224 9.14115 -65.4753)
(-3.95171 14.9592 -52.7218)
(-4.00767 3.04338 -20.5987)
(-9.62432 -7.96694 -9.70473)
(-9.54103 -13.3611 -70.8092)
(-8.91093 -10.8593 -92.4352)
(-8.56335 -0.0126426 -96.088)
(-8.82965 10.5892 -92.1333)