/*--------------------------------*- C++ -*----------------------------------*\
  =========                 |
  \\      /  F ield         | OpenFOAM: The Open Source CFD Toolbox
   \\    /   O peration     | Website:  https://openfoam.org
    \\  /    A nd           | Version:  6
     \\/     M anipulation  |
\*---------------------------------------------------------------------------*/
FoamFile
{
    version     2.0;
    format      ascii;
    class       volScalarField;
    location    "2";
    object      O2;
}
// * * * * * * * * * * * * * * * * * * * * * * * * * * * * * * * * * * * * * //

dimensions      [0 0 0 0 0 0 0];

internalField   nonuniform List<scalar> 
297
(
0
0
0
0
0
0
0
0
0
0
0
0
0
0
0
0
0
0
0
0
0
0
0
0
0
0
0
0.0304968
0.0780042
0.0480927
0.0932541
0.115998
0.104433
0.0305225
0.078067
0.0481279
0
0.0135425
0
0.0158211
0.0661523
0.0303234
0
0.0135643
0
0
0.0104665
0
0.0125929
0.0157297
0.0176947
0
0.0104776
0
0.00211647
0.00626235
0.00210547
0
0.000836375
0
0.00212193
0.00628058
0.00211108
0
2.18344e-08
0
0
0
0
0
2.18792e-08
0
2.46527e-14
8.50824e-14
0
0
1.25211e-13
0
1.0935e-14
8.54524e-14
0
0
0.0104643
0
0
0.00085716
0
0
0.010478
0
0
0.0104262
0
0
0.000836128
0
0
0.0104476
0
0
0.0103615
0
0
0.00083615
0
0
0.0103162
0
5.36978e-19
2.72766e-18
0
0
1.93301e-18
0
1.71996e-19
2.7051e-18
0
7.25971e-23
5.29676e-22
3.70846e-24
6.92019e-24
3.83191e-22
5.17852e-24
2.49508e-23
5.12753e-22
1.72103e-23
3.10409e-23
5.21789e-22
3.04746e-23
6.94821e-24
2.90517e-22
5.12971e-24
2.64284e-23
5.01627e-22
2.80999e-23
4.25734e-30
5.85737e-34
1.13327e-37
0
3.45269e-31
6.58896e-36
0
0
3.17668e-37
8.06539e-29
1.45233e-32
1.03854e-36
7.30792e-29
1.02889e-31
2.84376e-36
2.0041e-28
1.936e-32
1.04002e-36
1.99851e-27
8.46054e-32
1.89575e-36
1.5285e-28
1.07241e-32
9.63346e-37
1.8476e-27
7.85307e-32
1.77255e-36
8.38394e-34
7.99826e-29
6.87052e-24
1.51569e-34
8.71342e-30
0
5.46676e-34
2.58836e-29
2.21094e-24
1.97152e-36
5.48231e-32
1.69281e-27
1.80707e-35
5.59712e-31
6.83321e-29
1.88624e-36
3.84611e-32
6.25438e-28
2.25465e-36
9.02199e-32
2.08888e-27
3.3516e-36
2.30647e-32
2.03377e-28
2.92357e-36
1.21025e-31
1.77719e-27
3.43449e-47
1.27153e-42
2.52685e-38
5.50374e-47
4.52031e-43
4.37604e-39
5.99361e-47
8.42686e-43
1.65975e-38
2.26241e-49
3.43732e-45
7.1597e-41
1.08157e-48
6.5768e-45
2.77398e-40
7.69385e-49
3.67461e-45
8.2354e-41
3.04526e-49
1.05924e-45
3.99051e-41
8.62533e-49
1.6221e-45
7.05299e-41
1.00732e-48
1.16306e-45
5.63275e-41
4.54847e-49
2.76789e-48
1.50375e-46
8.19028e-49
9.86266e-47
1.0096e-45
9.79655e-49
9.08431e-48
3.32835e-46
8.46322e-53
8.31147e-52
5.48753e-51
9.85838e-48
9.7554e-47
6.41062e-46
7.25377e-53
1.07915e-51
4.9819e-51
2.65699e-53
2.59774e-52
1.53571e-51
4.735e-48
4.55066e-47
2.75389e-46
2.6563e-53
2.59746e-52
1.53591e-51
1.04566e-41
1.29942e-45
6.93029e-49
1.60893e-40
6.34203e-45
1.53468e-48
2.86848e-41
1.36655e-45
1.10498e-48
4.58833e-41
2.57955e-45
6.90677e-49
6.13795e-41
1.92294e-45
8.82575e-49
4.6481e-41
2.3526e-45
9.49256e-49
3.82609e-41
9.90651e-46
6.01884e-49
2.14811e-41
5.34249e-46
7.97522e-49
3.42713e-41
7.00525e-46
8.87707e-49
1.85059e-46
3.30138e-48
5.49795e-49
4.06913e-46
4.46978e-47
7.71966e-49
1.99733e-46
8.13203e-48
8.7362e-49
1.76198e-51
3.7986e-52
2.3907e-53
2.58713e-46
4.412e-47
3.7627e-48
2.10386e-51
3.29685e-52
2.81154e-53
6.20213e-52
1.16855e-52
1.00328e-53
1.11249e-46
2.05711e-47
1.78962e-48
6.20304e-52
1.16965e-52
9.93043e-54
)
;

boundaryField
{
    fuel
    {
        type            fixedValue;
        value           uniform 0;
    }
    primary_air
    {
        type            fixedValue;
        value           uniform 0.23;
    }
    Secondary_air_RHS
    {
        type            fixedValue;
        value           uniform 0.23;
    }
    Secondary_air_LHS
    {
        type            fixedValue;
        value           uniform 0.23;
    }
    outlet
    {
        type            inletOutlet;
        inletValue      uniform 0;
        value           nonuniform List<scalar> 
18
(
0
1.11249e-46
0
0
2.05711e-47
0
0
1.78962e-48
0
0
4.735e-48
0
0
4.55066e-47
0
0
2.75389e-46
0
)
;
    }
    stove_body
    {
        type            fixedValue;
        value           uniform 0;
    }
    frontAndBack
    {
        type            empty;
    }
}


// ************************************************************************* //
