/*--------------------------------*- C++ -*----------------------------------*\
  =========                 |
  \\      /  F ield         | OpenFOAM: The Open Source CFD Toolbox
   \\    /   O peration     | Website:  https://openfoam.org
    \\  /    A nd           | Version:  6
     \\/     M anipulation  |
\*---------------------------------------------------------------------------*/
FoamFile
{
    version     2.0;
    format      ascii;
    class       surfaceScalarField;
    location    "2";
    object      phi;
}
// * * * * * * * * * * * * * * * * * * * * * * * * * * * * * * * * * * * * * //

dimensions      [1 0 -1 0 0 0 0];

internalField   nonuniform List<scalar> 
675
(
-1.24074e-06
-3.84854e-05
0.000163516
1.17393e-06
-3.86419e-05
0.000160018
-3.84641e-05
0.000163429
6.96666e-06
3.84854e-05
0.000122015
-6.93213e-06
3.8642e-05
0.000142568
3.84641e-05
0.000122094
-1.24076e-06
0.000163516
1.17393e-06
0.000160018
0.000163429
-3.22775e-06
-6.65389e-05
0.000233347
3.19261e-06
-5.4182e-05
0.000207848
-6.64279e-05
0.000233115
-4.97013e-07
6.65389e-05
-1.05735e-05
8.83323e-07
5.4182e-05
3.28553e-05
6.64279e-05
-9.88334e-06
-3.22777e-06
0.000233347
3.19261e-06
0.000207848
0.000233115
-1.78265e-05
0.000127516
1.74306e-05
4.89412e-05
0.00012689
3.72278e-05
-0.000127516
-3.66838e-05
-4.89412e-05
-0.00012689
-1.78265e-05
1.74306e-05
0.0126242
0.0114059
-0.0208315
-0.00217759
0.0123987
0.00560027
0.0130804
-0.0120494
0.0087015
-0.0113957
0.0193518
-0.00324857
-0.0123808
0.0419437
-0.013067
0.0281428
0.0126253
-0.0208069
-0.00217937
0.00561597
-0.0120389
0.0377182
0.027965
-0.0864607
-0.0359227
-0.0128253
0.0920948
0.0277545
-0.075664
0.0162671
-0.0279548
0.0589255
-0.0194023
0.012851
0.0518808
-0.0277352
0.0641531
0.0376978
-0.0864106
-0.0359302
0.0920816
-0.0756507
0.00701524
0.0641015
-0.157514
-0.00671811
0.00195799
0.103421
0.0668738
-0.149228
-0.116762
-0.0640396
0.303996
0.114694
-0.00204341
-0.175218
-0.0668227
0.312711
0.00682364
-0.157475
-0.00654742
0.102835
-0.149212
-0.0646373
-0.0719244
-0.0509446
0.187717
0.0619409
0.0143674
-0.0550697
-0.0858871
-0.0736683
-0.0447165
0.180552
0.00958381
0.0719388
0.0931045
-0.246566
0.00468684
-0.0143156
-0.173089
0.205857
0.0736806
0.114592
-0.257197
-0.0645727
-0.0508877
0.187582
0.0619137
-0.0550049
-0.0855616
-0.044693
0.180445
0.00577034
-0.0267526
-0.030008
-0.0205149
0.0108811
-0.0396209
-0.0396218
-0.0256824
0.0590659
0.0267925
-0.0195952
-0.0444914
-0.0108863
-0.0475222
0.0395886
-0.00918745
0.0057658
-0.0299481
-0.0204666
-0.0395416
-0.0256588
-0.00925593
0.00360372
-0.0243833
-0.0225046
-0.000490383
-0.025868
-0.0232235
-0.0249899
0.0282635
-0.00354654
-0.0406947
0.0202106
0.000538602
-0.0403543
0.0231509
-0.0353234
-0.00921051
-0.0243662
-0.0223673
-0.0258402
-0.0249521
-0.00224915
-0.00156523
-0.167557
0.00225134
0.000395676
0.0985282
-0.00142993
-0.159599
-0.00685802
0.0015657
0.284933
0.00736536
-0.000393339
-0.188722
0.00142993
0.294356
-0.0022512
-0.167501
0.00225378
0.0979784
-0.159567
-0.00215713
-0.000596848
-0.178366
0.00209814
-0.000580701
0.0948388
-0.000475874
-0.170772
-0.00307631
0.000597274
0.264798
0.00347927
0.000574213
-0.196475
0.000475926
0.274824
-0.00216895
-0.178278
0.00211204
0.0943584
-0.170709
-0.0050805
0.000413343
0.00491461
-0.00111637
0.000532118
-0.00352939
-0.000413509
0.00390299
0.0011118
-0.000532628
-0.00509824
0.00493203
0.00911937
-0.00203246
-0.0107066
-0.020768
-0.00871312
-0.00145284
-0.0065956
-0.00235491
-0.0104247
-0.0209253
0.00880883
0.00203652
-0.0268097
-0.0267583
-0.0116677
0.00145805
-0.0227861
0.0023539
-0.0250299
-0.0266668
0.00909044
-0.0107309
-0.0206876
-0.00866422
-0.0066268
-0.0104294
-0.0208327
0.00507591
0.000202517
-0.001616
-0.0143736
-0.00615272
0.00170436
0.0029116
-9.03754e-05
-0.00195112
-0.0145394
0.00522014
-0.000182867
-0.0122638
-0.0193762
-0.00523337
-0.00169798
-0.00893425
9.50086e-05
-0.0109579
-0.0194884
0.0050675
-0.00164161
-0.0143341
-0.00611967
0.00286324
-0.00196158
-0.0144887
-0.000192478
0.00166374
-0.00309228
0.000198388
0.00250172
0.00149431
-0.00325093
0.00144608
-0.00164929
-0.0103926
-0.00249611
-0.00249749
-0.00148427
-0.0104729
-0.000173243
-0.00311035
0.000193697
-0.00324682
-0.0190169
-0.000587557
-0.00131704
-0.0196403
0.00222747
-0.00160002
0.00270042
-0.00683067
-0.0155079
-0.0257415
0.000588407
-0.00209941
-0.0226591
-0.00221898
0.00136462
-0.00268972
0.00312804
-0.0203993
-0.0189257
-0.0013151
-0.019546
-0.00159581
-0.00681371
-0.0154217
-0.0144804
-0.000667037
-0.000706152
-0.0146293
0.00149513
-0.00294321
0.000226477
-0.00762949
-0.0140543
-0.0215949
0.000668008
-0.00132558
-0.0178907
-0.00148943
0.000647023
-0.000221831
0.00395322
-0.0182689
-0.0144303
-0.000701805
-0.0145817
-0.00293094
-0.00761338
-0.0140034
-0.00406764
0.000113601
-0.00665316
-0.000353798
-0.00207265
-0.0122072
-0.0115718
-0.00011058
-0.0116292
0.000351814
0.00207178
-0.0118223
-0.00405539
-0.00663151
-0.0121725
0.0194675
0.00268179
-0.00677795
-0.0153688
0.018862
0.002225
-0.00161599
-0.000558112
-0.001345
0.0224907
-0.00267167
0.00307399
-0.0202131
0.0255704
-0.0022163
0.00136323
0.0005602
-0.002303
0.0193852
-0.00676756
-0.0152892
0.0187798
-0.00160788
-0.00134355
0.014515
0.000224894
-0.00756443
-0.0139509
0.0143672
0.00150257
-0.00296725
-0.000617148
-0.000731561
0.0177576
-0.000216458
0.00388721
-0.0181312
0.0214857
-0.00149535
0.000634844
0.000625666
-0.00143315
0.0144751
-0.00755509
-0.0139039
0.0143273
-0.00295228
-0.000720419
0.00661461
-0.00205524
-0.0121213
0.00396486
-0.00031402
0.000143591
0.0115341
0.00205666
-0.0117601
0.0115408
0.000315933
-0.000138113
0.00659781
-0.012096
0.00396458
0.0067205
0.00222497
-0.00894646
0.0103783
0.00197509
-0.00563327
0.00229642
-0.00728638
0.00945976
-0.00221041
-0.0050309
0.0152864
-0.0019623
-0.00189497
-0.00228344
-0.000350794
0.00666488
-0.00887966
0.0103073
-0.00560827
-0.00726748
0.00500891
0.00192775
-0.015884
0.00930724
0.00179274
-0.0117247
0.00124838
-0.0131779
0.0071043
-0.00191633
-0.00829701
0.0134198
-0.00178392
-0.00463888
-0.00123709
-0.00258024
0.00497626
-0.0157762
0.0092682
-0.0116875
-0.0131421
0.00604972
0.00413002
-0.0260644
0.00659222
0.00206218
-0.0143296
0.000874999
-0.0195813
0.00776154
-0.00411008
-0.00782306
0.0124168
-0.0020616
-0.00517436
-0.000872562
-0.000178647
0.00600615
-0.0258958
0.00656863
-0.014314
-0.0195436
-0.00731861
0.0131411
-0.0318877
-0.00123378
0.0110646
-0.0314797
0.0107954
-0.0316094
0.00176831
-0.0131423
0.0166974
-0.00238025
-0.0111038
0.0211484
-0.0108192
0.0190606
-0.00723389
-0.0317988
-0.00119681
-0.0314493
-0.0315537
0.0001662
0.00558952
-0.0376449
0.000712285
0.00567539
-0.0377026
0.00629943
-0.037198
-0.00298213
-0.00563017
0.0308991
-0.0019444
-0.0057161
0.0315025
-0.00633465
0.0297503
0.000189015
-0.0376198
0.00070836
-0.0376866
-0.0371818
-0.000102683
0.0176674
-0.000266479
0.0176485
0.017644
-0.000443109
-0.0176789
0.000208674
-0.0176598
-0.0176552
-9.75711e-05
-0.000264181
-0.0104662
0.00230793
-0.00734991
-0.00678148
0.00198293
-0.00566977
0.00224448
-0.00902713
-0.015434
-0.00229464
-0.000366123
-0.00955846
-0.00197017
-0.0019268
-0.00222976
-0.00509085
-0.0103948
-0.00732317
-0.00672296
-0.00564504
-0.00895651
-0.00937389
0.00125515
-0.0132849
-0.00505128
0.00180677
-0.0117996
0.00194465
-0.0160241
-0.0135449
-0.00124871
-0.0025896
-0.00717402
-0.00179908
-0.00469674
-0.0019332
-0.00839291
-0.00933637
-0.0132402
-0.00501705
-0.0117661
-0.0159101
-0.00663642
0.000872898
-0.0197281
-0.00609797
0.00208023
-0.0144187
0.0041601
-0.0262831
-0.0125429
-0.000872878
-0.000126035
-0.00783835
-0.00207966
-0.00524552
-0.0041385
-0.00793735
-0.00661354
-0.0196732
-0.00605334
-0.0144081
-0.0261048
0.00124032
0.0108173
-0.031786
0.00737429
0.0110988
-0.0316522
0.0132058
-0.0321156
0.00241388
-0.0108395
0.0191233
-0.0017736
-0.0111368
0.0211837
-0.0132035
0.016704
0.00121156
-0.0317187
0.00729413
-0.0316224
-0.0320092
-0.00070503
0.00628106
-0.0373623
-0.000142652
0.00565224
-0.0378672
0.00556223
-0.0378208
0.00202353
-0.00632218
0.029701
0.00309383
-0.00569992
0.031464
-0.00561139
0.0309695
-0.000699612
-0.0373427
-0.000174886
-0.0378484
-0.0377969
0.000267983
0.017594
0.000105246
0.0175989
0.0176109
-0.000242038
-0.017606
0.000365857
-0.0176111
-0.0176233
0.000267227
0.000102732
)
;

boundaryField
{
    fuel
    {
        type            calculated;
        value           nonuniform List<scalar> 
36
(
0.000123725
0.00020593
0.000123725
0.000123725
0.00020593
0.000123725
0.000123725
0.00020593
0.000123725
-0.000123725
-0.000205929
-0.000123725
-0.000123725
-0.000205929
-0.000123725
-0.000123725
-0.000205929
-0.000123725
0
0
0
0
0
0
0
0
0
0
0
0
0
0
0
0
0
0
)
;
    }
    primary_air
    {
        type            calculated;
        value           nonuniform List<scalar> 9(-0.00318288 -0.00528293 -0.00318295 -0.00318328 -0.00528483 -0.00318338 -0.00318309 -0.00528493 -0.00318313);
    }
    Secondary_air_RHS
    {
        type            calculated;
        value           nonuniform List<scalar> 9(0.0140492 0.0228566 0.0140494 0.0137425 0.0220518 0.0137425 0.0141623 0.0225852 0.0141624);
    }
    Secondary_air_LHS
    {
        type            calculated;
        value           nonuniform List<scalar> 9(0.013855 0.0227925 0.0138538 0.0135625 0.0220156 0.0135613 0.0140199 0.0225845 0.0140192);
    }
    outlet
    {
        type            calculated;
        value           nonuniform List<scalar> 
18
(
-0.0552248
0.0651445
-0.0552167
-0.0553038
0.066067
-0.0552956
-0.055327
0.0665708
-0.0553181
-0.0552093
0.0666882
-0.0552011
-0.0551871
0.0661584
-0.0551797
-0.0551083
0.0652581
-0.0551011
)
;
    }
    stove_body
    {
        type            calculated;
        value           uniform 0;
    }
    frontAndBack
    {
        type            empty;
        value           nonuniform 0();
    }
}


// ************************************************************************* //
