/*--------------------------------*- C++ -*----------------------------------*\
  =========                 |
  \\      /  F ield         | OpenFOAM: The Open Source CFD Toolbox
   \\    /   O peration     | Website:  https://openfoam.org
    \\  /    A nd           | Version:  6
     \\/     M anipulation  |
\*---------------------------------------------------------------------------*/
FoamFile
{
    version     2.0;
    format      ascii;
    class       volScalarField;
    location    "2";
    object      Qdot;
}
// * * * * * * * * * * * * * * * * * * * * * * * * * * * * * * * * * * * * * //

dimensions      [1 -1 -3 0 0 0 0];

internalField   nonuniform List<scalar> 
297
(
-7.9101e-05
0
0
0
0
0
0
0
0
-7.9101e-05
-0.000131263
0
0
0
0
0
0
-7.9101e-05
0
0
0
0
-6.52028e-06
0
-7.9101e-05
0
-0.000131263
1.49527e-09
1.46728e-09
0
0
-1.11956e-10
0
0
0
0
1.52326e-09
-6.99726e-12
0
0
0
3.04652e-09
1.52326e-09
-6.99726e-12
0
1.52326e-09
1.52326e-09
0
0
-1.39945e-11
0
0
0
0
1.52326e-09
0
0
0
0
0
0
-3.49863e-12
0
0
-1.33462e-17
0
0
0
0
0
-1.33462e-17
1.52326e-09
1.52326e-09
0
0
0
-1.01824e-22
0
0
0
1.52326e-09
0
0
7.61629e-10
0
1.52326e-09
0
7.61629e-10
1.52326e-09
0
0
0
7.61629e-10
0
1.52326e-09
0
0
1.52326e-09
0
7.61629e-10
0
0
0
0
0
0
0
0
0
0
1.52326e-09
0
3.04652e-09
0
-9.71065e-29
-1.5537e-27
0
1.52326e-09
0
0
0
0
0
0
0
0
0
0
-2.37076e-32
0
0
0
0
0
-2.37076e-32
0
1.52326e-09
0
0
0
3.04652e-09
0
0
1.52326e-09
0
0
0
-9.04375e-38
0
0
0
0
0
0
0
0
-1.80875e-37
0
-1.34762e-45
0
-4.41589e-41
0
0
0
1.52326e-09
0
3.04652e-09
0
1.52326e-09
0
0
0
0
1.52326e-09
0
3.04652e-09
0
0
-2.20795e-41
0
-1.34762e-45
1.52326e-09
0
0
0
0
0
0
0
-1.96105e-56
0
0
3.04652e-09
0
0
-3.9221e-56
0
0
0
0
1.52326e-09
-1.22566e-57
0
0
0
1.52326e-09
0
0
-6.27536e-55
-2.05631e-50
0
0
0
0
1.52326e-09
0
-3.06414e-58
0
-7.8442e-56
1.52326e-09
0
1.52326e-09
-6.12828e-58
-4.90262e-57
0
0
0
0
1.52326e-09
0
0
-3.74041e-62
-5.98465e-61
-2.39386e-60
-1.8702e-62
0
0
1.52326e-09
-3.9221e-56
1.52326e-09
-1.8702e-62
1.52326e-09
0
0
-1.25507e-54
0
0
-1.00406e-53
0
-2.05631e-50
0
0
0
0
0
0
0
0
1.52326e-09
1.52326e-09
1.52326e-09
0
0
1.52326e-09
0
0
-1.22566e-57
0
0
1.52326e-09
1.52326e-09
0
0
0
1.52326e-09
1.52326e-09
0
-4.90262e-57
0
0
-2.99232e-61
0
1.52326e-09
1.52326e-09
0
-1.19693e-60
0
0
0
0
-4.67551e-63
-7.8442e-56
-1.96105e-56
1.52326e-09
-2.99232e-61
0
-4.67551e-63
)
;

boundaryField
{
    fuel
    {
        type            calculated;
        value           uniform 0;
    }
    primary_air
    {
        type            calculated;
        value           uniform 0;
    }
    Secondary_air_RHS
    {
        type            calculated;
        value           uniform 0;
    }
    Secondary_air_LHS
    {
        type            calculated;
        value           uniform 0;
    }
    outlet
    {
        type            calculated;
        value           uniform 0;
    }
    stove_body
    {
        type            calculated;
        value           uniform 0;
    }
    frontAndBack
    {
        type            empty;
    }
}


// ************************************************************************* //
