/*--------------------------------*- C++ -*----------------------------------*\
  =========                 |
  \\      /  F ield         | OpenFOAM: The Open Source CFD Toolbox
   \\    /   O peration     | Website:  https://openfoam.org
    \\  /    A nd           | Version:  6
     \\/     M anipulation  |
\*---------------------------------------------------------------------------*/
FoamFile
{
    version     2.0;
    format      ascii;
    class       volVectorField;
    location    "5";
    object      U;
}
// * * * * * * * * * * * * * * * * * * * * * * * * * * * * * * * * * * * * * //

dimensions      [0 1 -1 0 0 0 0];

internalField   nonuniform List<vector> 
297
(
(12.4029 0.0176893 0.274287)
(12.4035 -0.000177633 0.249319)
(12.4029 -0.0178812 0.274013)
(1.45985e-08 -0.0238954 0.252076)
(1.21519e-08 7.08473e-05 0.249274)
(9.81865e-09 0.0239364 0.252051)
(-12.4029 0.0176994 0.274273)
(-12.4035 -0.00016493 0.249317)
(-12.4029 -0.0178729 0.274011)
(12.4024 0.0127706 0.297057)
(12.4035 -0.000250038 0.259701)
(12.4025 -0.0131692 0.297169)
(1.4901e-08 -0.0709379 0.0600738)
(1.22142e-08 0.000379281 0.228166)
(9.81388e-09 0.0712855 0.0634979)
(-12.4024 0.0127969 0.297058)
(-12.4035 -0.000223334 0.259698)
(-12.4025 -0.0131558 0.297159)
(11.3328 0.0262337 0.445604)
(12.3887 -0.00435765 0.398227)
(11.4255 -0.0278596 0.447188)
(1.08995e-08 0.0966425 0.2073)
(1.22096e-08 -0.00253794 0.0908041)
(7.26192e-09 -0.0898418 0.204205)
(-11.3432 0.0263163 0.445774)
(-12.3887 -0.00409159 0.398218)
(-11.4225 -0.0278228 0.447112)
(54.9154 -7.04314 12.5645)
(29.5788 0.446669 16.8802)
(55.3342 7.22676 10.5232)
(3.34564e-05 -0.794449 16.7725)
(7.1377e-07 0.234794 10.3071)
(-4.3883e-05 0.401699 16.0133)
(-54.9896 -7.09609 12.4697)
(-29.599 0.543176 16.868)
(-55.4218 7.15176 10.5768)
(89.0672 -34.8286 51.7794)
(75.0774 2.01316 126.936)
(94.2933 36.309 59.2577)
(0.000369771 8.07383 210.165)
(3.63983e-05 -1.08062 130.635)
(-0.00013929 -6.91611 213.001)
(-89.0645 -34.942 51.6744)
(-75.2474 1.9147 127.088)
(-94.7877 36.2061 59.8138)
(87.1686 -88.0158 -50.8051)
(68.3288 -1.2404 166.958)
(92.2369 99.0466 -42.1136)
(0.000435465 -59.9233 269.901)
(-2.52105e-05 1.31868 -23.3951)
(-0.000333239 60.8652 279.767)
(-87.1641 -88.1742 -50.5319)
(-68.4659 -0.889489 167.182)
(-92.7212 99.2127 -42.3639)
(54.7632 -55.3948 -212.988)
(38.0892 -3.58219 -28.6594)
(57.7028 63.6415 -217.604)
(-0.000826127 -106.413 -23.8096)
(-2.03958e-05 0.762556 -120.647)
(0.00124124 114.759 -24.3957)
(-54.7811 -55.3939 -213.053)
(-38.1398 -3.73612 -28.6952)
(-57.7357 63.6209 -217.819)
(25.2481 46.066 -132.243)
(15.3501 -8.64764 -89.6913)
(30.5849 -38.06 -140.45)
(-0.000331853 -0.842963 -115.308)
(-0.000108078 6.50833 -100.456)
(-3.65938e-05 7.56612 -121.963)
(-25.2257 46.0709 -132.265)
(-15.3526 -8.6769 -89.679)
(-30.582 -38.0513 -140.316)
(8.46102 23.2172 -21.1356)
(8.46169 -8.66145 -16.7769)
(8.46432 -21.992 -21.5554)
(-0.000110602 20.6106 -19.5729)
(-5.32321e-05 7.88955 -22.1043)
(-2.62166e-06 -16.5553 -18.1815)
(-8.46309 23.1995 -21.1268)
(-8.46198 -8.66445 -16.7667)
(-8.46519 -21.9921 -21.5492)
(77.0191 -85.6242 -516.291)
(65.2392 -5.34889 211.592)
(80.4105 100.918 -520.149)
(-0.00493996 -80.6387 401.823)
(-9.20924e-05 5.47223 -151.089)
(-0.00113824 85.5946 423.297)
(-76.899 -85.839 -516.264)
(-65.3692 -5.32177 211.817)
(-80.9352 101.033 -521.991)
(69.0039 -64.0052 -412.089)
(59.2028 -5.45867 206.657)
(66.7444 75.3828 -414.559)
(-0.00527443 -76.415 454.53)
(-9.71181e-05 4.87521 -152.754)
(-0.00116453 80.1704 482.711)
(-69.0436 -64.0868 -412.316)
(-59.3147 -5.45963 206.875)
(-67.0165 75.4013 -415.595)
(61.7316 -68.3029 -358.228)
(59.5053 -4.86258 189.221)
(64.323 78.9851 -360.715)
(-0.0048142 -107.539 500.318)
(-0.000106498 3.74536 -143.582)
(-0.00107792 117.858 530.044)
(-61.7632 -68.4481 -358.429)
(-59.6166 -4.89141 189.409)
(-64.5941 78.9721 -361.484)
(8.42819 36.7272 -10.3972)
(8.4532 1.76056 -10.4245)
(8.42922 -36.526 -10.6039)
(-6.73283e-05 28.5093 -11.3264)
(-2.05255e-07 -3.17472 -11.2612)
(7.20314e-05 -28.883 -10.3644)
(-8.43009 36.7341 -10.393)
(-8.4531 1.77643 -10.4245)
(-8.43024 -36.5095 -10.6071)
(8.46106 20.4 -3.97381)
(8.47225 -2.25161 -2.01264)
(8.4626 -19.2201 -4.01702)
(-5.48286e-05 19.0758 -4.69626)
(1.47286e-05 0.406561 -5.55803)
(8.21014e-05 -19.6504 -4.53565)
(-8.46179 20.4161 -3.97353)
(-8.4725 -2.23628 -2.01054)
(-8.46271 -19.2315 -4.02424)
(8.47273 -0.80353 -4.90676)
(8.47379 0.514606 0.473505)
(8.47331 0.944963 -5.14582)
(-4.65856e-05 9.08395 -2.91249)
(2.36935e-05 -1.88937 -2.20008)
(8.41747e-05 -9.51243 -2.26979)
(-8.47335 -0.801959 -4.90278)
(-8.47408 0.518164 0.473884)
(-8.47298 0.951336 -5.14118)
(8.42474 -39.4251 -4.51932)
(8.44863 -35.8133 -6.62367)
(8.43904 -30.9137 -9.02736)
(0.000118798 -31.4625 -3.75704)
(0.000123576 -29.4134 -3.7142)
(9.72549e-05 -24.9772 -4.05326)
(-8.42554 -39.3993 -4.52087)
(-8.44944 -35.7956 -6.62499)
(-8.43996 -30.9373 -9.0113)
(8.4507 -29.6038 -2.15044)
(8.46379 -30.8468 -7.40925)
(8.43632 -27.1071 -14.0099)
(0.000111045 -26.1866 -0.0308896)
(0.000120818 -26.1877 0.947387)
(0.000103453 -21.9549 1.79861)
(-8.45086 -29.5867 -2.15833)
(-8.46397 -30.8266 -7.40372)
(-8.43675 -27.1114 -13.971)
(8.47765 -6.43506 -4.53297)
(8.4771 -17.4482 -12.9536)
(8.44472 -23.5758 -20.3903)
(0.000102851 -15.2477 2.56408)
(0.000114235 -16.0069 3.47717)
(0.00011536 -16.7269 3.29563)
(-8.47739 -6.43433 -4.52838)
(-8.47688 -17.4714 -12.9659)
(-8.44458 -23.5696 -20.3515)
(8.43831 30.9214 -9.05573)
(8.447 35.1141 -6.671)
(8.42346 39.1874 -4.53719)
(-1.67023e-05 24.8385 -4.09477)
(-2.87625e-05 28.908 -3.75714)
(-4.52041e-05 31.4654 -3.91798)
(-8.43998 30.9105 -9.05337)
(-8.44901 35.0985 -6.66906)
(-8.42533 39.1869 -4.53579)
(8.43697 27.1501 -13.8769)
(8.46273 30.7549 -7.63898)
(8.44973 29.6346 -2.4338)
(-1.26782e-05 21.7843 1.91579)
(-2.60592e-05 25.9361 1.19159)
(-4.12257e-05 26.0995 0.104217)
(-8.43753 27.1496 -13.8777)
(-8.46323 30.7548 -7.64505)
(-8.45023 29.6402 -2.43892)
(8.44208 23.3619 -19.7098)
(8.47448 17.075 -12.7121)
(8.47664 5.8921 -4.39184)
(-5.2698e-06 16.3069 3.56939)
(-2.2798e-05 15.8618 3.41302)
(-3.68714e-05 15.1906 2.29545)
(-8.44247 23.3595 -19.7012)
(-8.47482 17.0648 -12.7087)
(-8.47705 5.88743 -4.38442)
(8.42301 9.71063 -15.4897)
(8.42266 14.0031 -11.371)
(8.43011 22.1029 -12.7663)
(-3.09503e-06 7.52316 -7.71676)
(-5.67261e-06 12.1946 -4.29584)
(-1.08641e-05 18.5562 -4.99805)
(-8.42547 9.69875 -15.4796)
(-8.42492 13.9953 -11.3612)
(-8.43165 22.1034 -12.7593)
(8.42687 5.10598 -23.1762)
(8.43129 12.4757 -18.1053)
(8.43073 22.6032 -21.5352)
(-1.96504e-06 5.68313 -5.25907)
(-3.00138e-06 9.69679 -1.57701)
(-6.87712e-06 17.5163 -1.45041)
(-8.42856 5.10187 -23.1606)
(-8.43233 12.484 -18.0988)
(-8.43141 22.6086 -21.5267)
(8.45443 4.3807 -28.1857)
(8.43882 13.9181 -26.227)
(8.43965 15.2322 -30.3569)
(-1.19924e-06 5.11439 -8.42585)
(-2.95878e-06 10.5389 -5.30878)
(-4.17302e-06 14.189 0.723299)
(-8.45631 4.38913 -28.1779)
(-8.43959 13.9361 -26.2305)
(-8.44017 15.2388 -30.3448)
(8.44797 -2.4818 -44.567)
(8.44423 -3.14523 -44.4024)
(8.44716 -9.778 -48.0038)
(1.4099e-05 -1.79917 16.2849)
(1.34287e-05 2.83283 21.1376)
(1.41309e-05 -9.26812 20.6008)
(-8.44937 -2.46087 -44.5583)
(-8.4443 -3.14947 -44.3881)
(-8.44727 -9.77315 -47.9912)
(8.34625 0.658372 -111.433)
(8.34193 -0.596422 -113.723)
(8.34448 4.32749 -110.95)
(1.6265e-06 -0.865887 61.0615)
(2.33614e-07 0.894219 62.7551)
(-1.72138e-07 -1.82667 60.3254)
(-8.34598 0.650389 -111.43)
(-8.34184 -0.594929 -113.714)
(-8.3439 4.32686 -110.941)
(8.00079 0.00288449 -149.44)
(8.00113 -0.0487497 -149.418)
(8.00201 -0.0636874 -149.219)
(2.83082e-06 -0.344866 180.491)
(2.88604e-06 0.331598 180.092)
(2.78095e-06 -0.589078 178.631)
(-8.00078 0.00277902 -149.438)
(-8.00113 -0.0488505 -149.416)
(-8.00201 -0.0636435 -149.217)
(8.43107 -21.8817 -13.0484)
(8.4242 -14.2747 -11.5698)
(8.42273 -9.94765 -15.916)
(7.00844e-05 -18.1698 -5.03197)
(5.26435e-05 -12.2561 -4.31141)
(3.76215e-05 -8.16553 -7.74598)
(-8.43235 -21.8929 -13.0222)
(-8.42594 -14.2959 -11.568)
(-8.42502 -9.98206 -15.9154)
(8.42872 -22.1499 -21.7721)
(8.4314 -12.128 -17.7683)
(8.4264 -4.4561 -23.0573)
(6.47321e-05 -16.9376 -1.42971)
(4.43909e-05 -9.62497 -1.39236)
(3.44856e-05 -6.04634 -5.15603)
(-8.42947 -22.1487 -21.7539)
(-8.43258 -12.1383 -17.797)
(-8.42874 -4.50528 -23.1177)
(8.4389 -14.7815 -31.4759)
(8.43814 -13.2169 -25.7582)
(8.45412 -3.07502 -27.4527)
(5.08467e-05 -14.0744 -0.670383)
(2.99591e-05 -10.1325 -5.05565)
(3.25124e-05 -4.82853 -8.11117)
(-8.43915 -14.7996 -31.4157)
(-8.43892 -13.1776 -25.7343)
(-8.4561 -3.08571 -27.4915)
(8.44706 10.0364 -49.6657)
(8.44132 2.13977 -45.156)
(8.44445 2.98603 -44.2378)
(-8.30284e-05 9.42266 20.0259)
(-6.006e-05 -3.01829 21.6839)
(-3.57481e-05 2.60834 16.7219)
(-8.44718 10.0461 -49.6677)
(-8.44148 2.15698 -45.1723)
(-8.44616 3.01271 -44.2385)
(8.34454 -4.55335 -111.192)
(8.34253 0.843411 -114.14)
(8.34633 -1.18291 -111.733)
(4.39978e-05 1.73158 60.4907)
(2.37347e-05 -0.891924 63.1373)
(3.00238e-06 0.793719 61.1746)
(-8.34459 -4.55165 -111.233)
(-8.34187 0.83158 -114.159)
(-8.34676 -1.1746 -111.736)
(8.0025 0.0638764 -149.585)
(8.00167 0.0447697 -149.778)
(8.00136 -0.0050276 -149.798)
(-5.29872e-05 0.566194 178.637)
(-4.87873e-05 -0.324345 179.962)
(-4.4328e-05 0.328467 180.312)
(-8.00264 0.0631005 -149.59)
(-8.0018 0.0430271 -149.783)
(-8.00149 -0.00603555 -149.803)
)
;

boundaryField
{
    fuel
    {
        type            fixedValue;
        value           uniform (0 0 0.25);
    }
    primary_air
    {
        type            fixedValue;
        value           uniform (0 0 2.5);
    }
    Secondary_air_RHS
    {
        type            fixedValue;
        value           uniform (0 100 0);
    }
    Secondary_air_LHS
    {
        type            fixedValue;
        value           uniform (0 -100 0);
    }
    outlet
    {
        type            pressureInletOutletVelocity;
        value           nonuniform List<vector> 
18
(
(0 0 -149.585)
(-5.29872e-05 0.566194 178.637)
(0 0 -149.59)
(0 0 -149.778)
(-4.87873e-05 -0.324345 179.962)
(0 0 -149.783)
(0 0 -149.798)
(-4.4328e-05 0.328467 180.312)
(0 0 -149.803)
(0 0 -149.44)
(2.83082e-06 -0.344866 180.491)
(0 0 -149.438)
(0 0 -149.418)
(2.88604e-06 0.331598 180.092)
(0 0 -149.416)
(0 0 -149.219)
(2.78095e-06 -0.589078 178.631)
(0 0 -149.217)
)
;
    }
    stove_body
    {
        type            noSlip;
    }
    frontAndBack
    {
        type            empty;
    }
}


// ************************************************************************* //
