/*--------------------------------*- C++ -*----------------------------------*\
  =========                 |
  \\      /  F ield         | OpenFOAM: The Open Source CFD Toolbox
   \\    /   O peration     | Website:  https://openfoam.org
    \\  /    A nd           | Version:  6
     \\/     M anipulation  |
\*---------------------------------------------------------------------------*/
FoamFile
{
    version     2.0;
    format      ascii;
    class       surfaceScalarField;
    location    "1.5";
    object      phi;
}
// * * * * * * * * * * * * * * * * * * * * * * * * * * * * * * * * * * * * * //

dimensions      [1 0 -1 0 0 0 0];

internalField   nonuniform List<scalar> 
15525
(
1.36693e-08
1.08511e-06
-1.00856e-06
3.39458e-08
1.02595e-06
-9.83301e-07
5.29142e-07
1.12599e-06
-1.74922e-06
1.89217e-07
1.63938e-07
1.88734e-07
3.68273e-07
-1.6452e-07
1.08383e-07
6.78419e-07
2.90247e-07
5.77816e-08
-1.21878e-07
1.22442e-06
3.56761e-07
-2.23062e-07
9.86931e-07
1.50975e-07
1.183e-07
2.42791e-07
3.53633e-07
1.59746e-07
-2.22367e-07
2.33654e-07
6.33468e-07
-5.12811e-08
9.84959e-07
-1.24216e-06
3.6734e-07
8.35169e-07
-1.59949e-06
1.61287e-07
7.33243e-08
2.39721e-07
4.61778e-07
4.71335e-08
1.12813e-07
3.12585e-07
-3.04648e-07
1.31768e-07
-3.95584e-07
1.37548e-06
1.63466e-07
-3.3761e-08
8.07235e-07
-2.73291e-08
-1.69414e-07
4.25082e-07
1.04805e-07
3.24209e-07
2.68138e-07
2.42968e-08
7.83127e-08
-2.24567e-07
2.68746e-07
-2.31619e-07
2.29541e-08
7.14742e-08
1.21208e-07
1.74206e-07
-7.72891e-07
-4.38503e-07
4.73744e-08
-8.41994e-07
-1.26354e-08
-6.4583e-07
-8.84874e-07
-7.79265e-08
-2.28127e-07
-2.63121e-07
5.53859e-08
-4.16183e-08
-3.43718e-07
-3.75445e-08
-7.27542e-07
2.63774e-07
-1.08546e-07
-8.42182e-08
5.36553e-07
-5.8435e-07
2.21921e-07
3.73135e-07
-2.63191e-07
-3.55224e-07
1.13471e-08
-4.92917e-08
-1.05216e-07
2.81084e-07
-5.09049e-07
1.1877e-07
-1.1556e-07
-1.33373e-06
4.03668e-07
-5.94404e-07
-1.0451e-06
2.26932e-07
-2.57219e-07
-4.5673e-07
2.85814e-09
-1.83567e-07
-8.42595e-08
2.14851e-07
-7.5512e-07
-2.29354e-07
-3.46783e-07
1.02454e-06
-3.65108e-07
-6.03124e-07
-7.09294e-07
7.37075e-07
-3.03544e-07
-4.19424e-07
8.4966e-08
-3.56016e-07
1.85767e-07
-1.51693e-07
-5.66999e-07
1.93749e-07
3.46229e-07
1.80412e-07
-9.22083e-07
-1.33696e-08
-1.58607e-07
-2.51596e-07
-1.16716e-07
-4.766e-07
1.70311e-07
-1.73437e-07
-4.08831e-07
4.56522e-07
-1.53106e-07
-3.22545e-07
2.71114e-07
1.02577e-06
-5.08898e-07
-5.7863e-07
3.17893e-07
3.54152e-07
-9.30762e-08
-5.65121e-07
4.4026e-07
-1.46305e-07
-3.88965e-07
5.59697e-07
-1.01446e-07
-3.90438e-07
4.09149e-07
-9.63867e-08
-1.30077e-07
-3.72325e-07
4.8178e-09
9.70714e-08
-1.21805e-08
-3.58311e-07
-8.91714e-08
-1.43309e-07
-4.43061e-07
5.80573e-07
-1.49835e-07
-4.71035e-07
3.36247e-07
2.07402e-07
-1.08211e-07
-3.76879e-07
1.26509e-07
-8.90569e-09
-3.93311e-07
1.06173e-06
-1.26709e-06
2.95624e-07
-4.48008e-07
-1.04688e-06
-5.38981e-07
2.39563e-06
-1.29141e-06
-2.35078e-07
-1.51026e-07
-1.77798e-07
3.7179e-07
-3.02158e-07
1.02164e-07
4.3658e-07
-2.96725e-07
2.70766e-07
3.79432e-07
8.00491e-07
2.26389e-07
-1.59989e-07
3.41767e-07
-3.57948e-07
-6.77404e-07
1.21544e-06
-1.77959e-07
-2.57541e-07
5.44717e-07
-7.71667e-08
-1.07167e-07
3.07572e-07
-2.72378e-07
-1.87679e-07
-1.7436e-07
-1.24519e-07
2.21632e-07
-3.07486e-07
-1.08201e-07
1.72281e-07
-1.48358e-07
-1.59925e-07
2.92842e-07
-8.82212e-08
-7.42917e-08
3.21375e-07
-2.72179e-07
-2.13316e-07
-1.65129e-07
-1.19944e-07
-1.97743e-07
-3.46928e-07
-6.73294e-08
2.08058e-07
-1.40023e-07
-9.45832e-08
3.00293e-07
-1.07409e-07
-8.82104e-08
3.23462e-07
-2.80942e-07
-2.27995e-07
-1.90973e-07
-2.41769e-07
-1.78685e-07
-4.12658e-07
-8.01432e-07
-1.25503e-07
-1.36509e-07
-7.41222e-07
-6.80918e-07
-3.62972e-07
-5.98258e-07
-5.53758e-07
-2.67333e-07
-2.47309e-07
-2.56559e-07
-3.52043e-07
-4.6651e-07
1.4522e-07
-4.89171e-07
-6.74698e-08
-2.63576e-07
1.84e-07
-3.8444e-08
-2.52685e-09
-2.23696e-07
-1.77962e-08
3.17272e-07
9.12989e-07
3.48245e-07
5.33866e-07
3.97383e-07
2.85093e-07
2.43846e-07
-5.30618e-10
4.66134e-07
2.20055e-07
8.65211e-07
3.01439e-07
7.45397e-07
3.80231e-07
5.31625e-07
1.96532e-07
1.4379e-08
4.70641e-07
1.81833e-07
8.91917e-07
2.3478e-07
9.93033e-07
3.28026e-07
7.65946e-07
1.91445e-07
-4.4454e-08
4.82896e-07
2.10838e-07
5.58589e-07
1.12814e-07
4.09916e-07
1.8571e-07
1.4352e-07
-1.92479e-08
-9.98857e-08
-8.11307e-09
8.54087e-08
2.35728e-07
3.50941e-07
2.61183e-08
-6.1971e-07
2.98469e-07
3.17189e-07
4.85275e-08
8.04349e-07
-1.66836e-06
-4.81678e-08
4.91375e-07
-4.17218e-07
6.19755e-07
8.04581e-07
-1.66832e-06
2.9915e-07
3.1652e-07
-4.83879e-07
6.10042e-07
1.62496e-07
-2.64945e-07
3.01368e-07
2.28017e-07
2.64835e-07
4.09621e-07
-4.65866e-07
4.83764e-07
3.0145e-07
2.28168e-07
6.1029e-07
1.62723e-07
-3.84109e-07
6.01928e-07
3.8528e-07
-2.23612e-07
1.25756e-07
-1.14141e-09
2.23513e-07
4.60967e-07
-5.05637e-07
3.84056e-07
1.25364e-07
-7.38375e-10
6.01968e-07
3.85369e-07
-3.01467e-08
-1.14717e-08
6.38827e-07
4.05175e-08
5.70754e-08
-6.64351e-09
-4.00925e-08
5.98047e-07
-5.91185e-08
3.01782e-08
5.66509e-08
-6.21166e-09
-1.15512e-08
6.39011e-07
-4.96966e-08
3.31678e-08
-3.49161e-07
3.52618e-07
3.51001e-07
-1.04433e-07
5.10479e-08
3.52683e-07
3.45031e-08
2.57286e-07
5.60399e-09
6.82674e-08
2.45062e-07
-9.68716e-07
-5.4284e-07
-2.4446e-07
6.92964e-10
9.21399e-08
-2.57275e-07
-9.68589e-07
-5.42368e-07
5.81883e-09
6.72974e-08
4.46602e-07
-2.59657e-07
-2.33986e-08
2.65419e-07
-6.10603e-07
6.46379e-08
-2.64767e-07
-7.84298e-08
1.38929e-07
-4.46662e-07
-6.10163e-07
6.5172e-08
-2.58726e-07
-2.39811e-08
3.57936e-07
-3.76534e-07
1.40477e-07
2.41836e-07
-4.32238e-07
-6.82886e-08
-2.41345e-07
-2.63879e-07
1.55897e-07
-3.58134e-07
-4.33202e-07
-6.57482e-08
-3.75977e-07
1.4076e-07
3.33432e-07
-4.72462e-07
3.99248e-07
2.24175e-07
1.14902e-08
-3.46233e-07
-2.23655e-07
5.2069e-08
6.75326e-08
-3.3367e-07
1.10871e-08
-3.45583e-07
-4.72424e-07
3.99722e-07
-2.85968e-08
-4.10556e-07
4.29411e-08
2.91409e-07
-4.26724e-08
3.1443e-08
2.87216e-08
2.91231e-07
-4.09036e-07
5.55349e-08
-1.31739e-07
1.59825e-07
-1.97235e-08
-5.49655e-08
-3.56922e-07
1.67698e-08
-1.08543e-07
1.85921e-07
-5.60529e-08
-5.6785e-08
-3.57075e-07
-1.30835e-07
1.5742e-07
4.72312e-08
-1.91213e-07
-1.40312e-08
3.8631e-09
1.94671e-07
-1.30117e-07
-4.64767e-09
-1.97844e-07
2.36859e-07
-4.774e-08
1.93196e-07
-1.30177e-07
-1.89731e-07
-1.56325e-08
3.75683e-08
-3.20425e-08
-6.00926e-08
-9.88672e-09
-8.72391e-08
2.59438e-07
5.97028e-09
-3.11869e-07
2.49891e-07
-3.80896e-08
-8.85314e-08
2.58442e-07
-4.05647e-08
-5.0295e-08
3.15482e-07
2.97523e-07
-2.4927e-07
2.18477e-07
9.81151e-08
-4.38937e-07
-2.18027e-07
5.26517e-07
-3.39116e-07
-3.15509e-07
9.80885e-08
-4.39072e-07
2.89838e-07
-2.49654e-07
-3.77487e-07
2.70128e-07
-1.37701e-07
1.48454e-07
1.37591e-07
2.80924e-07
3.77561e-07
1.48059e-07
2.64061e-07
3.46998e-07
-2.31671e-07
5.58865e-08
2.64051e-07
-2.85988e-07
3.76968e-08
-2.63262e-07
1.31748e-07
5.99062e-07
-3.46827e-07
-2.85734e-07
3.79402e-08
-2.30361e-07
5.23431e-08
2.92449e-07
-1.84017e-07
-3.56139e-07
1.67105e-07
-4.31868e-07
1.44745e-07
-1.66115e-07
1.02056e-07
5.99618e-07
-2.92276e-07
-4.31052e-07
1.44981e-07
-1.79439e-07
-3.60769e-07
2.48966e-07
-2.39451e-07
-2.5538e-07
7.10002e-08
-2.26042e-07
2.30522e-07
-7.08018e-08
-1.40466e-07
6.31385e-07
-2.48983e-07
-2.26044e-07
2.30592e-07
-2.39323e-07
-2.41123e-07
4.63981e-07
-4.66295e-07
-4.8748e-07
2.9661e-07
-2.51574e-07
-2.48022e-07
-2.96201e-07
5.58675e-08
5.46672e-08
-4.63924e-07
-2.51456e-07
-2.47918e-07
-4.65795e-07
-4.88163e-07
-2.71475e-08
-1.662e-07
-5.33176e-08
-7.75411e-08
5.31194e-08
2.28976e-07
2.71105e-08
-7.79871e-08
-1.71797e-07
-3.81112e-07
4.66696e-07
-2.5224e-07
-7.35912e-08
2.52238e-07
1.09063e-07
3.80178e-07
-7.2394e-08
4.62231e-07
-2.96304e-07
4.16532e-07
-2.42628e-07
1.8964e-08
2.42625e-07
2.21895e-07
2.93736e-07
2.29591e-08
4.04888e-07
-3.08507e-07
4.74397e-07
-2.15871e-07
1.56912e-07
2.15841e-07
4.18812e-07
3.1418e-07
1.55263e-07
4.82701e-07
-2.62124e-08
1.56415e-08
-8.45348e-08
-3.37879e-08
8.49189e-08
3.01469e-07
2.61073e-08
-3.48554e-08
2.31745e-08
-1.52471e-07
-2.64485e-07
2.63964e-07
1.50431e-07
-4.29201e-08
9.30114e-08
-4.03519e-08
-1.93749e-07
5.75841e-08
1.04011e-07
1.93658e-07
3.2471e-07
-7.16273e-07
4.21487e-08
5.79849e-08
1.04163e-07
9.11804e-08
-3.8311e-08
-2.5219e-08
1.00861e-07
1.46481e-08
-8.19966e-08
5.64021e-09
1.06235e-07
8.19905e-08
-2.163e-07
3.73806e-07
2.56788e-08
5.69582e-09
1.06113e-07
1.00895e-07
1.35658e-08
-1.88233e-08
9.24073e-08
2.49119e-08
-1.45702e-07
3.37406e-08
9.66146e-08
1.45659e-07
2.63189e-07
-7.69474e-07
1.90709e-08
3.37321e-08
9.64139e-08
9.29093e-08
2.48143e-08
1.66981e-08
3.11973e-08
4.20643e-08
-4.71184e-10
-2.98252e-08
7.81735e-08
1.89246e-10
7.69162e-08
1.85651e-07
-1.71273e-08
-2.99072e-08
7.8425e-08
3.00942e-08
4.32565e-08
2.36275e-08
5.01982e-09
-6.53508e-08
5.63758e-08
6.53995e-08
-5.81627e-08
-2.41102e-08
5.68523e-08
3.44274e-09
8.47402e-08
3.17982e-08
-1.4678e-07
2.07175e-07
-1.21083e-07
1.14452e-07
-2.07192e-07
-3.14003e-07
3.35121e-08
-8.48606e-08
-1.21163e-07
1.1475e-07
3.29338e-08
-1.46278e-07
8.84758e-08
-2.2443e-08
-2.2215e-08
8.30322e-08
-2.35555e-08
1.14306e-08
-8.29258e-08
2.05595e-07
1.81497e-08
-8.83499e-08
-2.37086e-08
1.13852e-08
-2.23021e-08
-2.21264e-08
8.48567e-08
1.96453e-08
-1.04109e-07
1.39217e-07
-7.21152e-08
8.74852e-08
-1.39099e-07
-2.92787e-07
2.29345e-09
-8.47008e-08
-7.24157e-08
8.74397e-08
1.93847e-08
-1.03583e-07
7.22448e-08
-4.93915e-08
3.6489e-08
1.06662e-07
-7.83069e-08
4.69901e-08
-1.06752e-07
-1.95042e-07
2.98987e-07
-7.23488e-08
-7.85174e-08
4.72016e-08
-5.02986e-08
3.82602e-08
3.522e-08
-8.20134e-08
2.86437e-10
9.95244e-09
-1.88434e-10
-2.57562e-07
-3.55346e-08
1.06613e-08
-8.4895e-08
-4.28616e-07
1.46835e-07
1.40564e-07
-3.0138e-09
-1.59863e-07
-1.36325e-07
2.49808e-09
-4.38161e-08
8.85776e-08
4.28586e-07
-1.5989e-07
-1.36471e-07
1.47399e-07
1.40485e-07
2.27139e-07
-1.03121e-07
-2.41152e-09
-4.20953e-09
8.32567e-08
-2.91865e-09
4.00981e-09
-8.52091e-08
4.95199e-08
-2.27106e-07
8.33719e-08
-3.32938e-09
-1.02508e-07
-2.32027e-09
-4.18123e-07
1.10645e-07
9.86757e-08
-2.08224e-09
-1.48775e-07
-1.00742e-07
2.01961e-09
-1.1414e-07
2.47489e-08
4.18172e-07
-1.48742e-07
-1.00814e-07
1.11524e-07
9.89735e-08
9.13017e-08
1.02019e-07
-4.80494e-08
1.59054e-07
-1.15528e-07
-5.6908e-08
-1.58954e-07
8.10721e-07
-3.02704e-07
-9.11071e-08
-1.15288e-07
-5.70097e-08
1.05788e-07
-4.91959e-08
-5.59219e-08
7.3616e-08
-1.4029e-07
-2.45306e-08
1.4054e-07
2.55289e-07
5.75568e-08
-2.49814e-08
7.64198e-08
8.55061e-08
3.73695e-08
2.75503e-08
1.79391e-07
-1.15985e-07
-1.02435e-07
-1.79345e-07
-2.8926e-07
7.58156e-07
-8.54833e-08
-1.16037e-07
-1.02419e-07
3.81272e-08
2.69926e-08
8.25688e-08
-1.88743e-08
-3.13522e-08
4.9803e-08
5.31758e-09
-9.4147e-08
-4.9689e-08
2.11762e-07
-3.54069e-07
-8.25244e-08
4.85261e-09
-9.40717e-08
-1.85169e-08
-3.09705e-08
8.40842e-08
1.83041e-08
-2.46271e-08
1.31885e-07
-5.22781e-08
-9.42553e-08
-1.3181e-07
-2.82914e-07
7.78134e-07
-8.40167e-08
-5.2923e-08
-9.41225e-08
1.80167e-08
-2.36724e-08
6.97105e-08
-5.03428e-08
-5.14302e-08
1.04004e-07
-7.33704e-08
-7.30565e-08
-1.04096e-07
-1.95498e-07
-1.84639e-07
-6.98919e-08
-7.36852e-08
-7.33814e-08
-5.14085e-08
-5.19983e-08
3.63937e-08
-1.55242e-08
-2.60336e-09
-6.19473e-08
2.79345e-09
4.89329e-08
-3.66602e-08
-6.22504e-08
-1.41938e-08
-5.21106e-08
9.04569e-08
-2.06864e-07
6.29775e-08
2.06813e-07
3.40133e-07
5.18547e-08
6.33332e-08
8.85522e-08
-3.59601e-08
9.27297e-08
-9.43483e-08
2.47756e-08
9.44285e-08
-2.05952e-07
3.61853e-08
2.5042e-08
9.14292e-08
-3.19651e-08
9.78297e-08
-1.49969e-07
4.63495e-08
1.50141e-07
2.73309e-07
3.24931e-08
4.63604e-08
9.80584e-08
1.30275e-08
3.09605e-08
-2.91768e-09
-1.33041e-08
2.81404e-09
8.23434e-08
-1.34254e-08
-1.33445e-08
3.01629e-08
1.30462e-08
-6.47968e-08
6.4737e-08
-1.34814e-08
-6.1971e-07
2.98469e-07
3.17189e-07
4.85275e-08
8.04349e-07
-1.66836e-06
-4.81678e-08
4.91375e-07
-4.17218e-07
6.19755e-07
8.04581e-07
-1.66832e-06
2.9915e-07
3.1652e-07
-4.83879e-07
6.10042e-07
1.62496e-07
-2.64945e-07
3.01368e-07
2.28017e-07
2.64835e-07
4.09621e-07
-4.65866e-07
4.83764e-07
3.0145e-07
2.28168e-07
6.1029e-07
1.62723e-07
-3.84109e-07
6.01928e-07
3.8528e-07
-2.23612e-07
1.25756e-07
-1.14141e-09
2.23513e-07
4.60967e-07
-5.05637e-07
3.84056e-07
1.25364e-07
-7.38375e-10
6.01968e-07
3.85369e-07
-3.01467e-08
-1.14717e-08
6.38827e-07
4.05175e-08
5.70754e-08
-6.64351e-09
-4.00925e-08
5.98047e-07
-5.91185e-08
3.01782e-08
5.66509e-08
-6.21166e-09
-1.15512e-08
6.39011e-07
-4.96966e-08
3.31678e-08
-3.49161e-07
3.52618e-07
3.51001e-07
-1.04433e-07
5.10479e-08
3.52683e-07
3.45031e-08
2.57286e-07
5.60399e-09
6.82674e-08
2.45062e-07
-9.68716e-07
-5.4284e-07
-2.4446e-07
6.92964e-10
9.21399e-08
-2.57275e-07
-9.68589e-07
-5.42368e-07
5.81883e-09
6.72974e-08
4.46602e-07
-2.59657e-07
-2.33986e-08
2.65419e-07
-6.10603e-07
6.46379e-08
-2.64767e-07
-7.84298e-08
1.38929e-07
-4.46662e-07
-6.10163e-07
6.5172e-08
-2.58726e-07
-2.39811e-08
3.57936e-07
-3.76534e-07
1.40477e-07
2.41836e-07
-4.32238e-07
-6.82886e-08
-2.41345e-07
-2.63879e-07
1.55897e-07
-3.58134e-07
-4.33202e-07
-6.57482e-08
-3.75977e-07
1.4076e-07
3.33432e-07
-4.72462e-07
3.99248e-07
2.24175e-07
1.14902e-08
-3.46233e-07
-2.23655e-07
5.2069e-08
6.75326e-08
-3.3367e-07
1.10871e-08
-3.45583e-07
-4.72424e-07
3.99722e-07
-2.85968e-08
-4.10556e-07
4.29411e-08
2.91409e-07
-4.26724e-08
3.1443e-08
2.87216e-08
2.91231e-07
-4.09036e-07
5.55349e-08
-1.31739e-07
1.59825e-07
-1.97235e-08
-5.49655e-08
-3.56922e-07
1.67698e-08
-1.08543e-07
1.85921e-07
-5.60529e-08
-5.6785e-08
-3.57075e-07
-1.30835e-07
1.5742e-07
4.72312e-08
-1.91213e-07
-1.40312e-08
3.8631e-09
1.94671e-07
-1.30117e-07
-4.64767e-09
-1.97844e-07
2.36859e-07
-4.774e-08
1.93196e-07
-1.30177e-07
-1.89731e-07
-1.56325e-08
3.75683e-08
-3.20425e-08
-6.00926e-08
-9.88672e-09
-8.72391e-08
2.59438e-07
5.97028e-09
-3.11869e-07
2.49891e-07
-3.80896e-08
-8.85314e-08
2.58442e-07
-4.05647e-08
-5.0295e-08
3.15482e-07
2.97523e-07
-2.4927e-07
2.18477e-07
9.81151e-08
-4.38937e-07
-2.18027e-07
5.26517e-07
-3.39116e-07
-3.15509e-07
9.80885e-08
-4.39072e-07
2.89838e-07
-2.49654e-07
-3.77487e-07
2.70128e-07
-1.37701e-07
1.48454e-07
1.37591e-07
2.80924e-07
3.77561e-07
1.48059e-07
2.64061e-07
3.46998e-07
-2.31671e-07
5.58865e-08
2.64051e-07
-2.85988e-07
3.76968e-08
-2.63262e-07
1.31748e-07
5.99062e-07
-3.46827e-07
-2.85734e-07
3.79402e-08
-2.30361e-07
5.23431e-08
2.92449e-07
-1.84017e-07
-3.56139e-07
1.67105e-07
-4.31868e-07
1.44745e-07
-1.66115e-07
1.02056e-07
5.99618e-07
-2.92276e-07
-4.31052e-07
1.44981e-07
-1.79439e-07
-3.60769e-07
2.48966e-07
-2.39451e-07
-2.5538e-07
7.10002e-08
-2.26042e-07
2.30522e-07
-7.08018e-08
-1.40466e-07
6.31385e-07
-2.48983e-07
-2.26044e-07
2.30592e-07
-2.39323e-07
-2.41123e-07
4.63981e-07
-4.66295e-07
-4.8748e-07
2.9661e-07
-2.51574e-07
-2.48022e-07
-2.96201e-07
5.58675e-08
5.46672e-08
-4.63924e-07
-2.51456e-07
-2.47918e-07
-4.65795e-07
-4.88163e-07
-2.71475e-08
-1.662e-07
-5.33176e-08
-7.75411e-08
5.31194e-08
2.28976e-07
2.71105e-08
-7.79871e-08
-1.71797e-07
-3.81112e-07
4.66696e-07
-2.5224e-07
-7.35912e-08
2.52238e-07
1.09063e-07
3.80178e-07
-7.2394e-08
4.62231e-07
-2.96304e-07
4.16532e-07
-2.42628e-07
1.8964e-08
2.42625e-07
2.21895e-07
2.93736e-07
2.29591e-08
4.04888e-07
-3.08507e-07
4.74397e-07
-2.15871e-07
1.56912e-07
2.15841e-07
4.18812e-07
3.1418e-07
1.55263e-07
4.82701e-07
-2.62124e-08
1.56415e-08
-8.45348e-08
-3.37879e-08
8.49189e-08
3.01469e-07
2.61073e-08
-3.48554e-08
2.31745e-08
-1.52471e-07
-2.64485e-07
2.63964e-07
1.50431e-07
-3.4989e-08
8.28982e-08
-3.75603e-08
-2.05645e-07
3.72276e-08
1.42601e-07
2.01819e-07
2.96934e-07
-7.09299e-07
3.7385e-08
5.00899e-08
1.23378e-07
8.35e-08
-3.6802e-08
-2.207e-08
1.14267e-07
-1.17714e-08
-1.11747e-07
-4.74855e-09
1.29094e-07
1.06442e-07
-1.98485e-07
2.73182e-07
2.40174e-08
2.93058e-08
1.00308e-07
1.15082e-07
-1.01114e-08
2.73165e-09
9.66088e-08
1.23965e-08
-1.61314e-07
-2.22191e-08
1.79337e-07
1.58687e-07
2.74314e-07
-7.85351e-07
-1.22915e-09
2.05045e-08
1.65996e-07
9.00945e-08
2.14152e-08
3.25778e-08
1.37118e-08
4.79187e-08
-4.17335e-09
-4.85639e-08
6.08351e-08
-2.32324e-09
7.3801e-08
1.97177e-07
-3.10765e-08
-3.49838e-08
8.16292e-08
4.57432e-09
5.21432e-08
1.90143e-08
-7.70871e-09
-6.36425e-08
3.17974e-08
7.51493e-08
-6.72966e-08
-1.04756e-08
4.81589e-08
-8.24909e-09
1.08252e-07
2.01583e-08
-1.55631e-07
2.00873e-07
-1.13783e-07
1.73994e-07
-2.08567e-07
-3.06279e-07
2.53146e-08
-9.56284e-08
-1.27641e-07
1.48324e-07
3.44499e-08
-1.56007e-07
1.03857e-07
-3.35063e-08
-6.48184e-08
3.58864e-08
-1.32987e-08
9.4228e-08
-7.32358e-08
1.59749e-07
-8.52694e-08
-8.60965e-08
-2.21993e-09
-1.48467e-08
-8.41521e-09
-5.55537e-08
1.33741e-07
-3.80305e-08
-1.20444e-07
1.35853e-07
-6.13958e-08
2.23192e-07
-1.57311e-07
-2.48251e-07
-9.18118e-08
-1.24928e-07
-5.56956e-08
1.84053e-07
2.16887e-09
-1.1611e-07
6.2265e-08
-4.10142e-08
-1.40599e-08
6.00052e-08
-6.06358e-08
6.00304e-08
-1.11059e-07
-2.00716e-07
3.18838e-07
-7.36466e-08
-8.16569e-08
6.749e-08
-4.39712e-08
2.24688e-08
1.91862e-08
-7.05531e-08
2.4303e-08
-3.62875e-08
-3.34758e-09
-2.45242e-07
-3.29517e-08
-6.61506e-09
-8.73726e-08
-4.21943e-07
1.43336e-07
1.36929e-07
1.99512e-08
-1.55154e-07
-1.05282e-07
2.48213e-08
-3.2833e-08
6.4427e-08
4.37478e-07
-1.60795e-07
-9.60246e-08
1.50622e-07
1.45349e-07
1.94384e-07
-1.05973e-07
-1.30197e-08
3.13547e-08
1.10335e-07
-1.04182e-08
3.69917e-08
-6.12261e-08
-6.38379e-08
-1.72456e-07
5.04636e-08
-1.953e-08
-1.01276e-07
2.2534e-08
-4.45083e-07
1.11904e-07
9.95744e-08
3.60897e-08
-9.72394e-08
-4.9246e-08
4.04544e-08
-9.25747e-08
-6.45794e-08
4.41942e-07
-1.09751e-07
-6.06407e-08
1.1871e-07
1.04572e-07
8.05622e-08
6.50243e-08
-5.06487e-08
1.43398e-07
-9.12729e-08
-1.04331e-08
-1.772e-07
7.74219e-07
-2.21424e-07
-9.4479e-08
-1.21922e-07
-5.59373e-09
9.82444e-08
-5.31766e-08
-4.52053e-08
3.63746e-08
-1.38019e-07
-3.70439e-08
1.41787e-07
2.34275e-07
5.51622e-08
-4.48738e-08
6.39329e-08
8.18661e-08
3.7808e-08
2.74039e-08
1.76892e-07
-9.3743e-08
-9.67094e-08
-1.92672e-07
-2.4722e-07
6.86316e-07
-8.25658e-08
-9.77632e-08
-9.86179e-08
4.4163e-08
2.86696e-08
9.33342e-08
-3.53557e-08
-3.60791e-08
9.42708e-08
6.33717e-09
-1.13822e-07
-1.2828e-07
2.24106e-07
-3.14368e-07
-9.68742e-08
-2.99257e-08
-1.21395e-07
-1.21481e-08
-2.00674e-08
7.698e-08
7.29559e-09
-2.3353e-08
1.5337e-07
-3.47644e-08
-8.62566e-08
-1.82718e-07
-2.54506e-07
7.55748e-07
-9.15942e-08
-6.56233e-08
-1.18676e-07
1.90473e-08
-2.00262e-08
5.1791e-08
-4.28564e-08
-5.49363e-08
9.17763e-08
-4.36169e-08
-4.37788e-08
-1.31018e-07
-1.26498e-07
-1.2742e-07
-6.60606e-08
-6.92204e-08
-6.95455e-08
-3.97279e-08
-6.25699e-08
2.19899e-08
-3.10582e-08
-1.14545e-08
-4.94393e-08
3.01195e-08
6.26168e-08
-3.17275e-08
-5.48696e-08
-9.71153e-09
-5.23761e-08
8.97987e-08
-1.98821e-07
5.95473e-08
1.99659e-07
3.0792e-07
4.40386e-08
6.65689e-08
8.26101e-08
-3.62415e-08
8.74135e-08
-9.0691e-08
-2.44957e-09
9.3961e-08
-1.94893e-07
2.5911e-08
1.03449e-08
8.51852e-08
-3.37563e-08
9.52453e-08
-1.46159e-07
2.11004e-08
1.48222e-07
2.51643e-07
2.37916e-08
1.2865e-08
8.66214e-08
7.86356e-09
3.00856e-08
-1.04443e-08
-6.63936e-09
2.71124e-08
8.30603e-08
-2.62581e-08
-5.98036e-09
-4.52493e-09
-3.34792e-09
-6.17374e-08
8.01122e-08
1.66638e-08
-6.1971e-07
2.98469e-07
3.17189e-07
4.85275e-08
8.04349e-07
-1.66836e-06
-4.81678e-08
4.91375e-07
-4.17218e-07
6.19755e-07
8.04581e-07
-1.66832e-06
2.9915e-07
3.1652e-07
-4.83879e-07
6.10042e-07
1.62496e-07
-2.64945e-07
3.01368e-07
2.28017e-07
2.64835e-07
4.09621e-07
-4.65866e-07
4.83764e-07
3.0145e-07
2.28168e-07
6.1029e-07
1.62723e-07
-3.84109e-07
6.01928e-07
3.8528e-07
-2.23612e-07
1.25756e-07
-1.14141e-09
2.23513e-07
4.60967e-07
-5.05637e-07
3.84056e-07
1.25364e-07
-7.38375e-10
6.01968e-07
3.85369e-07
-3.01467e-08
-1.14717e-08
6.38827e-07
4.05175e-08
5.70754e-08
-6.64351e-09
-4.00925e-08
5.98047e-07
-5.91185e-08
3.01782e-08
5.66509e-08
-6.21166e-09
-1.15512e-08
6.39011e-07
-4.96966e-08
3.31678e-08
-3.49161e-07
3.52618e-07
3.51001e-07
-1.04433e-07
5.10479e-08
3.52683e-07
3.45031e-08
2.57286e-07
5.60399e-09
6.82674e-08
2.45062e-07
-9.68716e-07
-5.4284e-07
-2.4446e-07
6.92964e-10
9.21399e-08
-2.57275e-07
-9.68589e-07
-5.42368e-07
5.81883e-09
6.72974e-08
4.46602e-07
-2.59657e-07
-2.33986e-08
2.65419e-07
-6.10603e-07
6.46379e-08
-2.64767e-07
-7.84298e-08
1.38929e-07
-4.46662e-07
-6.10163e-07
6.5172e-08
-2.58726e-07
-2.39811e-08
3.57936e-07
-3.76534e-07
1.40477e-07
2.41836e-07
-4.32238e-07
-6.82886e-08
-2.41345e-07
-2.63879e-07
1.55897e-07
-3.58134e-07
-4.33202e-07
-6.57482e-08
-3.75977e-07
1.4076e-07
3.33432e-07
-4.72462e-07
3.99248e-07
2.24175e-07
1.14902e-08
-3.46233e-07
-2.23655e-07
5.2069e-08
6.75326e-08
-3.3367e-07
1.10871e-08
-3.45583e-07
-4.72424e-07
3.99722e-07
-2.85968e-08
-4.10556e-07
4.29411e-08
2.91409e-07
-4.26724e-08
3.1443e-08
2.87216e-08
2.91231e-07
-4.09036e-07
5.55349e-08
-1.31739e-07
1.59825e-07
-1.97235e-08
-5.49655e-08
-3.56922e-07
1.67698e-08
-1.08543e-07
1.85921e-07
-5.60529e-08
-5.6785e-08
-3.57075e-07
-1.30835e-07
1.5742e-07
4.72312e-08
-1.91213e-07
-1.40312e-08
3.8631e-09
1.94671e-07
-1.30117e-07
-4.64767e-09
-1.97844e-07
2.36859e-07
-4.774e-08
1.93196e-07
-1.30177e-07
-1.89731e-07
-1.56325e-08
3.75683e-08
-3.20425e-08
-6.00926e-08
-9.88672e-09
-8.72391e-08
2.59438e-07
5.97028e-09
-3.11869e-07
2.49891e-07
-3.80896e-08
-8.85314e-08
2.58442e-07
-4.05647e-08
-5.0295e-08
3.15482e-07
2.97523e-07
-2.4927e-07
2.18477e-07
9.81151e-08
-4.38937e-07
-2.18027e-07
5.26517e-07
-3.39116e-07
-3.15509e-07
9.80885e-08
-4.39072e-07
2.89838e-07
-2.49654e-07
-3.77487e-07
2.70128e-07
-1.37701e-07
1.48454e-07
1.37591e-07
2.80924e-07
3.77561e-07
1.48059e-07
2.64061e-07
3.46998e-07
-2.31671e-07
5.58865e-08
2.64051e-07
-2.85988e-07
3.76968e-08
-2.63262e-07
1.31748e-07
5.99062e-07
-3.46827e-07
-2.85734e-07
3.79402e-08
-2.30361e-07
5.23431e-08
2.92449e-07
-1.84017e-07
-3.56139e-07
1.67105e-07
-4.31868e-07
1.44745e-07
-1.66115e-07
1.02056e-07
5.99618e-07
-2.92276e-07
-4.31052e-07
1.44981e-07
-1.79439e-07
-3.60769e-07
2.48966e-07
-2.39451e-07
-2.5538e-07
7.10002e-08
-2.26042e-07
2.30522e-07
-7.08018e-08
-1.40466e-07
6.31385e-07
-2.48983e-07
-2.26044e-07
2.30592e-07
-2.39323e-07
-2.41123e-07
4.63981e-07
-4.66295e-07
-4.8748e-07
2.9661e-07
-2.51574e-07
-2.48022e-07
-2.96201e-07
5.58675e-08
5.46672e-08
-4.63924e-07
-2.51456e-07
-2.47918e-07
-4.65795e-07
-4.88163e-07
-2.71475e-08
-1.662e-07
-5.33176e-08
-7.75411e-08
5.31194e-08
2.28976e-07
2.71105e-08
-7.79871e-08
-1.71797e-07
-3.81112e-07
4.66696e-07
-2.5224e-07
-7.35912e-08
2.52238e-07
1.09063e-07
3.80178e-07
-7.2394e-08
4.62231e-07
-2.96304e-07
4.16532e-07
-2.42628e-07
1.8964e-08
2.42625e-07
2.21895e-07
2.93736e-07
2.29591e-08
4.04888e-07
-3.08507e-07
4.74397e-07
-2.15871e-07
1.56912e-07
2.15841e-07
4.18812e-07
3.1418e-07
1.55263e-07
4.82701e-07
-2.62124e-08
1.56415e-08
-8.45348e-08
-3.37879e-08
8.49189e-08
3.01469e-07
2.61073e-08
-3.48554e-08
2.31745e-08
-1.52471e-07
-2.64485e-07
2.63964e-07
1.50431e-07
-1.84104e-07
3.83261e-07
-1.96784e-07
-3.19592e-07
-1.0046e-08
1.63268e-07
-2.95165e-07
1.93524e-07
-1.98876e-07
-3.44304e-07
4.06059e-07
-3.40711e-07
6.86582e-07
-1.13371e-06
-1.54724e-07
3.3971e-07
1.90677e-07
-3.12893e-07
-5.93628e-09
1.50604e-07
-2.51465e-07
4.23232e-07
-2.94018e-07
-2.72384e-07
6.13165e-07
-1.89445e-07
9.03079e-07
-5.32841e-07
-1.66113e-07
3.67352e-07
1.40481e-07
-2.72007e-07
-5.26481e-08
1.48658e-07
-1.88359e-07
6.01661e-07
-2.67206e-07
-1.68796e-07
7.55812e-07
-1.64839e-07
3.08985e-07
4.08785e-07
1.19557e-08
1.20688e-09
3.50227e-07
-1.62009e-07
-1.00907e-07
2.18654e-07
-1.15145e-07
-3.35635e-08
5.83609e-07
-2.69693e-07
7.69983e-08
8.29016e-07
5.62415e-07
-4.85009e-07
-2.44092e-08
1.92205e-08
-2.77507e-07
1.48947e-07
-1.88561e-07
-1.22308e-07
-1.39976e-07
2.61102e-08
4.24432e-07
2.27109e-07
-7.17838e-08
-3.2365e-07
7.48911e-08
-1.96088e-07
5.2771e-07
1.63809e-07
-6.70777e-08
-2.07011e-07
3.9854e-07
-1.22988e-07
-4.25408e-07
-4.42067e-07
-2.16406e-07
2.23086e-07
-4.01167e-08
-6.50304e-08
8.47375e-08
-1.90383e-07
2.79279e-07
1.48967e-07
-2.34131e-08
-4.08198e-07
3.61814e-07
-7.32159e-08
-4.49844e-07
-3.6176e-07
-2.52985e-07
2.23856e-07
-2.07769e-07
7.61062e-08
1.07221e-07
-1.61715e-07
2.32562e-07
1.57952e-07
-6.83223e-08
-2.82288e-07
3.83333e-07
-1.30294e-07
-3.29676e-07
4.12999e-07
1.24271e-08
2.29391e-07
-3.46218e-07
2.55693e-07
3.57272e-07
-2.15997e-07
1.41124e-07
2.20801e-07
-6.5583e-07
1.30189e-06
4.15801e-07
-9.80632e-07
1.48574e-06
-6.35938e-07
9.89214e-07
1.22975e-08
-3.41809e-07
-1.78288e-07
1.2022e-07
-8.13664e-08
-8.6968e-07
-1.54161e-07
-9.02023e-07
-4.42588e-07
-9.13436e-07
3.12334e-07
3.02865e-07
1.53535e-07
-4.76188e-07
-4.85455e-08
1.58583e-07
-2.6172e-07
6.01267e-08
1.14365e-07
-4.09053e-07
6.68295e-08
-5.14664e-07
4.42358e-07
7.39549e-08
1.00239e-07
7.33648e-08
9.86444e-08
-2.06352e-07
-1.91876e-08
1.21483e-07
-3.27382e-07
-3.73048e-07
1.08414e-07
-4.04809e-07
-4.30624e-07
-3.90033e-07
-2.7131e-07
5.68571e-08
1.47122e-07
-3.05537e-08
1.49184e-07
-5.95389e-08
-1.02596e-08
1.33829e-07
-3.76561e-07
-2.3362e-07
9.54108e-08
-4.32984e-07
-2.41611e-07
-3.59859e-07
6.81832e-08
1.99436e-07
4.34848e-07
-2.34201e-07
4.99027e-07
-1.37686e-07
-8.39766e-08
1.47934e-07
2.10747e-06
-8.45531e-07
-4.57123e-08
1.99089e-06
-7.03395e-07
6.50854e-07
-9.93859e-08
-2.26702e-07
3.17449e-07
-3.58079e-07
1.11409e-07
3.20603e-08
8.61215e-07
2.02627e-07
8.46182e-07
4.42432e-07
1.95843e-07
-2.00919e-08
1.49191e-07
5.73271e-07
-2.40999e-07
-1.70019e-07
-7.69987e-08
-7.30367e-07
1.42602e-06
-1.69542e-07
-7.58991e-07
9.88108e-07
-6.826e-07
9.79485e-07
2.32209e-07
-3.11587e-08
-1.4875e-07
5.37208e-07
-3.14942e-07
-2.55027e-07
1.36893e-07
3.89073e-07
-1.09911e-06
-9.88341e-08
3.46822e-07
-1.29235e-06
2.18544e-07
-1.2643e-06
2.26353e-07
-1.67878e-07
-1.22773e-07
5.62808e-07
-4.224e-07
-2.43891e-07
9.9158e-08
-1.1491e-06
1.72927e-06
-1.2239e-07
-1.03175e-06
1.40445e-06
-8.39374e-07
1.00328e-06
2.71649e-07
-3.39797e-07
-3.3678e-07
5.73424e-07
-4.02938e-07
-4.09612e-07
2.41868e-07
-8.03763e-07
-8.6639e-07
1.54079e-07
-7.98266e-07
-8.42037e-07
-2.17907e-07
-5.7781e-07
1.72947e-08
-4.19527e-08
-1.69258e-07
-1.08626e-07
-1.37456e-07
2.76286e-08
-1.4211e-07
4.23512e-08
7.32929e-08
-1.80024e-07
3.48415e-07
-4.94418e-07
1.59881e-07
-9.46263e-09
9.9617e-07
-5.48039e-08
9.61372e-07
9.90315e-07
-1.526e-07
3.49829e-07
-3.55846e-07
1.02315e-07
-6.7369e-08
-4.00488e-07
-4.5799e-08
-3.89317e-07
-2.96299e-07
-1.53752e-07
3.77516e-07
-3.8571e-07
8.55914e-08
3.75777e-09
9.79005e-07
7.22963e-08
8.70339e-07
7.85592e-07
2.24855e-08
1.46542e-08
-1.77145e-07
-1.29418e-07
-1.32314e-07
5.99126e-08
-1.38756e-07
2.15243e-08
6.87495e-08
-3.34953e-08
-2.76275e-07
-1.94241e-07
-1.35359e-07
3.55961e-07
-9.34903e-07
5.9464e-07
5.94809e-07
-3.18766e-07
9.5464e-08
7.77619e-07
-3.77197e-07
1.90217e-07
1.08766e-07
6.97727e-08
5.982e-07
1.19779e-07
-2.29453e-08
7.03816e-07
-9.34973e-07
-6.89917e-07
-2.79027e-07
-6.78427e-07
1.34998e-06
8.94818e-08
-1.35459e-06
6.12638e-07
2.05435e-08
-1.72075e-07
3.10076e-07
-6.36923e-07
7.70867e-07
8.54058e-07
9.3098e-07
-2.70012e-06
-9.31416e-07
6.34785e-07
4.81318e-07
1.00822e-06
1.34313e-06
-4.52422e-06
5.92402e-07
1.4782e-07
1.08769e-07
7.29818e-07
-8.45042e-07
6.52965e-07
1.03586e-06
-7.25203e-07
-1.99422e-07
3.32757e-07
1.17012e-06
1.30795e-07
3.88745e-07
6.34422e-07
2.74798e-08
-7.80884e-08
3.30797e-07
-3.16533e-08
7.82354e-07
4.99807e-07
5.03881e-07
5.92096e-07
2.54589e-07
7.10947e-07
2.84304e-07
6.7329e-08
5.6174e-07
3.15755e-08
-2.42993e-07
1.2021e-06
-3.61657e-07
-2.72042e-07
1.13319e-06
-9.86291e-07
9.70564e-08
7.42943e-07
-9.21355e-07
-1.30226e-07
5.81567e-07
2.38119e-07
3.5929e-07
-5.15424e-07
-7.87848e-07
8.32329e-07
4.44498e-07
-1.91828e-07
4.7129e-07
1.40418e-06
-7.09476e-07
1.09015e-06
7.87454e-07
-5.14971e-07
4.77009e-07
2.26397e-07
2.80376e-07
3.31003e-07
-6.30128e-07
-8.70019e-07
-3.92186e-07
8.627e-07
-4.63278e-07
-9.0584e-08
-9.39181e-07
-1.14603e-06
-5.64404e-07
-4.7793e-07
-5.3656e-07
6.76682e-07
-3.17311e-07
-7.0389e-07
-6.82496e-07
-1.42331e-06
4.98732e-07
-4.14624e-08
-1.00721e-06
1.06685e-06
-7.19474e-07
-7.47022e-07
9.23901e-07
-5.30788e-07
-5.98517e-07
2.12326e-07
-3.55426e-07
2.87962e-07
-3.08669e-07
-6.17802e-07
-2.68381e-07
-7.96684e-07
1.28168e-07
-8.97438e-07
-1.07477e-07
1.96173e-07
-4.34475e-07
-3.89572e-07
5.97796e-08
-2.55377e-08
-2.57814e-07
-1.8329e-06
7.42007e-07
3.64371e-07
-2.35225e-06
8.41164e-07
5.28682e-07
4.87693e-07
-4.19454e-07
-6.02871e-07
6.12876e-07
-2.9006e-07
3.30665e-07
4.47467e-07
3.10738e-07
2.21632e-07
-1.27309e-06
-5.78133e-07
1.33487e-07
-8.34482e-07
-4.64923e-07
5.157e-07
9.14783e-08
-2.65142e-07
-4.75781e-07
-3.28044e-07
-2.84266e-07
5.25814e-07
1.06879e-07
-1.48133e-07
-1.65682e-07
-4.26736e-07
-2.07638e-07
2.82124e-07
1.87712e-06
-5.3154e-07
-5.49711e-07
2.1035e-07
6.73429e-07
-1.13815e-07
3.6675e-07
-4.55771e-08
3.83268e-07
1.44629e-06
-1.03392e-06
-5.64222e-07
2.4933e-06
-7.85996e-07
-4.48217e-07
-4.56235e-07
2.97533e-08
4.60467e-07
-4.12041e-07
-3.45666e-07
1.0583e-07
-3.1631e-07
6.0912e-07
3.60529e-07
8.53218e-07
4.73952e-07
-3.75741e-07
4.96906e-07
-2.84069e-07
7.40513e-07
-4.81513e-07
-2.38845e-07
9.37501e-07
-2.25282e-07
5.07966e-08
7.53964e-07
-2.07545e-07
-1.3312e-07
4.99969e-07
-7.42397e-07
3.65426e-07
1.10435e-07
-3.82463e-07
1.22055e-06
3.32738e-07
-1.85188e-07
4.63425e-07
-1.00214e-06
-7.17475e-07
1.16154e-06
-7.09428e-07
-4.52654e-07
4.57548e-07
-1.26851e-07
3.07876e-07
-8.7443e-07
-8.51461e-07
-1.18188e-06
3.75296e-06
9.33686e-07
-5.15315e-07
-9.74577e-07
-9.83511e-07
-1.18841e-06
4.51737e-06
-4.58704e-07
-5.19963e-07
-8.59976e-08
-3.33778e-07
8.50578e-07
-3.05556e-07
-5.43532e-07
-3.80117e-07
-8.86841e-08
-8.8223e-07
-8.91266e-07
-7.03115e-07
-7.15156e-07
-6.34349e-07
-4.77711e-07
-5.29991e-07
-1.79314e-07
-3.67534e-07
-8.57364e-07
-2.78073e-07
-1.45459e-07
-2.70727e-07
-2.84712e-07
1.08038e-07
-2.52294e-07
-1.09083e-07
-6.89045e-07
1.74686e-08
4.62002e-07
-9.71748e-07
6.3373e-07