/*--------------------------------*- C++ -*----------------------------------*\
  =========                 |
  \\      /  F ield         | OpenFOAM: The Open Source CFD Toolbox
   \\    /   O peration     | Website:  https://openfoam.org
    \\  /    A nd           | Version:  6
     \\/     M anipulation  |
\*---------------------------------------------------------------------------*/
FoamFile
{
    version     2.0;
    format      ascii;
    class       volVectorField;
    location    "1.5";
    object      U;
}
// * * * * * * * * * * * * * * * * * * * * * * * * * * * * * * * * * * * * * //

dimensions      [0 1 -1 0 0 0 0];

internalField   nonuniform List<vector> 
6000
(
(-0.112685 1.81783e-07 1.40958e-06)
(-0.123356 -6.16473e-07 8.90234e-08)
(-0.0851382 1.06835e-07 1.12147e-06)
(-0.154148 1.61617e-06 -8.17503e-09)
(-0.0119548 0.00442769 2.95651e-09)
(-0.150707 -4.14823e-07 1.96039e-06)
(-0.128595 -6.11062e-07 6.01592e-07)
(-0.127494 1.23403e-07 1.3895e-07)
(-0.155993 8.88755e-07 -7.42683e-08)
(-0.0124638 0.00461621 6.54164e-09)
(0 0 0)
(-0.13634 -1.28318e-06 5.21425e-07)
(-0.093862 -6.13976e-08 3.57817e-07)
(-0.156523 1.6083e-06 -2.40168e-08)
(-0.0136481 0.00505486 1.45713e-08)
(-0.0809689 3.38129e-07 -1.58968e-07)
(-0.107066 2.32566e-07 2.52931e-07)
(-0.128756 -6.50676e-08 3.55037e-06)
(-0.147287 6.89436e-07 1.43555e-06)
(-0.0145274 0.00538054 9.54706e-07)
(-0.0226872 2.95447e-09 0.0226875)
(-0.0284053 4.34151e-08 0.0284049)
(-0.0197474 4.10944e-08 0.0197475)
(-0.0170335 4.15656e-07 0.0170334)
(-0.109786 0.0406614 0.109786)
(-0.0384207 -0.000305487 -0.00421846)
(-0.0363805 0.000396221 -0.000920978)
(-0.0314215 -0.00232114 -0.00501688)
(-0.00578915 0.00163018 -6.93793e-05)
(-1.45675e-06 0.0572882 4.43425e-08)
(-0.0311906 0.000605332 -0.0022146)
(-0.0331783 0.000113366 -0.00104675)
(-0.0229466 -0.0012965 -0.00104635)
(-0.00864295 0.00276443 -0.000166089)
(-1.18263e-06 0.0581856 2.8451e-08)
(-0.0336883 0.000310473 0.00828512)
(-0.0313887 0.000744972 0.00523486)
(-0.0321021 -0.00214212 0.0012998)
(-0.00826058 0.00239103 0.000423444)
(-1.24888e-06 0.0585832 -3.72607e-08)
(-0.0307942 -0.000654858 0.0360274)
(-0.0378482 -0.00350589 0.0279691)
(-0.0214512 -0.00224704 0.0186866)
(-0.0117048 0.00372399 0.0114822)
(-1.33101e-06 0.0549051 1.6098e-06)
(-6.57343e-09 -6.27143e-07 0.103495)
(-5.181e-07 -4.55485e-08 0.0829119)
(-5.6114e-07 6.348e-07 0.138856)
(-1.55299e-06 5.21413e-07 0.146282)
(-1.25625e-06 0.00761343 0.0205562)
(-0.00705789 8.88887e-05 -0.00128906)
(-0.00131413 6.68834e-05 -2.97199e-05)
(-0.00380566 0.000182866 -0.000219411)
(-7.63987e-05 0.00176647 -0.00014431)
(-1.02213e-08 0.0577551 3.33296e-07)
(0 0 0)
(-0.00753075 0.000845611 -2.73437e-05)
(-0.0021967 5.58965e-05 -8.02436e-05)
(-1.08082e-05 0.000319612 -2.96911e-05)
(-1.96812e-07 0.0608806 3.36507e-07)
(-0.00117862 0.000109431 0.00145788)
(-0.0067993 0.000834306 0.00382445)
(-0.00307732 1.12879e-08 0.000573977)
(0 0 0)
(-3.3128e-07 0.0611457 -6.32459e-08)
(-0.00771479 -0.000618028 0.0320869)
(-0.0037449 -0.000631091 0.0160407)
(-0.000390944 -0.000109719 0.00508838)
(-0.000112364 0.00221613 0.00624731)
(-3.1476e-07 0.0586441 1.97922e-06)
(0 0 0)
(1.73102e-06 7.99964e-09 0.145151)
(0 0 0)
(-1.76061e-07 5.12749e-07 0.157065)
(2.25101e-08 0.00848269 0.0229032)
(0.00235312 -1.07959e-05 -2.31485e-05)
(0 0 0)
(0.00272718 6.6694e-05 -1.2746e-05)
(0.00649704 0.00256531 -6.08864e-05)
(1.00523e-06 0.0581802 -1.32754e-07)
(0.00789318 1.32345e-05 -6.69213e-05)
(0.00113381 4.67174e-06 1.79337e-05)
(0.000910238 1.59968e-05 -1.46876e-06)
(0.00637291 0.00244205 -9.05576e-05)
(1.15751e-06 0.0581951 -2.7654e-07)
(0.00656871 2.6904e-05 0.00100198)
(0.00182066 8.70534e-06 0.000268869)
(0.000442659 5.51797e-06 4.53267e-05)
(0.00653729 0.00246523 0.00031199)
(1.68867e-06 0.0579202 -1.60471e-07)
(0.0213452 -0.000109146 0.024979)
(0.0188174 -0.000390721 0.0212136)
(0.0137021 -0.0002634 0.0149664)
(0.00863783 0.00304855 0.00876807)
(1.87821e-06 0.0547471 2.04704e-06)
(5.60608e-07 -2.98608e-08 0.139724)
(1.47012e-06 3.78675e-08 0.140707)
(8.51928e-07 -3.88162e-08 0.149004)
(1.54901e-06 6.68668e-07 0.147324)
(1.7197e-06 0.00893097 0.0241136)
(0.151998 -2.30903e-07 1.87442e-07)
(0.146987 -9.75772e-08 1.21194e-07)
(0.148167 4.30031e-07 4.52664e-08)
(0.150591 7.35026e-07 -7.24345e-08)
(0.0129343 0.00479049 4.01637e-08)
(0.155624 -2.59967e-07 4.30029e-07)
(0.147253 -1.48348e-07 4.92408e-07)
(0.14937 3.61299e-07 3.04497e-07)
(0.151238 8.94989e-07 -9.67546e-08)
(0.0189979 0.0070363 1.22476e-07)
(0.158054 -2.06108e-07 1.00812e-06)
(0.150275 -1.40095e-07 1.06976e-06)
(0.151838 2.16659e-07 6.85757e-07)
(0.151771 9.88541e-07 8.28316e-08)
(0.024918 0.00922892 1.23516e-07)
(0.14128 -1.97272e-07 1.66993e-06)
(0.136835 -2.32222e-07 2.18158e-06)
(0.141588 -2.20715e-09 2.29245e-06)
(0.144606 8.79309e-07 1.93873e-06)
(0.026457 0.00979893 1.93185e-06)
(0.0133456 2.97702e-09 0.0133456)
(0.0191801 1.31718e-08 0.0191801)
(0.0226715 1.10569e-08 0.0226716)
(0.0214782 5.9195e-07 0.0214782)
(0.125723 0.0465642 0.125723)
(-0.084331 -0.0421677 3.72533e-07)
(-0.165515 -1.00214e-06 5.82347e-06)
(-0.2954 1.03497e-09 1.17154e-06)
(-0.16551 1.00261e-06 5.82294e-06)
(-0.0843292 0.0421668 3.72674e-07)
(-0.0323274 -0.0161639 2.9626e-07)
(-0.268432 -1.68579e-06 1.14114e-05)
(-0.304904 7.17131e-10 1.61523e-06)
(-0.26842 1.68675e-06 1.141e-05)
(-0.0323324 0.0161664 2.96346e-07)
(-0.0279631 -0.0139816 2.0205e-07)
(-0.286086 -2.28506e-06 2.51335e-06)
(-0.305972 5.20097e-10 6.25249e-07)
(-0.286069 2.28595e-06 2.51218e-06)
(-0.0279695 0.0139848 2.02042e-07)
(-0.0296889 -0.0148445 1.75183e-06)
(-0.267562 -2.37345e-06 5.21076e-06)
(-0.284775 1.60076e-10 5.35452e-06)
(-0.267543 2.37405e-06 5.21655e-06)
(-0.0296968 0.0148484 1.73793e-06)
(-0.0955811 -0.0477906 0.0955812)
(-0.0304624 -8.55652e-07 0.0304625)
(-0.0308219 4.07387e-10 0.0308219)
(-0.0305052 8.49586e-07 0.0305052)
(-0.0947656 0.0473828 0.0947657)
(0 0 0)
(-0.0467984 -0.0329707 -0.00895419)
(-0.0132044 3.44207e-07 -0.00012151)
(-0.0468081 0.0329787 -0.0089555)
(0 0 0)
(-1.59283e-06 -0.146123 -1.30715e-06)
(-0.025942 -0.0139051 -0.00425869)
(-0.0125748 3.86388e-07 -6.52362e-05)
(-0.0259446 0.013907 -0.00425868)
(-1.59646e-06 0.146115 -1.30771e-06)
(-3.41304e-06 -0.147431 -6.88475e-07)
(-0.0239671 -0.0121192 0.00122187)
(-0.0123529 4.33749e-07 0.00091742)
(-0.0239753 0.0121237 0.00122245)
(-3.41612e-06 0.147421 -6.87648e-07)
(-3.95109e-06 -0.136218 3.87809e-06)
(-0.0229893 -0.0114765 0.0229052)
(-0.0231115 7.96325e-07 0.0230439)
(-0.0230002 0.0114827 0.0229153)
(-3.95059e-06 0.136211 3.88356e-06)
(-1.67565e-06 -0.0147373 0.0294746)
(-4.80562e-06 -2.45399e-06 0.268447)
(-5.37514e-06 2.84114e-10 0.284606)
(-4.81194e-06 2.4568e-06 0.26843)
(-1.66244e-06 0.0147543 0.0295086)
(-8.91664e-07 -0.156153 -5.12759e-07)
(-0.00272381 -0.00891974 -0.000534346)
(-0.00169085 1.99978e-06 -0.000552173)
(-0.00272744 0.00892773 -0.000534848)
(-8.95153e-07 0.156143 -5.13489e-07)
(-3.92419e-07 -0.159725 -9.64929e-07)
(-0.000319533 -0.0050811 -0.00035554)
(0 0 0)
(-0.000320754 0.00508895 -0.000356182)
(-3.94749e-07 0.159713 -9.65337e-07)
(-2.98113e-07 -0.159387 -5.82753e-07)
(-0.000142496 -0.00355299 0.000450368)
(-0.000531037 7.18348e-07 0.00141465)
(-0.00014321 0.00355965 0.000451103)
(-3.04332e-07 0.159377 -5.78923e-07)
(-9.99759e-08 -0.147842 4.05979e-06)
(0.000234831 -0.0111443 0.0222613)
(-0.000161999 1.88204e-07 0.0116934)
(0.000233467 0.0111428 0.0222567)
(-1.01949e-07 0.147843 4.07185e-06)
(-4.09496e-08 -0.0144708 0.0289416)
(-2.30478e-07 -2.64743e-06 0.290712)
(-2.43554e-07 2.56884e-10 0.30655)
(-2.30794e-07 2.65268e-06 0.290705)
(-4.05246e-08 0.0145004 0.0290007)
(1.3569e-06 -0.149661 -3.90894e-07)
(0.0209911 -0.0111683 -0.000234356)
(0.00644126 -5.36011e-08 -1.27757e-05)
(0.0209853 0.0111657 -0.000234209)
(1.35563e-06 0.149657 -3.90145e-07)
(2.43655e-06 -0.150259 -7.67169e-07)
(0.0189898 -0.00979319 -0.000291721)
(0.00802688 -4.77996e-08 4.97527e-06)
(0.0189852 0.00979131 -0.000291229)
(2.43084e-06 0.150256 -7.70281e-07)
(3.27861e-06 -0.149916 -4.33131e-07)
(0.0173203 -0.00885162 0.00164571)
(0.00743217 2.40144e-08 0.000562748)
(0.017309 0.00884598 0.00164518)
(3.26723e-06 0.1499 -4.32077e-07)
(3.20285e-06 -0.134273 3.69398e-06)
(0.0302447 -0.0153948 0.0308684)
(0.02254 9.65457e-08 0.0229639)
(0.0302432 0.015395 0.0308689)
(3.19519e-06 0.134271 3.70945e-06)
(2.27336e-06 -0.0142112 0.0284224)
(3.25622e-06 -2.32956e-06 0.263782)
(3.62626e-06 1.27766e-10 0.287632)
(3.26102e-06 2.33478e-06 0.263781)
(2.26237e-06 0.014244 0.028488)
(0.0176461 -0.00882309 3.41118e-08)
(0.291354 -2.00649e-06 -3.17893e-07)
(0.308025 -8.42372e-10 -1.58175e-07)
(0.29135 2.00549e-06 -3.17935e-07)
(0.017644 0.00882207 3.3805e-08)
(0.0227603 -0.0113802 7.69662e-08)
(0.292915 -2.37551e-06 -6.10778e-07)
(0.307799 -8.65886e-10 -2.14966e-07)
(0.292909 2.37197e-06 -6.12852e-07)
(0.0227294 0.0113648 7.6085e-08)
(0.0268904 -0.0134452 5.35343e-08)
(0.292616 -2.61201e-06 -1.7812e-07)
(0.306646 -1.93008e-09 3.79937e-07)
(0.292592 2.60582e-06 -1.78046e-07)
(0.0268426 0.0134214 5.35048e-08)
(0.0271553 -0.0135777 2.24793e-06)
(0.262413 -2.22677e-06 3.65353e-06)
(0.286142 -7.75746e-10 4.30416e-06)
(0.262401 2.22386e-06 3.66189e-06)
(0.0271282 0.0135642 2.23233e-06)
(0.143319 -0.0716599 0.143319)
(0.0228893 -9.79567e-07 0.0228894)
(0.023023 2.29206e-10 0.023023)
(0.0229322 9.75284e-07 0.0229322)
(0.142383 0.0711918 0.142383)
(-0.000521502 -0.000289723 1.27073e-10)
(-0.0289467 -5.2404e-08 -2.05343e-10)
(-0.0206729 -3.62534e-10 6.02937e-08)
(-0.0289015 5.3814e-08 7.3024e-10)
(-0.000783004 0.000435002 5.24436e-11)
(-0.000945521 -0.000525289 3.36067e-10)
(-0.0293549 -9.55263e-09 -8.7194e-11)
(-0.0296892 1.31003e-11 1.22717e-07)
(-0.0293339 8.18044e-09 9.41246e-10)
(-0.000802542 0.000445857 1.26779e-10)
(-0.00112751 -0.000626392 1.35006e-10)
(-0.0295545 8.52625e-09 -2.35064e-10)
(0 0 0)
(-0.0295153 -1.02293e-08 -2.48991e-10)
(-0.00094483 0.000524905 1.0015e-10)
(-0.00116139 -0.000645217 1.11112e-08)
(-0.0288635 -3.9076e-09 1.85836e-08)
(-0.0295906 5.1264e-12 -2.52221e-08)
(-0.0288177 2.34009e-09 1.79895e-08)
(-0.000995986 0.000553326 9.20254e-09)
(-0.016215 -0.00900834 0.016215)
(-0.00114611 -6.30371e-09 0.00114611)
(-0.00095701 -8.56068e-12 0.00095701)
(-0.00110782 5.82724e-09 0.00110782)
(-0.0156265 0.00868141 0.0156265)
(-3.32504e-08 -0.0160913 4.39028e-10)
(-0.00041592 -0.000205859 -6.00136e-06)
(-0.00658302 -1.10037e-06 -0.000985935)
(-0.000385379 0.000190348 -5.16623e-06)
(-3.57705e-08 0.016028 3.22929e-09)
(-1.50526e-08 -0.016339 2.33728e-09)
(-0.000810081 -0.000444543 -1.63498e-05)
(-0.00375662 1.39394e-06 -0.000601313)
(-0.000799722 0.000439928 -1.47443e-05)
(-1.1725e-08 0.0163497 5.50203e-09)
(-5.95068e-09 -0.0165062 1.82876e-10)
(-0.00144188 -0.000813433 2.24942e-05)
(-0.00271202 1.89926e-06 6.70911e-05)
(-0.00148157 0.000838458 2.43037e-05)
(-1.42051e-09 0.0165143 1.74003e-10)
(-1.61876e-08 -0.0160787 1.67638e-08)
(-0.000670433 -0.000365899 0.000671701)
(-0.00195078 1.81315e-06 0.00215465)
(-0.000671147 0.000367572 0.00067304)
(-1.13627e-08 0.0160757 1.24918e-08)
(-1.14095e-08 -0.000663249 0.00119385)
(-2.18763e-08 -1.44827e-08 0.0288264)
(-8.10815e-08 1.03484e-10 0.0284697)
(-2.03312e-08 1.26696e-08 0.028791)
(-9.26387e-09 0.000551673 0.000993012)
(-2.26404e-09 -0.0152249 2.41114e-08)
(-1.57739e-05 -0.00190141 -0.000149276)
(-0.000146019 3.33996e-06 -0.000313767)
(-9.83493e-06 0.00191477 -0.00014935)
(6.8186e-10 0.0152125 2.48748e-08)
(-4.60043e-13 -0.0168014 3.94095e-08)
(-1.04288e-05 -0.00185183 -0.000186047)
(-4.7495e-05 2.77616e-06 -0.000226385)
(-9.35643e-06 0.00186999 -0.000185616)
(4.51761e-11 0.016811 4.08519e-08)
(0 0 0)
(-6.52217e-06 -0.00168348 6.23393e-05)
(0 0 0)
(-7.90417e-06 0.00170781 6.56676e-05)
(0 0 0)
(-4.34105e-10 -0.0164757 6.24276e-09)
(-2.51464e-06 -0.000613765 0.00123932)
(-2.88188e-05 7.82449e-06 0.00673029)
(-3.30676e-06 0.000624922 0.0012572)
(-9.53535e-10 0.0165063 -1.23716e-09)
(0 0 0)
(-8.61188e-10 -5.1889e-08 0.0292672)
(-2.00889e-09 4.62807e-10 0.0227411)
(-8.0057e-10 4.85693e-08 0.0292674)
(-3.65159e-11 0.000517825 0.000932085)
(3.27466e-08 -0.0160927 2.83172e-09)
(0.000378872 -0.000191527 -4.99961e-06)
(0.00599931 5.68331e-06 -0.00084896)
(0.000390863 0.00019795 -5.31869e-06)
(2.79651e-08 0.0161004 2.56547e-09)
(9.47723e-09 -0.0163974 4.54535e-09)
(0.000704807 -0.000391695 -1.26692e-05)
(0.00344598 1.95154e-06 -0.000513846)
(0.000705139 0.000392373 -1.30366e-05)
(5.22694e-09 0.0164031 4.27085e-09)
(-2.27134e-10 -0.0165399 -2.52095e-10)
(0.00154436 -0.000878607 2.63354e-05)
(0.00252053 1.19456e-06 7.56393e-05)
(0.00157125 0.000895483 2.64997e-05)
(-3.90171e-09 0.0165474 -8.26026e-10)
(1.13659e-08 -0.0160993 1.55557e-08)
(0.000680362 -0.000373651 0.000684102)
(0.00199519 1.1261e-06 0.00222007)
(0.000677249 0.000372695 0.000681717)
(7.92491e-09 0.0160902 1.18725e-08)
(1.20353e-08 -0.000643436 0.00115818)
(1.86068e-08 -1.50947e-08 0.0288385)
(8.35112e-08 1.36135e-10 0.0284466)
(1.73587e-08 1.34718e-08 0.028825)
(1.00656e-08 0.000540568 0.000973023)
(0.000613969 -0.000341094 4.32466e-11)
(0.0289742 -5.54073e-08 5.82515e-10)
(0.0209166 2.54339e-10 6.30417e-08)
(0.0289653 5.27432e-08 6.14567e-10)
(0.000291187 0.000161771 3.50884e-11)
(0.000691456 -0.000384142 1.14095e-10)
(0.0293912 -8.14171e-09 4.50701e-10)
(0.0298248 3.81097e-10 1.27056e-07)
(0.0293962 6.27416e-09 3.72217e-10)
(0.000459075 0.000255041 1.16647e-10)
(0.000859414 -0.000477452 1.23202e-10)
(0.0295449 1.0717e-08 -4.58387e-10)
(0 0 0)
(0.029547 -1.19557e-08 -8.94871e-10)
(0.000699419 0.000388566 1.45707e-10)
(0.000960057 -0.000533365 1.01859e-08)
(0.0288444 -2.804e-09 1.6715e-08)
(0.0295504 1.35089e-10 -2.04006e-08)
(0.0288303 2.01027e-09 1.59694e-08)
(0.000862504 0.000479169 8.99942e-09)
(0.0178563 -0.00992017 0.0178563)
(0.00100364 -5.93659e-09 0.00100364)
(0.00125467 -4.4368e-12 0.00125467)
(0.000978315 5.65036e-09 0.000978315)
(0.0175156 0.00973087 0.0175156)
(-0.084331 -0.0421677 3.72533e-07)
(-0.165515 -1.00214e-06 5.82347e-06)
(-0.2954 1.03497e-09 1.17154e-06)
(-0.16551 1.00261e-06 5.82294e-06)
(-0.0843292 0.0421668 3.72674e-07)
(-0.0323274 -0.0161639 2.9626e-07)
(-0.268432 -1.68579e-06 1.14114e-05)
(-0.304904 7.17131e-10 1.61523e-06)
(-0.26842 1.68675e-06 1.141e-05)
(-0.0323324 0.0161664 2.96346e-07)
(-0.0279631 -0.0139816 2.0205e-07)
(-0.286086 -2.28506e-06 2.51335e-06)
(-0.305972 5.20097e-10 6.25249e-07)
(-0.286069 2.28595e-06 2.51218e-06)
(-0.0279695 0.0139848 2.02042e-07)
(-0.0296889 -0.0148445 1.75183e-06)
(-0.267562 -2.37345e-06 5.21076e-06)
(-0.284775 1.60076e-10 5.35452e-06)
(-0.267543 2.37405e-06 5.21655e-06)
(-0.0296968 0.0148484 1.73793e-06)
(-0.0955811 -0.0477906 0.0955812)
(-0.0304624 -8.55652e-07 0.0304625)
(-0.0308219 4.07387e-10 0.0308219)
(-0.0305052 8.49586e-07 0.0305052)
(-0.0947656 0.0473828 0.0947657)
(0 0 0)
(-0.0467984 -0.0329707 -0.00895419)
(-0.0132044 3.44207e-07 -0.00012151)
(-0.0468081 0.0329787 -0.0089555)
(0 0 0)
(-1.59283e-06 -0.146123 -1.30715e-06)
(-0.025942 -0.0139051 -0.00425869)
(-0.0125748 3.86388e-07 -6.52362e-05)
(-0.0259446 0.013907 -0.00425868)
(-1.59646e-06 0.146115 -1.30771e-06)
(-3.41304e-06 -0.147431 -6.88475e-07)
(-0.0239671 -0.0121192 0.00122187)
(-0.0123529 4.33749e-07 0.00091742)
(-0.0239753 0.0121237 0.00122245)
(-3.41612e-06 0.147421 -6.87648e-07)
(-3.95109e-06 -0.136218 3.87809e-06)
(-0.0229893 -0.0114765 0.0229052)
(-0.0231115 7.96325e-07 0.0230439)
(-0.0230002 0.0114827 0.0229153)
(-3.95059e-06 0.136211 3.88356e-06)
(-1.67565e-06 -0.0147373 0.0294746)
(-4.80562e-06 -2.45399e-06 0.268447)
(-5.37514e-06 2.84114e-10 0.284606)
(-4.81194e-06 2.4568e-06 0.26843)
(-1.66244e-06 0.0147543 0.0295086)
(-8.91664e-07 -0.156153 -5.12759e-07)
(-0.00272381 -0.00891974 -0.000534346)
(-0.00169085 1.99978e-06 -0.000552173)
(-0.00272744 0.00892773 -0.000534848)
(-8.95153e-07 0.156143 -5.13489e-07)
(-3.92419e-07 -0.159725 -9.64929e-07)
(-0.000319533 -0.0050811 -0.00035554)
(0 0 0)
(-0.000320754 0.00508895 -0.000356182)
(-3.94749e-07 0.159713 -9.65337e-07)
(-2.98113e-07 -0.159387 -5.82753e-07)
(-0.000142496 -0.00355299 0.000450368)
(-0.000531037 7.18348e-07 0.00141465)
(-0.00014321 0.00355965 0.000451103)
(-3.04332e-07 0.159377 -5.78923e-07)
(-9.99759e-08 -0.147842 4.05979e-06)
(0.000234831 -0.0111443 0.0222613)
(-0.000161999 1.88204e-07 0.0116934)
(0.000233467 0.0111428 0.0222567)
(-1.01949e-07 0.147843 4.07185e-06)
(-4.09496e-08 -0.0144708 0.0289416)
(-2.30478e-07 -2.64743e-06 0.290712)
(-2.43554e-07 2.56884e-10 0.30655)
(-2.30794e-07 2.65268e-06 0.290705)
(-4.05246e-08 0.0145004 0.0290007)
(1.3569e-06 -0.149661 -3.90894e-07)
(0.0209911 -0.0111683 -0.000234356)
(0.00644126 -5.36011e-08 -1.27757e-05)
(0.0209853 0.0111657 -0.000234209)
(1.35563e-06 0.149657 -3.90145e-07)
(2.43655e-06 -0.150259 -7.67169e-07)
(0.0189898 -0.00979319 -0.000291721)
(0.00802688 -4.77996e-08 4.97527e-06)
(0.0189852 0.00979131 -0.000291229)
(2.43084e-06 0.150256 -7.70281e-07)
(3.27861e-06 -0.149916 -4.33131e-07)
(0.0173203 -0.00885162 0.00164571)
(0.00743217 2.40144e-08 0.000562748)
(0.017309 0.00884598 0.00164518)
(3.26723e-06 0.1499 -4.32077e-07)
(3.20285e-06 -0.134273 3.69398e-06)
(0.0302447 -0.0153948 0.0308684)
(0.02254 9.65457e-08 0.0229639)
(0.0302432 0.015395 0.0308689)
(3.19519e-06 0.134271 3.70945e-06)
(2.27336e-06 -0.0142112 0.0284224)
(3.25622e-06 -2.32956e-06 0.263782)
(3.62626e-06 1.27766e-10 0.287632)
(3.26102e-06 2.33478e-06 0.263781)
(2.26237e-06 0.014244 0.028488)
(0.0176461 -0.00882309 3.41118e-08)
(0.291354 -2.00649e-06 -3.17893e-07)
(0.308025 -8.42372e-10 -1.58175e-07)
(0.29135 2.00549e-06 -3.17935e-07)
(0.017644 0.00882207 3.3805e-08)
(0.0227603 -0.0113802 7.69662e-08)
(0.292915 -2.37551e-06 -6.10778e-07)
(0.307799 -8.65886e-10 -2.14966e-07)
(0.292909 2.37197e-06 -6.12852e-07)
(0.0227294 0.0113648 7.6085e-08)
(0.0268904 -0.0134452 5.35343e-08)
(0.292616 -2.61201e-06 -1.7812e-07)
(0.306646 -1.93008e-09 3.79937e-07)
(0.292592 2.60582e-06 -1.78046e-07)
(0.0268426 0.0134214 5.35048e-08)
(0.0271553 -0.0135777 2.24793e-06)
(0.262413 -2.22677e-06 3.65353e-06)
(0.286142 -7.75746e-10 4.30416e-06)
(0.262401 2.22386e-06 3.66189e-06)
(0.0271282 0.0135642 2.23233e-06)
(0.143319 -0.0716599 0.143319)
(0.0228893 -9.79567e-07 0.0228894)
(0.023023 2.29206e-10 0.023023)
(0.0229322 9.75284e-07 0.0229322)
(0.142383 0.0711918 0.142383)
(-0.000270598 -0.000159175 2.71142e-11)
(-0.0274254 -5.18893e-08 9.87905e-10)
(-0.0193931 -6.38359e-10 4.81899e-08)
(-0.0277357 5.44735e-08 -1.66074e-10)
(-0.000470591 0.000276819 9.97997e-11)
(-0.000398823 -0.000234602 1.12304e-10)
(-0.0278247 -1.36133e-08 1.29952e-10)
(-0.0273241 -1.57464e-09 7.19912e-08)
(-0.0281656 1.76616e-08 -2.40816e-09)
(-0.000839316 0.000493716 3.10456e-10)
(-0.000827646 -0.000486851 2.424e-10)
(-0.0277444 -1.40892e-08 -1.41454e-09)
(-0.0275427 -2.36752e-09 1.42537e-08)
(-0.0281569 1.77886e-08 3.4512e-11)
(-0.00124061 0.000729769 2.48346e-10)
(-0.000882094 -0.000518879 8.53741e-09)
(-0.027349 -9.76667e-09 1.60244e-08)
(-0.027302 -7.34868e-10 3.21914e-08)
(-0.0276509 1.21773e-08 2.10536e-08)
(-0.0011757 0.000691587 1.16615e-08)
(-0.016176 -0.0095153 0.016176)
(-0.00102382 -5.63871e-09 0.00102382)
(0 0 0)
(-0.00115081 6.64339e-09 0.00115081)
(-0.016724 0.00983766 0.016724)
(-7.73207e-09 -0.0160728 6.65859e-10)
(-0.000664283 -0.000341724 -7.90985e-06)
(-0.00570976 -5.41404e-05 -0.000847512)
(-0.000629845 0.000321514 -9.68274e-06)
(-1.06267e-08 0.0163405 4.85774e-10)
(-1.0392e-08 -0.016296 -1.32632e-09)
(-0.000728542 -0.000425314 -7.85355e-06)
(-0.00235453 -2.36285e-05 -0.00029324)
(-0.000773961 0.000446407 -1.50524e-05)
(-1.0592e-08 0.0166169 3.64943e-09)
(-3.30428e-08 -0.0162081 1.94147e-10)
(-0.000617837 -0.000370609 8.73088e-06)
(-0.00179938 -2.37941e-05 5.52156e-05)
(-0.00130747 0.000744798 2.29659e-05)
(-3.24182e-09 0.016802 1.44454e-09)
(-1.35535e-08 -0.0160736 1.73577e-08)
(-0.000362575 -0.000211749 0.000363824)
(-0.000787754 -6.92509e-06 0.000869907)
(-0.000641512 0.000368418 0.00064421)
(-1.47826e-08 0.0163627 1.60628e-08)
(-9.1147e-09 -0.000552891 0.000939915)
(-1.50762e-08 -1.16306e-08 0.0273796)
(-8.1421e-08 -5.07605e-10 0.0271659)
(-2.07448e-08 1.41974e-08 0.0277052)
(-1.17051e-08 0.000701086 0.00119185)
(-2.24678e-09 -0.0163391 2.23904e-10)
(-6.06227e-06 -0.00134576 -3.03312e-05)
(-0.000370448 -4.14965e-05 -7.0557e-05)
(-1.44884e-06 0.00112788 -3.69409e-05)
(-3.44257e-09 0.0165795 6.19119e-09)
(-1.26147e-09 -0.0165854 -1.78939e-08)
(1.70306e-06 -0.00132941 3.43287e-05)
(0 0 0)
(7.43326e-06 0.00100485 -6.86779e-05)
(1.04945e-10 0.0171431 1.86208e-08)
(7.50937e-11 -0.0154375 4.51344e-09)
(6.24272e-06 -0.00149164 7.22431e-05)
(0.000338623 -0.000138105 0.0005854)
(1.66063e-06 0.000272142 1.06315e-05)
(0 0 0)
(3.81597e-11 -0.0162746 3.26584e-08)
(0 0 0)
(6.70231e-05 -6.77226e-05 0.00458352)
(-6.01048e-07 0.000705015 0.00137207)
(-1.35947e-09 0.0167682 6.02374e-09)
(-2.62795e-12 -0.000363716 0.000618318)
(-1.95357e-10 -4.34468e-08 0.0277397)
(2.06378e-09 -2.15313e-09 0.021687)
(-6.50774e-10 4.94466e-08 0.0281143)
(0 0 0)
(1.07454e-08 -0.0160395 1.65011e-09)
(0.000584595 -0.000326689 -4.88231e-06)
(0.0037657 -2.70037e-05 -0.000170412)
(0.000607123 0.000334323 -6.01873e-06)
(6.26528e-09 0.0162326 3.95247e-09)
(1.31456e-08 -0.0162383 9.90284e-10)
(0.000751489 -0.000433169 -4.16967e-06)
(0.00284531 -2.22834e-05 0.00011876)
(0.000908182 0.000516162 -1.34932e-05)
(2.23656e-09 0.0165415 6.41016e-09)
(3.29305e-08 -0.0161696 1.46144e-09)
(7.46325e-05 -4.01537e-05 9.7676e-07)
(0.00478932 -6.69286e-05 0.000145807)
(0.00141866 0.000724244 1.78807e-05)
(-2.25488e-09 0.0167135 -2.04189e-11)
(1.26752e-08 -0.0160791 1.71693e-08)
(0.000291696 -0.000168116 0.000292057)
(0.000652684 -5.83219e-06 0.000648652)
(0.00056672 0.000320378 0.000566798)
(1.16236e-08 0.0163228 1.54522e-08)
(1.10158e-08 -0.000547294 0.000930399)
(1.09916e-08 -1.00278e-08 0.0273749)
(6.63571e-08 -7.58684e-10 0.026943)
(1.67353e-08 1.19185e-08 0.0276788)
(1.49988e-08 0.000680381 0.00115665)
(0.000685582 -0.000403284 6.1828e-11)
(0.0271765 -2.08226e-08 2.83848e-09)
(0.0247651 1.74584e-10 1.12867e-08)
(0.0275447 1.87682e-08 2.13971e-09)
(0.000421534 0.000247961 3.04163e-11)
(0.000661543 -0.000389143 1.11972e-10)
(0.0275889 -1.52058e-08 4.05618e-09)
(0.0268286 -2.33252e-10 -3.56129e-08)
(0.027959 1.27417e-08 -1.48444e-10)
(0.000412231 0.000242489 1.37084e-10)
(0.000820752 -0.000482795 1.30901e-10)
(0.0275861 -4.54232e-08 1.7166e-09)
(0.02128 -1.75681e-09 1.07846e-08)
(0.0279681 4.6366e-08 6.45188e-10)
(0.00099278 0.000583989 3.80298e-10)
(0.000825979 -0.00048587 9.76493e-09)
(0.027335 -9.48131e-09 1.33637e-08)
(0.0268933 -8.53284e-10 6.94368e-08)
(0.0276287 1.05801e-08 1.83332e-08)
(0.00102088 0.00060052 1.3535e-08)
(0.0198856 -0.0116974 0.0198856)
(0.000793356 -5.61861e-09 0.000793356)
(0.000493598 9.96593e-12 0.000493598)
(0.000942572 7.48209e-09 0.000942572)
(0.0222879 0.0131105 0.0222879)
(-0.084331 -0.0421677 3.72533e-07)
(-0.165515 -1.00214e-06 5.82347e-06)
(-0.2954 1.03497e-09 1.17154e-06)
(-0.16551 1.00261e-06 5.82294e-06)
(-0.0843292 0.0421668 3.72674e-07)
(-0.0323274 -0.0161639 2.9626e-07)
(-0.268432 -1.68579e-06 1.14114e-05)
(-0.304904 7.17131e-10 1.61523e-06)
(-0.26842 1.68675e-06 1.141e-05)
(-0.0323324 0.0161664 2.96346e-07)
(-0.0279631 -0.0139816 2.0205e-07)
(-0.286086 -2.28506e-06 2.51335e-06)
(-0.305972 5.20097e-10 6.25249e-07)
(-0.286069 2.28595e-06 2.51218e-06)
(-0.0279695 0.0139848 2.02042e-07)
(-0.0296889 -0.0148445 1.75183e-06)
(-0.267562 -2.37345e-06 5.21076e-06)
(-0.284775 1.60076e-10 5.35452e-06)
(-0.267543 2.37405e-06 5.21655e-06)
(-0.0296968 0.0148484 1.73793e-06)
(-0.0955811 -0.0477906 0.0955812)
(-0.0304624 -8.55652e-07 0.0304625)
(-0.0308219 4.07387e-10 0.0308219)
(-0.0305052 8.49586e-07 0.0305052)
(-0.0947656 0.0473828 0.0947657)
(0 0 0)
(-0.0467984 -0.0329707 -0.00895419)
(-0.0132044 3.44207e-07 -0.00012151)
(-0.0468081 0.0329787 -0.0089555)
(0 0 0)
(-1.59283e-06 -0.146123 -1.30715e-06)
(-0.025942 -0.0139051 -0.00425869)
(-0.0125748 3.86388e-07 -6.52362e-05)
(-0.0259446 0.013907 -0.00425868)
(-1.59646e-06 0.146115 -1.30771e-06)
(-3.41304e-06 -0.147431 -6.88475e-07)
(-0.0239671 -0.0121192 0.00122187)
(-0.0123529 4.33749e-07 0.00091742)
(-0.0239753 0.0121237 0.00122245)
(-3.41612e-06 0.147421 -6.87648e-07)
(-3.95109e-06 -0.136218 3.87809e-06)
(-0.0229893 -0.0114765 0.0229052)
(-0.0231115 7.96325e-07 0.0230439)
(-0.0230002 0.0114827 0.0229153)
(-3.95059e-06 0.136211 3.88356e-06)
(-1.67565e-06 -0.0147373 0.0294746)
(-4.80562e-06 -2.45399e-06 0.268447)
(-5.37514e-06 2.84114e-10 0.284606)
(-4.81194e-06 2.4568e-06 0.26843)
(-1.66244e-06 0.0147543 0.0295086)
(-8.91664e-07 -0.156153 -5.12759e-07)
(-0.00272381 -0.00891974 -0.000534346)
(-0.00169085 1.99978e-06 -0.000552173)
(-0.00272744 0.00892773 -0.000534848)
(-8.95153e-07 0.156143 -5.13489e-07)
(-3.92419e-07 -0.159725 -9.64929e-07)
(-0.000319533 -0.0050811 -0.00035554)
(0 0 0)
(-0.000320754 0.00508895 -0.000356182)
(-3.94749e-07 0.159713 -9.65337e-07)
(-2.98113e-07 -0.159387 -5.82753e-07)
(-0.000142496 -0.00355299 0.000450368)
(-0.000531037 7.18348e-07 0.00141465)
(-0.00014321 0.00355965 0.000451103)
(-3.04332e-07 0.159377 -5.78923e-07)
(-9.99759e-08 -0.147842 4.05979e-06)
(0.000234831 -0.0111443 0.0222613)
(-0.000161999 1.88204e-07 0.0116934)
(0.000233467 0.0111428 0.0222567)
(-1.01949e-07 0.147843 4.07185e-06)
(-4.09496e-08 -0.0144708 0.0289416)
(-2.30478e-07 -2.64743e-06 0.290712)
(-2.43554e-07 2.56884e-10 0.30655)
(-2.30794e-07 2.65268e-06 0.290705)
(-4.05246e-08 0.0145004 0.0290007)
(1.3569e-06 -0.149661 -3.90894e-07)
(0.0209911 -0.0111683 -0.000234356)
(0.00644126 -5.36011e-08 -1.27757e-05)
(0.0209853 0.0111657 -0.000234209)
(1.35563e-06 0.149657 -3.90145e-07)
(2.43655e-06 -0.150259 -7.67169e-07)
(0.0189898 -0.00979319 -0.000291721)
(0.00802688 -4.77996e-08 4.97527e-06)
(0.0189852 0.00979131 -0.000291229)
(2.43084e-06 0.150256 -7.70281e-07)
(3.27861e-06 -0.149916 -4.33131e-07)
(0.0173203 -0.00885162 0.00164571)
(0.00743217 2.40144e-08 0.000562748)
(0.017309 0.00884598 0.00164518)
(3.26723e-06 0.1499 -4.32077e-07)
(3.20285e-06 -0.134273 3.69398e-06)
(0.0302447 -0.0153948 0.0308684)
(0.02254 9.65457e-08 0.0229639)
(0.0302432 0.015395 0.0308689)
(3.19519e-06 0.134271 3.70945e-06)
(2.27336e-06 -0.0142112 0.0284224)
(3.25622e-06 -2.32956e-06 0.263782)
(3.62626e-06 1.27766e-10 0.287632)
(3.26102e-06 2.33478e-06 0.263781)
(2.26237e-06 0.014244 0.028488)
(0.0176461 -0.00882309 3.41118e-08)
(0.291354 -2.00649e-06 -3.17893e-07)
(0.308025 -8.42372e-10 -1.58175e-07)
(0.29135 2.00549e-06 -3.17935e-07)
(0.017644 0.00882207 3.3805e-08)
(0.0227603 -0.0113802 7.69662e-08)
(0.292915 -2.37551e-06 -6.10778e-07)
(0.307799 -8.65886e-10 -2.14966e-07)
(0.292909 2.37197e-06 -6.12852e-07)
(0.0227294 0.0113648 7.6085e-08)
(0.0268904 -0.0134452 5.35343e-08)
(0.292616 -2.61201e-06 -1.7812e-07)
(0.306646 -1.93008e-09 3.79937e-07)
(0.292592 2.60582e-06 -1.78046e-07)
(0.0268426 0.0134214 5.35048e-08)
(0.0271553 -0.0135777 2.24793e-06)
(0.262413 -2.22677e-06 3.65353e-06)
(0.286142 -7.75746e-10 4.30416e-06)
(0.262401 2.22386e-06 3.66189e-06)
(0.0271282 0.0135642 2.23233e-06)
(0.143319 -0.0716599 0.143319)
(0.0228893 -9.79567e-07 0.0228894)
(0.023023 2.29206e-10 0.023023)
(0.0229322 9.75284e-07 0.0229322)
(0.142383 0.0711918 0.142383)
(-0.00725033 -0.00258941 1.23269e-08)
(-0.106766 -2.31199e-07 -5.42552e-09)
(-0.108004 -1.09984e-07 -1.46923e-08)
(-0.106102 -7.54427e-07 5.24405e-08)
(-0.0527394 -3.54712e-07 7.55935e-07)
(0 0 0)
(-0.10687 -3.01506e-07 9.90209e-09)
(-0.108244 -8.91574e-08 2.06958e-08)
(-0.107278 -2.08413e-07 1.38255e-07)
(-0.0949318 -1.69282e-07 1.55302e-06)
(-0.00936456 -0.00334449 2.7192e-09)
(-0.107232 -2.76322e-07 2.89943e-08)
(-0.109324 -6.46272e-08 1.59154e-07)
(-0.107834 -1.44073e-07 1.96033e-07)
(-0.0948733 -1.27455e-07 -2.08486e-07)
(-0.010245 -0.00365893 4.74097e-07)
(-0.102456 -2.46407e-07 6.27731e-07)
(-0.0996791 -2.70112e-08 6.67801e-07)
(-0.0932578 -3.02858e-07 4.78083e-07)
(-0.0534215 -1.71875e-07 1.3119e-07)
(-0.0772559 -0.0275914 0.0772559)
(-0.0101448 -1.69532e-07 0.0101448)
(-0.00941926 -8.9342e-09 0.00941927)
(-0.0108757 -3.10163e-08 0.0108757)
(-0.0184401 -4.23635e-08 0.01844)
(-2.74631e-07 -0.039319 -1.29988e-07)
(-0.00423413 -0.00155596 -6.77604e-06)
(-0.000467756 -6.52312e-06 -2.04879e-06)
(-0.000337021 2.48647e-05 -1.08646e-06)
(-0.0169333 0.00192181 -0.00449188)
(-5.30092e-07 -0.0386756 -9.11546e-08)
(-0.00446802 -0.00161796 -1.18861e-05)
(-0.00053529 -7.63444e-06 -4.95252e-06)
(-0.000200765 2.73662e-06 8.42697e-07)
(-0.00389428 5.57244e-05 -0.000579972)
(-5.02976e-07 -0.038924 1.40947e-08)
(-0.00484323 -0.00176699 0.000211672)
(0 0 0)
(-0.00152353 4.19774e-05 0.00024728)
(-0.00660207 0.000158432 0.00254061)
(-5.49936e-07 -0.0370104 5.2952e-07)
(-0.0049617 -0.00168307 0.0049915)
(-0.0102755 0.000288292 0.011557)
(-0.0127949 0.00168007 0.0163039)
(-0.0165392 0.00219711 0.0201445)
(-4.37663e-07 -0.00341759 0.00956924)
(-5.66388e-07 -2.07937e-07 0.103065)
(-3.30685e-07 -9.47294e-08 0.101437)
(-1.19754e-06 -4.65503e-07 0.0907263)
(-1.95266e-07 -1.94018e-07 0.0462699)
(-1.12575e-07 -0.0407625 -7.99443e-08)
(3.10966e-06 -8.00472e-05 -4.45347e-07)
(0.00184626 4.63547e-05 -0.000137985)
(0.00190856 0.000108756 -0.000107804)
(0.000945165 0.000444309 -0.00130689)
(1.10929e-08 -0.0404331 -8.80119e-08)
(3.88278e-06 -0.000107465 -6.29255e-07)
(0.000270148 2.6815e-07 -3.04551e-05)
(0.000353065 1.13508e-05 2.2274e-05)
(0.00165765 5.17943e-05 -0.000249987)
(-1.79665e-08 -0.0403916 -1.37255e-08)
(6.45475e-06 -0.000199261 2.12142e-05)
(9.10079e-05 5.05356e-06 4.3504e-05)
(0.00394051 0.00021336 0.00338772)
(0.0010227 2.20043e-05 0.00237077)
(2.40154e-08 -0.0388131 5.60158e-07)
(9.62748e-05 -0.00141449 0.00433371)
(0.00114458 0.000732047 0.0106675)
(0.00342466 0.00168998 0.0229141)
(-0.00190487 0.000232768 0.0238235)
(-1.55228e-09 -0.00328917 0.00920968)
(1.77002e-08 -1.66849e-07 0.108267)
(0 0 0)
(5.93767e-08 -2.19154e-07 0.0686014)
(1.10775e-06 6.39739e-08 0.070328)
(4.54239e-07 -0.0381652 -1.02997e-08)