/*--------------------------------*- C++ -*----------------------------------*\
  =========                 |
  \\      /  F ield         | OpenFOAM: The Open Source CFD Toolbox
   \\    /   O peration     | Website:  https://openfoam.org
    \\  /    A nd           | Version:  6
     \\/     M anipulation  |
\*---------------------------------------------------------------------------*/
FoamFile
{
    version     2.0;
    format      ascii;
    class       volScalarField;
    location    "0.005";
    object      O2;
}
// * * * * * * * * * * * * * * * * * * * * * * * * * * * * * * * * * * * * * //

dimensions      [0 0 0 0 0 0 0];

internalField   nonuniform List<scalar> 
3773
(
0
0
0
0
0
0
0
0
0
0
0
0
0
0
0
0
0
0
0
0
0
0
0
0
0
0
0
0
0
0
0
0
0
0
0
0
0
0
0
0
0
0
0
0
0
0
0
0
0
0
0
0
0
0
0
0
0
0
0
0
0
0
0
0
0
0
0
0
0
0
0
0
0
0
0
0
0
0
0
0
0
0
0
0
0
0
0
0
0
0
0
0
0
0
0
0
0
0
0
0
0
0
0
0
0
0
0
0
0
0
0
0
0
0
0
0
0
0
0
0
0
0
0
0
0
0
0
0
0
0
0
0
0
0
0
0
0
0
0
0
0
0
0
0
0
0
0
0
0
0
0
0
0
0
0
0
0
0
0
0
0
0
0
0
0
0
0
0
0
0
0
0
0
0
0
0
0
0
0
0
0
0
0
0
0
0
0
0
0
0
0
0
0
0
0
0
0
0
0
0
0
0
0
0
0
0
0
0
0
0
0
0
0
0
0
0
0
0
0
0
0
0
0
0
0
0
0
0
0
0
0
0
0
0
0
0
0
0
0
0
0
0
0
0
0
0
0
0
0
0
0
0
0
0
0
0
0
0
0
0
0
0
0
0
0
0
0
0
0
0
0
0
0
0
0
0
0
0
0
0
0
0
0
0
0
0
0
0
0
0
0
0
0
0
0
0
0
0
0
0
0
0
0
0
0
0
0
0
0
0
0
0
0
0
0
0
0
0
0
0
0
0
0
0
0
0
0
0
0
0
0
0
0
0
0
0
0
0
0
0
0
0
0
0.00297758
0.00290215
0.00270879
0.00259078
0.00270704
0.00289365
0.00297053
0.0041316
0.00408657
0.00399887
0.00394305
0.00399095
0.00407412
0.00411829
0.00516101
0.00515786
0.00515147
0.00514671
0.0051508
0.00515676
0.00516047
0.00558202
0.00556751
0.00556967
0.00558984
0.00557014
0.00559419
0.00561014
0.00515128
0.00514725
0.00514003
0.00513683
0.00514097
0.00514737
0.0051495
0.00409004
0.00403891
0.00395871
0.00391212
0.00397665
0.00406978
0.00411881
0.00294767
0.00286919
0.00267914
0.00256653
0.00270537
0.00290218
0.00298082
6.13354e-06
5.54314e-06
3.84515e-06
3.21476e-06
3.97625e-06
5.5185e-06
6.37767e-06
4.74573e-05
4.46307e-05
4.00704e-05
3.91939e-05
3.94787e-05
4.37787e-05
4.84084e-05
0.000514343
0.000506414
0.000500118
0.000498189
0.000496407
0.000503675
0.000511937
0.000665476
0.00068152
0.00068539
0.000670351
0.000686267
0.000662948
0.000647767
0.000523297
0.000514635
0.000501654
0.000507636
0.000504414
0.000507888
0.000515068
4.55365e-05
4.44761e-05
3.96946e-05
3.82634e-05
4.11904e-05
4.46374e-05
4.73563e-05
3.59842e-06
5.54396e-06
3.99043e-06
3.23908e-06
4.23121e-06
6.11405e-06
7.31971e-06
8.70053e-09
6.29231e-09
2.14303e-09
1.34044e-09
2.2759e-09
6.7232e-09
1.11777e-08
1.54537e-06
1.41734e-06
1.33661e-06
1.19409e-06
1.21251e-06
1.43782e-06
1.49867e-06
4.4038e-05
4.34083e-05
4.28486e-05
4.17618e-05
4.27331e-05
4.22206e-05
4.24756e-05
6.35228e-05
6.68584e-05
6.65936e-05
6.49842e-05
6.67289e-05
6.23772e-05
5.8608e-05
3.56107e-05
3.35323e-05
3.87765e-05
3.2718e-05
3.8998e-05
4.27637e-05
4.35649e-05
1.42313e-06
1.26467e-06
1.27683e-06
1.1701e-06
1.19237e-06
1.29299e-06
1.60418e-06
5.27913e-09
6.88903e-09
2.3109e-09
1.40282e-09
2.7193e-09
8.66727e-09
1.33436e-08
8.62713e-12
1.67186e-11
2.54846e-11
1.07048e-11
1e-11
6.32333e-12
6.50858e-12
7.774e-08
6.2312e-08
4.28675e-08
2.06689e-08
4.44844e-08
6.05417e-08
7.66825e-08
5.30186e-06
5.37155e-06
5.47954e-06
4.3878e-06
5.5638e-06
5.16616e-06
4.92187e-06
9.29547e-06
9.4102e-06
9.01245e-06
1.00955e-05
8.99747e-06
8.16431e-06
7.83499e-06
3.03176e-06
2.3911e-06
4.1209e-06
2.69457e-06
4.0394e-06
5.23613e-06
5.37217e-06
6.88912e-08
4.17872e-08
4.05795e-08
3.52958e-08
5.02497e-08
6.47267e-08
7.49357e-08
1.63315e-11
5.89551e-11
8.29914e-12
1.38025e-11
2.84475e-11
1.06216e-11
6.77342e-12
5.27856e-12
4.66221e-11
6.18191e-11
2.11364e-11
2.16699e-11
5.40896e-12
0
3.60285e-09
1.86724e-09
1.07005e-09
4.44859e-10
1.1231e-09
1.98381e-09
3.62094e-09
6.80346e-07
6.24899e-07
5.79874e-07
4.55194e-07
5.96624e-07
5.70409e-07
5.18248e-07
1.28906e-06
1.33451e-06
1.46464e-06
1.29405e-06
1.39671e-06
1.11554e-06
1.136e-06
3.39248e-07
2.20081e-07
4.87737e-07
2.63992e-07
4.50005e-07
6.31825e-07
5.53142e-07
2.92169e-09
1.23593e-09
7.90729e-10
5.91196e-10
1.07346e-09
1.81054e-09
3.14363e-09
3.59484e-11
2.10461e-10
1.77207e-11
2.5996e-11
6.65616e-11
2.94029e-11
2.06593e-12
3.6879e-12
8.82616e-11
1.61366e-11
2.25428e-11
1.44646e-11
1.00284e-11
0
3.8513e-11
1.55454e-10
5.37343e-11
9.10887e-11
5.11408e-11
8.4712e-11
3.61219e-11
9.78494e-08
8.683e-08
7.07954e-08
6.89837e-08
7.45838e-08
6.43302e-08
6.2754e-08
2.03973e-07
2.46501e-07
2.40484e-07
2.28686e-07
2.51748e-07
1.78361e-07
2.14358e-07
4.49994e-08
3.45316e-08
7.1597e-08
4.99621e-08
6.88921e-08
7.51103e-08
6.4456e-08
3.38823e-11
6.52376e-11
5.50849e-11
8.73653e-11
6.48175e-11
1.18631e-10
3.7605e-11
0
2.89752e-10
1.02427e-11
1.74596e-11
1.67814e-11
8.83391e-11
1.06841e-11
0
1.98745e-10
2.80365e-11
2.89377e-11
1.67717e-11
1.64533e-11
0
0
6.09407e-10
2.00396e-10
2.58073e-10
1.26394e-10
2.9186e-11
0
4.74019e-08
1.96874e-08
1.30916e-08
1.2354e-08
1.45994e-08
9.88018e-09
2.38981e-08
1.49575e-07
6.29148e-08
4.33377e-08
4.55462e-08
4.85331e-08
5.25782e-08
1.4174e-07
2.07638e-08
6.94474e-09
1.44804e-08
9.79449e-09
1.5158e-08
1.03122e-08
2.46834e-08
0
1.22692e-10
2.23938e-10
2.52049e-10
2.2143e-10
4.2592e-10
0
0
2.90632e-10
1.37792e-11
2.23315e-11
2.6996e-11
1.99961e-10
0
0
5.22431e-15
1.37963e-14
3.54275e-14
7.47095e-14
0
0
0
6.90171e-13
8.73441e-12
5.45047e-12
9.74012e-12
9.47051e-12
0
0
0
3.20631e-10
5.2333e-10
4.37226e-10
0
0
0
0
2.9496e-09
4.00549e-09
3.71737e-09
0
0
0
0
2.78192e-10
4.44151e-10
3.55724e-10
0
0
0
2.61255e-12
5.0129e-12
4.4231e-12
1.31203e-11
1.29053e-11
0
0
1.81194e-13
3.36934e-14
2.32775e-14
1.18506e-13
0
0
3.23623e-16
1.9139e-14
1.02633e-14
5.77959e-14
1.37705e-13
4.58146e-14
4.62171e-16
1.67162e-14
8.4965e-13
1.1701e-12
8.91547e-13
1.21481e-12
7.25631e-13
9.33486e-15
5.33221e-13
3.46747e-11
2.37541e-11
3.45219e-11
3.08286e-11
1.28017e-11
7.9648e-14
3.57241e-14
1.76887e-12
4.07849e-10
4.51631e-10
4.69e-10
1.53179e-12
2.78981e-14
3.47428e-13
3.15583e-11
1.86095e-11
2.83551e-11
2.24391e-11
2.42884e-11
4.25018e-13
1.3632e-13
2.40901e-12
7.33716e-13
9.34917e-13
1.43254e-12
9.96617e-13
2.58348e-14
9.91874e-15
1.12066e-13
6.00443e-14
4.34956e-14
4.1183e-14
3.05051e-14
5.02299e-16
4.76786e-16
5.87681e-14
1.67039e-15
7.53975e-16
4.28594e-15
1.66078e-14
7.98364e-16
4.49049e-14
1.21383e-12
1.53712e-13
2.09507e-14
2.49727e-14
3.40035e-13
2.61016e-14
5.89867e-13
1.21166e-11
1.84591e-12
1.23943e-12
1.90576e-12
5.0919e-12
9.55727e-14
5.0648e-14
2.1372e-12
3.7193e-11
4.37146e-11
4.09594e-11
2.86904e-12
5.53259e-14
5.01782e-13
1.32228e-11
7.33694e-13
2.58556e-13
1.09248e-12
7.8257e-12
4.53673e-13
1.53853e-13
1.61788e-12
1.57538e-14
3.04876e-15
6.20823e-14
8.87749e-13
4.54147e-14
2.60645e-15
2.44412e-14
1.03187e-15
1.03152e-16
4.50549e-15
7.01137e-14
9.41073e-16
9.60208e-16
6.06661e-14
2.20613e-15
5.14716e-17
1.23426e-16
4.10307e-15
1.58708e-15
4.06785e-14
5.92515e-13
1.51865e-15
1.32498e-16
7.69307e-17
2.52871e-14
1.69252e-14
4.89594e-13
2.74622e-12
2.70988e-15
5.15334e-16
4.65877e-15
1.22673e-12
1.16883e-13
9.84795e-14
1.3409e-12
4.46435e-12
6.16853e-12
4.25939e-12
2.22105e-12
1.65694e-13
5.86612e-13
4.08199e-12
2.20345e-15
2.19379e-16
5.93266e-16
1.79141e-12
3.67244e-13
1.00552e-13
5.34143e-13
1.44433e-16
1.05933e-16
2.97972e-16
2.05115e-13
3.47097e-14
2.15427e-15
3.30237e-14
5.82693e-17
5.36701e-17
4.18594e-16
2.09687e-14
1.4656e-15
6.40734e-16
6.99186e-15
7.28834e-16
7.05313e-17
5.98598e-17
5.56966e-16
1.51832e-15
2.1631e-14
4.88011e-14
2.40514e-15
2.34693e-16
6.40374e-17
7.07946e-16
9.47791e-15
1.46876e-13
2.62605e-13
1.40116e-15
6.60953e-16
1.06823e-14
1.21471e-13
4.70885e-14
7.06489e-14
6.65687e-13
1.18726e-12
1.40039e-12
1.09219e-12
1.44565e-12
1.64842e-13
3.35369e-13
6.42642e-13
2.52184e-14
9.793e-16
1.69782e-15
1.57538e-13
1.42578e-13
4.13293e-14
5.20672e-14
1.06193e-16
2.30009e-16
1.07436e-15
2.44954e-14
1.94595e-14
1.40277e-15
1.03952e-14
7.87325e-17
7.41017e-17
3.91694e-16
3.33437e-15
1.12098e-15
3.41425e-16
1.56717e-16
3.85028e-17
2.83235e-17
8.37083e-17
2.69181e-16
1.12144e-15
4.37732e-15
6.53138e-15
1.40229e-15
2.91988e-16
1.12739e-16
1.93093e-16
4.61469e-15
3.03841e-14
2.29271e-14
8.04693e-15
1.82046e-15
1.17622e-14
5.3159e-14
1.33527e-14
3.88023e-14
2.23952e-13
2.23779e-13
2.28717e-13
2.00822e-13
6.99919e-13
1.44379e-13
9.17399e-14
5.86603e-14
1.09612e-14
1.6075e-15
9.30497e-15
7.01491e-14
5.21491e-14
9.92146e-15
2.46838e-15
1.69564e-16
4.20002e-16
1.69134e-15
9.58485e-15
9.10221e-15
4.54031e-16
7.55646e-16
5.77641e-17
9.10533e-17
2.32636e-16
9.71345e-16
9.1525e-16
1.72457e-16
6.84498e-17
3.48499e-17
3.80186e-17
1.41126e-16
2.93289e-16
5.63437e-16
1.16499e-15
6.18295e-16
1.7168e-16
6.89358e-17
7.64492e-17
1.23823e-16
2.0011e-15
5.205e-15
2.97408e-15
1.26564e-15
9.78703e-16
8.5713e-16
1.78405e-14
8.79534e-15
1.18412e-14
3.43001e-14
1.78408e-14
2.92383e-14
1.68395e-14
1.35741e-13
6.5901e-14
3.36369e-14
3.7722e-15
6.07792e-16
1.06857e-15
1.91846e-15
1.31026e-14
2.03401e-14
3.13288e-15
3.74957e-16
2.29709e-16
4.26246e-16
1.11909e-15
2.76067e-15
3.27859e-15
3.39301e-16
1.32899e-16
5.7193e-17
8.21279e-17
1.6816e-16
4.46584e-16
7.46967e-16
0
6.15118e-10
2.8543e-11
1.4112e-11
9.34749e-12
0
0
0
1.94712e-09
5.02566e-10
3.30019e-10
2.97399e-10
0
0
0
0
1.16013e-08
9.35585e-09
1.20081e-08
0
0
0
0
2.02853e-08
3.64504e-08
2.43522e-08
0
0
0
0
1.18248e-08
7.72911e-09
1.26462e-08
0
0
0
9.86829e-10
5.14428e-10
2.50857e-10
5.93815e-10
6.73719e-10
0
0
1.62478e-10
1.1307e-11
9.4353e-12
2.6091e-11
2.52943e-11
0
0
2.81907e-10
1.49083e-11
8.69438e-12
6.38754e-12
0
0
0
1.21321e-09
3.45085e-10
2.32021e-10
2.01473e-10
0
0
0
0
1.044e-08
7.59555e-09
1.04363e-08
0
0
0
0
1.83916e-08
3.01611e-08
2.24308e-08
0
0
0
0
1.02823e-08
6.70302e-09
1.09967e-08
0
0
0
9.79854e-10
3.03046e-10
1.69784e-10
4.59827e-10
0
0
0
5.06285e-12
6.10816e-12
5.55366e-12
1.15225e-11
0
0
0
0
1.05007e-11
6.95273e-12
4.67819e-12
0
0
0
3.89809e-10
2.82927e-10
2.00825e-10
1.7625e-10
0
0
0
0
9.64757e-09
6.74767e-09
9.14739e-09
0
0
0
0
1.70518e-08
2.49718e-08
2.09847e-08
0
0
0
0
9.0177e-09
5.8175e-09
9.78987e-09
0
0
0
3.66646e-10
1.85681e-10
1.40907e-10
3.1287e-10
0
0
0
0
4.54744e-12
4.27642e-12
6.89298e-12
0
0
0
0
4.7168e-12
4.71921e-12
2.4917e-12
0
0
0
0
1.80002e-10
1.47778e-10
1.45815e-10
0
0
0
0
8.44229e-09
6.44866e-09
8.4313e-09
0
0
0
0
1.49031e-08
2.23948e-08
1.85053e-08
0
0
0
0
8.1274e-09
5.39038e-09
8.52568e-09
0
0
0
1.29269e-10
1.31602e-10
9.5925e-11
2.15114e-10
0
0
0
0
3.39039e-12
2.93243e-12
3.61059e-12
0
0
0
0
2.60559e-12
2.84324e-12
1.6738e-12
0
0
0
0
8.98194e-11
9.6751e-11
7.99411e-11
0
0
0
0
5.86019e-09
5.98702e-09
6.61308e-09
0
0
0
0
1.24831e-08
2.02793e-08
1.57112e-08
0
0
0
0
5.87635e-09
4.60144e-09
5.92164e-09
0
0
0
0
5.88927e-11
7.05371e-11
1.08119e-10
0
0
0
0
1.33701e-12
1.38945e-12
2.2609e-12
0
0
0
0
1.04073e-12
9.09791e-13
9.76235e-13
0
0
0
0
5.39723e-11
6.76255e-11
5.58713e-11
0
0
0
0
3.91767e-09
5.39309e-09
5.23229e-09
0
0
0
0
1.12766e-08
1.77535e-08
1.44086e-08
0
0
0
0
4.18816e-09
4.15249e-09
4.31329e-09
0
0
0
0
3.29032e-11
4.03292e-11
6.65081e-11
0
0
0
0
8.17142e-13
8.57254e-13
1.81386e-12
0
0
0
0
3.83663e-13
3.7871e-13
2.99743e-13
0
0
0
0
2.48238e-11
3.41899e-11
3.22347e-11
0
0
0
0
2.26223e-09
3.48544e-09
3.03161e-09
0
0
0
0
1.02873e-08
1.4344e-08
1.31226e-08
0
0
0
0
2.21797e-09
2.85526e-09
2.48945e-09
0
0
0
0
1.8853e-11
2.46975e-11
3.37494e-11
0
0
0
0
2.4536e-13
2.61648e-13
7.14477e-13
0
0
1.29983e-18
1.98922e-18
1.06558e-17
3.73228e-17
3.91918e-17
3.53686e-17
2.81555e-17
6.61891e-17
4.8179e-17
3.28684e-17
6.08406e-17
3.10563e-16
3.87042e-16
4.6296e-16
2.44377e-15
7.57906e-16
8.03245e-17
8.75255e-17
4.96801e-16
1.14904e-14
7.87133e-15
9.92227e-15
1.00467e-14
1.67496e-15
3.3901e-15
1.36492e-15
2.73475e-14
5.41838e-14
2.86454e-14
3.04981e-15
2.24235e-16
1.75322e-16
1.64717e-16
1.83142e-15
1.54524e-14
7.59147e-16
6.531e-16
4.87382e-16
2.54673e-16
3.10841e-16
3.75148e-16
4.57605e-16
4.81597e-17
5.4047e-17
7.3386e-17
6.56217e-17
2.08608e-17
1.51156e-17
1.95997e-17
4.23687e-20
6.18087e-18
3.34506e-17
3.85307e-17
3.77732e-17
2.69621e-17
1.51793e-17
2.59206e-17
2.20431e-17
2.04755e-17
1.63861e-16
2.40346e-16
2.59503e-16
2.51893e-16
1.30908e-15
7.15237e-17
7.37201e-18
2.99567e-17
1.58918e-16
4.45765e-15
7.12338e-15
7.99661e-15
3.5541e-16
3.33593e-19
3.69608e-19
4.71168e-19
9.05804e-17
4.2995e-14
2.51613e-14
1.27788e-15
1.69565e-16
7.22289e-17
6.5238e-17
1.19574e-16
1.02987e-14
5.6711e-16
5.40081e-16
4.55602e-16
2.53605e-16
2.2809e-16
2.56767e-16
2.66424e-16
3.89929e-17
5.57157e-17
8.45298e-17
7.24406e-17
3.79745e-17
1.025e-17
9.39444e-18
6.52751e-20
2.0044e-17
3.74111e-17
5.01048e-17
4.97192e-17
3.62356e-17
1.67992e-17
1.17526e-17
1.37174e-17
3.35362e-17
1.68045e-16
2.31632e-16
2.77257e-16
2.96993e-16
6.6957e-16
3.00557e-17
7.49568e-18
3.54379e-17
4.19127e-17
1.79697e-15
5.67234e-15
5.46915e-15
1.40773e-18
1.94278e-18
1.89903e-18
2.02285e-18
5.89053e-18
2.74681e-14
1.76921e-14
5.00212e-16
1.59367e-16
8.30765e-17
7.31545e-17
1.31151e-16
8.61519e-15
7.50275e-16
6.06679e-16
4.85021e-16
2.61281e-16
2.24829e-16
2.42499e-16
2.36046e-16
4.42757e-17
9.30839e-17
1.34169e-16
1.03553e-16
5.43031e-17
1.84859e-17
1.43215e-17
7.22524e-18
2.32002e-17
4.04598e-17
5.36385e-17
4.62174e-17
3.57402e-17
3.93192e-17
1.95931e-17
1.54289e-17
5.60806e-17
1.59873e-16
2.33358e-16
3.11175e-16
4.24844e-16
5.76464e-16
2.22106e-18
1.02509e-17
3.31069e-17
4.65216e-17
5.02277e-16
4.30213e-15
3.48038e-15
6.19607e-18
8.11158e-18
7.39422e-18
6.03246e-18
1.38633e-17
1.67376e-14
1.24808e-14
1.74825e-16
1.53427e-16
8.71086e-17
7.21352e-17
6.27405e-17
7.26803e-15
1.1745e-15
8.73511e-16
5.58816e-16
2.64205e-16
2.25109e-16
3.70758e-16
5.28313e-16
1.17549e-16
1.06996e-16
1.44828e-16
1.1059e-16
6.91372e-17
3.39929e-17
2.19378e-17
1.28666e-17
2.68228e-17
3.81506e-17
4.61331e-17
3.90094e-17
3.27296e-17
5.37147e-17
2.28885e-17
1.47538e-17
5.01491e-17
1.28655e-16
2.012e-16
2.96666e-16
6.28844e-16
3.89421e-16
2.43563e-18
9.77175e-18
3.09159e-17
4.94975e-17
7.24496e-17
2.77479e-15
1.62531e-15
8.85396e-18
1.08189e-17
8.90802e-18
7.89862e-18
4.73745e-18
7.44415e-15
7.9868e-15
1.37424e-16
1.38859e-16
7.19993e-17
5.08497e-17
3.71846e-17
5.32418e-15
1.73457e-15
8.49561e-16
4.95015e-16
2.11456e-16
1.69821e-16
1.94684e-16
6.90838e-16
9.87796e-17
7.47413e-17
1.23982e-16
9.68819e-17
6.86395e-17
3.61858e-17
2.91525e-17
1.4326e-17
2.49385e-17
3.12922e-17
3.45812e-17
3.03673e-17
2.26693e-17
2.57186e-17
1.8336e-17
1.114e-17
3.5253e-17
9.70052e-17
1.34955e-16
1.27672e-16
5.00651e-16
2.39736e-16
2.60801e-18
6.62344e-18
2.5147e-17
3.97861e-17
1.77275e-17
1.54123e-15
7.09038e-16
3.37867e-18
8.46933e-18
5.82224e-18
5.53809e-18
2.13406e-18
2.02561e-15
4.41193e-15
5.25906e-17
9.39158e-17
4.85524e-17
2.63377e-17
1.24936e-17
3.02774e-15
1.14068e-15
3.85137e-16
3.26699e-16
1.68568e-16
1.15204e-16
5.66434e-17
3.23421e-16
4.60914e-17
4.75562e-17
7.63651e-17
7.50629e-17
5.63026e-17
3.70404e-17
2.73354e-17
1.19628e-17
1.62533e-17
1.62045e-17
1.53942e-17
1.48594e-17
1.31407e-17
1.06704e-17
7.37649e-18
8.68103e-18
1.63702e-17
4.2084e-17
5.90359e-17
3.80655e-17
1.70606e-16
7.89225e-17
3.02253e-18
5.88275e-18
1.32293e-17
2.02344e-17
1.09865e-17
5.93648e-16
2.58435e-16
3.29109e-18
5.01158e-18
3.99301e-18
4.26952e-18
2.26524e-18
4.67101e-16
1.38546e-15
2.78929e-17
5.43117e-17
2.24076e-17
1.28467e-17
6.88474e-18
5.89327e-16
3.07768e-16
1.14224e-16
1.59708e-16
6.44531e-17
4.36275e-17
2.56334e-17
6.50223e-17
1.58834e-17
1.79544e-17
2.99938e-17
3.29844e-17
3.57073e-17
2.64561e-17
1.87957e-17
3.50676e-19
7.06206e-20
8.10181e-20
9.86871e-20
1.03625e-19
1.0697e-19
6.34177e-20
2.18469e-17
1.21528e-19
9.82017e-20
4.92511e-20
4.13099e-20
4.65065e-20
4.85152e-20
1.74189e-15
2.74291e-18
5.32247e-18
1.0135e-17
1.339e-17
2.43927e-17
3.05284e-17
3.35792e-14
1.30857e-14
4.03159e-15
2.38271e-15
1.64863e-15
1.34389e-15
9.8335e-16
2.17041e-17
4.98992e-18
6.66923e-18
8.73541e-18
1.13805e-17
1.41676e-17
2.14545e-17
7.23992e-19
1.64312e-19
1.09024e-19
9.46607e-20
1.0206e-19
1.05351e-19
7.64329e-20
1.21895e-19
1.16378e-19
1.26104e-19
1.35695e-19
1.37742e-19
1.27863e-19
8.28554e-20
5.00283e-19
3.62053e-19
4.43359e-19
4.63451e-19
4.64994e-19
3.7634e-19
2.46775e-19
1.07697e-17
2.72759e-19
2.80488e-19
3.37451e-19
3.87991e-19
4.71386e-19
5.15992e-19
6.92522e-16
2.77382e-18
5.04277e-18
7.64649e-18
1.10611e-17
2.22894e-17
3.27658e-17
3.18674e-14
1.64782e-14
8.40767e-15
3.7133e-15
2.65271e-15
2.13663e-15
1.55793e-15
1.74405e-17
4.42235e-18
6.94774e-18
9.02428e-18
1.30266e-17
1.76278e-17
2.15602e-17
1.0527e-18
9.3292e-19
1.00086e-18
1.15129e-18
1.21115e-18
1.2747e-18
9.33611e-19
6.12791e-19
6.87006e-19
7.03325e-19
6.33457e-19
5.90551e-19
3.77466e-19
3.06157e-19
1.88907e-18
1.66475e-18
1.94284e-18
2.16052e-18
2.16867e-18
1.21489e-18
8.99289e-19
1.95334e-17
1.34642e-18
1.5916e-18
1.78505e-18
2.33759e-18
2.68794e-18
3.00375e-18
9.66201e-16
2.13506e-18
4.07536e-18
6.45951e-18
9.7628e-18
1.54405e-17
2.19766e-17
2.56435e-14
1.8294e-14
1.16799e-14
5.66268e-15
4.34898e-15
3.44703e-15
2.68834e-15
3.66844e-17
2.62866e-18
4.4049e-18
7.06193e-18
8.7922e-18
1.4725e-17
2.02396e-17
5.1324e-18
5.75438e-18
7.40762e-18
9.81413e-18
1.07371e-17
1.09503e-17
6.81966e-18
2.57227e-18
3.27473e-18
3.43799e-18
3.63159e-18
3.26953e-18
1.51174e-18
8.1145e-19
5.40599e-18
3.32228e-18
3.80544e-18
5.09571e-18
6.08139e-18
3.59598e-18
1.68837e-18
3.35634e-17
1.08618e-17
5.43157e-18
7.83177e-18
1.36557e-17
1.6012e-17
1.29874e-17
1.93166e-15
2.1834e-16
3.175e-18
2.93515e-18
4.9409e-18
1.03273e-17
1.3571e-17
1.77664e-14
1.61155e-14
1.21337e-14
7.51721e-15
5.97001e-15
4.79093e-15
3.62735e-15
2.23458e-15
2.7775e-16
2.63118e-18
4.4877e-18
8.2128e-18
1.17423e-17
1.5545e-17
8.37017e-17
1.49904e-17
1.54703e-17
2.8361e-17
4.29598e-17
4.31967e-17
3.79394e-17
7.19886e-18
5.06554e-18
7.40476e-18
8.03994e-18
7.37989e-18
4.42833e-18
2.00369e-18
4.50334e-17
2.5255e-17
1.97387e-17
1.31808e-17
1.46436e-17
1.13482e-17
2.96115e-18
4.29288e-16
2.76512e-16
1.60688e-16
1.15672e-16
8.53404e-17
6.64971e-17
3.7786e-17
2.05659e-15
1.14396e-15
4.62069e-16
1.81067e-16
1.21598e-16
6.29685e-17
3.184e-17
9.31028e-15
9.37806e-15
8.34367e-15
7.29781e-15
5.84183e-15
4.64838e-15
3.11761e-15
4.12417e-15
2.55041e-15
1.32014e-15
5.30046e-16
2.69252e-16
1.57449e-16
7.75681e-17
6.08219e-16
4.42509e-16
3.2147e-16
2.29676e-16
1.71904e-16
1.12458e-16
7.7698e-17
1.9817e-17
1.97956e-17
1.93199e-17
1.53331e-17
1.24658e-17
7.73252e-18
3.10493e-18
2.3579e-17
3.40155e-17
3.03202e-17
2.44339e-17
2.36291e-17
1.80113e-17
5.51817e-18
4.81269e-16
4.36693e-16
3.51104e-16
2.76412e-16
2.12703e-16
1.69345e-16
1.39835e-16
1.50012e-15
1.26143e-15
9.54444e-16
6.94902e-16
4.65986e-16
3.46658e-16
2.17427e-16
2.60399e-15
2.77671e-15
2.59082e-15
2.40705e-15
2.09773e-15
1.95253e-15
1.85273e-15
3.04424e-15
2.67874e-15
2.19208e-15
1.62109e-15
1.11388e-15
7.51169e-16
4.89663e-16
3.33385e-16
3.31742e-16
2.95708e-16
2.61738e-16
2.03377e-16
1.69422e-16
1.23828e-16
2.41276e-17
2.01244e-17
1.82742e-17
1.5266e-17
1.36788e-17
8.97796e-18
4.89291e-18
9.59948e-18
1.32498e-17
1.47062e-17
1.35883e-17
1.11722e-17
8.19328e-18
3.88794e-18
1.71735e-16
1.76157e-16
1.62464e-16
1.37048e-16
1.18795e-16
9.4173e-17
7.52077e-17
7.09469e-16
7.19804e-16
6.64897e-16
5.93871e-16
5.09371e-16
4.06764e-16
3.79404e-16
4.98663e-16
5.83484e-16
5.2148e-16
4.46223e-16
3.88332e-16
3.88244e-16
4.23138e-16
9.5835e-16
1.09434e-15
1.04939e-15
9.97037e-16
8.84803e-16
6.76741e-16
6.12598e-16
5.87335e-17
5.55729e-17
5.40564e-17
5.55439e-17
5.23612e-17
4.48324e-17
3.18366e-17
1.61547e-17
1.48243e-17
1.15583e-17
1.0101e-17
8.89995e-18
6.14681e-18
3.93834e-18
3.07792e-21
1.03591e-20
1.0308e-20
9.21904e-21
8.26339e-21
7.24196e-21
6.56111e-21
5.53313e-21
5.70727e-21
5.01707e-21
4.68959e-21
3.74417e-21
3.828e-21
6.50012e-21
1.96827e-18
9.41468e-19
6.73202e-19
3.6173e-19
2.4627e-19
1.51731e-19
3.19592e-19
8.7524e-17
1.33369e-16
1.66456e-16
2.63118e-16
4.91098e-16
1.78617e-15
5.72587e-15
2.20828e-18
1.66551e-18
8.0782e-19
4.60622e-19
2.55086e-19
1.37821e-19
5.85941e-17
2.17037e-20
3.23336e-20
3.37958e-20
3.06755e-20
2.62788e-20
2.10997e-20
1.13575e-18
1.40349e-19
1.65379e-19
1.77952e-19
1.6412e-19
1.4442e-19
1.23653e-19
1.22117e-19
2.48543e-20
5.43339e-20
6.8006e-20
6.42943e-20
5.93625e-20
5.46287e-20
4.74296e-20
4.65029e-20
5.51088e-20
5.34574e-20
4.90272e-20
3.69055e-20
3.16056e-20
2.89449e-20
1.44846e-18
9.03424e-19
4.11889e-19
2.65292e-19
1.53828e-19
1.09152e-19
2.00208e-19
1.69485e-16
2.4167e-16
3.22917e-16
4.86466e-16
1.18373e-15
2.521e-15
5.49068e-15
3.26701e-18
2.0008e-18
7.98667e-19
4.69272e-19
2.66415e-19
1.52486e-19
5.27312e-17
2.94372e-19
2.93572e-19
2.76568e-19
2.05933e-19
1.78767e-19
1.1295e-19
1.04756e-18
4.86565e-19
9.16457e-19
9.1531e-19
8.75777e-19
8.15136e-19
6.30035e-19
5.3628e-19
8.76798e-20
1.64924e-19
1.83724e-19
1.74562e-19
1.61451e-19
1.44914e-19
1.06543e-19
1.95757e-19
3.90296e-19
3.61844e-19
3.19224e-19
2.32759e-19
1.67744e-19
1.41521e-19
9.4925e-19
5.4373e-19
2.43231e-19
1.60944e-19
9.97334e-20
7.30225e-20
4.61962e-19
2.33112e-16
4.07505e-16
5.46197e-16
7.7178e-16
1.76624e-15
3.11407e-15
4.70931e-15
2.16252e-18
1.19011e-18
7.55548e-19
4.15129e-19
1.94892e-19
2.56202e-19
2.45136e-15
2.5229e-18
2.37683e-18
2.16145e-18
1.48935e-18
1.06542e-18
7.32146e-19
3.86977e-17
1.46725e-18
2.14748e-18
3.06808e-18
2.8118e-18
2.54278e-18
1.78212e-18
2.16154e-18
1.89524e-19
4.5243e-19
4.45826e-19
3.41306e-19
4.42722e-19
1.42403e-19
5.78025e-19
9.87832e-19
1.59086e-18
1.6529e-18
1.28381e-18
5.87245e-19
2.40208e-19
6.65522e-19
4.51003e-19
3.91311e-19
2.67086e-19
1.55138e-19
1.04398e-19
2.13104e-18
5.34822e-17
3.36135e-16
5.70259e-16
7.28435e-16
1.02924e-15
1.97213e-15
2.87948e-15
3.35101e-15
1.91343e-18
1.61418e-18
9.25495e-19
4.45813e-19
1.22656e-18
8.82194e-16
6.20721e-15
9.03593e-18
1.01072e-17
9.67486e-18
6.36591e-18
4.03777e-18
2.10534e-17
2.31611e-16
2.91355e-18
5.93843e-18
7.9768e-18
6.26397e-18
3.97737e-18
3.44038e-18
1.70123e-17
4.5205e-19
1.02798e-18
1.02486e-18
1.1416e-18
2.62525e-18
6.27973e-18
7.90131e-18
2.40952e-18
4.40735e-18
6.78585e-18
9.2678e-18
1.35455e-17
1.75174e-17
1.9281e-17
5.26872e-18
8.53905e-18
1.74067e-17
3.01566e-17
6.05384e-17
1.33492e-16
2.11985e-16
3.65998e-16
5.76436e-16
7.50161e-16
1.09707e-15
1.34014e-15
1.64213e-15
1.66444e-15
1.73439e-17
7.12562e-17
2.51063e-16
6.92141e-16
1.65273e-15
3.66409e-15
6.20538e-15
2.55641e-17
6.89943e-17
8.84259e-17
1.30484e-16
2.29668e-16
6.91414e-16
1.08027e-15
5.58182e-18
1.55553e-17
1.84303e-17
2.09013e-17
4.98722e-17
1.04699e-16
1.01648e-16
9.59437e-19
1.93786e-18
2.61535e-18
4.78527e-18
6.3314e-18
9.44188e-18
1.16716e-17
4.09659e-18
6.08069e-18
9.07146e-18
1.04773e-17
1.31256e-17
1.54588e-17
1.61367e-17
2.23114e-17
3.57967e-17
4.66797e-17
6.41748e-17
9.85897e-17
1.55148e-16
1.90674e-16
2.92345e-16
3.84343e-16
4.16474e-16
4.87759e-16
5.21237e-16
6.27854e-16
6.65077e-16
3.91445e-16
7.39018e-16
1.19653e-15
1.93271e-15
2.82587e-15
3.79838e-15
4.36988e-15
2.03296e-16
2.86187e-16
3.70177e-16
4.84488e-16
6.88378e-16
9.3803e-16
1.00568e-15
1.09365e-17
2.60877e-17
3.20564e-17
3.56079e-17
4.7893e-17
5.85258e-17
4.17861e-17
1.47943e-18
2.84969e-18
3.73611e-18
4.75922e-18
6.86711e-18
7.93922e-18
8.81686e-18
2.73114e-18
3.69376e-18
4.4816e-18
5.03162e-18
5.60519e-18
6.35018e-18
6.90881e-18
2.26913e-17
2.59311e-17
3.97365e-17
4.8843e-17
5.91554e-17
7.24631e-17
7.93327e-17
1.85029e-16
1.88669e-16
1.98603e-16
2.13352e-16
2.23121e-16
2.33902e-16
2.54008e-16
6.40959e-16
8.37634e-16
1.05777e-15
1.4246e-15
1.68251e-15
1.904e-15
1.99454e-15
1.14205e-16
1.56116e-16
1.87108e-16
2.35026e-16
2.97596e-16
3.14607e-16
3.07769e-16
5.90894e-18
1.11592e-17
1.42058e-17
2.01044e-17
2.13762e-17
1.81724e-17
1.36812e-17
1.42561e-26
3.54902e-26
4.24663e-24
2.16423e-23
7.99698e-23
1.04194e-22
4.64628e-22
6.5898e-24
1.27236e-23
5.49605e-23
3.14437e-22
1.4066e-21
1.73227e-21
3.3061e-21
8.37986e-19
2.21989e-18
3.41433e-18
3.42799e-18
2.70315e-18
2.26476e-18
2.53105e-18
7.76472e-18
1.91853e-17
2.95221e-17
3.65727e-17
4.74246e-17
5.64958e-17
7.64399e-17
1.10505e-18
2.63681e-18
3.37718e-18
3.55884e-18
3.19809e-18
2.95925e-18
3.17058e-18
1.11079e-23
3.15427e-22
3.37743e-22
1.4e-21
3.02836e-21
5.12623e-21
1.13992e-20
3.74827e-26
1.95581e-23
1.76081e-22
1.45184e-21
9.49992e-21
1.7936e-20
3.00787e-20
9.36806e-27
5.98817e-26
1.20053e-23
1.04725e-22
2.4863e-22
6.10549e-22
4.92176e-21
8.07459e-24
1.80445e-23
2.34859e-22
1.49265e-21
1.18477e-20
1.35318e-20
2.396e-20
1.65692e-18
3.46895e-18
6.10079e-18
6.07906e-18
5.17912e-18
3.06292e-18
2.39998e-18
1.2628e-17
3.67493e-17
5.2935e-17
6.85486e-17
8.62696e-17
1.05847e-16
1.4954e-16
1.8485e-18
5.04425e-18
5.99847e-18
6.7833e-18
6.59059e-18
6.23384e-18
4.92962e-18
2.37598e-23
1.58015e-21
4.22266e-21
2.93361e-20
9.15173e-20
1.31642e-19
1.95797e-19
6.83566e-26
1.18313e-22
9.05467e-22
6.86946e-21
3.09346e-20
5.94918e-20
1.06918e-19
1.52451e-26
6.35218e-26
1.86924e-23
1.47041e-22
6.9805e-22
2.84815e-21
1.92268e-20
1.25453e-23
2.42841e-23
9.48193e-22
7.30952e-21
5.59959e-20
1.10044e-19
1.5024e-19
2.28601e-18
4.99165e-18
7.32612e-18
6.31726e-18
3.49658e-18
2.11125e-18
1.4978e-18
1.77455e-17
4.83414e-17
6.65384e-17
9.56078e-17
1.27674e-16
1.56531e-16
1.86224e-16
2.9152e-18
6.12709e-18
8.44187e-18
9.03231e-18
7.01726e-18
4.72669e-18
2.88548e-18
4.19482e-23
5.38782e-21
3.2255e-20
2.26953e-19
6.58374e-19
1.69211e-18
2.50295e-18
1.06718e-25
3.2268e-22
4.86715e-21
2.1967e-20
8.37337e-20
1.1855e-19
3.03686e-19
2.97617e-26
7.80699e-26
3.27469e-23
3.07761e-22
1.29033e-21
5.03963e-21
4.62769e-20
1.08334e-23
2.55047e-23
2.55119e-21
3.70554e-20
1.66543e-19
3.7563e-19
6.35446e-19
2.28664e-18
5.25055e-18
6.87047e-18
4.50952e-18
2.23634e-18
1.15614e-18
7.48735e-19
1.61447e-17
4.64301e-17
6.86988e-17
1.05756e-16
1.54693e-16
1.89014e-16
2.49801e-16
2.99185e-18
6.07397e-18
7.92046e-18
7.73822e-18
5.14707e-18
3.60858e-18
2.31873e-18
8.39199e-23
1.77949e-20
1.35656e-19
1.33495e-18
3.60768e-18
8.85804e-18
1.0071e-17
1.33049e-25
4.65772e-22
8.20607e-21
3.88444e-20
1.09719e-19
1.57403e-19
4.29266e-19
4.46328e-26
1.15755e-25
5.77903e-23
4.04272e-22
1.83288e-21
6.46589e-21
6.93446e-20
1.09288e-23
2.86289e-23
9.24896e-21
1.17334e-19
4.28496e-19
1.32566e-18
1.59711e-18
2.36165e-18
5.81303e-18
6.22767e-18
2.82667e-18
1.29473e-18
7.32709e-19
2.16466e-18
1.67908e-17
5.04829e-17
8.27061e-17
1.32711e-16
1.69121e-16
2.165e-16
3.13324e-16
3.27319e-18
6.68197e-18
7.9456e-18
4.72075e-18
3.33333e-18
3.74053e-18
5.1692e-18
1.68582e-22
3.88145e-20
6.73394e-19
4.51956e-18
1.05786e-17
3.17084e-17
4.86511e-17
1.36288e-25
6.05667e-22
1.05844e-20
4.38845e-20
1.66938e-19
2.05419e-19
5.8547e-19
5.92615e-26
1.71396e-25
7.60633e-23
5.46646e-22
3.39025e-21
8.21708e-21
1.2336e-19
1.14001e-23
3.10789e-23
2.49556e-20
1.81924e-19
7.38117e-19
1.92463e-18
2.94044e-18
2.25761e-18
5.66905e-18
5.76933e-18
2.41406e-18
1.0853e-18
3.41157e-18
9.77063e-18
1.62314e-17
5.12378e-17
8.65154e-17
1.37627e-16
1.68464e-16
2.05826e-16
2.48463e-16
3.28516e-18
6.20365e-18
7.33254e-18
3.8603e-18
4.87032e-18
3.42307e-17
1.21215e-16
2.75873e-22
6.18919e-20
2.06069e-18
1.1802e-17
3.91698e-17
8.73026e-17
1.59027e-16
1.38795e-25
7.06848e-22
1.22222e-20
6.24037e-20
2.06546e-19
2.61704e-19
7.9069e-19
6.99843e-26
2.50129e-25
1.06366e-22
7.29806e-22
4.14928e-21
9.67465e-21
1.42688e-19
1.03278e-23
3.02093e-23
3.11711e-20
1.5121e-19
8.07449e-19
1.69555e-18
2.29994e-18
2.16246e-18
5.35351e-18
4.63145e-18
2.48866e-18
5.64022e-18
1.13333e-17
1.57204e-17
2.40616e-17
6.04051e-17
1.01904e-16
1.40076e-16
1.63725e-16
1.71289e-16
1.75577e-16
3.31009e-18
6.42508e-18
1.40654e-17
4.51259e-17
1.81679e-16
3.4466e-16
5.06777e-16
3.58927e-22
6.97828e-20
2.51009e-18
1.32971e-17
4.3513e-17
6.45681e-17
8.39689e-17
1.31265e-25
7.33816e-22
1.27241e-20
6.78836e-20
2.20729e-19
2.7979e-19
8.45647e-19
2.58628e-26
2.73584e-25
1.8266e-24
1.01611e-21
4.79608e-21
1.16937e-20
4.10842e-20
8.65776e-24
2.70861e-23
3.27113e-22
6.3206e-21
9.88773e-20
5.36868e-20
4.24887e-19
1.53195e-18
1.82276e-18
1.61241e-18
1.17986e-18
2.10619e-18
3.82351e-18
3.92983e-18
1.9597e-17
4.12397e-17
4.90956e-17
5.68929e-17
6.52915e-17
6.79208e-17
6.20223e-17
2.07353e-18
1.92507e-18
4.42547e-18
1.82297e-17
6.74903e-17
1.12949e-16
1.24475e-16
5.63592e-22
6.86573e-21
8.23192e-20
8.78505e-19
4.58373e-18
4.72164e-18
5.79903e-18
1.59985e-25
4.60939e-25
6.9158e-24
7.24787e-20
2.63933e-19
3.03877e-19
5.20967e-19
4.0282e-26
4.40474e-26
9.78411e-26
6.54577e-26
1.99592e-25
1.27533e-25
3.05638e-25
1.58336e-24
2.32776e-24
2.64903e-24
2.88266e-24
5.84486e-24
8.52446e-24
1.29614e-23
3.20468e-19
5.01583e-19
5.10442e-19
4.42011e-19
6.87903e-19
1.16976e-18
1.28016e-18
7.49728e-18
1.60065e-17
1.78997e-17
1.94855e-17
2.41752e-17
2.64543e-17
3.08717e-17
4.7005e-19
5.31412e-19
1.07004e-18
5.12953e-18
2.33918e-17
3.29429e-17
3.54414e-17
2.52841e-24
3.08306e-24
9.84695e-24
4.49163e-23
1.22099e-22
1.81609e-22
2.41526e-22
8.35746e-26
4.61405e-26
1.70712e-25
8.53847e-25
1.69575e-24
1.04575e-24
9.05766e-25
2.92409e-28
1.33064e-29
9.56725e-29
2.70485e-27
2.89202e-27
1.93052e-27
3.32146e-27
7.68001e-25
8.95468e-25
8.58189e-25
9.32067e-25
1.83866e-24
3.39806e-24
5.60121e-24
1.07152e-19
1.25284e-19
1.6229e-19
1.58965e-19
2.92707e-19
5.28149e-19
8.63148e-19
3.63133e-18
7.55876e-18
8.30508e-18
8.75986e-18
1.10838e-17
1.22883e-17
1.59198e-17
2.3859e-19
1.43567e-19
3.24018e-19
1.66883e-18
7.00161e-18
1.13928e-17
1.7245e-17
1.49936e-24
1.04567e-24
1.88103e-24
9.81107e-24
3.36693e-23
5.66944e-23
9.17623e-23
5.61003e-29
6.08068e-29
1.21355e-27
4.66411e-27
1.4287e-27
1.35263e-26
8.99293e-26
3.21096e-28
1.16965e-29
1.24311e-28
1.42255e-27
1.97883e-27
3.20885e-27
5.16237e-27
6.20401e-25
7.29413e-25
3.71224e-25
4.12582e-25
8.7078e-25
1.5197e-24
2.60429e-24
1.01607e-19
1.23913e-19
7.44856e-20
7.79707e-20
1.51362e-19
2.87079e-19
4.81632e-19
1.64501e-18
3.78286e-18
4.25074e-18
4.67674e-18
5.69965e-18
6.27788e-18
6.59715e-18
1.70799e-19
1.46307e-19
1.69093e-19
8.44491e-19
2.82445e-18
5.10506e-18
7.53332e-18
7.94934e-25
8.7027e-25
8.72836e-25
4.26928e-24
1.36821e-23
2.2403e-23
3.40123e-23
2.16575e-29
5.80272e-29