/*--------------------------------*- C++ -*----------------------------------*\
  =========                 |
  \\      /  F ield         | OpenFOAM: The Open Source CFD Toolbox
   \\    /   O peration     | Website:  https://openfoam.org
    \\  /    A nd           | Version:  6
     \\/     M anipulation  |
\*---------------------------------------------------------------------------*/
FoamFile
{
    version     2.0;
    format      ascii;
    class       volScalarField;
    location    "0.005";
    object      p;
}
// * * * * * * * * * * * * * * * * * * * * * * * * * * * * * * * * * * * * * //

dimensions      [1 -1 -2 0 0 0 0];

internalField   nonuniform List<scalar> 
3773
(
41348.5
41349.9
41353.1
41354.4
41352.7
41350.1
41349
99694.1
99692
99689.1
99686.6
99687.8
99691.7
99694.8
134476
134475
134473
134472
134473
134473
134473
145952
145954
145957
145958
145957
145954
145952
134472
134472
134472
134472
134472
134474
134474
99692.5
99690.3
99686.7
99685.4
99686.9
99690.4
99692.1
41347.7
41348.9
41350.7
41352.6
41350.7
41347.7
41346.4
41345.6
41347.2
41350.7
41352
41350
41347.4
41346.2
99692.7
99690.5
99687.2
99684.8
99686.3
99690.4
99693.4
134476
134476
134474
134473
134473
134474
134474
145953
145955
145958
145959
145958
145955
145953
134473
134473
134472
134472
134473
134475
134475
99691.1
99688.8
99685.1
99683.6
99685.2
99688.8
99690.8
41344.9
41346.2
41348
41350.1
41348.4
41344.9
41343.6
41340.2
41342.4
41346.2
41347.5
41345.3
41342.5
41341.2
99690.1
99687.6
99684.2
99681.9
99683.7
99687.8
99690.9
134478
134477
134476
134474
134475
134475
134475
145955
145957
145960
145961
145960
145957
145955
134475
134474
134474
134474
134475
134476
134477
99688.4
99686.2
99682.3
99680.6
99682.3
99686
99688.3
41339.7
41341.4
41343.3
41345.5
41344.1
41340.1
41338.6
41333.8
41336.5
41340.5
41341.8
41339.6
41336.6
41335.3
99686.8
99684.5
99681
99678.8
99680.7
99684.7
99687.6
134480
134479
134477
134476
134476
134477
134477
145957
145959
145962
145963
145962
145959
145957
134476
134476
134475
134475
134476
134478
134478
99685.1
99683
99679.3
99677.6
99679.4
99682.7
99685
41333.7
41335.6
41337.7
41339.9
41338.6
41334.5
41332.7
41327.3
41330.3
41334.6
41336
41333.9
41330.7
41329.4
99683.5
99681.4
99678.2
99676.1
99677.7
99681.5
99684.3
134482
134481
134479
134478
134478
134479
134478
145960
145962
145965
145966
145965
145962
145960
134478
134478
134477
134477
134478
134479
134480
99681.6
99679.9
99676.4
99674.7
99676.6
99679.4
99681.5
41327.6
41329.7
41332
41334.1
41332.8
41329
41326.9
41322.2
41325.3
41329.7
41331.2
41329.2
41325.9
41324.7
99680.7
99678.9
99675.9
99673.8
99675.1
99678.8
99681.6
134483
134482
134480
134479
134479
134480
134480
145962
145964
145967
145968
145967
145964
145962
134479
134479
134478
134478
134479
134481
134482
99678.7
99677.3
99673.8
99672.2
99674
99676.6
99678.6
41322.7
41325
41327
41329.5
41328.1
41324.6
41322.3
41319.4
41322.4
41327
41328.6
41326.4
41323.3
41322.2
99679.2
99677.5
99674.6
99672.5
99673.7
99677.3
99680.1
134484
134483
134481
134480
134480
134481
134480
145963
145965
145968
145969
145968
145965
145963
134480
134480
134479
134479
134480
134482
134482
99677
99675.8
99672.4
99670.6
99672.5
99675
99677
41320
41322.4
41324.1
41326.9
41325.3
41321.8
41319.7
63366.7
63474.9
63688.2
63810.4
63668
63429
63318.4
150640
150697
150796
150832
150747
150611
150532
201729
201705
201687
201660
201631
201599
201589
218410
218365
218314
218271
218249
218242
218254
201463
201474
201486
201474
201419
201345
201307
150230
150345
150498
150556
150431
150220
150077
63090.1
63239.9
63508.8
63646.5
63460
63161.4
62993.2
63176.6
63369.6
63778.9
63997
63867.2
63460.1
63271.4
150039
150140
150265
150361
150355
150257
150165
200915
200916
200924
200930
200940
200958
200983
217634
217582
217543
217516
217508
217544
217602
200965
200948
200918
200868
200821
200817
200822
150113
150208
150292
150262
150146
149995
149901
63246.3
63428.6
63827.6
63963.7
63718
63266
63107.4
62680.4
62801.6
63022.3
63231.8
63169.9
62976.4
62881
149060
149078
148879
148947
149092
149263
149321
199823
199833
199779
199791
199861
199945
199996
216616
216588
216581
216578
216580
216631
216660
200211
200157
200093
200023
200046
200100
200130
149650
149568
149413
149332
149365
149414
149529
63093.4
63129.6
63362.9
63482.1
63258.3
63007.5
63012.3
62178.4
62045.7
62065.7
62010.3
62011.7
62247.7
62215.6
148127
147964
147553
147529
147601
147951
148198
198778
198733
198612
198614
198693
198794
198843
215539
215527
215532
215509
215567
215628
215623
199240
199148
199048
199031
199163
199218
199391
148753
148495
148278
148404
148399
148612
148971
62486.1
62403.2
62363.3
62412.4
62252.5
62524.9
62628.1
61567.4
61516.3
61373.9
61338.9
61322.3
61441.2
61564.2
147077
146955
146963
146888
146680
146687
146863
197541
197483
197448
197381
197332
197323
197370
214144
214095
214081
214048
214070
214072
214125
197759
197714
197732
197748
197795
197849
197913
147361
147296
147452
147577
147605
147547
147689
61752.6
61631
61569.1
61628.8
61739.3
61795
61997.6
60984.7
60827.2
60684.9
60717.8
60635.3
60594.5
60835.9
145725
145662
145668
145459
145304
145270
145404
195734
195690
195592
195490
195446
195448
195492
212032
211995
211953
211896
211950
211987
212088
195569
195540
195479
195495
195628
195758
195858
145467
145377
145479
145590
145698
145848
145890
60817.3
60618.8
60599.2
60834.7
60876.2
61049.6
61147.1
60256.4
60004.2
60005.3
60230.5
59891.8
59786.8
60088.3
144166
143830
143532
143519
143340
143438
143835
193622
193525
193322
193283
193309
193421
193481
209709
209704
209661
209670
209744
209822
209814
193327
193183
193059
193068
193221
193512
193695
143653
143166
142858
143201
143181
143775
144214
60083.9
59633.1
59746.3
60137.9
59876
60022.7
60294.1
58836.8
58822.5
59137.8
59435.1
59033.2
58845.4
58992.8
141652
141623
141510
141944
141841
141834
142050
190939
191058
191027
191138
191220
191303
191379
207269
207347
207374
207395
207446
207460
207384
191238
191183
191078
191035
191016
191138
191116
142004
141820
141832
142117
141386
141592
141797
59258
59199.1
59564.5
59692.2
59004.6
58771.7
58870
58081.7
58059.3
58321.9
58822.6
58476.2
58389.4
58628.1
140229
140225
140255
140841
141215
141055
141215
189457
189556
189692
189887
190089
190106
190068
205814
205880
206016
206033
206025
205937
205797
190080
190026
190047
189979
189822
189682
189633
141314
141031
141190
141031
140513
140410
140563
58956.2
58707.6
58895.2
58661.2
58071.7
58057.7
58257.3
57603.4
57454.3
57764.8
58401.9
58347.9
58325
58473.2
139077
139031
139204
139877
140485
140535
140575
187944
188140
188505
188735
188924
188891
188765
204237
204270
204529
204630
204548
204336
204222
188788
188731
188845
188844
188624
188238
188134
140401
140122
140318
140167
139497
139211
139338
58426.4
58168.1
58539.8
58343.6
57690
57608.9
57717
57211.4
56968.7
57405.6
58198.3
58106.4
58335.5
58362.3
138054
137946
137974
138277
139275
140242
140097
186484
186593
186857
187015
187236
187572
187665
202690
202612
202752
202796
202747
202703
202717
187536
187396
187110
186949
186723
186580
186597
139618
139653
139063
138391
137687
137851
138031
58033
57864
58016.2
57877.4
57185.9
57040.3
57123.4
56907.6
56864.8
57281.3
57865.6
57809.3
58292.6
58387.4
137171
137053
136749
136906
138269
139923
139908
185249
185073
185016
185314
185738
186450
186762
201424
201269
201172
201122
201192
201329
201427
186755
186509
185612
185035
184744
185056
185299
139521
139840
138288
136603
136146
136729
137051
58084.4
58086.8
57659.2
57393
57095
56636.8
56720.4
56517.3
56677.7
57381.6
57705.7
57546.2
58089.9
58335.7
136435
136326
136175
136613
137971
139302
139616
184556
184301
184014
184386
185035
185587
185977
200698
200543
200308
200171
200306
200458
200562
186019
185754
185062
184361
184046
184364
184639
139197
139397
138213
136620
136023
136305
136655
57962.3
58016.4
57873.2
58040.9
57448.1
56221
56507.2
56139.7
57866.5
60644.1
60154.6
58319.6
57879.9
57923
136113
136846
138016
138302
137396
137793
138498
184689
184481
184220
184350
184528
184753
184864
200087
200160
199974
199878
199877
200022
200111
184596
184598
184805
184747
184245
184470
184949
138262
137794
138332
139084
138012
137233
136886
57818.9
57792.9
58558.7
60982.9
61047.4
58118.5
56726.9
59810.8
59700.2
60055.6
61151
60122.9
59658.2
59711.4
143137
143081
142620
143360
142656
142860
143093
192499
192482
192394
192463
192460
192571
192640
208702
208730
208776
208792
208867
208906
208856
192493
192368
192292
192326
192311
192533
192683
142953
142516
142290
143373
142113
142996
143246
59840.5
59588.7
60275.1
61108.6
59734.1
59722.5
59871.3
59753.6
59646.9
60066.8
61272.5
60140.1
59608.1
59664.6
143011
142992
142543
143303
142589
142785
143002
192375
192369
192300
192362
192354
192472
192549
208600
208624
208668
208682
208755
208803
208760
192400
192270
192191
192231
192202
192418
192568
142864
142438
142244
143374
142024
142904
143123
59809.8
59573.9
60342.3
61222.8
59742
59680.8
59816.3
59701.7
59599.6
60090.1
61411.3
60166.2
59554.2
59626.9
142897
142903
142498
143242
142538
142684
142924
192253
192261
192214
192271
192259
192377
192457
208498
208520
208561
208576
208644
208700
208662
192300
192176
192100
192141
192109
192308
192451
142781
142359
142244
143373
141973
142814
143012
59787.6
59539.7
60406.4
61324.8
59771.3
59644.9
59764.4
59660
59567.5
60136.9
61572.2
60215.8
59533.2
59599.6
142795
142822
142457
143183
142497
142572
142852
192126
192154
192127
192186
192168
192283
192358
208386
208412
208454
208480
208534
208590
208556
192193
192087
192019
192064
192026
192205
192327
142710
142278
142266
143359
141935
142737
142910
59769.5
59503.5
60484
61448.1
59806.7
59613.4
59718.6
59613.8
59550.7
60200.2
61778.8
60301.9
59547.3
59562
142688
142750
142389
143131
142452
142502
142774
192001
192051
192035
192097
192080
192190
192260
208275
208308
208346
208386
208425
208483
208451
192091
192001
191939
191978
191940
192105
192204
142639
142218
142290
143307
141890
142663
142802
59746.4
59493.4
60598.2
61656.5
59837.2
59587.1
59671.4
59548.9
59525.3
60229.5
61853.8
60341.2
59554.8
59509.2
142579
142664
142297
143107
142406
142459
142696
191876
191942
191927
192001
191989
192091
192159
208168
208209
208242
208289
208321
208380
208344
191994
191909
191851
191883
191844
191998
192081
142567
142192
142300
143280
141803
142579
142690
59701.8
59507.2
60660.5
61775.1
59851.4
59542.4
59612
59472.3
59456.8
60135.4
61622
60220.8
59498.9
59451.7
142471
142551
142190
143056
142341
142397
142622
191755
191832
191821
191903
191898
191993
192060
208062
208109
208145
208192
208224
208273
208232
191899
191818
191761
191786
191747
191890
191959
142500
142160
142263
143234
141711
142475
142583
59646.8
59502.1
60572.8
61584.5
59821.3
59454
59537.1
61936.5
63916.4
64810.9
62828.8
58956.5
57684.8
57436.7
139844
141332
143095
142548
138461
136697
137343
185280
185193
184894
184909
184054
183830
183318
199027
199927
199533
199605
199458
199788
199346
183836
183930
185017
186268
185201
185160
185805
137492
137660
141349
145648
143778
140815
138769
57290.9
57946.8
60550.5
64960.9
67772.1
63387.8
59393.7
63120.5
65502.7
64751.5
62018.3
58992.6
57542.9
56817.5
140660
142754
144846
143199
138505
136620
136259
185372
185517
185281
184968
183933
183651
182999
199000
199788
199333
199462
199281
199658
199370
183521
183686
185025
186676
185577
185369
185790
136621
137706
142071
146450
145481
141914
139246
56725.5
57950.1
60811.2
64767.8
67990.3
64488.2
59683.9
62884.9
65692.4
64145.6
61185.2
58808.7
57333.1
56179.9
140863
143208
145006
143400
138498
136722
135371
185374
185907
185597
184903
183825
183667
182979
199103
199567
199151
199306
199118
199474
199517
183225
183498
184908
186751
185934
185584
185667
135682
137620
142114
146307
145631
142251
139406
56128.9
57790
60519.8
64007.8
67158.2
64257.6
59612.7
62128.8
65161.6
63220.8
60690.6
58641.3
57155.9
55847.5
140553
143171
144526
142605
138178
136735
134984
185433
186221
185833
184937
183762
183772
183146
199272
199400
199049
199248
199040
199349
199697
182986
183347
184767
186766
186289
185777
185717
135020
137254
141234
145700
145069
142260
139502
55879.1
57630.7
60172.5
63119.7
66057.4
63706.2
59593.6
61637.3
64946.8
63024
60581
58608.1
57122
55779
140304
143354
144620
141988
138166
136840
135197
185554
186443
186037
185196
183941
183861
183418
199528
199327
199049
199277
199056
199313
199937
182886
183226
184846
186945
186576
185936
185888
134872
137043
140808
145327
144826
142434
139619
55887.9
57573.9
59972.7
62581.3
65442.1
63654.2
59669.3
61638.5
64971.9
63312.1
60717
58683.9
57089.4
55695.7
140321
143839
145068
142131
138402
136952
135449
185691
186660
186253
185501
184215
183966
183839
199792
199363
199124
199366
199139
199358
200159
183028
183189
185058
187200
186768
186066
185942
134738
136984
140992
145241
144968
142823
139751
55876.7
57559.7
59894.3
62565.8
65537.2
64059.8
59900.5
61880.3
65336.5
63679.4
60919.1
58769.3
57092.5
55638
140325
144246
145474
142515
138862
137155
135605
185762
186949
186525
185755
184512
184190
184224
199984
199457
199266
199485
199282
199446
200323
183153
183355
185329
187419
186973
186282
185914
134654
137147
141465
145501
145439
143179
139794
55855.8
57594.8
59973.3
62921.3
66127.7
64594.3
60105.7
57493.9
57035.8
57144.6
58530.3
62438.9
69499.8
79044.8
136286
135101
134595
134806
136351
139802
144869
181280
180440
179022
177490
176054
174771
173674
195332
194179
192480
190221
187471
184723
182423
184452
182751
180739
178929
177654
176536
175587
138370
137850
137501
137909
139956
143466
148371
60079.2
59806.5
59696.1
61006.7
64885.9
71800.3
81258
56562
56190.9
56199.7
57152.3
60040.1
65745.8
74401.9
135058
134217
133553
133673
135046
137777
141852
181475
180352
178891
177348
175924
174622
173299
196413
194695
192741
190485
187920
185195
182663
184172
182601
180680
178916
177593
176520
175531
137958
137113
136519
136871
138639
141660
145964
58769.3
58347.4
58367.4
59541.6
62536.2
67999.1
76277.6
55668.1
55426
55444.6
55997.2
57568.1
60876.3
67257.8
133976
133341
132648
132602
133447
135022
137643
181324
180193
178715
177173
175810
174492
173085
197125
195310
193242
190976
188461
185828
183222
183914
182384
180590
178841
177462
176477
175541
137444
136467
135771
135800
136927
139180
142464
58044.9
57526.9
57582.9
58392.4
60355.4
63636.7
69287.8
55478.1
55358.9
55339.8
55586.5
56334.3
57856.4
61398.3
133612
132978
132440
132240
132428
133142
134537
181235
179965
178513
177030
175662
174403
173122
197703
195967
193870
191597
189045
186446
183771
183697
182140
180426
178797
177466
176574
175719
137415
136366
135627
135455
136158
137800
140160
58040.5
57592.6
57688
58242
59562.9
61625.4
64716.4
55522.3
55466.8
55487.9
55586.7
55978.1
56915.8
58631.9
133882
133234
132660
132229
132102
132466
133378
181531
180044
178555
177044
175558
174273
173138
198219
196599
194533
192246
189584
186642
183682
183815
182189
180533
179087
177764
176711
175897
137573
136557
135924
135792
136301
137518
139423
58351.2
58055.8
58113.1
58575.2
59676
61433.2
63332.2
55569
55565.6
55614.2
55748.3
56139.6
57026.1
58037.8
134198
133519
132909
132375
132020
132151
132781
182050
180620
179039
177338
175606
173955
172469
198664
197154
195162
192810
189964
186246
182072
184056
182500
180950
179577
178135
176675
175281
137787
136849
136269
136194
136665
137725
139101
58778.5
58658
58791.8
59272.1
60425.1
62214.7
63900.8
55654.4
55829.7
55988
56209.9
56653.9
57318.5
58071.2
134488
133769
133107
132572
132234
132198
132348
182518
181175
179524
177795
175884
173933
171154
198917
197466
195483
193213
190064
185979
179658
184183
182793
181215
179876
178446
176695
173793
137999
137202
136657
136682
137290
138336
139117
59094.8
59123
59526.6
60231.1
61529.9
63113.4
64508.6
80711.5
72175.1
65532.8
62204.3
61287.2
61778.9
62548
150188
145572
141983
139843
139351
139637
140138
177655
178406
179062
179658
180756
182187
183671
182860
185237
187885
190343
192275
193781
194939
171965
173571
175715
177953
179928
181532
182638
141132
136539
134064
133676
134273
135236
136462
77261.8
67775.7
61269
57777.1
56582.3
56691.1
57293.3
76449.8
68666.5
63415.8
60807.9
59979.8
60320
61283.3
147505
143492
140464
138641
138168
138591
139425
177301
178076
178754
179505
180635
182053
183461
183112
185618
188216
190530
192498
194233
195882
171858
173600
175688
177808
179676
181203
182234
138973
135103
133170
132802
133451
134455
135500
72920.4
64184.5
58836.4
56382.3
55649.3
55794.6
56279.9
70388.2
64574.5
61417.6
59820.1
59269.2
59439.8
60334.9
143896
140832
138664
137579
137454
137996
138951
176979
177712
178394
179291
180480
181913
183395
183569
186129
188624
190924
192921
194780
196549
171961
173745
175658
177561
179306
180710
181742
135726
133083
131932
131789
132361
133319
134244
66337.3
59623.6
56514.1
55302.5
54970.2
55052.5
55363.4
65811.5
62430.8
60560.5
59606
59188.2
59099.6
59839.3
141205
138998
137601
137088
137237
137867
138800
176725
177348
178077
179084
180241
181627
183173
183928
186542
189048
191419
193442
195377
197101
172217
173895
175575
177297
178888
180211
181332
133204
131791
131180
131170
131679
132509
133417
61051
57103
55663.4
55022.5
54904.1
55004.3
55237.8
64181.7
61806.9
60367.6
59781.2
59505.4
59359
59832.6
139525
137994
137226
137055
137405
137989
138775
176344
176897
177894
179127
180374
181699
183226
183692
186475
189323
191887
194003
195949
197602
172413
173915
175463
177113
178594
179988
181247
132507
131389
130813
130889
131477
132352
133285
58749.8
56607.8
55518.1
54987.4
54893.2
55002.4
55240.2
64381.4
62116.5
60613.9
60137.5
60051.7
59946.2
60202.9
138188
137018
136790
137102
137627
138202
138910
175070
176241
177737
179312
180732
182150
183610
182130
185983
189481
192243
194537
196446
198021
171908
173594
175410
177137
178688
180133
181408
132154
131127
130524
130709
131334
132193
133116
58492.2
56941.3
55608
54952.3
54826
54959.8
55223.9
64517.6
62746.8
61325.4
60688.7
60522.3
60450.5
60575.3
137505
137156
137066
137384
137877
138440
139080
173151
175916
177850
179554
181032
182527
183826
179726
185653
189542
192394
194770
196722
198265
170696
173561
175545
177346
178886
180391
181656
131850
131162
130639
130696
131285
132186
133109
58784.2
57443.5
56073.2
55229.4
55012.9
55041.9
55261.6
98733.4
101202
101330
99915
97105.4
93038.3
87981.2
167771
168299
167885
165781
162612
158779
154862
181526
180743
179576
178402
177544
177210
177300
186327
184905
182859
181138
180336
180434
181293
177939
176797
174470
172448
171288
170988
171257
171438
167694
161640
156873
153069
149488
145706
101588
98555.9
95572.9
93911
91736.6
88386.6
84051.1
96387.2
97358
98190.9
97205.7
94357.8
90136.7
84370.7
165916
165163
164412
162353
159197
155615
151827
180392
179334
178242
177325
176662
176516
176748
186070
184459
182279
180564
179789
180094
181281
176244
174964
173067
171535
170601
170441
170871
166637
163087
158393
154545
150880
147274
143443
97306.1
95393.5
94058.1
92524.3
89730.8
85950.5
80706.2
95334
94846.7
93838.9
92277.4
89543.3
85106.1
78393.8
165287
162957
160448
157741
154566
151153
147537
178783
177689
176601
175830
175546
175799
176304
185428
183484
181203
179590
179013
179671
181283
174034
172870
171550
170429
169794
169914
170676
160165
157498
154193
150903
147272
143562
139753
91677.1
91314
90890
89344
86142.2
81635.9
75168.9
92674.8
90962
88611.5
86259.2
83074.8
78764.8
72221.9
162515
158977
155417
152824
149996
146963
143907
176585
175615
174632
174162
174529
175347
176080
184101
182155
179835
178305
178097
179276
181379
171499
170632
169684
169006
168943
169691
170807
154123
152041
149407
146451
142891
139466
136089
86461.2
86450.5
86079.9
84154.6
80706.4
75944
69244.5
87888.8
86017.1
83403.9
80968.8
77577.4
73374.7
68402.6
156434
153369
150380
148543
146381
144093
141709
173660
172833
172147
172281
173486
174758
175690
182550
180586
178142
176787
177236
178917
181159
168929
168335
167619
167374
168062
169470
170941
148977
147364
145040
142363
139132
136509
134319
82080.7
81686.3
80639.2
78239.2
74619.4
70331.5
64806.7
81892.9
81285.2
79433.2
77604.4
74471.2
71024.9
67409.2
149723
147868
146024
145491
143991
142210
139949
170457
169598
169254
169987
171905
173397
174246
180804
179003
176356
174852
175152
176616
178796
166180
165879
165408
165707
167109
168981
170502
144437
143013
141267
139213
136899
134872
133275
78390.1
76477.2
74164.1
71755.8
68759.7
65673.7
62098.3
75988
76964.3
75749.9
74607
71943.2
69810.6
66635.9
143108
142916
141774
142418
141223
140342
137483
167067
166170
166301
167615
169256
169316
169194
178899
177050
174202
172118
171036
170798
172505
163233
163085
163131
163940
165226
165920
166463
140398
138597
137443
136406
135332
133727
132135
74633.7
71024
68108.2
66426.7
64079.1
62486.4
60464.8
59243.9
59281.5
59530.9
58842.1
58671.3
58435
58737.9
127514
127102
126373
125505
124711
124037
123069
155089
154613
153923
152868
150936
148005
144666
164982
163291
160718
157797
154433
150294
145465
153298
152712
151995
150927
149043
146286
143216
124021
123689
123631
123504
123266
122770
122359
55496.9
55882.7
56250.2
56664.7
56247.7
56216.2
56587.4
46343.1
46102.2
46044.7
46140.6
46408.1
46601.4
46945.8
106998
107076
107241
107497
107853
107888
108061
136368
136328
136292
136340
136432
136483
136336
145845
145418
144763
144142
143594
143181
142614
136032
135815
135637
135447
135197
134900
134675
105542
105681
105791
105806
105817
105755
105722
45071.4
45320.8
45396.4
45516.2
45786.7
45951.6
46023.5
40298.9
40409.8
40539.3
40609.1
40678.6
40739.3
40779.6
93002
93275
93662.2
94046.9
94385.1
94661.6
94833.5
122736
122867
123190
123744
124376
124828
124962
132484
132468
132634
133052
133618
134147
134346
122446
122531
122753
123168
123633
123963
124081
92564.2
92807.6
93104.6
93376.1
93584.2
93731.4
93842.2
40113.4
40087.5
40172
40223.7
40299.1
40337.6
40339.5
38335.1
38313.9
38241.8
38182.7
38185
38200.7
38193.3
87122.6
87106.4
87148.2
87210.5
87289.8
87352.4
87407
115013
114981
115051
115250
115464
115609
115587
124339
124244
124253
124444
124670
124783
124782
114804
114773
114784
114861
114995
115098
115153
86561.9
86566.1
86583.9
86609.2
86663
86730.2
86783.1
38028.1
38019.4
37971.7
37980.2
37963.3
37936.9
37887.7
37691.5
37695.3
37726.2
37807.1
37814.3
37818.3
37843.1
85661.4
85623.1
85588.3
85562.4
85577.2
85583.3
85589.9
112039
111933
111848
111767
111729
111729
111674
120371
120137
119863
119719
119662
119538
119261
111746
111661
111539
111491
111484
111471
111407
85245.6
85245.8
85249.4
85232.3
85236.3
85238.4
85231.1
37442.7
37455.1
37512
37555.1
37557.7
37577.2
37634.7
39122.4
39153.7
39238.8
39366.2
39376.6
39385.5
39417
86897
86885.7
86889.4
86919.8
86967.8
86981.3
87011.8
110407
110356
110382
110410
110400
110435
110420
117387
117215
117039
116855
116791
116837
116489
110259
110238
110227
110246
110238
110243
110224
86725.9
86733.3
86758.4
86766.6
86771.8
86772.7
86776.6
39054.4
39114.5
39209.5
39267.8
39243.6
39276.1
39376.1
49298.1
49299
49279.4
49234.4
49223
49221.5
49198
86603
86639.7
86703.2
86781.9
86832
86846.6
86877.3
106071
106081
106169
106278
106313
106349
106372
112211
112086
112037
111909
111826
112015
111664
106049
106076
106140
106186
106163
106170
106188
86579
86612.2
86667.4
86695.9
86691
86706.4
86738.3
49330.4
49316.8
49286.4
49271.3
49275.1
49270
49247
86857.1
92486.5
97294.3
100898
102813
102702
100153
150387
155277
160000
164025
166576
167229
166556
173173
173112
173782
175218
176900
178417
179390
181033
180195
180138
181059
182846
184945
186395
175217
175196
175665
176684
178197
179878
180885
153413
157468
161602
165742
169703
173661
176742
89060.4
93872.8
97633.3
100951
103554
105576
107913
82489.8
88342.3
93072.8
96591.8
98053.1
97183.7
96376.3
146711
151139
155474
159391
162153
163347
164074
172397
172233
172727
173874
175317
176750
178034
180993
179934
179696
180533
182256
184494
186150
174979
174797
175037
175871
177217
178636
179580
150683
154646
158404
162383
166119
169176
171385
84490.7
90261.9
94106.7
97351.8
100297
101827
102911
75480.6
81810.8
86523.2
89919.2
91853.1
93023.5
93632.7
141435
145294
149175
153060
156623
159760
162319
171944
171348
171318
172038
173313
174781
176108
181063
179543
178932
179565
181197
183529
185496
174773
174291
174105
174540
175547
176587
177290
146480
150401
153874
157084
160431
162989
163885
77381.9
84355.5
88747.9
91728.5
94482.9
95871.8
95824.5
68220.6
74661.5
79199.6
82869.5
85604.8
88632.9
90046.3
137037
140021
143366
146985
150468
154695
158412
171911
170822
169927
169972
170969
172389
173532
181194
179080
177916
178132
179766
182193
184119
174844
174002
173197
172863
173241
173911
174326
143104
146602
149853
151991
154237
156066
156523
70985.8
77983.5
83037.7
86042.7
88086.4
89154.8
89194.2
63303
68855.5
73571.1
77572.7
80601.4
82527.4
84903.7
134794
136829
139430
142402
145013
148554
152066
171841
170377
168795
167854
168158
169222
170091
180958
178470
176657
176344
177836
180431
182459
174908
173673
172272
171016
170598
170936
171113
141537
143996
146737
148326
149421
150551
150921
67521
73358.9
77975.2
80792.8
82851.3
84293
85027.5
61642.1
66327.3
70393.1
74150.7
76883.7
78787.3
79632.1
133817
135845
137436
138980
140476
142717
145041
171122
169687
167646
165722
165143
165605
166603
178537
175987
174416
174264
175859
178571
180465
173992
172657
170887
168967
167859
167827
167887
140626
142833
144827
145730
146086
146691
147225
66774.5
70796.4
73856.4
76123.8
79045.8
81497.1
83349.9
60472.3
64691.7
67756.5
70850.3
72967.3
74653.9
73502.9
132331
134710
135005
135584
136049
137651
138415
166733
166403
165614
163524
162190
162083
163121
172046
170116
170404
171342
173460
176405
178293
169316
168912
168501
166725
165147
164817
164999
139281
142004
142386
142383
142384
142729
143638
66324.6
69157.9
69891
71520.2
74522.5
77559.5
80490.4
53457.3
53423.6
53883.3
53956.6
54540.6
54630.8
54712.7
119071
119551
119803
120160
120685
121218
121604
142288
145546
148084
149547
150302
150866
151286
143608
148674
153012
156532
159466
162009
163657
144258
147577
150324
152187
153292
154052
154694
124785
125287
125189
125105
125209
125461
125743
57547.5
56887.9
56795.2
56486.7
56377.1
56359.7
56356.8
45503.8
45213.2
44958.3
44593.6
44351.2
44269.3
44398.6
104477
104292
104180
103934
103711
103539
103392
133419
133563
133515
133388
133310
133360
133475
141007
141616
141992
142439
143016
143696
144204
134565
134850
134902
134959
135083
135301
135514
106584
106432
106544
106556
106482
106431
106426
46927
46643.5
46463.7
46301.1
46066.4
45899.1
45662.1
39647.2
39641.2
39603.7
39559.1
39536.1
39444.8
39365.4
92710.5
92592.7
92402.9
92168.4
91905.4
91627.2
91413.5
123522
123407
122951
122349
121856
121558
121443
133875
133789
133126
132540
132136
131913
131862
124178
124045
123750
123339
122943
122700
122607
93990.4
93804.7
93543.6
93279
92989.7
92685.7
92477.6
40220.2
40149.9
40062.8
40030.1
39982.3
39958.3
39966.9
37927.2
37893.6
37872.5
37883.1
37877.2
37925.9
37961.6
86742.7
86708
86651.6
86573.2
86511.7
86468.7
86476.6
115136
115130
114961
114773
114635
114588
114613
124761
124653
124625
124473
124291
124324
124481
115483
115509
115350
115193
115068
115004
114995
86937.2
86902.5
86843.9
86760.6
86716.2
86704.9
86711.6
37859.7
37877.2
37899.8
37946.5
38088.1
38093.6
38074.6
37500.4
37495.3
37507.2
37542
37512.9
37507.1
37497
85353.7
85365.6
85356.4
85339.6
85352.6
85353.9
85359.9
111584
111693
111707
111714
111767
111854
111960
119441
119689
119828
119883
120041
120329
120544
111550
111615
111637
111713
111806
111888
111982
85287
85273.2
85260
85269.6
85275
85290.6
85313.9
37635.4
37616.7
37629.7
37559.8
37510
37487.9
37490.2
39207.6
39189.2
39205.6
39254.9
39178
39118.3
39087.1
86878.2
86855.3
86830.9
86792.9
86759.6
86722.5
86703.2
110315
110356
110342
110349
110327
110305
110350
116449
116798
116779
116849
117044
117254
117452
110206
110229
110215
110236
110229
110224
110268
86827.1
86786.9
86763.4
86746.1
86713.9
86710.5
86722.9
39367
39338
39338.5
39232.3
39128.3
39081.2
39069.9
49328.7
49347.4
49341.7
49320.4
49337.6
49350.6
49355.9
86791.2
86743.3
86709.6
86683.7
86614.8
86559
86523.1
106168
106145
106101
106089
106004
105930
105923
111465
111819
111643
111733
111880
111955
112104
106223
106209
106183
106148
106057
105995
105987
86846.3
86814.2
86796
86750.8
86670.6
86613
86581
49275.8
49300.4
49304
49330.1
49346.3
49343.9
49330.2
)
;

boundaryField
{
    fuel
    {
        type            zeroGradient;
    }
    primary_air
    {
        type            zeroGradient;
    }
    Secondary_air_RHS
    {
        type            zeroGradient;
    }
    Secondary_air_LHS
    {
        type            zeroGradient;
    }
    outlet
    {
        type            totalPressure;
        rho             rho;
        psi             none;
        gamma           1;
        p0              uniform 100000;
        value           nonuniform List<scalar> 
98
(
44818.1
75460.1
100000
100000
100000
75485.7
44747.5
44709.7
75497
100000
100000
100000
75588.2
44704.4
44712.2
75449.4
100000
100000
100000
75413.9
44524.9
44556.3
75335
100000
100000
100000
75459.4
44667.2
44679
75337.1
100000
100000
100000
75425.2
44651.3
44669.4
75335.5
100000
100000
100000
75370.4
44627.2
44682.6
75237.3
100000
100000
100000
75284.3
44752.4
44759.7
75320.2
100000
100000
100000
75286
44624.4
44654.5
75427.6
100000
100000
100000
75381
44623.3
44674.6
75549
100000
100000
100000
75317.8
44725.1
44532.9
75447
100000
100000
100000
75333.3
44563.5
44757.3
75455.5
100000
100000
100000
75422.7
44656.7
44749.9
75668.2
100000
100000
100000
75514.2
44679.5
44746.4
75584.3
100000
100000
100000
75439.3
44548.5
)
;
    }
    stove_body
    {
        type            zeroGradient;
    }
    frontAndBack
    {
        type            empty;
    }
}


// ************************************************************************* //
