/*--------------------------------*- C++ -*----------------------------------*\
  =========                 |
  \\      /  F ield         | OpenFOAM: The Open Source CFD Toolbox
   \\    /   O peration     | Website:  https://openfoam.org
    \\  /    A nd           | Version:  6
     \\/     M anipulation  |
\*---------------------------------------------------------------------------*/
FoamFile
{
    version     2.0;
    format      ascii;
    class       surfaceScalarField;
    location    "0.005";
    object      phi;
}
// * * * * * * * * * * * * * * * * * * * * * * * * * * * * * * * * * * * * * //

dimensions      [1 0 -1 0 0 0 0];

internalField   nonuniform List<scalar> 
10143
(
-1.66616e-07
-2.33255e-05
3.39643e-05
-1.75361e-07
-2.18219e-05
3.19732e-05
9.62455e-07
-2.17793e-05
3.08469e-05
1.46961e-06
-2.19577e-05
3.13017e-05
1.13244e-06
-2.22401e-05
3.24553e-05
4.01402e-07
-2.27785e-05
3.38155e-05
-2.39823e-05
3.4991e-05
8.93451e-07
-1.271e-05
5.77123e-07
1.36147e-06
-1.29625e-05
2.49039e-06
-1.63527e-07
-1.34899e-05
4.91501e-06
-1.26386e-06
-1.30777e-05
3.72331e-06
-9.02482e-07
-1.27505e-05
1.74862e-06
-8.0909e-07
-1.29087e-05
1.74227e-06
-1.24937e-05
-4.02001e-07
1.86172e-07
-7.2025e-06
8.66579e-06
5.91123e-07
-7.46633e-06
8.52078e-06
-5.88493e-07
-8.01298e-06
1.03349e-05
-1.7018e-07
-7.71094e-06
8.97307e-06
8.00064e-07
-7.59084e-06
8.55562e-06
-3.28182e-07
-7.94477e-06
1.05994e-05
-7.108e-06
8.55012e-06
-1.73777e-07
7.12385e-06
5.67654e-06
4.47564e-07
7.3519e-06
4.33466e-06
5.88665e-07
7.8312e-06
3.80092e-06
-4.43754e-07
7.68997e-06
5.5055e-06
-1.38685e-06
7.52136e-06
5.6457e-06
-9.38563e-07
7.75075e-06
3.61484e-06
7.10461e-06
4.70559e-06
-8.9441e-08
1.27684e-05
8.84752e-06
3.22472e-08
1.29875e-05
8.67406e-06
-4.0639e-07
1.35306e-05
9.37754e-06
-1.17152e-07
1.30371e-05
9.03376e-06
6.44759e-07
1.28807e-05
8.49927e-06
-9.38585e-08
1.31084e-05
9.82188e-06
1.2759e-05
8.6072e-06
6.24903e-07
2.4375e-05
-3.40166e-07
1.46735e-06
2.32845e-05
7.22084e-07
-1.77865e-07
2.28871e-05
3.98154e-06
-1.03561e-06
2.26928e-05
2.60933e-06
-8.02421e-07
2.22419e-05
2.07792e-06
-6.64787e-07
2.26214e-05
2.17496e-06
2.44724e-05
-3.48152e-07
-2.89078e-07
3.53024e-05
-7.65666e-07
3.42848e-05
-2.0174e-07
3.2392e-05
-3.15733e-07
3.28789e-05
2.29988e-08
3.18458e-05
1.294e-07
3.28946e-05
3.51704e-05
-9.72673e-07
-2.83899e-06
3.82446e-05
-5.03754e-07
-3.23018e-06
3.44834e-05
9.46055e-07
-3.07289e-06
3.206e-05
1.93344e-06
-3.10756e-06
3.28019e-05
1.81085e-06
-3.19456e-06
3.52622e-05
8.44364e-07
-3.76694e-06
3.8727e-05
-3.2387e-06
3.99871e-05
1.05642e-06
-1.56803e-06
-3.51183e-06
8.34193e-07
-2.09008e-06
-2.09532e-07
-2.33188e-07
-2.73487e-06
3.82464e-06
-6.73763e-07
-3.34421e-06
2.45868e-06
-3.65444e-07
-2.94063e-06
-7.23299e-07
-4.44601e-07
-2.23725e-06
-1.61361e-06
-1.46348e-06
-4.61132e-06
5.19094e-07
-2.83339e-06
8.57914e-06
6.43544e-07
-1.68411e-06
7.5317e-06
-5.92314e-07
-2.69781e-06
1.14902e-05
2.97626e-07
-4.56831e-06
9.33027e-06
1.1819e-06
-4.26452e-06
8.87655e-06
-9.95941e-08
-2.10247e-06
1.14628e-05
-2.62109e-06
8.68644e-06
-3.45583e-07
2.18204e-06
5.0898e-06
7.50695e-07
1.96843e-06
3.59177e-06
8.81738e-07
2.95394e-06
2.04256e-06
-7.13429e-07
3.88512e-06
2.76032e-06
-1.9734e-06
4.05611e-06
2.64005e-06
-1.03455e-06
3.06147e-06
1.51144e-06
2.16854e-06
2.99744e-06
-4.61354e-09
1.70021e-06
8.54134e-06
-2.05781e-07
2.10163e-06
7.86566e-06
-3.83579e-07
2.90531e-06
9.4477e-06
3.02338e-07
2.95609e-06
9.18335e-06
8.90179e-07
3.06413e-06
8.7196e-06
2.24942e-07
2.67475e-06
1.05639e-05
1.62188e-06
8.5434e-06
5.69651e-07
3.79053e-06
-4.91304e-06
1.06404e-06
3.14299e-06
-2.70751e-06
-4.20719e-07
4.21282e-06
2.38697e-06
-4.33434e-07
4.05173e-06
-5.74655e-07
-4.57178e-07
3.60008e-06
-2.99702e-07
-4.10554e-07
4.04351e-06
-9.09422e-07
3.6714e-06
-4.60754e-06
-6.18132e-07
4.07046e-05
-1.69326e-06
3.85345e-05
-3.2055e-07
3.51132e-05
-5.82695e-07
3.72224e-05
3.18297e-07
3.41958e-05
5.1224e-07
3.69309e-05
4.02744e-05
-1.99625e-06
5.69433e-06
3.12075e-05
-8.45804e-07
8.5813e-08
2.9164e-05
1.01247e-06
2.99135e-07
2.56217e-05
2.47823e-06
6.86371e-07
2.61211e-05
2.58484e-06
9.425e-07
2.98186e-05
1.21141e-06
4.54875e-06
3.17856e-05
5.58965e-06
3.25153e-05
1.78276e-06
-8.90163e-07
-1.16938e-06
1.02343e-06
-7.66396e-07
-3.00248e-07
-1.07145e-07
-1.68376e-06
5.0298e-06
-8.38561e-07
-3.00595e-06
5.0237e-06
-1.13252e-06
-1.05087e-06
-4.37172e-07
-7.59243e-07
8.45837e-08
-3.34859e-07
6.6322e-07
-3.29262e-06
5.76947e-07
-2.5623e-06
8.70994e-06
6.72813e-07
-6.28743e-07
6.3479e-06
-6.27557e-07
-1.05371e-06
1.14646e-05
3.51621e-07
-5.14901e-06
1.00029e-05
1.05753e-06
-3.44318e-06
9.92571e-06
-3.55195e-08
9.55492e-07
1.06512e-05
-3.65358e-07
8.50944e-06
-6.30709e-07
1.09335e-06
5.91066e-06
5.81588e-07
-7.13295e-07
6.30258e-06
9.12969e-07
1.2969e-06
3.23536e-06
-7.73111e-07
2.06211e-06
1.11402e-06
-2.0884e-06
3.58251e-06
7.44141e-07
-9.5266e-07
2.34046e-06
2.82394e-06
1.39647e-07
5.48455e-06
4.58695e-08
2.68731e-07
8.38196e-06
-3.30291e-07
2.59797e-07
6.33697e-06
-2.1943e-07
1.17742e-07
9.82006e-06
3.57977e-07
5.01509e-07
9.50572e-06
6.6596e-07
2.22049e-06
9.07808e-06
3.60103e-07
1.36069e-06
1.09962e-05
-3.20822e-07
8.3221e-06
7.8554e-07
-5.47737e-06
-2.61415e-06
1.4656e-06
-4.69652e-06
-1.28486e-06
-6.28632e-07
-5.06295e-07
3.01509e-06
-3.65705e-08
-5.89149e-06
1.95421e-06
-1.2419e-06
-5.02842e-07
1.78901e-06
-7.78582e-07
-3.18532e-06
1.01063e-06
-5.24045e-06
-3.02945e-06
-1.08199e-06
3.31985e-05
-2.51109e-06
3.14322e-05
-1.27333e-07
2.79421e-05
-1.13701e-06
2.81646e-05
9.35658e-07
2.73017e-05
1.09431e-06
2.96195e-05
3.29046e-05
-2.40993e-06
5.37916e-06
2.38801e-05
-9.95646e-07
-3.16387e-06
2.68252e-05
1.00875e-06
-4.84781e-06
2.46464e-05
2.90208e-06
-3.83483e-06
2.37045e-05
2.73864e-06
6.99083e-07
2.42154e-05
1.44363e-06
4.37539e-06
2.41552e-05
5.69895e-06
2.42141e-05
2.26677e-06
-7.60704e-07
9.58945e-07
1.31928e-06
-1.69583e-06
-1.8202e-06
8.88334e-08
-2.42521e-06
2.55273e-06
-1.52387e-06
-1.8739e-06
3.20544e-06
-1.7481e-06
-1.74167e-06
9.3414e-07
-1.10164e-06
-4.53312e-07
1.77745e-06
-1.88778e-07
-6.95711e-07
6.20548e-07
-1.95401e-06
8.636e-06
7.23376e-07
-2.37145e-06
6.42328e-06
-5.35232e-07
-7.53402e-07
1.07461e-05
4.55451e-07
-2.61081e-06
9.64899e-06
8.06526e-07
-2.37116e-06
9.9034e-06
-6.64861e-08
7.90984e-07
9.55846e-06
-6.9738e-07
8.15727e-06
-5.05356e-07
1.14367e-06
7.17815e-06
2.20032e-07
4.27263e-07
6.62648e-06
5.67166e-07
3.21801e-06
2.81287e-06
-8.40447e-07
3.04666e-06
7.67019e-07
-1.7064e-06
2.01268e-06
1.06622e-06
-6.80675e-07
1.20124e-06
5.22468e-06
1.54959e-07
7.91147e-06
5.12262e-08
4.37741e-07
8.43578e-06
-2.64691e-07
4.82749e-08
6.41327e-06
-4.12561e-08
2.17228e-06
1.03342e-05
4.38936e-07
2.25733e-06
9.56076e-06
6.00472e-07
1.89405e-06
8.67082e-06
2.6503e-07
2.14792e-06
9.97346e-06
1.68835e-07
7.87385e-06
1.18088e-06
-5.58491e-06
1.766e-07
1.63919e-06
-3.85895e-06
6.25741e-08
-5.87986e-07
3.90101e-06
2.32915e-06
2.9689e-07
-2.5306e-06
4.10753e-06
-1.9645e-06
2.589e-06
2.0349e-06
-1.14221e-06
-1.88817e-06
2.884e-06
-5.12117e-06
-7.60175e-07
-1.39323e-06
2.48135e-05
-2.77809e-06
2.43909e-05
-2.7403e-07
2.52179e-05
-1.13413e-06
2.14235e-05
1.31732e-06
2.30722e-05
1.4088e-06
2.29452e-05
2.49415e-05
-2.16172e-06
5.06452e-06
1.62728e-05
-1.0984e-06
1.13823e-06
1.96959e-05
7.61365e-07
-2.24193e-06
2.07059e-05
2.99418e-06
-2.04589e-06
1.88759e-05
2.74291e-06
2.77917e-06
1.65095e-05
1.62914e-06
3.76786e-06
1.66547e-05
5.34924e-06
1.61348e-05
2.14725e-06
-6.49145e-07
3.66488e-06
1.36509e-06
-1.58872e-06
1.19527e-06
4.10688e-07
-1.29974e-06
1.96821e-06
-1.76561e-06
-2.65636e-08
2.46799e-06
-2.07748e-06
-8.8037e-07
3.78105e-06
-1.35323e-06
-8.53761e-07
4.54612e-06
-9.86892e-07
3.06792e-06
7.66861e-07
-2.4079e-06
9.39261e-06
7.15174e-07
-2.70298e-06
7.48415e-06
-3.70716e-07
3.94789e-07
1.00862e-05
5.5901e-07
-9.09632e-07
9.6939e-06
5.41404e-07
-3.98621e-07
9.51442e-06
-6.93636e-08
-5.83371e-07
9.64476e-06
-2.42643e-06
9.20898e-06
-5.84085e-07
1.45686e-06
7.77111e-06
-3.10423e-07
1.49086e-06
6.02489e-06
2.52575e-07
2.1782e-06
4.39752e-06
-7.78345e-07
2.0926e-06
2.73781e-06
-9.49797e-07
1.04622e-06
3.65561e-06
-3.19952e-07
1.5145e-06
6.33614e-06
1.74683e-06
7.37542e-06
8.33383e-08
6.54297e-07
8.98732e-06
-2.14007e-07
6.76253e-08
7.9351e-06
6.75128e-08
1.48723e-06
1.08646e-05
4.34982e-07
1.51283e-06
9.93808e-06
4.7859e-07
7.007e-07
8.93543e-06
1.15051e-07
2.17575e-06
9.52735e-06
7.37143e-07
8.78183e-06
1.43078e-06
-4.90812e-06
3.2308e-06
1.31649e-06
-2.67235e-06
1.81351e-06
6.54164e-08
3.34375e-07
4.18224e-06
9.81555e-08
7.03955e-07
4.1365e-06
-2.36638e-06
1.46977e-06
3.01484e-06
-1.38768e-06
-1.277e-06
4.97873e-06
-5.15521e-06
2.71742e-06
-1.43936e-06
1.67726e-05
-2.61737e-06
1.80547e-05
-8.42551e-07
1.88257e-05
-8.53201e-07
1.7087e-05
1.41311e-06
1.77444e-05
1.644e-06
1.65806e-05
1.67914e-05
-1.82771e-06
2.51628e-06
1.04803e-05
-6.77763e-07
3.79688e-07
1.29128e-05
4.02055e-07
4.17918e-07
1.41392e-05
2.58762e-06
-2.17752e-06
1.39954e-05
2.49504e-06
-5.32266e-07
1.17881e-05
1.75032e-06
1.25432e-06
1.09119e-05
3.08625e-06
1.00554e-05
1.84314e-06
-2.68205e-06
7.6434e-06
9.41014e-07
-2.30933e-06
5.2087e-06
7.98215e-07
-2.66045e-06
5.31532e-06
-1.4852e-06
-1.86828e-06
4.40423e-06
-2.4211e-06
-8.5694e-07
5.17303e-06
-1.36191e-06
-2.26457e-06
7.29001e-06
-2.26543e-06
7.18871e-06
1.01723e-06
-4.89101e-06
1.08283e-05
4.92157e-07
-3.14066e-06
9.1278e-06
-1.6592e-07
-1.47874e-06
9.85411e-06
4.89657e-07
-2.39397e-06
1.00586e-05
4.0427e-07
-8.76127e-07
9.94482e-06
7.95841e-09
-2.53077e-06
1.04283e-05
-3.48911e-06
1.05262e-05
-9.53471e-07
3.68329e-06
4.02607e-06
-5.33719e-07
1.73635e-06
4.60714e-06
4.97503e-09
1.60448e-06
4.75218e-06
-6.53407e-07
1.12e-06
3.85448e-06
-5.14437e-07
1.80531e-06
4.71886e-06
-3.11077e-07
3.56118e-06
3.87749e-06
3.57718e-06
3.95292e-06
4.05145e-07
2.33495e-06
1.02413e-05
-3.33304e-07
1.88169e-06
8.72022e-06
1.40258e-07
1.55763e-06
1.07864e-05
2.8606e-07
1.37017e-06
9.91515e-06
3.09961e-07
1.41532e-06
9.61394e-06
7.54729e-08
3.08438e-06
1.04568e-05
2.34047e-06
1.03426e-05
1.24647e-06
-2.39592e-06
7.09123e-06
1.1434e-06
-1.01934e-06
4.86596e-06
5.94308e-07
3.71328e-07
6.13141e-06
-8.90494e-08
9.4608e-07
5.09832e-06
-2.31236e-06
3.12729e-06
3.55366e-06
-1.2573e-06
6.95921e-07
6.98037e-06
-2.74078e-06
6.91507e-06
-1.3052e-06
1.06551e-05
-2.38985e-06
1.3078e-05
-1.06255e-06
1.2559e-05
-8.19379e-07
1.27412e-05
1.27013e-06
1.43421e-05
1.62024e-06
1.18371e-05
1.06079e-05
-1.72931e-06
2.83514e-06
-3.34599e-07
2.47355e-06
3.54914e-07
4.27411e-06
2.38061e-06
2.76049e-06
2.3094e-06
2.53362e-06
1.90439e-06
2.17944e-06
2.94367e-06
1.76021e-06
9.78455e-07
9.06829e-07
6.57492e-07
1.09267e-06
7.50541e-07
-1.15305e-06
8.81529e-07
-2.32806e-06
8.00219e-07
-1.13034e-06
4.41979e-07
9.02296e-07
1.29401e-06
7.25194e-07
2.3715e-07
1.10205e-06
1.64117e-07
1.08441e-06
5.70695e-07
1.00832e-06
4.60866e-07
1.27954e-06
3.74613e-08
1.55668e-06
1.54969e-06
-9.49542e-07
-8.37469e-07
-4.76881e-07
-1.25858e-06
-1.82308e-07
-8.51891e-07
-6.27808e-07
-1.06848e-06
-7.08752e-07
-4.18626e-07
-4.97622e-07
-1.32318e-06
-1.50808e-06
6.23827e-07
-8.78129e-07
-5.07433e-07
-1.19761e-06
3.21273e-07
-3.95091e-07
3.88351e-07
-7.38131e-07
4.88635e-07
-5.37425e-07
1.32433e-07
-9.76013e-08
-7.51387e-07
8.58336e-07
-2.53142e-06
1.19717e-06
-5.23743e-06
8.53869e-07
-1.94474e-06
-4.14233e-07
-2.89985e-06
-2.16818e-06
-3.76908e-06
-1.02174e-06
-2.06782e-06
-2.74795e-06
-1.19804e-06
-2.44763e-06
-1.15408e-06
-7.52351e-07
9.37419e-07
1.4777e-06
-0.000754784
0.00230949
-0.00152947
-0.00129228
0.00252377
-0.00193751
-0.0007534
0.00289847
-0.00324888
0.000704057
0.0031091
-0.00419209
0.00124814
0.00289664
-0.00330568
0.000719954
0.00252282
-0.00202516
0.002317
-0.00161226
-0.000620832
0.00279802
-0.00036348
-0.000909596
0.00289208
-0.000598906
-0.000493145
0.00302293
-0.00110626
0.00040996
0.00307284
-0.00146817
0.000838654
0.00302625
-0.0011892
0.00056349
0.0029023
-0.00070967
0.00280717
-0.000477958
-0.000166855
0.00111512
0.00182532
-0.00022524
0.00112164
0.00182822
-0.000133409
0.00111989
0.00182949
3.6684e-05
0.00111173
0.0018162
0.000153269
0.00111987
0.00179554
0.000129921
0.00112094
0.00177263
0.00111064
0.00176181
-1.55748e-05
-0.00116744
0.00246658
-4.30321e-06
-0.00118134
0.00251782
-1.05626e-05
-0.00118182
0.00258473
-3.44269e-05
-0.00117482
0.00261179
-2.12794e-05
-0.00118228
0.00257182
6.13837e-06
-0.00117946
0.00248972
-0.00117063
0.00242727
-0.000156061
-0.00287109
0.00171416
-0.000189768
-0.00296674
0.00170737
-6.49631e-05
-0.00309077
0.00171429
0.000129313
-0.00312754
0.00171843
0.000240941
-0.00305994
0.00171578
0.000187503
-0.00292461
0.00169186
-0.002824
0.00167659
-0.00060151
-0.00235481
-0.000585192
-0.000873121
-0.00256465
-0.000841897
-0.000378778
-0.00294121
-0.00136785
0.000586515
-0.00313501
-0.00166485
0.00098988
-0.00289468
-0.00127574
0.000674194
-0.00251081
-0.000802243
-0.00228942
-0.000577614
-0.000747339
-0.00167981
-0.00127581
-0.00211574
-0.000643747
-0.00347546
0.000874686
-0.00435873
0.00137023
-0.00332296
0.000802603
-0.00204252
-0.00165149
-0.00168948
0.00251787
-0.00222065
-0.00319995
0.00310066
-0.00317333
-0.0017361
0.00384438
-0.00730676
0.001496
0.00408443
-0.00974488
0.00308377
0.00387236
-0.00739023
0.00164875
0.00311402
-0.00330743
0.00255824
-0.0023343
-0.00111473
0.00306911
-9.7944e-05
-0.00173821
0.00323828
-0.000503016
-0.000986103
0.00333541
-0.00160385
0.000728468
0.00335864
-0.0025407
0.00159553
0.00336753
-0.00179088
0.00104793
0.00328839
-0.00063165
0.00310932
-0.00019999
-0.000154013
0.00112054
0.0037243
-0.000210786
0.00111063
0.00374264
-0.000151377
0.0010543
0.00378505
-2.09349e-05
0.00101076
0.00378691
8.29883e-05
0.00104667
0.00376865
9.37122e-05
0.00110944
0.00373313
0.00111953
0.00371571
9.9835e-05
-0.00120816
0.00483832
0.000147204
-0.00120326
0.00489029
5.02975e-05
-0.00113783
0.00495535
-0.000124082
-0.00110427
0.00498437
-0.000203148
-0.00115167
0.00496232
-0.000135047
-0.00120716
0.00489701
-0.00121544
0.00484226
-0.000158741
-0.00317831
0.00356784
-0.000157733
-0.00337205
0.00355808
-4.70556e-05
-0.00344553
0.00356375
0.000108502
-0.00343297
0.00357681
0.000169281
-0.00340225
0.00360737
0.000147415
-0.00332646
0.00357556
-0.00314527
0.00357768
-0.00113459
-0.00258714
-0.000418946
-0.00171154
-0.0031667
-0.000910049
-0.00073283
-0.00391884
-0.00221258
0.00107877
-0.00411572
-0.00296158
0.00175723
-0.0038442
-0.00186037
0.00114391
-0.00311479
-0.000746011
-0.00252983
-0.000307497
-0.00172526
-0.00244626
-0.00318872
-0.00349413
-0.00148226
-0.00774827
0.00187262
-0.0100445
0.00325044
-0.0072889
0.00171085
-0.00326272
-0.00235665
-0.00289936
0.0027201
-0.00183922
-0.00456658
0.00349775
-0.00394883
-0.00205929
0.00352374
-0.0118277
0.00139381
0.00349443
-0.0153982
0.00422029
0.00376777
-0.0122614
0.00282655
0.00352063
-0.0042923
0.00280427
-0.00198837
-0.00172809
0.00323314
0.00084655
-0.00243468
0.00334387
0.000220466
-0.00148597
0.00310214
-0.00168781
0.000883911
0.00298591
-0.00366422
0.00231793
0.00320574
-0.00213369
0.00167979
0.00339776
0.00011356
0.00328854
0.000809972
-8.5787e-05
0.00108595
0.00564824
-6.88182e-05
0.00102956
0.00569226
-0.000107726
0.00090522
0.00576441
-9.23636e-05
0.000815936
0.00573727
-4.10201e-05
0.000854765
0.00577155
1.7957e-05
0.00100081
0.00574847
0.00107066
0.00571898
0.000216794
-0.00121927
0.00705267
0.000293172
-0.00117605
0.0070683
0.000118856
-0.00102862
0.00707907
-0.000174728
-0.000986928
0.00709834
-0.000347797
-0.00107977
0.00709018
-0.000261821
-0.00120045
0.00708608
-0.00123811
0.00708092
-0.000142769
-0.00340066
0.00557939
-9.06989e-05
-0.00358374
0.00556847
1.90366e-05
-0.00334502
0.0055125
0.000119118
-0.00312482
0.00544159
5.92123e-05
-0.00324987
0.00553636
0.000123569
-0.0035167
0.00553205
-0.00334547
0.005532
-0.00184217
-0.00284993
0.00066644
-0.00259307
-0.00357395
-0.000173271
-0.000940025
-0.00376941
-0.0028468
0.0016463
-0.00349818
-0.00443232
0.00256115
-0.00352911
-0.00203716
0.00178851
-0.00352691
3.49697e-06
-0.00276134
0.000681276
-0.00293377
-0.00195357
-0.00438182
-0.0044406
-0.00158929
-0.0126536
0.00204927
-0.0158369
0.00467261
-0.0116923
0.00286185
-0.00388686
-0.00192446
-0.00293755
0.00267826
-0.00144513
-0.00318789
0.00304183
-0.00547113
-0.00125499
0.000890616
-0.0144902
0.000464426
0.0012633
-0.0183605
0.00260218
0.00134468
-0.0153733
0.00273344
0.00301718
-0.00668758
0.00285471
-0.00165578
-0.00160482
0.00321843
0.00160117
-0.00155443
0.00303878
0.000314159
-0.00162129
0.00218528
-0.00278901
0.000838973
0.00200974
-0.00635647
0.00159251
0.00230353
-0.00336841
0.00151755
0.003048
0.000176179
0.00327593
0.00168996
0.000104866
0.00104746
0.00725488
0.000257937
0.000961137
0.00722786
-5.50259e-06
0.000886553
0.00712088
-0.000132283
0.000720329
0.00699778
-0.00027475
0.000772646
0.00719642
-0.000152699
0.000879055
0.00738275
0.000970114
0.00741711
0.000256631
-0.00120069
0.00896377
0.000312668
-0.00114385
0.00897661
0.000169174
-0.00100514
0.00898786
-0.000195766
-0.000933012
0.00901777
-0.000368273
-0.00111209
0.00898947
-0.000267776
-0.00119992
0.0089872
-0.00126274
0.00897748
-4.07215e-05
-0.00338672
0.00733978
-6.26461e-07
-0.00326767
0.00724878
7.78168e-06
-0.00265341
0.00693806
0.000109103
-0.0024256
0.00666444
-8.97386e-05
-0.00253903
0.00694626
5.80614e-06
-0.00325517
0.00714671
-0.00336756
0.00720686
-0.00186183
-0.00275091
0.00170422
-0.00231268
-0.00289501
1.13646e-05
-0.00115687
-0.00165965
-0.00453452
0.00196461
-0.00124724
-0.00804409
0.00213832
-0.000962595
-0.00315952
0.00170573
-0.00297633
7.64828e-05
-0.00271763
0.00159545
-0.00284903
-0.00139619
-0.00285362
-0.00638245
-0.000882492
-0.0158684
0.00116835
-0.0190203
0.00343601
-0.0144105
0.00277849
-0.00537585
-0.00140773
-0.00239066
0.00242029
-0.00130974
-0.00214658
0.00154884
-0.00675947
-0.000771129
-0.00139861
-0.0146037
0.000531129
-0.000617518
-0.0193344
0.00155714
-0.000593819
-0.01612
0.00250195
0.00147908
-0.00877432
0.00271008
-0.0017468
-0.00123723
0.00311288
0.00186324
-0.00185313
0.00273782
-0.000232193
-0.00171806
0.00230233
-0.00645565
0.00190353
0.00230147
-0.0122657
0.00193556
0.00221647
-0.00603423
0.00111267
0.00262459
-0.000203087
0.00311896
0.00199512
0.000252761
0.00105128
0.00844657
0.00028113
0.00101762
0.00839351
0.000116616
0.0010195
0.00811435
6.59173e-05
0.000839433
0.00813117
-0.000233895
0.000871882
0.00845106
-0.000265318
0.000867279
0.00868166
0.000886634
0.00870964
0.000272585
-0.00113743
0.0105417
0.000401283
-0.00113111
0.0106302
0.000255533
-0.00102663
0.0108088
-0.000277195
-0.000897255
0.0109193
-0.000435666
-0.00116513
0.0108336
-0.000302664
-0.00121895
0.0106384
-0.00129018
0.0105506
1.77099e-05
-0.00320569
0.00879182
-0.000263072
-0.0029375
0.00874228
-0.000239375
-0.00293358
0.00831475
0.000175033
-0.00305876
0.00803216
5.41606e-05
-0.0028109
0.00820521
-8.99472e-05
-0.00303729
0.00850588
-0.00327661
0.00856053
-0.00172876
-0.00234568
0.00233491
-0.00350007
-0.00112533
-0.000160071
-0.00250339
0.000576439
-0.0087366
0.00267642
0.000948163
-0.0163261
0.00273402
0.00140113
-0.00716928
0.00170179
-0.00162697
-0.000210726
-0.00247685
0.00210348
-0.00232815
-0.00121027
-0.00172413
-0.00798024
-0.000822852
-0.0163601
0.000796751
-0.0201185
0.0023288
-0.0147171
0.00254949
-0.00663946
-0.00120204
-0.00242983
0.00196825
-0.000862379
-0.0024436
-8.49415e-05
-0.0067593
-0.00133371
-0.00204397
-0.0138934
0.000925235
-0.00304235
-0.0188346
0.00250691
-0.00248138
-0.01552
0.00261092
-0.000230136
-0.00883145
0.00231171
-0.00137122
-0.00166754
0.00305841
0.00194995
-0.00364708
0.00276016
-0.00129218
-0.00121822
0.00268209
-0.0132322
0.0026266
0.001488
-0.0201315
0.00369185
0.00184103
-0.0110192
0.00127406
0.00236247
-0.000640065
0.0029035
0.00211808
0.000274967
0.00117996
0.00918816
0.000324767
0.00117401
0.00916744
0.000742372
0.000962494
0.0087768
0.000170029
0.000722809
0.00896421
-0.000322659
0.000852665
0.00926757
-0.000433381
0.000931112
0.00942489
0.000926164
0.00934406
0.000455295
-0.00112694
0.0118572
0.000789137
-0.00116093
0.0119754
0.000486002
-0.000835145
0.0123308
-0.000500683
-0.000558891
0.0125501
-0.000781595
-0.000949818
0.0122634
-0.000456699
-0.00129158
0.011944
-0.0013586
0.0118213
0.000140613
-0.00294392
0.00968254
-0.000219341
-0.00261706
0.00982338
-0.000117976
-0.00251825
0.00931912
-0.000476209
-0.00166065
0.00898012
-5.9939e-05
-0.00286126
0.00908847
-0.000216295
-0.00292478
0.00942901
-0.00318049
0.0094023
-0.00198924
-0.0018469
0.00277255
-0.00517842
0.000618158
-0.000395964
-0.00281218
0.00157804
-0.0147156
0.00160874
0.00342622
-0.0256543
0.00436914
0.00207717
-0.0144248
0.00203336
-8.6806e-05
-0.00107829
-0.00206595
0.00252543
-0.002212
-0.00088841
-0.00168949
-0.00812666
-0.00100142
-0.0157691
0.00164203
-0.0197354
0.00295246
-0.0142822
0.00275118
-0.0065672
-0.000508051
-0.00252737
0.00142372
0.000214841
-0.0035181
-0.000836442
-0.00512109
-0.00202864
-0.00263053
-0.0130159
0.00128131
-0.0032865
-0.0191198
0.00315152
-0.00289093
-0.0147603
0.00256782
-0.000797658
-0.00765356
0.00167923
-0.000512816
-0.00272096
0.00294274
0.00271793
-0.00446359
0.0021
-0.00253185
-0.00162174
0.000494849
-0.0192013
0.00144741
-0.00084021
-0.0261899
0.00442168
-0.000317109
-0.0166729
0.00156537
0.00123051
-0.000118775
0.00243272
0.00240149
0.000390282
0.00120382
0.00952185
0.000574082
0.00104766
0.00923356
0.000748854
0.000180908
0.00827116
0.000269468
-0.000328408
0.00835222
-0.000324478
0.000298202
0.00856275
-0.000574872
0.00102968
0.00904614
0.000985642
0.00924936
0.000775649
-0.00120369
0.0126087
0.00171542
-0.00129248
0.0125922
0.00107518
-0.000229963
0.0126703
-0.00114686
0.000750268
0.0129647
-0.00172217
-0.000208063
0.0125852
-0.000843126
-0.00118797
0.0125084
-0.0013891
0.0125204
0.000567825
-0.00237816
0.00944055
0.000139252
-0.00103184
0.00919546
-0.000307457
0.000578529
0.00835952
-0.000575853
0.00134265
0.00800711
-0.000633803
-0.000150747
0.00842645
-0.000486676
-0.00208505
0.00934402
-0.00301698
0.00959744
-0.00110965
-0.00150545
0.00249633
-0.00412641
0.000979458
0.00029507
-0.00129954
0.00180413
-0.018893
0.00135916
0.00305896
-0.0307916
0.00420153
0.0024767
-0.0201767
0.00245883
0.000693136
-0.00232588
-0.00150005
0.00299785
-0.00184467
-0.000696082
-0.00187364
-0.00747072
0.000125497
-0.016207
0.00262459
-0.0195287
0.00393033
-0.013427
0.00261349
-0.0046713
0.000549628
-0.00152125
3.81868e-06
0.00347917
-0.00184674
-0.00290501
0.000377401
-0.00287599
0.00373809
-0.00202657
0.000782152
-0.0140366
0.012051
0.000743564
0.000153669
-0.0213469
0.0181784
0.00147955
0.000642734
-0.0150958
0.0135571
0.00109268
0.000328285
-0.00695553
0.00684173
0.000270333
0.00177047
-0.000944941
-0.00285628
0.000886753
0.00612985
-0.00437857
-0.0025626
0.000351938
-0.00410835
0.00399155
-0.00235038
-0.00214859
-0.0178218
0.0200198
-0.000770572
-0.000989036
-0.0277549
0.0267113
-0.000111678
-0.00170221
-0.0163333
0.017803
0.00130044
-0.000597819
-0.00261754
0.00178915
0.000609414
0.00465212
-0.00385825
-0.00015341
-1.87372e-05
0.00918051
-0.00870142
8.21341e-05
-0.000233093
0.00823156
-0.00836308
-0.00103155
-0.000782531
0.00677375
-0.00730607
0.000572204
-0.0010892
0.0055729
-0.00739595
0.000327572
-0.000597971
0.00615787
-0.00731972
-0.000285678
0.00012314
0.0074179
-0.00797823
6.88867e-05
0.00794543
-0.00815218
0.000516315
-9.33156e-05
0.00992218
-0.0110715
0.00111867
-0.000305879
0.00983171
-0.0110703
0.000574946
0.00056541
0.00970098
-0.0111183
-0.000867879
0.00137982
0.00960989
-0.0112053
-0.00123521
0.000707125
0.00959044
-0.0110686
-0.00056869
0.000163337
0.009673
-0.0109528
8.14201e-05
0.00974314
-0.0108932
0.000236442
-0.000570697
0.00807193
-0.00837974
-0.000603547
0.000685139
0.00739994
-0.00799297
-0.000712716
0.00158912
0.00579872
-0.00701498
0.00156486
0.00117512
0.00464857
-0.00703237
-9.8088e-05
0.00311829
0.00624672
-0.0072465
3.91342e-05
-5.44867e-05
0.00811024
-0.00841234
-0.000676563
0.0090704
-0.00877862
-0.00060033
-0.000871697
0.0045521
-0.00385709
0.000481924
0.000429957
-0.00275498
0.00147491
0.000770652
-0.000760554
-0.0177541
0.0193209
0.0026575
-0.000850079
-0.0315741
0.0309229
0.00169763
0.000436244
-0.0176983
0.0206825
0.00231205
-0.000693301
-0.00354828
0.00346276
0.000373436
0.0060493
-0.00465441
-0.00156483
0.00120048
-0.000402945
-0.000718037
-0.00763899
0.00708133
4.49432e-05
-0.0171807
0.0154333
0.00325871
-0.0223479
0.0180295
0.00301634
-0.0119262
0.0122903
0.000868442
-0.0021506
0.00352977
0.00370062
-0.00230248
-0.000360476
-0.000210176
0.00410862
-0.00100567
-0.00056878
-0.00181059
-0.00168443
-1.18644e-05
-0.0136613
-0.00129869
-0.00213428
-0.0198702
-0.000366685
-0.0031678
-0.013025
-0.000150907
-0.00129744
-0.00615088
-0.000164441
0.0016904
-0.001738
0.000622476
0.00685602
-0.00227319
-0.000570208
-0.00367195
-0.00284688
-0.00326391
-0.0144531
-0.00182463
-0.00221647
-0.0292067
-0.000660879
-0.00224775
-0.0184214
0.000461025
-0.000890807
-0.00440026
0.000683614
0.00392069
-0.00034881
5.59226e-05
0.00945543
-0.000711463
-0.000103175
0.00769527
-0.00182079
-0.000532511
0.00482274
-0.000300623
-0.00115735
0.00269907
0.000272512
-0.000573904
0.0035502
-0.000230657
0.00040611
0.00616634
0.000321612
0.0073815
0.000173107
-0.000234714
0.00947665
0.000776874
-0.000384529
0.00901168
0.000407489
0.000735505
0.00833999
-0.000964479
0.00128295
0.00799149
-0.0009835
0.000372094
0.00819633
-0.000257537
2.20686e-05
0.00886198
-5.15068e-05
0.00933105
0.000110048
-0.000704338
0.00784963
-0.000710476
0.000939906
0.00648582
-0.000162438
0.00266606
0.00310477
0.00197122
0.00238279
0.00110919
0.000940697
0.00345926
0.00384453
0.000393116
0.000824201
0.00747693
-0.000380988
0.00930162
-0.000157663
-0.000745843
0.00462514
0.000754248
0.000794148
-0.00356965
0.00242024
0.00257571
-0.0193042
0.00274826
0.00198184
-0.0318723
0.00184548
0.00109175
-0.0147742
0.00145718
0.00089994
-0.003204
0.000478973
0.00660258
-0.00119609
0.00185039
-0.00030696
-0.0077665
0.00156202
-0.0166813
0.00185477
-0.0208508
0.000140278
-0.00926849
-0.000239515
-0.00102658
0.00405446
8.9156e-05
-0.000236017
0.00417827
-0.000720616
-0.000828835
-0.000228084
-0.00232574
-0.000155481
-0.0121309
-0.00242073
-0.00109075
-0.0188956
-0.000579773
-0.00331731
-0.0117523
-0.000662167
-0.00137845
-0.00487616
-0.000347015
0.00128884
-0.00111917
0.000271004
0.0072259
-0.00248835
-0.00219605
-0.00101019
-0.00215113
-0.00486076
-0.0103395
-0.00235278
-0.00162407
-0.028814
7.11756e-05
-0.000329569
-0.0236929
0.00139218
-0.000594864
-0.00635506
0.00152867
0.00321905
-0.00111818
0.000298243
0.00989246
-0.00402347
0.000725925
0.00725496
-0.00470153
0.00135641
-0.000925525
-0.000769716
0.000482392
-0.00350947
0.00239012
0.00069324
-0.000948211
0.000217178
0.000997775
0.00631705
0.000811408
0.00763147
-0.000131062
-0.000628104
0.0100048
-1.64284e-05
-0.000901396
0.00994964
2.68714e-07
-0.00036532
0.00949248
-0.000699437
-0.000633563
0.00921837
-0.000197665
-0.0016933
0.00944149
4.75702e-05
-0.000860723
0.00988636
-0.000296768
0.00995104
-0.000310795
-0.00134186
0.00832115
-0.00331748
0.00138286
0.00688686
-0.000739444
0.00134301
-0.00126068
0.0046928
0.000936857
-0.0059869
0.00471363
0.00427298
-0.00231952
0.0013114
0.00235439
0.00732542
-0.00026347
0.010032
-0.00106292
-0.000396985
0.00468047
-0.000270465
0.000603473
-0.00335339
0.00451089
0.00242561
-0.0249189
0.00417884
0.00080112
-0.0315647
0.00311866
0.00229002
-0.0118161
0.00152471
0.00121192
-0.000399507
0.000404618
0.00738083
-0.000709741
0.00229121
-0.000729084
-0.00716139
0.00101052
-0.0164058
0.000962307
-0.0201756
4.60534e-05
-0.00618585
-0.000199569
0.000307009
0.00423973
0.00048154
-0.000515761
0.00419543
0.000857565
-0.00141405
0.000791101
0.000255848
0.000961631
-0.0124982
-0.00172633
0.000111321
-0.0169995
-0.000664334
-0.00239325
-0.0105488
2.67913e-05
-0.00210157
-0.00334796
-0.000570357
0.00178924
-0.000535636
-0.00106492
0.00826615
-0.000928035
-0.00446249
0.0025045
0.00164391
-0.00592029
-0.00601708
0.000993697
-0.00268443
-0.0253938
0.00105158
0.00117663
-0.0273194
0.00271225
0.000684019
-0.010324
0.00192504
0.00350223
-0.00376389
0.000826584
0.0113655
-0.0079053
0.00154339
0.00525026
-0.00801365
0.00249964
-0.00900593
-0.00385821
0.00187553
-0.0121408
0.00200333
0.00148737
-0.007123
0.00146719
0.00136666
0.00586698
0.00157921
0.00883986
-0.000517019
-0.00127779
0.0122924
-0.00128342
-0.00118661
0.0129946
-0.000536067
-0.00114584
0.0120689
-0.000167552
-0.00169822
0.0121217
0.00102331
-0.00255548
0.0119239
0.000389165
-0.00167057
0.0131
-0.000810597
0.0123274
-0.00139114
-0.00148508
0.00959469
-0.00330339
0.000815016
0.00647986
0.00187566
7.18449e-05
-0.0075918
0.0075218
0.0011678
-0.0144295
0.00796167
0.00531798
-0.0104293
0.00381492
0.00437914
0.00526575
0.000954695
0.0118059
-0.00205605
0.000332212
0.00487305
-0.000133128
0.00116857
-0.00548611
0.00301065
0.00225317
-0.0303029
0.0019006
0.000256626
-0.0295525
0.00109047
0.00152662
-0.00720464
0.000948692
0.00105459
0.00309355
0.000607669
0.00857666
0.00013073
0.0023798
-0.000620012
-0.00533422
0.00099927
-0.0161008
0.000540876
-0.0193742
2.78111e-05
-0.00436421
-0.000399954
0.00167071
0.0044401
0.000228808
-0.000344231
0.0042705
0.00267165
-0.00144775
-0.000147877
0.00393554
0.000385702
-0.0140022
-0.000239265
0.00165932
-0.0144221
-0.00130163
-0.00174071
-0.00784183
0.000206127
-0.00324866
-0.00142341
-0.000670003
0.00255321
-0.000116219
-0.00196224
0.0101022
0.00167299
-0.00415796
0.00354736
0.00605351
-0.00540735
-0.00446552
0.00879269
-0.00403976
-0.0224596
0.00595115
0.000970987
-0.027333
0.00431782
0.00205538
-0.013593
0.00227666
0.0051332
-0.00364532
0.000328425
0.0123713
-0.00489322
0.000336475
0.00189704
-0.00721879
0.000227232
-0.0122887
-0.00701507
0.000888224
-0.0173141
-0.0026395
-0.000474236
-0.0100694
0.00170225
0.000468577
0.00296965
0.0018603
0.0104374
-4.29894e-05
-0.00141743
0.013793
-0.000622689
-0.000360855
0.0138941
-0.000899072
0.000752635
0.0116479
0.000438911
-0.000724082
0.0121777
0.000429015
-0.000272007
0.011477
-9.02711e-05
-0.00034366
0.0141448
-0.000323527
0.0141399
-0.00147183
-0.00137244
0.0107431
0.00211238
-0.00103331
0.00340565
0.0066395