/*--------------------------------*- C++ -*----------------------------------*\
  =========                 |
  \\      /  F ield         | OpenFOAM: The Open Source CFD Toolbox
   \\    /   O peration     | Website:  https://openfoam.org
    \\  /    A nd           | Version:  6
     \\/     M anipulation  |
\*---------------------------------------------------------------------------*/
FoamFile
{
    version     2.0;
    format      ascii;
    class       volScalarField;
    location    "0.005";
    object      T;
}
// * * * * * * * * * * * * * * * * * * * * * * * * * * * * * * * * * * * * * //

dimensions      [0 0 0 1 0 0 0];

internalField   nonuniform List<scalar> 
3773
(
240.417
237.834
237.605
238.185
238.228
238.471
241.28
283.717
283.247
283.388
283.144
283.091
283.263
283.751
310.023
310.823
310.892
310.809
310.777
310.816
310.004
318.136
318.285
318.331
318.312
318.302
318.32
318.149
310.065
310.175
310.916
310.85
310.83
310.873
310.074
283.963
284.204
283.589
283.379
283.332
283.475
283.943
241.406
238.863
238.789
238.961
238.594
238.514
241.588
220.851
219.727
219.3
219.461
219.764
220.351
220.52
271.188
275.797
275.803
275.883
275.753
276.088
272.16
313.576
310.917
310.928
311.171
311.352
310.932
313.679
324.176
324.186
324.111
324.209
324.193
324.024
324.68
313.818
313.784
311.493
311.436
311.372
311.258
313.905
271.819
271.517
275.815
275.955
275.811
276.33
271.957
221.014
219.989
220.166
220.42
219.843
220.163
220.663
215.222
216.294
215.655
215.21
215.793
216.156
215.196
267.413
272.134
273.389
270.399
270.328
271.788
267.566
313.833
311.36
310.87
313.421
313.014
310.783
313.547
324.914
324.124
324.171
324.957
325.011
324.08
324.87
313.683
311.766
311.806
312.713
313.223
312.013
313.555
267.604
270.579
271.819
268.891
270.949
272.036
267.623
215.233
215.992
215.622
214.307
215.417
216.507
215.231
214.285
217.223
217.331
216.926
216.054
215.593
214.349
267.598
273.835
274.1
272.14
270.167
271.567
267.647
313.851
311.375
310.908
312.547
313.443
310.59
313.648
324.928
324.167
324.342
324.847
324.642
324.223
324.854
313.77
310.69
313.181
314.361
313.537
310.851
313.618
267.673
271.599
270.962
268.147
271.156
273.197
267.692
214.267
215.603
216.614
213.848
216.671
216.619
214.357
214.172
216.806
216.857
216.475
215.695
215.426
214.184
267.69
273.601
273.316
272.987
272.194
272.755
267.951
313.936
311.165
310.98
311.959
311.456
309.432
313.925
324.961
324.116
324.342
324.401
324.195
324.223
324.934
313.871
310.392
311.992
313.022
312.599
310.279
313.868
267.933
272.916
272.037
270.689
271.747
273.079
267.946
214.255
215.815
215.968
215.016
216.404
215.612
214.199
214.556
216.63
214.799
216.92
216.663
216.061
214.487
268.944
273.921
275.65
274.503
274.13
273.854
268.824
314.341
310.911
310.638
310.011
309.973
309.892
314.143
325.055
324.085
323.877
324.192
323.771
324.416
325.017
314.227
311.172
310.274
310.573
310.238
310.972
314.158
269.101
274.772
274.184
275.643
274.692
273.345
268.892
214.638
215.221
216.19
214.74
217.572
216.164
214.527
214.426
211.44
213.959
214.233
214.27
214.453
214.495
272.037
274.162
272.545
272.198
272.237
272.598
272
311.455
311.788
310.582
311.064
310.36
311.054
310.666
326.513
327.424
327.148
327.178
327.593
326.466
327.653
311.44
315.411
311.183
310.562
316.246
311.298
310.693
272.224
266.01
272.526
272.639
267.98
272.66
272.11
214.723
213.224
214.439
214.137
211.114
214.576
214.616
242.162
242.359
243.976
246.226
243.931
242.443
242.097
291.369
290.999
290.491
290.393
290.374
290.769
291.318
345.564
345.474
345.351
345.19
345.327
345.38
345.317
361.908
361.89
361.859
361.843
361.822
361.829
361.821
345.094
345.015
344.936
344.841
344.898
345.037
345.089
290.501
290.265
289.828
289.82
290.012
290.336
290.584
241.32
242.202
244.02
246.084
243.563
241.873
241.554
243.321
245.802
258.779
272.342
259.605
246.361
243.433
292.354
291.404
291.021
292.115
290.868
291.04
292.789
340.864
340.504
340.246
339.981
340.279
340.565
340.639
361.147
361.245
361.281
361.028
361.263
361.126
361.044
340.824
339.964
339.769
339.691
339.718
340.309
340.666
292.096
291.589
290.99
292.074
291.154
291.043
291.884
242.778
246.275
260.883
272.989
258.052
245.116
242.449
246.555
258.951
296.124
318.971
299.923
261.413
247.022
288.698
287.595
290.502
294.704
290.47
287.407
289.13
337.046
336.403
336.291
335.91
336.285
336.366
336.878
360.748
360.702
360.718
360.882
360.709
360.544
360.463
337.001
335.912
335.817
335.988
335.702
336.271
337.226
288.797
288.346
291.61
295.486
290.848
287.494
288.583
248.214
261.156
301.504
320.812
295.573
258.747
245.263
255.473
280.003
322.699
338.095
328.41
288.686
257.466
288.702
289.297
297.066
303.238
297.374
289.824
288.852
333.157
332.594
333.309
333.545
333.335
332.443
332.927
359.606
359.295
359.538
360.08
359.531
359.28
359.232
332.901
332.377
332.588
333.483
332.697
332.605
333.519
288.904
290.522
299.205
306.237
297.594
289.4
288.962
259.315
287.331
328.636
340.108
322.326
283.262
253.602
271.041
308.6
327.117
336.705
332.096
311.768
269.38
292.443
297.061
305.461
315.681
305.288
297.927
292.497
330.666
330.863
332.36
333.206
332.327
330.826
329.943
358.575
358.312
358.791
359.052
358.832
358.497
358.855
330.547
331.196
331.853
333.528
331.819
330.535
330.185
292.792
298.86
308.285
323.457
307.737
296.509
292.475
276.047
314.077
333.957
338.313
328.736
308.308
266.309
285.322
316.937
327.931
334.343
329.814
318.607
281.674
299.095
304.404
315.841
335.426
314.825
303.745
297.963
330.449
330.722
332.203
334.025
332.604
330.242
329.311
356.919
356.316
357.357
356.763
357.077
357.151
357.533
329.573
331.603
332.004
335.399
332.153
329.812
329.436
298.227
306.043
319.741
343.153
321.218
305.001
298.471
287.052
317.399
333.053
335.202
330.185
316.916
283.38
290.48
317.754
330.186
334.104
330.19
315.156
291.43
299.729
309.316
335.109
347.619
330.391
303.246
297.379
327.525
328.763
331.852
333.917
331.715
328.005
326.525
353.864
354.365
356.395
356.829
356.196
354.787
353.726
326.241
330.33
331.483
335.494
331.868
327.842
326.648
298.268
310.244
332.452
347.289
335.995
310.646
298.824
292.435
314.513
332.936
332.107
330.92
317.461
288.361
274.961
318.276
327.579
330.799
329.691
312.583
280.488
284.895
305.619
336.547
344.484
331.718
294.674
283.271
323.115
324.203
328.539
333.047
328.461
325.02
323.662
353.34
350.606
354.14
353.928
353.771
350.681
352.156
323.776
325.81
326.991
334.075
328.413
323.903
326.7
285.954
298.176
333.373
343.8
335.671
305.151
283.399
278.955
308.39
333.481
329.531
326.391
314.414
277.957
266.101
304.697
320.049
326.561
328.184
307.131
273.277
283.54
313.258
335.027
340.975
336.027
300.263
280.326
317.779
317.663
322.679
327.725
322.824
319.64
319.09
349.963
346.601
349.108
350.026
348.343
346.568
348.216
320.035
319.269
320.597
327.453
322.326
318.204
321.831
281.364
302.035
336.017
341.346
334.06
311.507
281.689
274.13
307.54
330.385
325.098
318.935
300.818
268.757
261.468
301.487
317.693
323.676
328.367
303.609
264.429
286.899
314.928
333.828
339.607
342.106
309.299
283.759
317.066
317.215
323.232
329.874
322.85
318.98
317.844
346.6
342.386
346.749
349.061
345.282
342.554
345.059
318.362
318.372
321.693
330.571
323.928
317.886
320.636
282.009
310.318
342.125
341.367
334.852
315.432
284.412
268.205
309.493
329.62
322.013
317.406
297.345
263.442
260.776
297.365
313.493
322.942
327.407
306.477
262.001
291.633
320.518
333.844
337.116
345.055
324.569
289.672
318.702
323.818
337.456
341.849
333.711
323.581
320.003
344.697
340.876
343.47
346.648
342.35
341.372
344.489
320.393
323.326
334.012
342.776
338.003
324.938
321.657
288
322.664
344.572
340.516
335.96
321.368
292.515
263.608
309.979
327.452
321.179
312.951
295.868
261.307
260.809
298.756
314.09
324.637
324.438
308.776
263.005
297.987
327.782
333.169
335.306
342.568
336.867
301.241
323.872
335.226
343.284
346.513
339.932
332.208
323.334
344.898
342.162
344.063
346.93
343.122
342.202
344.643
322.981
330.631
340.19
347.444
343.771
336.278
326.803
304.065
333.261
342.639
336.646
334.379
328.881
299.338
262.18
307.929
323.887
320.961
303.928
295.506
261.015
263.181
294.775
318.485
328.281
319.153
300.802
265.5
299.535
327.017
329.221
334.611
342.095
339.069
307.416
333.71
342.82
344.289
347.522
342.746
340.338
330.782
347.487
347.177
347.308
349.47
346.755
346.141
346.3
329.077
339.813
343.759
348.369
344.509
343.153
333.659
305.265
337.632
342.732
335.247
329.885
328.337
303.191
264.955
302.128
320.932
325.8
308.978
287.814
262.59
298.798
317.321
324.259
334.175
309.525
293.12
289.116
314.725
328.377
331.586
337.947
342.839
338.25
304.687
335.248
344.968
344.968
347.639
345.303
341.296
330.464
349.4
349.577
348.069
349.292
347.394
348.578
348.558
328.488
342.401
346.106
348.207
344.796
345.018
334.041
305.177
335.062
344.679
338.233
332.573
325.786
311.294
284.432
295.679
316.744
342.246
320.827
309.068
294.847
299.65
317.041
329.829
332.679
330.376
312.586
296.235
302.298
310.432
337.904
345.604
331.001
304.644
298.385
328.214
329.215
332.045
333.962
331.765
328.354
327.361
354.008
352.377
355.477
356.712
355.344
352.62
353.88
326.81
330.52
331.522
335.554
331.939
328.189
327.373
301.023
312.682
332.824
345.085
336.721
308.608
299.839
295.862
308.9
333.66
330.417
328.806
314.148
294.794
293.435
317.151
329.487
332.567
330.371
312.494
288.918
302.869
306.446
337.757
345.444
330.883
302.652
298.772
328.686
329.974
332.25
334.131
331.93
328.756
327.744
354.113
352.307
355.389
356.599
355.255
352.513
354.047
327.552
330.972
331.692
335.709
332.085
329.064
328.435
301.94
311.587
332.627
344.861
336.61
307.541
300.46
288.893
308.531
333.584
330.395
328.391
314.123
292.43
287.686
317.092
329.213
332.373
330.342
312.231
285.265
301.728
304.317
337.691
345.252
330.867
301.705
297.36
330.431
330.465
332.813
334.722
332.33
330.174
328.517
354.138
352.119
355.209
356.483
355.069
352.493
354.207
328.37
331.608
332.093
336.161
332.452
330.205
329.69
301.009
307.591
332.57
344.635
336.577
306.939
300.181
281.677
308.223
333.561
330.251
327.968
313.942
290.4
284.54
316.607
328.991
332.297
330.363
312.003
282.152
298.6
303.961
337.533
345.119
330.866
299.454
296.431
331.757
332.242
334.056
335.462
333.503
331.085
330.799
354.116
352.012
354.913
356.358
354.789
352.62
354.291
329.447
332.361
333.069
336.914
333.305
330.807
331.02
299.097
304.566
332.547
344.439
336.533
307.069
299.083
277.663
307.785
333.548
330.191
327.786
314.054
285.051
287.36
316.494
328.86
332.322
330.555
311.716
289.03
297.457
303.575
337.466
344.894
330.979
298.471
294.249
332.318
333.321
335.573
335.875
334.764
332.677
331.571
354.099
352.158
354.699
356.076
354.598
352.908
354.432
330.442
333.077
334.372
337.427
334.893
332.341
332.042
296.591
303.603
332.587
344.261
336.428
306.959
297.628
281.968
307.648
333.709
330.437
327.48
314.628
284.797
291.491
317.06
328.49
332.243
330.633
312.071
292.275
297.401
304.022
337.181
344.783
331.119
297.853
294.391
333.967
334.153
336.255
336.786
335.854
333.045
332.507
354.097
352.517
354.644
355.574
354.557
353.305
354.774
330.98
334.274
335.483
338.65
335.619
332.971
333.084
295.979
302.083
332.782
344.151
336.201
306.676
296.702
290.231
307.637
333.811
330.519
327.357
314.811
286.935
294.278
317.814
328.068
331.664
330.445
312.434
291.958
298.549
305.058
337.067
344.724
331.408
295.867
294.985
334.691
335.097
337.775
338.063
337.757
334.075
333.727
354.154
352.973
354.747
355.315
354.667
353.736
354.887
332.56
334.807
337.06
339.688
337.113
333.495
334.325
297.264
300.948
333.049
344.054
336.109
305.935
296.851
293.387
307.935
333.645
330.107
327.109
314.937
288.288
321.052
326.014
346.209
325.987
317.891
314.471
315.861
340.447
340.935
343.748
349.166
335.542
334.184
333.978
339.958
343.719
345.283
348.117
345.667
340.124
330.63
349.007
344.424
340.068
342.748
338.473
340.525
348.039
329.067
341.477
346.252
348.693
346.082
344.525
337.459
336.553
336.462
338.706
349.493
342.519
340.7
338.524
319.346
322.048
327.444
333.522
340.796
327.268
320.822
334.228
347.788
338.349
333.87
331.575
328.108
324.956
344.067
345.028
348.386
348.472
339.635
338.98
339.374
343.855
345.091
345.586
349.222
346.089
339.739
331.048
348.183
336.986
336.451
338.066
337.098
336.428
347.271
330.041
340.759
346.578
349.875
347.007
346.012
340.288
340.324
340.168
342.37
354.173
348.066
344.268
343.457
326.391
330.015
336.634
338.49
356.987
334.774
330.91
341.588
355.58
339.882
339.483
335.964
333.447
331.925
345.463
348.178
350.033
348.993
344.386
343.233
343.128
344.956
346.731
347.032
350.59
348.889
340.383
331.673
346.358
337.017
339.86
343.807
341.253
337.001
345.778
331.009
341.01
349.233
351.005
347.947
347.204
340.276
343.12
343.655
345.376
354.558
349.987
347.032
345.769
333.021
334.897
341.463
342.795
355.336
341.539
336.988
348.493
350.05
342.209
342.076
339.557
338.01
336.54
343.796
348.165
351.712
349.943
345.231
344.148
343.275
342.727
347.263
347.966
351.767
348.902
343.704
333.727
344.848
338.36
342.14
347.836
343.358
338.292
343.261
333.585
345.238
349.838
353.115
349.015
347.587
339.128
344.141
344.973
347.122
354.142
350.128
345.934
344.755
338.458
340.642
343.538
344.485
350.068
351.95
340.707
347.087
347.561
343.09
341.553
339.489
337.717
336.373
344.285
347.951
351.06
350.227
344.34
342.954
341.916
341.739
348.844
349.119
351.465
348.021
345.47
335.199
344.372
340.39
343.965
348.648
344.503
341.366
342.334
334.353
346.162
349.207
352.366
350.343
349.315
339.32
342.035
343.63
347.026
353.172
349.528
347.039
344.275
337.918
340.029
343.33
344.445
348.401
349.985
346.538
346.617
347.208
343.651
341.009
339.315
337.519
335.882
345.042
347.984
350.237
350.032
343.993
342.338
340.687
342.503
351.847
352.334
351.157
347.644
347.208
337.423
342.706
343.241
347.594
349.776
347.307
343.719
341.399
336.302
346.471
348.651
352.039
352.554
351.665
341.983
340.559
343.103
347.034
352.091
350.639
347.786
345.053
337.331
339.191
341.605
344.689
348.139
349.085
346.281
344.572
347.155
345.401
339.51
336.254
334.936
332.149
343.857
346.714
347.722
347.798
345.501
344.275
341.82
346.598
351.745
351.346
351.136
349.317
349.55
342.999
343.928
347.08
349.619
351.615
349.794
347.632
343.818
343.452
348.015
348.775
352.231
351.942
351.575
349.7
340.926
343.254
346.917
349.765
350.002
347.245
344.251
334.952
337.824
343.402
347.607
349.93
349.551
344.08
315.75
315.216
314.75
316.356
319.309
326.826
341.55
338.659
338.194
337.799
337.681
338.376
341.465
345.022
349.105
354.591
354.071
353.92
353.88
354.333
354.85
349.758
353.326
354.827
354.792
354.104
353.739
353.552
357.049
355.402
354.05
352.932
352.894
353.028
354.172
337.886
337.61
337.455
338.119
340.945
342.824
349.069
319.087
319.055
318.816
320.425
323.465
330.387
345.413
324.61
322.438
322.541
323.316
326.128
336.221
340.342
340.331
339.976
339.191
340.393
341.29
344.188
345.464
352.264
353.524
352.676
352.543
352.708
353.27
353.584
349.057
352.214
353.352
353.556
353.375
352.513
352.14
356.64
355.264
353.855
353.531
353.626
353.832
354.375
341.87
341.273
340.666
341.736
344.154
345.577
350.902
326.413
325.531
324.219
326.416
328.422
336.645
343.911
331.463
329.802
329.302
329.155
330.537
335.044
338.885
343.572
343.065
343.223
342.941
344.489
346.363
348.279
350.76
353.686
352.667
352.494
352.227
352.429
352.658
347.741
349.397
350.255
351.06
350.841
350.219
350.014
356.839
355.533
354.328
353.967
353.95
354.475
354.916
344.388
343.452
343.417
343.935
344.817
346.464
350.446
335.585
334.796
334.015
335.348
336.741
339.059
341.183
335.893
335.133
334.359
334.264
335.236
336.233
335.587
343.105
342.748
342.198
342.107
343.132
343.471
346.765
345.321
353.109
352.224
351.16
350.976
351.658
352.412
346.736
347.651
348.129
348.388
347.993
348.074
348.44
352.499
355.678
353.42
352.504
352.257
352.681
354.549
344.998
344.73
344.758
345.088
345.617
347.324
348.947
339.982
339.813
340.645
341.465
344.62
345.813
340.319
336.459
336.136
335.735
334.286
334.683
335.646
334.836
341.733
341.747
341.516
341.299
341.472
341.421
340.796
338.429
345.445
349.413
350.023
349.772
350.151
349.516
345.047
345.777
345.953
345.769
345.412
344.926
344.829
341.657
346.783
349.382
350.862
350.976
351.255
351.485
344.005
343.648
343.504
343.494
344.064
345.327
346.129
342.577
342.025
341.397
342.149
343.255
346.169
342.485
336.153
336.27
336.334
335.918
335.51
335.418
336.823
340.232
340.109
340.04
340.01
340.304
340.904
341.242
338.137
339.157
340.755
342.183
343.283
343.72
345.204
341.591
341.348
340.983
340.082
339.601
338.379
338.169
341.265
341.325
341.691
343.083
344.675
345.171
346.453
344.047
343.461
343.317
343.492
344.631
345.268
347.453
346.083
345.376
344.998
344.732
345.237
347.29
346.677
332.458
332.853
333.352
333.72
333.671
334.264
335.118
341.227
340.98
340.836
340.819
340.748
340.978
340.947
341.709
340.831
340.508
340.397
340.002
339.296
338.059
343.098
341.758
341.08
339.799
337.569
334.967
331.856
346.8
344.391
343.519
343.096
342.85
342.231
340.972
343.403
341.795
341.526
342.123
342.97
344.006
347.168
343.212
342.574
342.378
343.293
344.077
346.769
347.316
341.807
328.801
324.774
321.305
320.549
321.518
321.321
348.316
344.492
341.865
340.566
339.44
339.661
340.018
356.673
354.933
354.374
353.791
353.814
354.732
355.934
354.095
354.372
354.727
355.071
355.124
354.071
350.925
354.814
354.846
354.971
355.374
355.416
355.75
356.603
342.732
337.347
335.522
335.796
336.952
338.694
340.669
336.33
330.882
317.062
313.416
313.438
314.695
316.918
341.563
337.269
329.38
327.772
328.036
330.316
332.716
351.037
346.522
344.98
343.308
341.937
342.154
342.638
355.524
354.607
353.862
353.361
353.14
353.808
354.849
352.564
352.754
353.305
353.493
353.4
352.73
349.87
353.744
353.309
353.194
353.526
353.953
354.585
355.638
342.988
341.013
339.389
339.185
340.036
341.154
341.989
341.021
331.64
327.842
326.272
325.505
324.622
326.097
339.483
338.196
336.64
336.004
335.957
336.883
337.917
351.489
347.558
346.594
345.307
344.79
344.862
345.308
355.079
354.606
353.666
353.298
353.27
354.163
355.436
350.855
350.887
351.363
351.609
351.016
349.926
348.737
353.269
353.047
353.179
353.358
354.028
354.739
352.488
345.806
344.627
343.043
342.298
342.742
342.711
343.499
338.263
336.485
334.011
333.092
332.218
331.562
332.53
337.258
345.344
344.362
343.013
342.406
339.628
341.468
350.75
348.295
345.973
345.791
345.105
342.719
341.952
354.54
353.11
351.63
350.948
351.591
353.96
354.358
349.013
348.477
348.308
348.363
347.952
347.21
346.26
352.27
351.508
351.479
351.911
352.84
353.472
342.493
346.983
345.203
344.439
343.458
343.518
343.973
344.182
339.169
339.307
337.987
336.912
337.338
337.433
337.877
340.599
343.801
343.388
343.956
345.041
345.858
345.977
346.062
343.598
343.059
342.912
343.069
343.064
343.468
350.134
349.528
349.109
348.715
348.123
348.055
346.424
344.494
344.944
345.191
345.55
345.696
345.518
345.121
349.638
350.772
350.609
350.096
347.677
342.313
337.31
341.349
342.05
342.343
342.482
342.675
342.446
341.954
338.828
337.509
336.272
336.011
337.429
337.881
338.098
344.745
344.573
345.213
347.677
349.107
347.959
347
346.313
343.572
343.197
343.101
343.492
343.959
344.29
345.225
344.508
344.242
344.268
343.872
343.22
342.981
338.343
339.13
339.814
340.612
341.194
342.166
342.495
345.726
343.843
342.256
340.418
338.252
337.224
336.525
341.911
340.773
339.692
339.264
339.234
339.384
339.716
340.844
338.192
336.944
336.503
336.721
336.71
336.843
344.095
342.353
342.333
342.228
344.153
344.855
344.255
344.471
341.663
340.976
340.151
340.273
340.618
341.865
340.866
341.665
343.182
343.924
344.484
344.997
345.693
332.297
336.288
337.575
340.109
341.194
341.993
343.303
337.43
338.801
338.94
338.98
338.952
339.175
339.659
339.932
339.293
338.775
338.629
338.795
339.183
339.791
338.796
336.709
335.371
333.864
333.561
333.568
334.011
363.755
362.753
364.032
361.044
356.387
352.285
346.146
363.389
360.699
361.704
359.627
358.458
354.869
353.39
360.5
360.194
360.231
359.564
358.898
357.908
357.352
357.578
357.023
355.103
354.477
353.53
353.347
353.541
356.415
356.594
356.079
354.933
354.454
354.501
354.705
355.483
354.899
352.165
350.537
349.506
348.202
344.542
362.665
362.309
358.514
356.717
353.846
349.609
344.949
363.272
359.089
361.128
355.751
355.542
351.613
345.994
362.706
356.057
355.768
355.259
355.111
353.755
352.494
360.123
358.798
358.531
357.623
357.4
356.544
356.273
357.277
355.616
353.736
352.695
351.83
351.728
352.178
354.365
355.026
354.86
354.213
353.81
353.65
353.821
348.337
350.025
351.297
350.064
349.552
348.236
346.911
355.379
362.143
361.186
356.631
354.658
349.182
344.738
357.332
355.456
357.953
350.322
346.546
341.469
339.305
351.443
350.86
352.019
353.779
354.993
354.589
353.739
356.693
356.468
355.715
355.955
356.14
355.965
355.889
355.767
353.621
352.614
351.456
350.807
350.592
350.558
352.766
352.737
352.251
352.244
352.271
352.553
353.329
344.108
345.897
349.15
348.894
349.343
349.255
347.969
351.113
354.467
354.461
348.34
347.095
343.69
339.138
356.071
349.676
347.056
340.064
340.779
334.213
333.594
346.58
346.299
350.932
353.554
355.81
355.346
352.743
354.674
354.337
354.388
354.507
354.807
355.501
355.338
355.053
352.867
351.633
350.371
349.376
349.083
349.004
349.92
349.402
350.374
351.111
351.286
351.903
352.601
336.266
337.495
345.683
350.279
352.481
352.372
350.637
348.144
350.554
348.791
346.457
345.588
342.268
338.22
351.394
341.898
343.436
338.975
335.853
332.178
333.12
340.58
344.06
350.944
352.156
355.275
351.995
348.704
352.017
351.531
353.137
354.026
354.97
354.151
351.329
353.534
351.758
348.977
347.35
346.369
345.233
344.761
348.412
347.267
348.722
350.413
351.626
352.053
351.217
334.414
334.105
345.193
351.491
353.432
353.012
348.366
346.948
345.936
347.455
345.002
340.574
336.748
330.992
345.842
340.281
342.596
338.86
337.054
333.182
335.971
337.425
341.912
349.119
350.998
354.999
350.562
348.23
349.752
350.246
350.469
351.287
352.283
350.431
346.758
351.838
349.215
347.045
342.512
340.729
339.72
338.496
347.394
345.193
346.45
348.494
349.389
348.267
346.256
332.239
333.005
344.811
350.597
351.795
347.348
343.193
344.139
344.862
343.134
337.386
337.94
329.374
328.304
343.717
337.004
342.252
338.008
338.128
334.272
337.731
331.158
336.164
344.94
344.846
355.022
351.145
346.9
346.986
346.556
348.954
347.557
345.327
340.745
339.475
348.2
344.453
340.007
336.284
334.765
331.575
330.814
344.763
342.935
344.604
345.358
343.805
339.768
337.717
330.387
330.949
341.665
348.325
347.978
344.089
340.881
338.764
340.402
335.882
330.822
331.884
325.621
326.03
338.07
333.894
339.424
334.209
334.987
332.257
334.879
322.528
326.884
329.328
332.437
335.087
331.434
334.55
335.688
335.984
334.392
335.162
334.948
332.29
327.029
337.017
334.669
334.575
333.691
332.922
330.326
324.26
340.408
335.661
334.007
333.883
333.407
333.313
327.425
324.658
324.322
329.854
331.905
335.008
333.347
332.451
332.717
329.485
328.53
327.729
327.357
322.833
321.943
305.688
297.238
303.825
302.999
302.319
305.789
303.297
317.166
318.422
318.381
318.462
319.557
320.664
319.144
331.487
331.242
329.603
328.581
328.025
328.957
326.719
329.679
327.468
327.189
326.568
325.709
325.075
322.563
328.276
330.249
329.762
328.313
328.713
330.008
328.179
315.509
316.193
317.455
318.398
319.439
318.944
319.421
306.607
299.416
302.115
303.37
303.855
304.607
302.571
288.892
289.13
289.012
288.407
289.742
289.952
290.409
307.822
309.246
308.533
308.675
309.584
309.468
310.106
320.865
327.568
326.524
325.445
325.055
325.939
324.629
323.928
321.168
321.118
321.221
320.846
320.482
318.182
324.816
325.846
325.955
325.549
325.433
327.68
325.714
306.684
308.365
308.859
309.355
309.985
309.274
310.099
289.696
288.083
289.042
288.868
288.361
289.043
289.381
280.536
278.79
279.981
280.601
280.898
280.629
281.142
304.295
302.762
303.541
304.516
304.79
305.461
304.985
315.637
317.964
320.048
320.24
320.837
319.096
320.439
306.378
307.593
307.84
309.176
309.887
309.886
308.892
315.467
317.31
317.768
320.496
322.299
321.781
317.723
303.277
301.904
303.43
304.039
304.358
303.818
305.465
279.119
279.156
280.042
280.713
279.139
279.783
279.977
278.199
277.239
277.329
277.906
277.983
277.381
278.122
301.164
300.915
301.462
302.967
302.928
301.83
302.911
314.785
315.752
316.964
315.18
316.458
318.31
319.003
300.873
300.323
301.254
302.323
304.366
305.664
307.319
313.982
315.799
314.774
314.571
316.341
317.639
316.35
301.049
300.203
302.002
302.483
302.488
301.103
302.709
277.147
276.964
277.612
277.593
276.938
276.922
277.879
278.488
278.135
278.257
279.188
278.995
278.534
279.151
301.953
301.773
301.946
302.808
302.76
301.791
302.737
315.983
315.624
316.775
314.665
315.869
319.028
319.589
297.172
298.071
299.334
300.361
302.552
304.371
306.298
315.399
316.26
315.133
313.891
315.064
316.592
317.918
301.38
301.557
302.401
302.509
302.497
301.507
302.452
277.795
278.102
278.535
278.876
278.186
278.326
279.109
292.415
292.682
292.675
292.164
292.263
292.154
292.171
305.025
305.106
305.075
305.137
305.169
304.954
305.181
309.924
308.534
309.355
308.275
308.934
310.327
312.796
281.493
285.147
287.029
288.324
290.506
292.38
295.878
309.107
309.066
308.938
307.222
307.014
307.558
312.057
304.93
304.909
304.943
304.979
304.952
304.868
305.005
292.649
292.136
292.177
292.142
292.139
292.136
292.135
346.407
352.933
359.794
364.376
368.245
368.038
367.05
349.133
354.369
356.057
359.048
361.325
360.35
363.115
355.776
356.451
357.597
358.318
359.135
359.216
360.159
353.196
353.208
353.445
354.335
355.252
356.464
357.454
354.664
355.245
356.002
356.669
357.083
357.466
357.221
351.028
353.546
356.764
357.746
359.031
360.419
358.757
350.58
355.313
360.176
362.957
364.627
366.462
366.042
348.063
353.18
358.204
359.782
364.453
362.956
364.101
349.448
350.84
351.871
352.086
353.43
354.869
361.793
354.361
354.642
355.624
356.04
356.439
357.671
359.572
351.852
351.558
351.734
352.671
353.423
355.423
356.843
355.478
355.79
356.151
356.562
356.71
356.792
356.113
352.871
355.369
356.975
358.098
358.64
358.703
354.394
349.897
354.665
359.246
362.218
363.803
366.77
361.843
339.882
346.815
351.533
349.099
354.29
353.818
358.222
349.261
350.499
350.596
348.538
347.501
347.412
350.752
353.176
353.248
353.537
353.542
354.431
354.738
355.761
349.618
349.691
349.869
350.717
351.968
353.496
355.154
355.293
355.298
355.31
355.408
354.986
354.466
353.232
353.555
354.54
354.839
355.099
352.821
353.105
348.569
342.015
347.022
351.999
356.236
356.766
362.184
355.964
331.346
333.86
341.363
341.873
348.061
342.519
355.017
350.379
351.308
351.349
348.161
345.101
341.393
344.638
352.804
352.421
351.954
351.817
351.753
352.692
354.179
348.463
348.487
348.912
349.334
350.817
352.891
354.483
355.301
355.279
354.547
353.724
352.903
351.878
351.638
354.125
356.661
356.888
354.792
347.98
346.046
343.902
337.278
341.152
347.215
353.346
353.257
355.739
350.118
327.821
328.868
337.092
332.999
340.372
334.072
349.348
345.843
351.121
352.92
345.471
343.614
337.224
337.809
350.622
352.493
352.02
350.698
350.444
350.693
351.067
344.913
345.109
346.293
347.233
348.058
350.368
352.638
352.388
354.925
355.307
353.571
350.203
350.33
349.759
349.355
353.771
356.885
357.008
343.5
340.703
336.396
333.92
331.2
341.724
346.717
345.837
352.597
339.692
328.224
327.32
335.943
331.106
338.351
331.656
343.245
342.575
346.928
354.424
344.096
338.654
332.314
334.16
346.329
348.193
349.891
349.512
347.892
346.513
347.298
338.61
340.875
342.733
343.612
345.537
348.365
350.947
347.252
350.899
352.883
351.619
347.511
346.443
347.165
348.292
352.348
356.1
357.466
341.471
337.394
333.597
334.843
330.305
333.965
340.154
341.03
348.86
337.034
329.404
326.332
334.735
329.456
336.404
330.275
338.152
341.673
346.843
353.389
342.443
336.32
329.247
329.488
337.326
339.691
342.985
344.723
344.349
344.162
345.2
330.059
330.688
332.753
337.97
340.842
343.401
347.228
340.046
341.837
346.476
348.414
346.089
344.274
344.002
348.483
352.873
355.108
353.952
338.332
334.87
331.052
335.655
330.879
332.168
336.525
331.71
346.927
336.614
326.573
324.816
321.926
326.665
333.535
328.683
335.305
331.369
328.935
331.195
330.15
326.816
326.579
324.487
324.601
330.174
332.547
333.553
333.529
336.954
338.338
321.436
328.978
331.315
333.958
335.085
336.004
335.221
328.411
332.601
333.567
335.489
335.425
335.284
335.912
335.3
330.793
328.647
328.542
329.324
327.749
326.618
332.515
329.35
327.431
330.248
324.233
327.837
334.996
301.041
302.907
299.456
301.109
297.071
293.656
302.499
317.768
318.44
319.098
318.021
316.632
315.234
315.622
325.375
326.089
325.703
327.035
328.91
329.772
327.33
318.43
323.579
322.134
324.617
323.453
323.423
324.905
327.734
329.36
328.198
328.077
330.05
329.062
328.398
317.654
320.192
319.686
318.884
317.192
317.054
314.426
304.518
305.267
302.343
302.713
306.747
295.967
306.462
288.108
287.359
287.04
286.644
287.504
286.996
287.569
308.687
307.914
307.845
307.43
306.659
306.681
306.463
323.407
324.714
323.473
324.618
323.942
323.951
324.179
315.464
317.593
318.819
320.789
319.123
319.067
320.619
323.618
326.486
325.869
326.249
323.852
326.017
326.325
313.178
309.654
308.608
307.35
307.09
307.694
308.609
289.743
288.651
288.483
288.471
288.832
287.968
288.855
280.514
279.357
279.488
278.65
280.401
278.802
280.209
304.539
304.459
304.207
304.011
303.324
301.418
303.236
317.711
320.077
321.35
319.421
319.663
319.692
316.181
306.814
311.547
311.594
310.844
308.538
308.504
308.135
319.537
320.787
320.844
320.663
319.522
317.218
318.616
304.887
304.842
304.553
304.074
303.49
302.896
302.596
279.226
279.696
279.854
278.725
279.077
278.387
280.376
277.445
276.802
276.773
277.111
277.555
277.061
277.418
302.456
301.564
302.356
302.697
301.843
300.028
301.171
317.01
318.336
316.726
314.907
315.932
317.399
315.577
305.424
305.563
304.913
303.323
304.032
303.973
304.476
317.63
316.836
316.477
316.766
316.615
314.862
315.365
302.926
301.431
302.863
302.201
301.22
300.954
300.997
277.844
276.771
277.479
276.87
276.97
276.902
277.854
278.339
277.841
277.871
278.752
278.214
278.023
278.055
302.574
301.757
302.579
302.665
302.339
301.539
301.61
318.396
318.43
315.871
314.589
316.01
316.796
316.933
304.918
303.658
302.463
301.043
300.856
300.432
295.621
318.532
316.153
315.824
316.396
316.721
315.315
315.891
302.694