/*--------------------------------*- C++ -*----------------------------------*\
  =========                 |
  \\      /  F ield         | OpenFOAM: The Open Source CFD Toolbox
   \\    /   O peration     | Website:  https://openfoam.org
    \\  /    A nd           | Version:  6
     \\/     M anipulation  |
\*---------------------------------------------------------------------------*/
FoamFile
{
    version     2.0;
    format      ascii;
    class       volVectorField;
    location    "0.005";
    object      U;
}
// * * * * * * * * * * * * * * * * * * * * * * * * * * * * * * * * * * * * * //

dimensions      [0 1 -1 0 0 0 0];

internalField   nonuniform List<vector> 
3773
(
(29.9723 -0.0682118 0.245418)
(29.5425 0.00174375 0.218653)
(29.5081 0.040878 0.198093)
(29.589 0.0449792 0.204652)
(29.5981 0.0469024 0.217287)
(29.6398 0.0328841 0.228346)
(30.1099 0.0591875 0.250485)
(9.62914 0.0206955 0.00187099)
(9.59644 -0.0282474 0.011988)
(9.60609 -0.0228631 0.0292976)
(9.59449 0.0029169 0.0257264)
(9.58907 -0.00165504 0.0223567)
(9.59644 0.0126691 0.0372889)
(9.62941 -0.00911029 0.0426686)
(3.89271 0.0367715 0.0342274)
(3.88888 -0.00791014 0.040363)
(3.89028 -0.0322701 0.0532688)
(3.88958 0.00604859 0.0482327)
(3.88892 0.0225367 0.0494627)
(3.88892 0.0139318 0.0666925)
(3.89241 -0.0145056 0.0552833)
(-0.000247557 0.00429545 0.0474481)
(-0.000237935 0.0129618 0.0454167)
(-0.000148305 0.0211214 0.0430491)
(-6.57609e-05 -0.00125297 0.047274)
(-1.2237e-05 -0.0264551 0.0454689)
(5.69345e-05 -0.0314395 0.0350536)
(0.000104123 -0.0179602 0.0382701)
(-3.89364 0.0295224 0.0373383)
(-3.88993 -0.0151621 0.0404038)
(-3.8909 -0.0322797 0.045252)
(-3.89025 0.00682517 0.0449555)
(-3.8897 0.019185 0.046005)
(-3.88973 0.0126185 0.0597782)
(-3.89349 -0.0114325 0.0502907)
(-9.63712 0.0128415 -0.0109044)
(-9.63104 -0.0342453 0.0033921)
(-9.61268 -0.0189471 0.0261415)
(-9.60167 0.00438713 0.0205962)
(-9.59901 0.00146271 0.023574)
(-9.60504 0.0214609 0.0385255)
(-9.63702 -0.00366771 0.0432032)
(-30.1177 -0.0520826 0.260568)
(-29.6889 -0.0166071 0.237825)
(-29.6807 -0.0115529 0.219976)
(-29.707 -0.0144636 0.225812)
(-29.6494 -0.0109822 0.213289)
(-29.6414 -0.00250598 0.224174)
(-30.1523 0.0412355 0.259315)
(25.6943 -0.0831976 0.557505)
(25.4418 -0.0190979 0.514084)
(25.379 0.0263227 0.481259)
(25.407 0.0519769 0.489296)
(25.452 0.0619607 0.515028)
(25.5349 0.0459503 0.541169)
(25.661 0.0711609 0.564873)
(8.52179 0.0168619 -0.0487509)
(8.65538 -0.033169 -0.0253083)
(8.66057 -0.0326336 0.0110624)
(8.6596 0.00569103 0.00250004)
(8.65231 0.0167968 -0.013138)
(8.66455 0.0307258 0.00277541)
(8.55019 0.00030882 -0.00614516)
(3.62781 0.0418094 0.0379152)
(3.59983 -0.00150984 0.0390479)
(3.60351 -0.0334941 0.0666067)
(3.60412 0.00579973 0.056008)
(3.6053 0.0348215 0.0542861)
(3.60363 0.0214328 0.0794429)
(3.6287 -0.0185774 0.0592086)
(-0.000242539 0.00289653 0.0438775)
(-0.000227109 0.014984 0.0361674)
(-0.000143564 0.0260937 0.0284342)
(-6.18014e-05 -0.00187151 0.0353662)
(-1.42198e-05 -0.0344082 0.0334023)
(5.53647e-05 -0.0361381 0.0183139)
(0.000107801 -0.0175623 0.0256425)
(-3.63071 0.0331957 0.0377572)
(-3.6247 -0.015703 0.03862)
(-3.60833 -0.0356322 0.051738)
(-3.60715 0.00815943 0.0507181)
(-3.60517 0.0301895 0.0498928)
(-3.60579 0.0187142 0.0694001)
(-3.63136 -0.0151141 0.0531294)
(-8.54047 0.0160952 -0.0651428)
(-8.516 -0.0364372 -0.0397329)
(-8.65922 -0.0319304 0.00353404)
(-8.65971 0.00509635 -0.0150296)
(-8.65383 0.0177191 -0.00826453)
(-8.67269 0.0355562 0.00984339)
(-8.54433 0.00271055 -0.00556183)
(-25.7316 -0.0585087 0.583589)
(-25.5022 -0.0370077 0.551919)
(-25.509 -0.0323542 0.516664)
(-25.5473 -0.0176027 0.525115)
(-25.4631 -0.00831279 0.504661)
(-25.498 0.00708226 0.531504)
(-25.6824 0.0511019 0.575251)
(24.7027 -0.102575 0.554005)
(24.7314 -0.0475966 0.498107)
(24.6502 0.0196701 0.445626)
(24.6006 0.0656543 0.454901)
(24.6764 0.0822241 0.504054)
(24.7316 0.0656103 0.565644)
(24.7022 0.0841925 0.586794)
(8.37878 0.0172093 -0.00268339)
(8.5104 -0.0195385 0.013965)
(8.5495 -0.0252188 0.048287)
(8.45578 -0.0021226 0.0438486)
(8.45347 0.0104624 0.00917729)
(8.49926 0.0246839 0.00662318)
(8.38305 -3.34632e-05 -0.0203739)
(3.61966 0.0397323 0.0705614)
(3.58609 0.000964143 0.0553146)
(3.58099 -0.0311787 0.0870582)
(3.61063 0.00147784 0.0733043)
(3.60578 0.0368922 0.069947)
(3.57963 0.023461 0.079742)
(3.61653 -0.0217859 0.0627198)
(-0.000257684 0.00223683 0.0405777)
(-0.000236405 0.0104789 0.0362357)
(-0.000150324 0.0230503 0.0206633)
(-6.11894e-05 -0.000826809 0.0159645)
(-1.65184e-05 -0.036915 0.0141751)
(5.70558e-05 -0.0363025 0.0163045)
(0.000122131 -0.0168036 0.0293635)
(-3.6184 0.0321466 0.0648903)
(-3.59073 -0.0148946 0.0544423)
(-3.59208 -0.0346837 0.0725504)
(-3.6027 0.00672058 0.0698451)
(-3.60824 0.0318729 0.0648366)
(-3.59414 0.0194469 0.0758217)
(-3.61685 -0.0177528 0.0607018)
(-8.38445 0.0119776 -0.00625113)
(-8.46163 -0.0247381 0.00260943)
(-8.50075 -0.0261967 0.0393651)
(-8.4088 -0.00208048 0.0280254)
(-8.47303 0.0173595 0.022121)
(-8.50746 0.0271784 0.0156334)
(-8.38541 -0.000644832 -0.0186504)
(-24.7065 -0.0756375 0.592802)
(-24.7136 -0.0625336 0.557616)
(-24.653 -0.038593 0.489445)
(-24.5126 -0.0232949 0.517813)
(-24.6271 -0.0118612 0.47689)
(-24.7649 0.031127 0.526102)
(-24.7081 0.0711143 0.592807)
(24.546 -0.111123 0.401857)
(24.8006 -0.0575313 0.412449)
(24.8057 0.0145722 0.366732)
(24.7594 0.074496 0.362027)
(24.6719 0.0936982 0.400046)
(24.6206 0.0715255 0.412187)
(24.5544 0.089972 0.422419)
(8.38454 0.0191223 0.00603447)
(8.56336 -0.00582399 -0.00364182)
(8.57096 -0.0173095 0.0346712)
(8.50967 -0.0125658 0.0355993)
(8.4481 -0.000282324 0.00463206)
(8.49189 0.0165205 0.005725)
(8.3856 -0.00416452 -0.0167707)
(3.61997 0.0364733 0.0671121)
(3.58576 0.00351252 0.0501712)
(3.58091 -0.0266356 0.0833461)
(3.6001 -0.000459001 0.0753135)
(3.61016 0.0382299 0.0748171)
(3.57688 0.0211024 0.0731499)
(3.6176 -0.0241893 0.061465)
(-0.000271223 0.00477063 0.0441021)
(-0.000240715 0.00779724 0.0434088)
(-0.000154308 0.0159561 0.0218045)
(-5.78389e-05 -0.00388714 0.00791459)
(-1.72182e-05 -0.0344139 0.00740294)
(5.98579e-05 -0.0309419 0.0275971)
(0.000133119 -0.0147376 0.0440283)
(-3.61929 0.0294747 0.0627255)
(-3.57821 -0.0121008 0.0489162)
(-3.60714 -0.029838 0.0744004)
(-3.62098 0.00556886 0.0701472)
(-3.61137 0.0341307 0.0654)
(-3.58006 0.0195331 0.0747225)
(-3.61748 -0.0211884 0.0582108)
(-8.38672 0.0122293 0.00160003)
(-8.49313 -0.0134312 0.00429148)
(-8.47312 -0.0192615 0.0264974)
(-8.385 -0.00499709 0.0304875)
(-8.47921 0.0156919 0.0193637)
(-8.54331 0.0163427 0.0163491)
(-8.38763 -0.00734481 -0.0135575)
(-24.5449 -0.0876698 0.427752)
(-24.6207 -0.0741668 0.41353)
(-24.7266 -0.0428153 0.390558)
(-24.4129 -0.0274825 0.353418)
(-24.7364 -0.00781788 0.371053)
(-24.74 0.044472 0.390131)
(-24.556 0.0844739 0.429638)
(24.531 -0.0997606 0.290765)
(24.756 -0.0559295 0.344317)
(24.7531 0.00559835 0.330602)
(24.7086 0.0714498 0.307003)
(24.6264 0.0979629 0.289346)
(24.5986 0.0734273 0.294729)
(24.5325 0.0907684 0.295971)
(8.38833 0.0173362 0.0259295)
(8.55688 -0.00245566 0.00332053)
(8.54736 -0.0103964 0.0245814)
(8.53712 -0.0170423 0.0296244)
(8.51228 -0.00345662 0.0248427)
(8.52996 0.0125236 0.0287051)
(8.396 -0.00967404 0.0125336)
(3.62135 0.0329319 0.0664968)
(3.58373 0.00668062 0.0521484)
(3.5821 -0.0219626 0.0792553)
(3.59372 -0.001401 0.0730888)
(3.58763 0.0384227 0.0732003)
(3.56378 0.0179789 0.0705188)
(3.62123 -0.0256414 0.0642024)
(-0.000281502 0.00394137 0.0501028)
(-0.000244326 0.00232908 0.041731)
(-0.000154954 0.00803695 0.0240218)
(-5.68044e-05 -0.00606203 0.0116658)
(-1.54459e-05 -0.027224 0.0159239)
(6.1698e-05 -0.0216886 0.0374426)
(0.000140456 -0.0100944 0.0491475)
(-3.62089 0.0260935 0.063733)
(-3.57509 -0.00944677 0.0536906)
(-3.59394 -0.0261003 0.078234)
(-3.60604 0.00363687 0.0723148)
(-3.60086 0.0347119 0.0641782)
(-3.57372 0.0172031 0.0696626)
(-3.62078 -0.0241579 0.0594856)
(-8.39577 0.0141374 0.0206785)
(-8.53524 -0.00809867 0.0112228)
(-8.50765 -0.0142151 0.0342503)
(-8.46542 -0.00420855 0.0375018)
(-8.4985 0.012128 0.0282977)
(-8.54049 0.0100164 0.0389196)
(-8.39648 -0.0148611 0.0145891)
(-24.5413 -0.0864886 0.299571)
(-24.6428 -0.0719297 0.30106)
(-24.6554 -0.0509037 0.320182)
(-24.5447 -0.0315422 0.270038)
(-24.7058 -0.00370969 0.294952)
(-24.6189 0.0516069 0.288061)
(-24.5351 0.0900141 0.305622)
(24.5748 -0.0877508 0.160137)
(24.7356 -0.0411991 0.212237)
(24.5246 0.00297375 0.228116)
(24.762 0.059748 0.216001)
(24.7354 0.0862484 0.177308)
(24.6706 0.0719442 0.171544)
(24.5666 0.0901058 0.158094)
(8.42819 0.0145264 0.0587808)
(8.5675 -0.00412635 0.0504478)
(8.62103 -0.00555081 0.065138)
(8.5851 -0.013407 0.0693364)
(8.57362 -0.00655832 0.0775333)
(8.56501 0.00860541 0.0862643)
(8.42377 -0.0131706 0.0733458)
(3.62617 0.0299143 0.0825717)
(3.58109 0.0091874 0.0674441)
(3.57832 -0.0178366 0.0847121)
(3.57144 -0.002854 0.0847663)
(3.57087 0.0362546 0.0847615)
(3.56931 0.0167707 0.0842426)
(3.62398 -0.0266586 0.0813187)
(-0.000289245 0.000140127 0.0450809)
(-0.000245593 -0.00396643 0.0401809)
(-0.00015049 0.00359556 0.0334478)
(-5.65669e-05 -0.00654643 0.0242132)
(-1.2381e-05 -0.0227371 0.0291142)
(6.22045e-05 -0.0173731 0.0350175)
(0.000145415 -0.00772511 0.0417929)
(-3.62517 0.0245794 0.0767949)
(-3.58428 -0.00607345 0.0646544)
(-3.57446 -0.02265 0.0886358)
(-3.57815 -9.43377e-05 0.08454)
(-3.57397 0.0320264 0.0805307)
(-3.58189 0.0150459 0.0831188)
(-3.62431 -0.0253492 0.0803798)
(-8.43292 0.011324 0.0547798)
(-8.5939 -0.00298846 0.0503481)
(-8.57537 -0.00770433 0.0777073)
(-8.62103 -0.00572001 0.0760545)
(-8.59133 0.0145999 0.0684164)
(-8.54945 0.00748177 0.0852947)
(-8.42659 -0.0190938 0.066259)
(-24.5844 -0.0836521 0.169062)
(-24.5754 -0.0639632 0.200007)
(-24.6827 -0.0529116 0.198356)
(-24.5174 -0.0332432 0.187881)
(-24.8371 -0.00473238 0.20891)
(-24.6806 0.045872 0.176102)
(-24.572 0.0915844 0.16507)
(24.4867 -0.0855499 0.167902)
(24.144 -0.0295402 0.190431)
(24.4316 0.00683933 0.203938)
(24.4593 0.0532965 0.199353)
(24.4648 0.0782182 0.181042)
(24.4874 0.0708917 0.182937)
(24.4936 0.0910277 0.169571)
(8.50929 0.0139586 0.0161463)
(8.5755 -0.000463869 0.0185102)
(8.52454 -0.00161554 0.0345688)
(8.51369 -0.0120046 0.0312263)
(8.51493 0.000114189 0.0345643)
(8.52617 0.0142002 0.0477944)
(8.50738 -0.0143141 0.038849)
(3.58734 0.0291913 0.034862)
(3.59151 0.0092095 0.0224176)
(3.57811 -0.0149645 0.0299156)
(3.58395 -0.00114579 0.03419)
(3.57562 0.0398812 0.0342806)
(3.5831 0.0177598 0.0344575)
(3.57827 -0.030245 0.0332794)
(-0.000294958 0.000724743 0.000254924)
(-0.00024727 -0.00418071 0.00187349)
(-0.000146963 0.0023899 -0.00014839)
(-5.81041e-05 -0.00788275 -0.00423953)
(-1.0518e-05 -0.0256181 -0.00201411)
(6.54384e-05 -0.019247 -0.00443065)
(0.000149358 -0.00864838 -0.00147549)
(-3.58745 0.0229346 0.0289121)
(-3.63348 -0.00604468 0.0151802)
(-3.58523 -0.0197311 0.0323765)
(-3.57833 -7.77902e-06 0.0307053)
(-3.64353 0.037172 0.0317016)
(-3.58606 0.018904 0.0354217)
(-3.57876 -0.0281796 0.0353877)
(-8.51489 0.0116889 0.0143372)
(-8.32027 -0.0031015 0.0254284)
(-8.52422 -0.00381274 0.0343262)
(-8.5277 -0.00887977 0.0346715)
(-8.38201 0.0166694 0.0289552)
(-8.52855 0.00951043 0.0393757)
(-8.51155 -0.0221368 0.0276491)
(-24.5202 -0.0807708 0.176103)
(-24.3477 -0.063571 0.203415)
(-24.4848 -0.0554516 0.191352)
(-24.4502 -0.0300009 0.192204)
(-24.1039 -0.0121485 0.202908)
(-24.5022 0.0345333 0.182501)
(-24.5083 0.0930892 0.171646)
(27.3257 -1.45925 -4.40153)
(27.3287 -3.84437 -5.40211)
(27.4539 -3.98026 -8.31256)
(27.6698 -0.10174 -10.2885)
(27.4494 3.82609 -8.48444)
(27.3424 3.70197 -5.62418)
(27.3199 1.35377 -4.58947)
(8.94707 -0.583847 -0.501305)
(8.92406 -1.45288 -0.785229)
(8.88824 -1.37745 -1.35385)
(8.87326 -0.0875964 -1.7275)
(8.88535 1.23742 -1.45941)
(8.91815 1.3455 -0.930359)
(8.94588 0.531381 -0.658953)
(3.88267 -0.128476 2.20721)
(3.87628 -0.330593 2.2107)
(3.86676 -0.311162 2.2185)
(3.861 -0.0785658 2.20575)
(3.86663 0.164974 2.17738)
(3.87517 0.241343 2.1422)
(3.8799 0.106821 2.11931)
(-0.014735 -0.0184806 2.87227)
(-0.0128322 -0.0210668 2.93552)
(-0.0111682 -0.00955487 3.01379)
(-0.0103057 -0.0365014 3.04582)
(-0.0117353 -0.0441856 2.99822)
(-0.0140638 -0.00885163 2.90144)
(-0.0156507 0.00577944 2.82802)
(-3.90609 -0.1252 2.06018)
(-3.89584 -0.291131 2.06167)
(-3.88311 -0.219836 2.07383)
(-3.87649 0.0531289 2.07949)
(-3.88403 0.315159 2.07158)
(-3.89865 0.364813 2.03549)
(-3.90891 0.156649 2.00828)
(-8.94527 -0.548628 -0.814145)
(-8.92258 -1.41388 -1.13777)
(-8.88436 -1.25518 -1.71207)
(-8.87075 0.211577 -2.00773)
(-8.89285 1.54565 -1.61505)
(-8.92867 1.58378 -1.08918)
(-8.95328 0.634923 -0.820113)
(-27.2613 -1.39273 -4.77566)
(-27.3382 -3.81722 -5.88383)
(-27.4757 -3.79965 -8.89963)
(-27.669 0.459955 -10.7309)
(-27.4314 4.37688 -8.56036)
(-27.3099 4.0813 -5.70116)
(-27.2987 1.53078 -4.72181)
(27.4297 -3.31946 -11.0171)
(27.6766 -9.62191 -13.9986)
(28.9802 -10.4442 -25.2088)
(30.4058 -0.469476 -35.0299)
(29.0573 9.63008 -25.7946)
(27.7262 9.44375 -14.6498)
(27.4274 3.2142 -11.5685)
(8.97672 -1.04583 -0.848471)
(8.92819 -2.77386 -1.57065)
(8.88265 -2.85676 -3.17128)
(8.89573 -0.258409 -4.5326)
(8.86783 2.47801 -3.4906)
(8.90633 2.5939 -1.8706)
(8.98015 0.983021 -1.14518)
(3.83785 -0.124399 6.62843)
(3.82501 -0.316697 6.65241)
(3.81275 -0.323947 6.71514)
(3.80284 -0.139574 6.70566)
(3.80582 0.0755921 6.655)
(3.81623 0.158133 6.5729)
(3.82504 0.0739966 6.52368)
(0.00279038 0.0763873 8.57589)
(0.00177806 0.192305 8.70287)
(-0.000341074 0.156774 8.86279)
(-0.00342198 -0.0599184 8.92472)
(-0.00657393 -0.26102 8.85615)
(-0.00786547 -0.264824 8.67534)
(-0.00893828 -0.104501 8.53354)
(-3.83224 -0.125333 6.29369)
(-3.81464 -0.273557 6.26565)
(-3.8062 -0.195803 6.29438)
(-3.80641 0.0516625 6.32474)
(-3.81367 0.255656 6.34225)
(-3.83087 0.275953 6.27512)
(-3.84339 0.118661 6.25197)
(-8.96254 -1.07313 -1.63184)
(-8.92789 -2.80012 -2.45449)
(-8.87658 -2.61356 -4.29369)
(-8.89864 0.3665 -5.37971)
(-8.8912 2.97737 -3.81698)
(-8.92561 2.81571 -2.21797)
(-8.96865 1.07495 -1.49942)
(-27.3535 -3.3646 -12.0901)
(-27.72 -9.82428 -15.3442)
(-29.2034 -9.84298 -27.3478)
(-30.4711 0.736312 -36.4631)
(-28.9 10.8569 -25.5646)
(-27.6124 9.75281 -14.5773)
(-27.3239 3.34989 -11.7461)
(27.8233 -6.08508 -12.0367)
(29.179 -17.3419 -19.6404)
(33.0334 -15.006 -65.2285)
(35.4683 -0.747769 -95.9735)
(33.4624 11.1938 -66.226)
(29.4227 17.1204 -20.6895)
(27.8324 6.0445 -12.7495)
(8.88503 -1.58307 0.773156)
(8.84048 -4.27993 -0.435219)
(8.92033 -4.42009 -4.63513)
(9.03019 -0.582312 -8.85887)
(8.90196 3.66452 -5.23135)
(8.81945 4.19399 -0.71684)
(8.88061 1.55156 0.565188)
(3.81379 -0.0687374 11.232)
(3.80371 -0.167735 11.2887)
(3.81422 -0.211448 11.428)
(3.80563 -0.16305 11.4067)
(3.80059 -0.0454363 11.432)
(3.79318 0.0217755 11.3523)
(3.79627 0.0152219 11.3234)
(0.0216348 0.168182 14.1385)
(0.0180743 0.40057 14.2183)
(0.0175072 0.32928 14.3133)
(0.0129079 -0.045444 14.383)
(0.0103301 -0.418075 14.3387)
(0.00866037 -0.480258 14.2346)
(0.00746724 -0.204366 14.1637)
(-3.77249 -0.115467 10.9372)
(-3.76442 -0.235723 10.8878)
(-3.77291 -0.122386 10.8433)
(-3.78047 0.117149 10.7972)
(-3.77512 0.211808 10.9099)
(-3.78052 0.190912 10.8791)
(-3.78588 0.0998189 10.9102)
(-8.85098 -1.70178 0.0551499)
(-8.83427 -4.64214 -1.49327)
(-8.92091 -3.98438 -6.76549)
(-9.02894 0.674377 -10.4827)
(-8.90323 4.73351 -5.46034)
(-8.82146 4.43742 -1.05933)
(-8.85181 1.6307 0.273068)
(-27.9553 -6.25605 -13.0431)
(-29.3849 -17.7169 -21.6759)
(-33.6309 -11.5362 -69.268)
(-35.64 -0.806349 -98.5896)
(-32.9669 15.8301 -63.8319)
(-29.1346 17.3445 -19.8608)
(-27.6272 5.97922 -12.5684)
(28.8802 -7.30597 -10.2383)
(31.6376 -18.2535 -31.5753)
(35.9201 -9.28076 -110.683)
(37.7568 0.559149 -144.778)
(36.5906 1.74328 -118.293)
(32.5194 17.7207 -35.945)
(29.0837 7.34417 -11.04)
(8.90573 -1.43098 3.26988)
(8.93745 -4.00003 0.529893)
(9.1948 -3.72568 -8.13115)
(9.38816 -0.675867 -15.9303)
(9.20949 2.7249 -9.71438)
(8.9459 4.09614 0.256069)
(8.90735 1.43998 3.34799)
(3.78159 0.087729 15.5954)
(3.78432 0.213787 15.6073)
(3.81796 0.117462 15.5967)
(3.82085 -0.114219 15.4643)
(3.81602 -0.254372 15.7082)
(3.78772 -0.258944 15.8326)
(3.7784 -0.118282 15.8442)
(0.0257892 0.200914 19.3791)
(0.0231744 0.44612 19.3991)
(0.0243486 0.380886 19.492)
(0.0232884 -0.0218131 19.5912)
(0.026216 -0.446657 19.4985)
(0.0236358 -0.500063 19.4462)
(0.0305259 -0.210892 19.3961)
(-3.73497 -0.0388083 15.5799)
(-3.7445 -0.130888 15.4498)
(-3.76103 -0.070774 15.0524)
(-3.76306 0.102989 14.7394)
(-3.7552 0.105192 15.0819)
(-3.74483 0.0149496 15.2775)
(-3.73154 0.0055722 15.3833)
(-8.88411 -1.753 3.07548)
(-8.94797 -5.16759 -0.524153)
(-9.22403 -3.71146 -12.3309)
(-9.42431 0.615014 -18.7757)
(-9.18096 4.73638 -8.95669)
(-8.90315 4.63994 -0.0748311)
(-8.87338 1.52212 2.99115)
(-29.2958 -7.63763 -10.3943)
(-32.3963 -18.5654 -36.2636)
(-36.8174 -2.10904 -120.806)
(-38.0545 -4.2845 -149.462)
(-36.0738 11.324 -109.623)
(-31.9482 18.1665 -30.8641)
(-28.6359 6.85138 -10.1925)
(30.7026 -6.89 -9.50595)
(34.8503 -16.618 -47.1962)
(36.8244 -6.88839 -113.745)
(38.033 2.61309 -153.475)
(37.2184 -0.62067 -126.031)
(35.1149 17.3639 -61.6213)
(30.481 7.42796 -11.3784)
(9.04429 -1.24797 4.59361)
(9.19468 -4.45759 -0.38901)
(9.46017 -4.13176 -9.80564)
(9.77473 0.298465 -23.4668)
(9.46897 4.22784 -11.6825)
(9.23322 4.46851 -0.790705)
(9.04762 1.27287 4.98234)
(3.75744 0.206256 19.0719)
(3.76469 0.318104 18.9307)
(3.78137 0.220049 18.8091)
(3.79463 0.139702 18.7218)
(3.79839 -0.0509631 19.1523)
(3.78102 -0.270625 19.5047)
(3.76345 -0.201395 19.5393)
(0.0121768 0.211698 23.7392)
(0.0129219 0.525227 23.9092)
(0.0159294 0.504129 24.124)
(0.0206238 -0.0181946 24.3181)
(0.0259713 -0.548684 24.1408)
(0.0294474 -0.581407 23.9393)
(0.0304778 -0.241301 23.8544)
(-3.73619 0.000457474 19.5638)
(-3.74527 -0.340031 19.3592)
(-3.74265 -0.525802 18.7334)
(-3.7521 -0.031891 18.2559)
(-3.73193 0.316003 18.6868)
(-3.71991 0.0845076 19.0041)
(-3.70975 -0.0732692 19.1181)
(-9.0398 -1.90285 5.55038)
(-9.23861 -6.63516 -0.502736)
(-9.52098 -6.50151 -15.1262)
(-9.96772 0.0253651 -30.277)
(-9.48564 6.13705 -10.439)
(-9.14685 5.84404 -0.507726)
(-9.00403 1.67899 4.93716)
(-31.2457 -7.24455 -8.97243)
(-35.5076 -18.2297 -56.9595)
(-37.8169 2.3994 -130.592)
(-38.2999 -6.83334 -159.444)
(-37.085 9.10233 -113.556)
(-34.8376 17.3712 -45.8324)
(-30.1074 6.99021 -8.8384)
(32.3345 -7.62057 -8.31698)
(35.9012 -20.4982 -54.7369)
(37.2952 -10.0723 -115.129)
(37.5257 3.22566 -155.826)
(36.9914 3.00599 -127.254)
(36.0591 22.5998 -71.2355)
(31.9197 8.93474 -12.0001)
(9.25186 -2.04096 5.66422)
(9.42989 -7.21407 -0.92007)
(9.76334 -5.70196 -30.2936)
(10.3542 0.82273 -59.9229)
(9.75904 8.28766 -26.6276)
(9.43568 6.64134 -0.202903)
(9.22712 1.83994 6.06028)
(3.74706 0.207153 22.4983)
(3.74591 0.339888 22.7597)
(3.76196 0.680894 21.9842)
(3.79311 0.768971 21.8567)
(3.78944 0.0593204 22.8932)
(3.76659 -0.479776 23.315)
(3.75365 -0.349765 23.067)
(-0.00926488 0.381092 28.1644)
(-0.008442 0.921629 28.3573)
(-0.00640114 0.926619 29.1669)
(0.000291446 -0.00425715 29.5451)
(0.0102859 -0.942445 29.1799)
(0.0174755 -0.924351 28.384)
(0.0206334 -0.375769 28.0711)
(-3.75477 0.123769 23.518)
(-3.77466 -0.215353 23.9972)
(-3.77236 -0.560806 22.6508)
(-3.80107 -0.491447 21.6184)
(-3.75879 -0.172507 22.3935)
(-3.72345 -0.0645677 23.0744)
(-3.72699 -0.173624 22.8698)
(-9.23721 -2.56317 7.54281)
(-9.50491 -9.62783 0.269615)
(-9.88982 -8.79598 -40.272)
(-10.5452 -1.93027 -82.7163)
(-9.90952 7.27924 -34.3875)
(-9.42625 8.76994 -0.535047)
(-9.22045 2.35166 6.94225)
(-32.5554 -7.99234 -8.50719)
(-35.9364 -22.4594 -65.0528)
(-37.8757 4.45305 -134.09)
(-37.5683 -5.57561 -163.848)
(-37.3599 13.3958 -116.916)
(-35.8679 23.0064 -53.3148)
(-32.0783 7.92999 -6.51671)
(32.9571 -11.5891 -4.39049)
(36.0276 -25.3198 -53.2709)
(37.1531 -14.9144 -112.821)
(36.9079 3.41232 -159.187)
(36.8135 3.80629 -128.434)
(35.6946 25.7021 -70.1299)
(33.0631 13.4185 -8.3683)
(9.27409 -3.99391 5.54009)
(9.60059 -13.4704 -11.3566)
(10.3417 -2.78174 -64.3474)
(10.673 -1.05798 -89.1652)
(10.2389 2.79755 -54.1498)
(9.45401 12.7259 -9.99844)
(9.21834 3.00511 4.8478)
(3.70453 0.243417 23.5436)
(3.73282 0.338441 22.6378)
(3.78694 0.874723 20.4386)
(3.82026 0.821207 21.123)
(3.81258 0.232715 21.5678)
(3.76393 -0.248062 22.6067)
(3.71667 -0.472348 23.0348)
(-0.0166106 0.547842 31.329)
(-0.0192829 1.83746 31.1807)
(-0.0149311 2.21381 31.7212)
(-0.0121624 -0.0293672 32.5768)
(-0.00498866 -2.29021 31.5065)
(0.00519184 -1.95009 31.0062)
(0.0120254 -0.592878 31.0698)
(-3.72436 0.541782 23.5823)
(-3.80505 0.103608 23.389)
(-3.8372 -0.426687 21.3255)
(-3.85859 -0.809024 20.8694)
(-3.82538 -0.760804 20.9674)
(-3.74186 -0.330583 22.9023)
(-3.69627 -0.385248 23.795)
(-9.24599 -2.72239 6.33664)
(-9.68484 -13.8263 -11.027)
(-10.3072 1.27896 -66.382)
(-10.6294 -2.60969 -107.011)
(-10.3908 3.52316 -68.3679)
(-9.64543 13.4808 -11.3516)
(-9.24628 3.69399 6.97881)
(-33.1506 -11.4523 -6.49843)
(-35.5414 -26.193 -66.3526)
(-37.3996 14.2912 -137.335)
(-36.7136 -2.9815 -167.047)
(-37.0958 18.8661 -117.404)
(-35.9908 27.4583 -52.4811)
(-32.7112 11.3379 -1.49062)
(31.3279 -14.4465 19.5285)
(36.2961 -20.6572 -31.1853)
(37.2564 -1.4476 -101.245)
(37.1858 0.877209 -153.598)
(37.6558 -12.4272 -114.167)
(35.6287 16.3692 -54.9568)
(31.9716 13.3899 9.94635)
(8.87609 -7.19834 13.7472)
(9.52895 -10.999 -15.1719)
(10.4264 -1.66178 -69.3876)
(10.6085 -0.287674 -94.8557)
(10.2451 -14.739 -61.0161)
(9.20665 10.3002 -10.4468)
(8.81775 5.02546 10.6303)
(3.70433 -0.416456 20.1818)
(3.72714 -0.859592 18.0272)
(3.78342 -0.751716 14.4995)
(3.80869 -0.486014 10.9748)
(3.76477 0.907852 13.7403)
(3.72623 0.656693 16.7511)
(3.69273 -0.00518935 17.9727)
(0.0170182 0.315675 23.7008)
(0.00704664 1.41232 23.5153)
(0.00291487 1.88516 23.2348)
(-0.0058558 -0.264554 22.7998)
(-0.0116671 -2.21653 22.948)
(-0.00929658 -1.5732 23.1915)
(-0.0149149 -0.393168 23.335)
(-3.693 -0.0258364 18.4096)
(-3.73211 -0.999067 16.6622)
(-3.74724 -1.31459 12.2849)
(-3.80818 0.884736 8.37857)
(-3.79255 1.36758 13.7492)
(-3.73035 0.72917 18.0892)
(-3.74 0.33499 20.3324)
(-8.87579 -4.19701 10.8382)
(-9.28432 -10.6576 -10.4662)
(-10.2359 20.1202 -66.6927)
(-10.438 -4.02225 -109.023)
(-10.4072 3.40653 -71.2717)
(-9.5375 10.0503 -13.273)
(-8.82472 6.59031 14.0162)
(-31.6856 -11.2981 7.81711)
(-34.9028 -24.4515 -54.7034)
(-37.6871 31.9367 -128.922)
(-37.487 -6.86442 -155.443)
(-36.8237 12.8196 -98.6681)
(-35.9223 18.5933 -29.5076)
(-31.6676 13.3586 22.4678)
(30.4046 -9.35869 22.9812)
(34.8215 -15.1199 -18.1349)
(36.4386 1.57697 -105.982)
(36.5161 -4.30118 -160.76)
(37.3255 -23.2691 -108.415)
(35.1133 12.2979 -51.9632)
(31.1733 7.38035 8.7373)
(8.88184 -5.89108 16.814)
(9.81989 -9.46257 -15.2055)
(10.4879 -5.78337 -55.1307)
(10.6062 4.36781 -92.6075)
(10.427 -19.7561 -51.7389)
(9.37702 10.4353 -11.2281)
(8.71575 3.29023 11.1747)
(3.67144 -0.666866 20.8836)
(3.67831 -1.89793 17.6973)
(3.73855 -2.24234 13.8325)
(3.76136 -2.01394 10.9238)
(3.67995 0.28336 11.8472)
(3.6464 0.766265 15.1622)
(3.62373 0.166799 17.1565)
(0.0354348 0.0720974 22.4835)
(0.026467 0.551532 21.8239)
(0.0200893 1.35121 21.0106)
(0.00522514 -0.473855 20.3126)
(-0.0150851 -2.00335 20.6182)
(-0.0237979 -0.863457 21.4525)
(-0.0245813 -0.159849 22.0736)
(-3.62925 -0.267303 18.0202)
(-3.64168 -1.3992 15.5947)
(-3.65592 -1.10594 10.9396)
(-3.74165 1.87634 8.81832)
(-3.71803 2.61106 12.4958)
(-3.67473 2.14691 17.3662)
(-3.69466 0.723218 20.9238)
(-8.72395 -2.95539 11.9811)
(-9.40457 -10.8754 -11.1162)
(-10.3865 22.1472 -55.3289)
(-10.5288 -4.7156 -105.988)
(-10.4594 5.86876 -51.3458)
(-9.77039 9.29992 -12.4085)
(-8.79874 5.53709 16.7258)
(-31.1192 -7.26259 7.76474)
(-34.8206 -25.054 -57.854)
(-37.3659 34.065 -133.69)
(-36.7777 -11.8108 -165.702)
(-36.4561 7.47916 -82.3154)
(-34.3976 10.6922 -11.3959)
(-30.6857 7.49659 24.7209)
(29.8759 -5.74765 27.0528)
(34.4966 -18.3326 -9.90977)
(36.1662 10.9637 -104.511)
(36.5133 -12.3636 -155.486)
(37.2673 -32.9967 -96.6089)
(34.6338 12.4618 -40.2017)
(30.0935 4.75442 10.0626)
(8.99896 -5.78387 21.7349)
(9.90039 -10.8587 -9.79811)
(10.4751 -6.97328 -40.6709)
(10.5743 14.314 -101.166)
(10.6335 -30.8441 -69.5449)
(9.60992 15.8217 -15.7856)
(8.79061 3.86178 11.4269)
(3.67542 -1.84326 24.4446)
(3.67483 -4.43787 20.1773)
(3.74237 -8.27483 14.0224)
(3.78349 -5.59695 8.39553)
(3.66098 2.5303 10.8776)
(3.60022 2.26585 16.2494)
(3.58144 0.903639 18.9749)
(0.047864 -0.46316 24.7096)
(0.0330711 0.0148409 23.4342)
(0.0192852 0.448086 23.2565)
(0.00620115 -0.624815 23.368)
(-0.0169488 -1.19427 22.8184)
(-0.0365676 -0.338878 23.191)
(-0.0356008 0.383158 24.3538)
(-3.59766 -1.00396 20.3514)
(-3.61667 -3.15877 17.4389)
(-3.65742 -4.89829 9.8562)
(-3.77112 4.54693 3.63881)
(-3.73185 9.01417 11.8006)
(-3.67505 5.17616 20.2819)
(-3.69695 1.96579 24.5242)
(-8.75945 -3.54579 14.3612)
(-9.65934 -17.6758 -11.1663)
(-10.5986 34.47 -72.7344)
(-10.6111 -5.47196 -109.454)
(-10.4992 7.67381 -43.3599)
(-9.89751 12.4462 -7.643)
(-8.90881 6.05965 21.4302)
(-30.5089 -7.08642 13.2165)
(-35.1241 -23.5487 -59.5672)
(-37.0404 35.7605 -134.748)
(-36.4389 -28.2814 -164.168)
(-36.1958 7.51706 -56.5875)
(-33.9727 11.4238 -1.84996)
(-30.0949 4.73762 27.0449)
(29.7715 -3.50637 27.1003)
(34.0149 -21.8554 1.74231)
(35.6353 35.6883 -91.1931)
(35.9694 -8.44868 -142.559)
(37.1607 -31.5484 -91.3847)
(34.909 14.4448 -29.8984)
(29.767 5.13139 10.0005)
(9.13775 -4.31581 24.0948)
(10.0746 -10.9148 6.98718)
(10.4766 -1.02538 -27.9126)
(10.5064 27.625 -98.3377)
(10.6897 -21.208 -96.9016)
(9.98514 13.2554 -21.4307)
(8.94234 6.25519 11.3877)
(3.69704 -2.12651 29.0176)
(3.74722 -12.4405 21.443)
(3.89723 -15.119 -13.9706)
(3.93346 -12.9331 -23.4611)
(3.77961 -1.65223 -11.5457)
(3.60091 5.50082 19.4085)
(3.57348 0.693169 22.9989)
(0.0598733 -0.473927 28.2891)
(0.0451431 -1.05486 28.8945)
(0.014344 -1.77965 27.5779)
(-0.0037869 -0.69459 25.7994)
(-0.0289436 1.07017 27.2623)
(-0.0558831 0.7057 28.9419)
(-0.0607073 0.305138 28.3807)
(-3.60654 -0.657948 24.5902)
(-3.63083 -6.71476 20.1482)
(-3.80061 -1.43187 -13.1863)
(-3.93922 10.9705 -32.7646)
(-3.92439 14.1763 -20.0974)
(-3.77287 13.0149 21.4913)
(-3.73174 2.0921 30.0811)
(-8.93847 -4.8247 15.5595)
(-10.0056 -18.718 -8.72776)
(-10.6771 36.615 -105.506)
(-10.6136 -16.6403 -111.054)
(-10.571 3.28637 -37.2179)
(-10.105 12.4446 8.85506)
(-9.1814 4.18767 25.247)
(-30.0238 -7.65495 15.0137)
(-35.3904 -17.9558 -54.1403)
(-36.7965 36.8775 -135.674)
(-36.0516 -33.2243 -160.799)
(-35.5848 8.43036 -44.2029)
(-33.8202 11.306 5.11984)
(-29.8552 3.91941 28.1421)
(29.7407 -0.369917 29.4024)
(34.017 -23.5437 6.89395)
(35.1851 62.7353 -116.169)
(36.0331 -3.95543 -138.783)
(36.7841 -20.8043 -86.7475)
(35.061 8.51697 -20.3257)
(29.8599 4.00813 15.4001)
(9.32992 -4.11535 29.0372)
(10.2354 -10.3503 8.6479)
(10.3965 9.51347 -25.8282)
(10.4418 33.7638 -93.9273)
(10.571 20.5092 -107.664)
(10.2461 9.00749 -46.6887)
(9.24547 9.48339 14.0372)
(3.7503 -4.70093 30.5111)
(3.88224 -13.0954 2.86317)
(3.97917 -7.9927 -40.2261)
(4.0055 -14.1985 -48.4588)
(3.83807 -15.4156 -31.9113)
(3.65487 5.67846 10.461)
(3.56409 2.1775 26.2414)
(0.0862891 0.547913 34.885)
(0.0814969 -1.20765 33.7973)
(0.0340204 -1.6823 27.6825)
(-0.0161004 -0.52083 28.3946)
(-0.0566572 1.19386 27.2413)
(-0.0790688 0.902692 34.1218)
(-0.0838308 -0.564795 35.1033)
(-3.58315 -2.22617 27.3141)
(-3.63849 -6.49642 12.0396)
(-3.84207 15.9503 -32.8151)
(-4.04156 13.5603 -51.9535)
(-4.02797 6.40103 -42.4407)
(-3.91824 13.2873 2.3212)
(-3.78992 4.73414 31.7102)
(-9.3811 -8.44737 17.409)
(-10.2137 -14.1564 -26.7961)
(-10.5615 8.79594 -119.732)
(-10.5082 -42.209 -114.781)
(-10.4714 -2.89839 -27.3147)
(-10.3196 9.61377 9.84021)
(-9.39013 4.76882 29.1558)
(-29.8228 -4.71028 18.0217)
(-35.0796 -13.3509 -31.0531)
(-36.8303 37.5369 -133.877)
(-35.9094 -37.5017 -161.849)
(-34.3907 -8.48904 -40.6296)
(-33.6792 10.6787 14.801)
(-29.8166 1.4225 29.9255)
(29.9345 -1.38012 31.9397)
(33.5581 -23.6321 -38.5353)
(35.5413 77.496 -141.712)
(36.8578 -33.5531 -136.767)
(36.2229 -5.9825 -74.7699)
(34.1201 1.62383 -15.213)
(30.0974 -0.795345 18.4416)
(9.37903 -1.15291 33.0066)
(10.2133 -9.69058 1.30523)
(10.228 34.1311 -34.6526)
(10.2851 60.2802 -90.2377)
(10.3884 54.5874 -91.2583)
(10.2724 20.6893 -52.127)
(9.38561 9.62144 18.147)
(3.87068 -3.45668 30.3919)
(3.99284 -2.93596 -3.01158)
(4.00918 9.69212 -36.1748)
(4.00042 -1.67583 -53.6206)
(3.84287 -23.1083 -27.5251)
(3.74886 4.27084 0.744267)
(3.62369 5.64464 32.0956)
(0.0846591 0.408976 36.7297)
(0.083769 -1.75642 32.6254)
(0.060503 -1.28107 27.1104)
(-0.00150586 -0.0812149 29.5589)
(-0.057167 1.35986 26.9974)
(-0.0703361 2.02041 33.2301)
(-0.0772273 -0.750469 38.2503)
(-3.63699 -5.24295 31.6759)
(-3.73954 -5.03833 1.66008)
(-3.83763 24.8086 -29.9754)
(-4.01392 4.64967 -57.7299)
(-4.01806 -11.0249 -38.5423)
(-3.99127 4.00375 -1.77329)
(-3.8476 3.69412 31.6654)
(-9.38459 -9.82554 22.9899)
(-10.2739 -14.9947 -39.8546)
(-10.378 -25.9022 -108.307)
(-10.3189 -63.0174 -107.056)
(-10.251 -18.9944 -28.0335)
(-10.3023 6.89646 7.06775)
(-9.47752 0.425768 32.2784)
(-30.1142 -1.24747 21.1204)
(-34.3227 -17.7493 -19.055)
(-36.2656 30.6604 -114.444)
(-36.4169 -38.484 -159.468)
(-34.4481 -70.8002 -95.6343)
(-32.8445 21.8959 -3.33282)
(-29.9389 -2.20276 31.9069)
(34.0224 45.5806 -15.7341)
(35.477 127.147 -82.4305)
(35.1423 117.684 -121.286)
(36.5038 -73.0957 -81.1182)
(34.6013 -25.5497 0.867173)
(32.9397 -16.4711 28.2884)
(32.612 -39.4415 41.6328)
(9.89635 24.1487 6.58595)
(10.0968 39.3315 -23.0335)
(9.85854 103.535 -65.9006)
(9.98244 104.887 -82.0369)
(10.3236 69.6225 -84.3728)
(10.3543 30.8963 -36.2111)
(9.31552 0.890724 49.1557)
(3.87809 -1.15283 26.0715)
(3.95335 -7.44212 -10.5599)
(3.86891 19.2267 -22.7513)
(3.86847 29.8681 -45.8004)
(3.89381 -14.4322 -29.5459)
(3.83803 12.9051 3.44589)
(3.68329 1.0076 44.5258)
(-0.00538834 -1.39187 45.1864)
(0.00678169 -4.58501 22.3663)
(0.0339789 -1.74894 16.8988)
(0.0231216 0.402616 18.6623)
(-0.0164438 2.51457 16.7674)