/*--------------------------------*- C++ -*----------------------------------*\
  =========                 |
  \\      /  F ield         | OpenFOAM: The Open Source CFD Toolbox
   \\    /   O peration     | Website:  https://openfoam.org
    \\  /    A nd           | Version:  6
     \\/     M anipulation  |
\*---------------------------------------------------------------------------*/
FoamFile
{
    version     2.0;
    format      ascii;
    class       volScalarField;
    location    "4.5";
    object      p;
}
// * * * * * * * * * * * * * * * * * * * * * * * * * * * * * * * * * * * * * //

dimensions      [1 -1 -2 0 0 0 0];

internalField   nonuniform List<scalar> 
297
(
118323
118323
118323
196832
196831
196832
118323
118323
118323
118323
118323
118323
196822
196821
196821
118323
118323
118323
118324
118324
118324
196818
196818
196817
118324
118324
118324
97821
97191.4
96791.3
164009
162040
160706
97588.1
96865.6
96523.9
96163.3
95281.6
95899
161515
158434
159004
96321.7
95210.3
95655.1
93710.1
92130.3
90395
156188
152276
149573
95313.7
93226.6
90265.5
90794
91959.9
94808.1
155606
154949
158291
88654.6
92366.5
95575.3
95457.5
95619
96713.8
157272
158250
160303
95963.6
96129.9
97241.9
97092.7
97665.8
98229
163282
163016
162934
97693.8
97978.3
97968.7
88669.7
89724.3
86125.7
138190
146824
149980
88151.6
89582.8
86375.5
88522.6
89583.4
85961.8
137430
146484
148800
87831
89336.5
86383.6
88969.4
89712.7
86436.3
138395
146952
148625
88153.6
89475.3
86978
98426.5
98856
98744.4
163503
163577
163710
98097.9
98129.5
97846.3
98721.7
99218.2
99145.7
163360
163559
163796
98230.6
98234
97879.9
98934.7
99476.4
99307.7
163227
163504
163856
98298.4
98356.2
98007.7
98837.6
98444.2
98202.2
162925
162648
162750
97982.3
98163.8
98568.7
98813.2
98334
97929.6
162798
162440
162470
97926.6
97995.4
98210.8
98927.9
98253.7
97559.2
162789
162384
162274
97931.8
97836
97761.8
98255
98349.4
98506.5
162274
162520
162875
97699.4
97729.1
97872
98161.3
98348.3
98516.8
162162
162434
162745
97426.5
97587.5
97825.1
98054.9
98359.9
98561.3
162006
162347
162647
97269.5
97529.3
97818
98088.7
98302.6
98331
162074
162097
162153
99410.7
98834.5
98063
97882.8
98060.1
98120
161730
161716
161875
98712.9
97969.4
97488.7
97629.8
97761.9
97836.7
161193
161177
161352
97907.5
97303.4
96998.8
96285.2
96269.9
96288.7
158031
157998
157871
94329.5
94304.7
94243.2
91716.7
91682.1
91668.5
150984
150958
150905
90814.9
90794.8
90691.2
85576.5
85569.3
85564.8
138935
138889
138821
87382.8
87507.1
87638.8
98211
98220.8
98175.9
163112
163312
163331
98931.6
99098.8
99108.6
98018.9
98149.3
98136.4
162775
162982
163011
98616.2
98885.5
98924.8
97842.5
98086.7
98044.5
162386
162577
162542
98266.9
98618.5
98623.2
96778.3
96828.8
96884.1
160545
160639
160629
96602.2
96657.1
96718.8
92729.3
92719.9
92765.2
153320
153324
153331
92724.6
92709.7
92751.8
85958.4
85958
85964.9
138275
138292
138307
85949.6
85949.3
85956.2
)
;

boundaryField
{
    fuel
    {
        type            zeroGradient;
    }
    primary_air
    {
        type            zeroGradient;
    }
    Secondary_air_RHS
    {
        type            zeroGradient;
    }
    Secondary_air_LHS
    {
        type            zeroGradient;
    }
    outlet
    {
        type            totalPressure;
        rho             rho;
        psi             none;
        gamma           1;
        p0              uniform 100000;
        value           nonuniform List<scalar> 
18
(
89268.1
100000
89254.3
89251
100000
89236.3
89287.2
100000
89272.5
88586.3
100000
89657.1
88554
100000
93667.7
88547.9
100000
99998.2
)
;
    }
    stove_body
    {
        type            zeroGradient;
    }
    frontAndBack
    {
        type            empty;
    }
}


// ************************************************************************* //
