/*--------------------------------*- C++ -*----------------------------------*\
  =========                 |
  \\      /  F ield         | OpenFOAM: The Open Source CFD Toolbox
   \\    /   O peration     | Website:  https://openfoam.org
    \\  /    A nd           | Version:  6
     \\/     M anipulation  |
\*---------------------------------------------------------------------------*/
FoamFile
{
    version     2.0;
    format      ascii;
    class       volScalarField;
    location    "4.5";
    object      T;
}
// * * * * * * * * * * * * * * * * * * * * * * * * * * * * * * * * * * * * * //

dimensions      [0 0 0 1 0 0 0];

internalField   nonuniform List<scalar> 
297
(
292.921
292.92
292.921
292.947
292.947
292.947
292.921
292.92
292.921
292.924
292.924
292.925
292.972
292.972
292.975
292.924
292.924
292.925
292.933
292.931
292.935
293.506
293.611
293.888
292.933
292.931
292.935
970.663
912.791
758.098
1035.14
1005.54
853.484
955.895
913.345
758.13
1217.17
1161.06
888.147
1090.16
1097.27
927.652
1113.36
1076.73
892.178
1293.76
1266.79
1048.02
1085.41
1140.81
963.417
1142.58
1164.44
982.918
984.849
1275.83
1319.94
906.036
1175.99
1206.48
859.144
1233.47
1267.53
917.986
1292.84
1325.93
766.942
1124.23
1211.98
784.296
1218.2
1270.39
556.089
1226.53
1329.78
469.999
828.96
1044.69
483.171
1052.85
1271.45
1286.38
1278.97
1136.54
1034.48
1148.37
1028.22
1125.01
1233.44
1084.77
1162.55
1277.97
1214.98
993.453
1148.57
1063.76
1012.99
1233.03
1164.06
1057.82
1276.51
1296.08
958.982
1147.56
1185.3
921.695
1232.81
1244.21
377.014
550.156
562.886
312.854
308.682
303.163
303.512
342.59
362.247
371.577
382.426
383.203
318.945
308.3
303.18
305.482
309.905
307.45
343.91
339.578
338.663
319.191
315.197
305.79
306.483
307.856
304.487
301.064
300.75
300.434
300.969
300.83
300.919
300.694
300.813
301.055
301.501
301.036
300.597
301.189
301.025
301.106
301.087
301.054
301.181
301.958
301.307
300.688
301.478
301.337
301.321
301.3
301.246
301.188
302.51
310.509
311.105
301.107
302.447
303.22
299.524
299.541
299.633
309.104
368.087
369.751
321.295
331.558
329.417
302.056
301.947
301.881
306.152
353.551
359.685
328.54
332.279
326.44
306.551
304.71
304.669
301.672
301.44
301.334
300.534
300.98
300.749
299.01
300.213
299.673
301.845
301.26
301.073
300.854
301.116
302.251
299.012
300.976
300.97
301.883
301.143
300.918
301.698
306.993
317.948
298.607
301.495
306.717
300.787
300.764
300.179
300.725
305.954
308.734
297.973
300.963
303.548
298.365
298.157
297.427
298.059
301.328
303.721
293.884
294.987
298.503
292.3
292.27
291.55
288.155
288.402
285.737
291.252
291.428
303.075
300.294
300.365
300.401
301.111
301.23
301.131
301.181
301.344
301.443
300.342
300.501
300.591
301.273
301.28
301.016
301.148
301.303
301.379
300.259
300.441
300.764
301.438
301.218
300.901
300.889
300.933
301.27
299.854
300.333
300.263
301.749
300.771
298.825
300.078
300.281
300.166
298.093
297.94
298.075
299.912
298.789
298.289
298.088
297.884
298.07
291.82
291.817
291.939
287.614
287.344
287.589
291.836
291.833
291.954
)
;

boundaryField
{
    fuel
    {
        type            fixedValue;
        value           uniform 293;
    }
    primary_air
    {
        type            fixedValue;
        value           uniform 293;
    }
    Secondary_air_RHS
    {
        type            fixedValue;
        value           uniform 293;
    }
    Secondary_air_LHS
    {
        type            fixedValue;
        value           uniform 293;
    }
    outlet
    {
        type            inletOutlet;
        inletValue      uniform 293;
        value           nonuniform List<scalar> 
18
(
293
287.617
293
293
287.348
293
293
287.593
293
293
288.16
293
293
288.408
293
293
285.743
293
)
;
    }
    stove_body
    {
        type            fixedValue;
        value           uniform 293;
    }
    frontAndBack
    {
        type            empty;
    }
}


// ************************************************************************* //
