/*--------------------------------*- C++ -*----------------------------------*\
  =========                 |
  \\      /  F ield         | OpenFOAM: The Open Source CFD Toolbox
   \\    /   O peration     | Website:  https://openfoam.org
    \\  /    A nd           | Version:  6
     \\/     M anipulation  |
\*---------------------------------------------------------------------------*/
FoamFile
{
    version     2.0;
    format      ascii;
    class       volVectorField;
    location    "4.5";
    object      U;
}
// * * * * * * * * * * * * * * * * * * * * * * * * * * * * * * * * * * * * * //

dimensions      [0 1 -1 0 0 0 0];

internalField   nonuniform List<vector> 
297
(
(20.6991 -0.00445292 0.280311)
(20.699 0.0029332 0.279481)
(20.6991 0.00749568 0.277924)
(-1.87468e-08 0.00944317 0.263532)
(-3.00473e-08 -0.003609 0.261528)
(-3.88368e-08 -0.0127332 0.261658)
(-20.6991 -0.00445133 0.280311)
(-20.699 0.00293497 0.279481)
(-20.6991 0.0074959 0.277924)
(20.698 -0.00203118 0.294438)
(20.6979 0.00173096 0.294249)
(20.698 0.00486378 0.292428)
(-1.87982e-08 0.032187 -0.0513231)
(-2.99303e-08 -0.0169002 -0.0369186)
(-3.80196e-08 -0.0433441 -0.0387305)
(-20.698 -0.00202943 0.294439)
(-20.6979 0.00173286 0.29425)
(-20.698 0.00486394 0.292428)
(20.7007 -0.0166947 0.500213)
(20.7006 0.00716398 0.501153)
(20.7008 0.0275964 0.496241)
(-1.46241e-08 0.0617236 0.344148)
(-2.36587e-08 -0.0229987 0.329913)
(-2.93977e-08 0.0193538 0.33048)
(-20.7007 -0.0166911 0.500215)
(-20.7006 0.00716724 0.501154)
(-20.7008 0.0275963 0.496242)
(45.2295 24.0828 -31.1728)
(42.3523 38.734 -15.2284)
(34.9772 49.6522 22.393)
(-0.0256697 6.78996 -86.6141)
(-0.0353197 39.1972 -52.9991)
(-0.0246829 52.7815 20.8933)
(-44.6176 23.5885 -29.253)
(-42.465 37.5408 -13.2057)
(-35.0235 48.7987 22.4702)
(57.078 12.9999 -3.85276)
(53.9622 59.6923 70.3164)
(41.0778 29.1809 96.5531)
(0.0187119 -22.8681 -147.556)
(-0.00866206 55.2904 -23.7726)
(-0.0247987 33.9035 91.2093)
(-52.1768 13.407 -5.39503)
(-50.1353 57.8173 63.1295)
(-41.3796 29.2913 95.5316)
(60.1962 -35.7947 -42.4866)
(58.6397 40.2722 29.3518)
(48.8503 94.3127 211.19)
(0.193292 -42.2263 -193.961)
(0.143852 65.1563 28.2214)
(-0.0146345 63.6077 128.422)
(-52.6298 -24.2188 -36.7531)
(-53.4597 39.0758 20.1825)
(-45.8456 83.5686 204.101)
(47.2586 -53.0347 -130.808)
(60.0686 -86.4465 -56.456)
(61.1975 60.2463 131.546)
(-0.22069 -21.8629 -270.967)
(0.054027 -72.734 -41.3631)
(0.10184 43.3848 112.084)
(-41.8981 -47.3792 -126.587)
(-57.9008 -81.7495 -60.5338)
(-58.5325 60.927 122.926)
(42.7329 -42.3061 -116.742)
(60.0721 -63.8641 -24.3126)
(61.7666 18.4444 64.1972)
(0.0433582 -53.4932 -97.1755)
(0.063597 -54.391 -67.9748)
(0.0699718 -5.72777 19.3)
(-36.3743 -21.5101 -111.666)
(-56.4851 -64.8188 -36.3042)
(-58.9844 16.0843 51.9487)
(26.1822 -10.6327 -33.6616)
(57.3041 -39.6868 -30.2679)
(62.0326 -6.81074 42.8739)
(0.0303855 -5.28654 -41.5856)
(0.0278591 -34.3788 -31.0158)
(-0.0292663 -24.4407 5.04404)
(-22.6691 8.32771 -35.7239)
(-49.1647 -39.1742 -35.1935)
(-59.4217 -9.27959 33.9036)
(53.275 -74.9037 -174.584)
(57.396 -62.714 -75.445)
(56.4171 69.2283 238.408)
(-0.0581388 -58.5302 -327.755)
(-0.0190674 28.4938 53.7881)
(0.0308039 58.3242 172.907)
(-47.0621 -56.8494 -166.624)
(-53.487 -58.4963 -79.7834)
(-54.084 67.7318 230.389)
(48.2622 -71.246 -148.024)
(57.3309 -67.1728 -78.5264)
(54.6672 68.5748 249.748)
(-0.0823973 -54.6797 -311.247)
(-0.0330103 14.505 49.0218)
(0.0514144 57.0006 188.422)
(-42.4115 -55.0553 -142.844)
(-54.2058 -60.2798 -85.7879)
(-52.7576 66.4919 240.317)
(48.4155 -70.0444 -135.512)
(58.2229 -73.072 -79.7654)
(53.9886 77.7486 269.731)
(-0.10658 -54.3505 -298.495)
(-0.0315805 -10.2729 63.4362)
(0.0687191 57.5102 220.249)
(-43.1774 -55.3829 -130.974)
(-55.8679 -68.6842 -84.3752)
(-51.8753 75.0481 256.131)
(17.5482 -0.597782 -10.4576)
(25.589 -37.8747 -3.33206)
(26.185 -32.124 3.40462)
(-0.0110173 -12.7603 -8.91566)
(-0.024032 -27.8992 -6.3968)
(-0.0291727 -28.8123 -4.93116)
(-14.1589 24.3744 -13.5134)
(-16.0224 -36.4575 -3.82184)
(-16.9584 -36.0754 -0.934477)
(17.3181 -26.6332 -1.49347)
(17.7446 -34.0048 2.06724)
(17.812 -30.2978 5.6389)
(-0.0168492 -7.98282 -5.14196)
(-0.0326248 -16.9671 -1.47709)
(-0.0411718 -19.3449 2.59245)
(-14.276 1.94564 3.25882)
(-14.4897 -29.9766 2.38107)
(-14.4135 -29.3727 3.7034)
(16.0117 -3.4877 0.0412679)
(15.7733 -17.2682 1.12597)
(15.7659 -14.7893 4.69019)
(-0.0218744 -8.09636 -1.56644)
(-0.0379699 -7.0778 -2.10884)
(-0.0426523 -3.78902 -2.31779)
(-14.3219 -12.0165 0.485652)
(-14.4024 -12.3337 3.47694)
(-14.3023 -2.09036 3.50822)
(13.9844 -32.9655 -6.89559)
(14.0225 -31.0403 -9.76408)
(14.0036 -25.5489 -14.4765)
(-0.0277476 -28.0983 -5.9239)
(-0.00911532 -26.3172 -7.13869)
(0.011902 -21.1279 -7.59321)
(-14.0493 -36.766 -8.27206)
(-14.0486 -33.0711 -10.5307)
(-13.9958 -25.7234 -15.3651)
(14.0211 -25.7628 0.769388)
(14.035 -27.6508 -4.91674)
(13.9777 -25.1206 -13.8104)
(-0.028704 -22.1841 2.40313)
(-0.0109963 -22.6226 2.11997)
(0.00915839 -18.2883 1.77282)
(-14.0773 -27.9984 -0.161993)
(-14.0674 -30.5579 -6.01086)
(-13.9748 -24.9809 -14.4362)
(14.0443 0.0302346 -1.06101)
(14.0404 -13.6916 -14.4028)
(13.9786 -21.5461 -20.0274)
(-0.032441 -5.94954 0.444852)
(-0.0136207 -9.52373 2.13506)
(0.00660196 -12.2128 0.81244)
(-14.1069 0.851223 -3.08563)
(-14.0836 -14.4241 -13.8753)
(-13.9882 -21.8199 -20.875)
(14.0597 23.7043 -12.3584)
(14.4255 22.7732 -9.48786)
(14.4574 26.1921 -6.72408)
(-0.0181019 9.00419 -3.71183)
(-0.0202647 7.4511 -2.68806)
(-0.0207359 10.1468 -0.417525)
(-13.933 44.6298 -10.6927)
(-13.9547 41.474 -9.73038)
(-13.9708 39.1155 -7.00917)
(14.4013 14.0159 -4.19144)
(17.1305 -11.3462 4.74083)
(17.2529 -20.7228 1.57405)
(-0.025561 -5.36359 5.57197)
(-0.0272455 -12.0362 2.38651)
(-0.0245836 -9.39875 -2.63668)
(-14.1379 33.3752 3.98777)
(-14.1446 27.0366 6.66036)
(-14.0963 25.8068 7.53278)
(14.272 11.0479 1.33182)
(16.4489 -1.84611 5.27681)
(16.7427 5.61687 5.46732)
(-0.0279002 -20.899 5.57796)
(-0.0298341 -10.007 2.6269)
(-0.026193 -6.68682 1.34341)
(-14.3257 -22.0974 4.83645)
(-14.251 -17.0071 2.76423)
(-14.2154 -12.238 2.47717)
(14.0358 -5.23792 -6.96903)
(14.0047 1.91931 -20.2488)
(14.0076 7.77571 -17.9845)
(0.0430046 5.92757 -6.92446)
(0.0173042 5.60352 -4.73574)
(-0.0087162 8.77517 -4.53577)
(-13.7502 19.8609 -30.0128)
(-13.8034 25.6035 -22.8693)
(-13.9514 42.7916 -17.3963)
(14.0469 -4.60603 2.39811)
(13.994 2.04418 -30.0019)
(13.996 3.8813 -23.2481)
(0.0270953 0.811734 6.63494)
(-0.00296262 5.16162 6.65008)
(-0.0206809 5.97123 11.046)
(-13.8083 5.22614 -47.1431)
(-13.9275 19.2025 -27.4027)
(-14.0744 32.9494 -5.52357)
(14.0383 -2.03455 4.5306)
(14.0862 1.68769 -37.6657)
(14.031 1.03711 -28.182)
(0.00908787 -0.758541 4.87476)
(-0.0152607 -10.1391 16.4059)
(-0.0286999 -18.1896 17.134)
(-13.9939 1.90061 -58.6325)
(-14.0082 17.1871 -18.603)
(-14.2493 -20.4792 16.5549)
(13.9468 1.8891 -17.1305)
(13.9675 1.41741 -56.4003)
(13.9193 -0.397088 -58.6238)
(-0.0653505 0.131277 51.429)
(-0.0667931 -2.32136 32.8799)
(-0.0702341 -7.44037 32.6489)
(-14.0372 -10.5302 -87.2781)
(-14.1522 13.9975 33.4174)
(-14.2753 -6.23657 64.2421)
(13.8218 0.834841 -115.884)
(13.8195 1.64639 -120.555)
(13.7841 1.0813 -121.005)
(-0.0312558 1.8102 77.9917)
(-0.0310768 2.75871 64.1031)
(-0.0345177 0.240562 66.0476)
(-13.6992 2.75183 -123.438)
(-13.7857 -1.89076 -66.9048)
(-13.937 -0.0683277 101.688)
(13.397 0.12553 -149.697)
(13.3923 0.201254 -149.936)
(13.3559 0.0759059 -149.981)
(0.0653829 0.411693 181.384)
(0.0702126 0.412475 182.515)
(0.0744218 -0.194367 207.41)
(-13.1669 -2.95585 -141.649)
(-13.1762 -6.24151 -108.435)
(-13.6767 -3.73917 -1.78296)
(14.038 -15.6973 -23.5659)
(14.0571 -4.0714 -20.6349)
(14.062 4.41682 -8.18066)
(0.0233442 -13.2561 -10.3853)
(0.0284259 -4.18055 -9.35954)
(0.0301755 3.8137 0.467664)
(-14.0145 -15.6723 -24.2647)
(-14.0255 -3.0663 -21.3664)
(-14.0291 4.66184 -8.62182)
(14.0189 -17.9934 -26.6977)
(14.0502 -5.2921 -24.007)
(14.0507 -1.10269 6.42565)
(0.019405 -13.154 -6.98723)
(0.0238378 -5.40334 -7.35606)
(0.025544 1.81621 11.6933)
(-14.0037 -17.8853 -27.2682)
(-14.0221 -5.52542 -24.879)
(-14.0173 -0.982304 6.77816)
(14.0354 -12.3424 -33.8148)
(14.1596 -4.71063 -27.9602)
(14.0292 -2.64433 -1.33545)
(0.0138212 -7.81504 -8.29891)
(0.0172295 -5.93625 -12.1053)
(0.0187757 1.88079 15.7279)
(-14.0358 -11.9085 -34.3152)
(-14.139 -5.45986 -28.7688)
(-14.0014 -2.60201 -1.77283)
(14.0218 9.96099 -54.6809)
(14.05 -2.22559 -37.9392)
(14.0156 -4.77124 -5.0667)
(-0.00581627 11.7407 14.8628)
(-0.00564648 -1.84644 24.8749)
(-0.00540131 -2.06144 48.7099)
(-14.0494 9.86229 -54.6666)
(-14.0639 -1.45011 -38.7921)
(-14.0267 -5.16531 -5.51642)
(13.8591 -6.10896 -107.068)
(13.8493 -0.484906 -111.613)
(13.8558 -0.36332 -105.385)
(-0.000161862 -0.546458 55.4181)
(-0.000350912 -1.93881 63.5128)
(-0.000458654 -1.67864 74.4906)
(-13.8593 -6.12591 -107.6)
(-13.8476 -0.544967 -112.038)
(-13.8566 -0.275798 -105.753)
(13.3015 0.0478314 -144.602)
(13.3015 -0.117733 -144.731)
(13.3089 -0.128628 -144.458)
(-0.000320545 -0.474123 185.29)
(-0.000315271 -1.29329 185.808)
(-0.000314052 -1.00102 181.843)
(-13.303 0.046677 -144.706)
(-13.303 -0.121212 -144.842)
(-13.3104 -0.130575 -144.569)
)
;

boundaryField
{
    fuel
    {
        type            fixedValue;
        value           uniform (0 0 0.25);
    }
    primary_air
    {
        type            fixedValue;
        value           uniform (0 0 2.5);
    }
    Secondary_air_RHS
    {
        type            fixedValue;
        value           uniform (0 52.7778 0);
    }
    Secondary_air_LHS
    {
        type            fixedValue;
        value           uniform (0 -52.7778 0);
    }
    outlet
    {
        type            pressureInletOutletVelocity;
        value           nonuniform List<vector> 
18
(
(0 0 -144.602)
(-0.000320545 -0.474123 185.29)
(0 0 -144.706)
(0 0 -144.731)
(-0.000315271 -1.29329 185.808)
(0 0 -144.842)
(0 0 -144.458)
(-0.000314052 -1.00102 181.843)
(0 0 -144.569)
(0 0 -149.697)
(0.0653829 0.411693 181.384)
(0 0 -141.649)
(0 0 -149.936)
(0.0702126 0.412475 182.515)
(0 0 -108.435)
(0 0 -149.981)
(0.0744218 -0.194367 207.41)
(0 0 -1.78296)
)
;
    }
    stove_body
    {
        type            noSlip;
    }
    frontAndBack
    {
        type            empty;
    }
}


// ************************************************************************* //
