# Probe 0 (0 -0.07 0.5)
# Probe 1 (0 -0.04 0.5)
# Probe 2 (0 -0.07 0.3)
# Probe 3 (0 -0.07 0.33)
# Probe 4 (0 -0.04 0.3)
# Probe 5 (0 -0.04 0.33)
# Probe 6 (0 0 0.33)
# Probe 7 (0 0 0.3)
# Probe 8 (0 0.1 0.33)
# Probe 9 (0 0.1 0.3)
# Probe 10 (0 0.14 0.3)
# Probe 11 (0 0.14 0.33)
# Probe 12 (0 0.17 0.3)
# Probe 13 (0 0.17 0.33)
# Probe 14 (0 0.14 0.5)
# Probe 15 (0 0.14 0.33)
#       Probe             0             1             2             3             4             5             6             7             8             9            10            11            12            13            14            15
#        Time
          0.5       291.308       291.186       299.687       299.885       299.587       299.742       299.569       309.285       299.227       299.745       298.893       299.019       299.236       299.173       291.045       299.019
            1       291.493       291.364       299.542       299.953       299.771       299.904       299.504       299.773       299.571        299.42       299.299       299.423       299.596       299.563       291.278       299.423
          1.5       291.613       291.487       299.961       300.196       300.013       300.162        299.71       300.178       299.698       299.718        299.53       299.541       299.919       299.739       291.366       299.541
            2       291.589       291.462       299.943       300.095       299.967       300.089       299.793       300.252       299.507       299.447        299.37       299.387       299.678       299.566       291.301       299.387
          2.5       291.589       291.462       299.943       300.095       299.967       300.089       299.793       300.252       299.507       299.447        299.37       299.387       299.678       299.566       291.301       299.387
            3       291.589       291.462       299.943       300.095       299.967       300.089       299.793       300.252       299.507       299.447        299.37       299.387       299.678       299.566       291.301       299.387
          3.5       291.589       291.462       299.943       300.095       299.967       300.089       299.793       300.252       299.507       299.447        299.37       299.387       299.678       299.566       291.301       299.387
            4       291.589       291.462       299.943       300.095       299.967       300.089       299.793       300.252       299.507       299.447        299.37       299.387       299.678       299.566       291.301       299.387
          4.5       291.589       291.462       299.943       300.095       299.967       300.089       299.793       300.252       299.507       299.447        299.37       299.387       299.678       299.566       291.301       299.387
            5       291.589       291.462       299.943       300.095       299.967       300.089       299.793       300.252       299.507       299.447        299.37       299.387       299.678       299.566       291.301       299.387
