/*--------------------------------*- C++ -*----------------------------------*\
  =========                 |
  \\      /  F ield         | OpenFOAM: The Open Source CFD Toolbox
   \\    /   O peration     | Website:  https://openfoam.org
    \\  /    A nd           | Version:  6
     \\/     M anipulation  |
\*---------------------------------------------------------------------------*/
FoamFile
{
    version     2.0;
    format      ascii;
    class       volScalarField;
    location    "4.5";
    object      O2;
}
// * * * * * * * * * * * * * * * * * * * * * * * * * * * * * * * * * * * * * //

dimensions      [0 0 0 0 0 0 0];

internalField   nonuniform List<scalar> 
297
(
0
0
0
0
0
0
0
0
0
0
0
0
0
0
0
0
0
0
0
0
0
0
0
0
0
0
0
0.066736
0.0831866
0.155414
0.164977
0.161181
0.206299
0.062775
0.0768712
0.142695
0
8.01211e-06
0.0219263
0.0770757
0.125887
0.108089
0
5.9402e-06
0.00968786
0
0
0
0.0499132
0.0245712
0.0749998
0
0
0
0
1.67792e-10
0
0
0
0
7.54878e-05
1.27934e-09
0
0
0
0
0
0
0
0
0
0
0
0
0
0
0
0
0
0
0
0
0
0
0.00711404
5.34361e-07
0.0306905
0
0
0
0
0
0
0
0
0.0103619
0
3.77022e-09
0
0
0
0
0
0
0
0
0
0
0
0
0
0
0
0
0
0
0
1.71975e-21
2.92091e-18
2.12131e-18
0
0
0
0
1.109e-18
5.332e-17
2.01508e-21
5.67081e-18
7.94271e-17
0
0
0
2.56052e-19
1.14881e-18
3.42211e-20
0
3.13494e-18
7.50604e-19
0
1.90683e-17
9.00122e-20
0
0
0
0
1.13446e-18
7.86413e-19
0
0
0
0
0
0
4.73749e-17
4.33442e-17
3.30439e-17
0
0
0
0
0
0
5.29231e-22
0
0
0
0
0
1.62877e-20
5.00713e-20
0
1.27108e-21
1.32595e-21
0
0
0
0
1.8935e-20
9.56608e-20
0
2.59799e-21
2.17036e-21
1.19389e-21
1.60914e-20
2.26724e-20
1.49667e-20
4.30215e-19
5.0915e-19
9.1502e-20
1.46725e-25
5.69161e-26
1.40175e-25
6.25955e-21
3.47417e-21
4.59842e-21
1.23168e-20
1.64012e-20
1.70206e-20
2.59236e-25
7.04958e-26
1.99707e-25
6.5772e-21
3.59561e-21
4.8602e-21
1.32247e-20
1.83371e-20
1.90541e-20
2.33117e-25
7.40591e-26
2.16333e-25
8.72937e-21
5.05222e-21
1.25549e-20
1.38233e-20
1.97129e-20
3.22842e-19
9.47022e-26
9.20446e-26
1.95336e-25
6.48752e-21
4.84135e-21
9.17258e-21
1.42376e-20
4.24483e-20
1.77773e-19
6.82987e-26
1.01298e-25
2.49607e-25
6.66947e-21
8.81752e-21
9.25574e-21
1.52412e-20
5.21941e-20
1.52588e-19
3.46961e-26
6.71313e-26
1.71503e-25
6.55815e-21
1.82352e-20
4.63041e-20
1.04841e-20
4.28727e-20
1.45745e-19
8.23554e-19
8.30326e-19
8.43308e-19
1.75453e-19
1.48559e-19
3.10094e-19
1.14319e-23
8.0904e-24
1.13586e-23
8.22177e-19
8.31011e-19
8.64498e-19
2.02851e-19
1.75422e-19
3.13058e-19
1.2443e-23
7.1237e-24
1.38102e-23
2.56931e-17
8.3404e-19
8.71089e-19
3.54923e-20
4.94612e-20
3.96767e-19
1.34845e-23
6.85935e-24
1.23324e-23
1.35391e-17
1.40542e-18
8.91539e-19
1.34701e-20
1.68172e-20
1.79303e-19
1.59463e-23
6.83845e-24
6.56746e-24
1.27712e-17
3.37973e-18
9.05372e-19
3.53407e-20
1.75351e-19
1.86278e-19
1.67361e-23
6.39828e-24
2.80365e-24
1.21066e-17
3.4654e-18
8.09357e-19
3.25187e-18
1.13005e-18
3.54094e-19
1.7879e-23
6.11432e-24
1.94436e-24
)
;

boundaryField
{
    fuel
    {
        type            fixedValue;
        value           uniform 0;
    }
    primary_air
    {
        type            fixedValue;
        value           uniform 0.23;
    }
    Secondary_air_RHS
    {
        type            fixedValue;
        value           uniform 0.23;
    }
    Secondary_air_LHS
    {
        type            fixedValue;
        value           uniform 0.23;
    }
    outlet
    {
        type            inletOutlet;
        inletValue      uniform 0;
        value           nonuniform List<scalar> 
18
(
0
3.25187e-18
0
0
1.13005e-18
0
0
3.54094e-19
0
0
6.55815e-21
0
0
1.82352e-20
0
0
4.63041e-20
0
)
;
    }
    stove_body
    {
        type            fixedValue;
        value           uniform 0;
    }
    frontAndBack
    {
        type            empty;
    }
}


// ************************************************************************* //
