/*--------------------------------*- C++ -*----------------------------------*\
  =========                 |
  \\      /  F ield         | OpenFOAM: The Open Source CFD Toolbox
   \\    /   O peration     | Website:  https://openfoam.org
    \\  /    A nd           | Version:  6
     \\/     M anipulation  |
\*---------------------------------------------------------------------------*/
FoamFile
{
    version     2.0;
    format      ascii;
    class       surfaceScalarField;
    location    "4.5";
    object      phi;
}
// * * * * * * * * * * * * * * * * * * * * * * * * * * * * * * * * * * * * * //

dimensions      [1 0 -1 0 0 0 0];

internalField   nonuniform List<scalar> 
675
(
4.376e-06
-4.49923e-05
0.000167983
5.34166e-06
-3.7071e-05
0.00016404
-3.66626e-05
0.000170135
-7.89801e-06
4.23595e-05
0.000131524
-7.91441e-06
3.76121e-05
0.000135868
3.71295e-05
0.000128693
3.24454e-06
0.000167143
4.9434e-06
0.000163881
0.000170048
3.90342e-06
-5.93714e-05
0.000223209
2.00001e-06
-6.54522e-05
0.000231714
-5.31334e-05
0.000225802
2.97929e-06
5.66532e-05
1.22949e-05
-3.93124e-05
6.5966e-05
4.60177e-05
5.36052e-05
-1.81615e-05
2.96712e-06
0.000221262
1.66214e-06
0.000231505
0.000225701
4.9108e-06
9.04151e-05
1.24758e-05
9.69007e-05
0.000111191
-1.83917e-05
-8.98516e-05
8.31681e-06
-9.63653e-05
-0.000110628
4.22986e-06
1.21547e-05
0.00621945
0.00472028
-0.00781769
0.00714822
0.00520686
-0.00301103
0.00789409
0.00237715
-0.000192982
-0.00563082
0.0156905
-0.00423593
-0.00607419
0.0204685
-0.0090214
0.0178274
0.00609677
-0.00859886
0.00718619
-0.00402745
0.00129273
0.0117742
0.00669194
-0.0263294
0.00925128
0.00364065
-0.00417615
0.00809845
0.00349601
0.00412486
-0.00679069
0.0249727
0.00815783
-0.00376648
0.0237669
-0.00934573
0.0433538
0.014628
-0.0301039
0.0112739
-0.00449616
0.00320283
-0.00847002
0.0249574
-0.0428342
-0.00871422
0.0118193
-0.0157815
0.0180845
-0.0233205
-0.0491285
-0.0238313
0.122825
0.0417973
-0.0123795
-0.042959
-0.019866
0.123144
-0.00502983
-0.0489449
-0.00496127
-0.0170079
-0.0216276
-0.0207415
-0.00868335
-0.0245792
0.0540256
0.0026736
0.00267773
-0.0438443
0.0178124
-0.0100944
-0.0250651
0.0378338
0.0160438
0.019466
0.0490728
-0.0931313
-0.00354806
-0.00234513
-0.0299533
0.0546151
0.00832174
0.0686945
-0.0906418
-0.00724111
-0.032677
0.0595
0.00977089
-0.0390168
0.0197465
-0.0169792
0.0350874
-0.003612
-0.00723493
-0.0136553
-0.0101016
-0.00632326
-0.0309082
-0.0130611
-0.0220666
0.0183206
0.00857094
0.0150999
-0.00906077
0.00727203
-0.0160391
0.00572849
0.0409472
0.00499956
-0.0289578
0.00210783
-0.0287517
-0.00907681
0.0113532
-0.00931923
-0.0156811
-0.0012599
0.00217809
-0.0203793
-0.0049352
-0.0183105
0.00053627
0.000231947
0.00506328
-0.00338181
0.00130213
-0.011116
0.0129623
0.019868
-0.0117653
-0.016845
-0.0197611
-0.0192417
-0.0156967
-0.000718122
-0.00250379
-0.0455494
-0.00141359
-0.000941033
-0.0141453
-0.00232837
-0.0283557
-0.00355705
0.00219507
0.112197
0.0027399
0.000545644
-0.0507393
0.00199981
0.111942
-0.000797456
-0.0518922
-0.000839388
-0.0164168
-0.0264193
-0.00100301
-0.000597127
-0.0498731
-0.00052994
-0.000398856
-0.014217
-0.00145898
-0.0333657
-0.00159604
0.00104705
0.102701
0.00230885
-0.000128416
-0.0549111
0.00129802
0.101908
-0.00091005
-0.0558479
8.8255e-05
-0.0175351
-0.0309734
-0.00194139
0.000172011
-0.000286908
0.00194283
-0.00175176
-0.00129312
0.00155771
0.0017269
-0.00136898
0.00164635
-0.000675969
0.000174203
0.00743764
-0.00392012
-0.00399752
-0.0152308
-0.00455661
-0.00112338
-0.00725872
-0.00132118
-0.00455932
-0.0169252
-0.00268289
0.00126229
-0.00340015
0.00605364
-0.00216949
0.000639935
-0.0133678
0.00474522
0.0104312
0.00123993
0.0030455
-0.0037533
-0.0149285
-0.00860102
-0.0069026
-0.00319497
-0.0163425
0.00987679
0.000634281
-0.000492631
-0.0140755
-0.00105136
0.00194944
0.001714
0.00185857
0.0046873
-0.0121306
0.000247919
-0.00284119
-0.00377397
0.00352931
-0.00269198
-0.00155846
-0.00687109
0.00060567
0.00482079
0.00420215
0.00145442
0.00390834
-0.0119915
-0.00907114
0.00209039
0.00102509
-0.0127039
0.00207997
0.00282605
-0.00545958
0.000317207
0.00346874
0.00303612
0.00199848
-0.0030987
-0.00394815
0.00602613
-0.00326207
-0.00321184
-0.00220217
0.00683831
-0.000615747
0.000542438
-0.0017019
-0.00283936
-0.017988
-0.000353713
0.00142391
-0.0178814
-0.0020382
0.00193471
-0.00177254
0.00198471
-0.0180914
-0.00328977
0.00221741
0.00198904
-0.00479673
-0.00125954
0.000741917
-0.00293046
0.00287244
-0.00649772
-0.0157037
0.00160179
-0.017029
7.77222e-05
-0.00779757
-0.0121504
-0.0130118
-0.000480604
0.00279144
-0.0127879
2.78105e-05
0.00168482
-0.000297527
0.0017055
-0.0122088
0.00367209
0.00156658
0.000497775
0.00311719
-0.0012291
0.00256672
0.000134312
0.00751542
-0.0019655
-0.0121726
0.00267246
-0.013634
0.000329122
-0.0107584
-0.0105257
0.00473089
6.83125e-05
0.00637582
4.81548e-05
-0.00135677
0.00944808
0.00782028
-0.000407528
0.0112717
-0.000824205
0.00189441
0.0155433
-0.000563985
-0.00105477
-0.00990755
0.0160922
0.00289849
-0.00689769
-0.0120958
0.0148732
-2.93799e-05
0.00124187
-0.00305769
0.00268806
0.00179376
0.00152985
0.004414
-0.00486569
-0.00237717
0.00177797
0.00237897
0.000473532
0.000123078
0.0169963
0.0022074
-0.0177135
0.0165266
0.00221271
0.00202874
0.0137529
0.000184502
-0.0093123
-0.0115225
0.012972
0.00131381
0.000700436
-0.00181206
0.00338024
-0.00231745
0.000691435
0.00780332
-0.00159639
-0.00191282
0.000274887
0.00297239
0.000307052
-0.000404033
0.0123905
0.00244648
-0.0119779
0.0126412
0.00219667
0.00294949
0.00250335
-0.00161477
-0.0102035
0.0022724
0.000919399
0.000174625
-0.0102528
0.00125785
0.0151598
-0.00627927
-0.000118445
-0.000521152
-0.00497353
0.00863837
-0.00293585
-0.00438952
0.00293723
0.00145602
0.00439726
0.00295619
-0.0117354
0.00252285
-0.0102183
0.00205698
-0.0018796
0.00275461
0.0033028
-0.000107108
0.00181117
-0.00095664
0.00190456
0.0120805
-0.0139883
0.0187333
-0.00679042
3.34504e-05
-0.00192283
0.00238572
0.000998684
0.00627229
0.00248521
-0.0224075
0.00170024
-0.0171639
0.00229502
-0.00150984
0.00434979
0.00381198
0.000195982
0.00257851
-0.000802532
0.00661089
0.00894868
-0.0244688
0.0134165
-0.0110876
0.000642517
-0.00342895
0.0015869
0.00284647
0.00823429
0.0050356
-0.0391087
0.00143327
-0.0205719
-0.00226309
-0.00412619
0.0123209
-0.00635589
0.000537087
0.0111716
0.00133038
0.0155098
0.00992652
-0.038544
0.00261024
-0.00325464
0.0131968
0.0158444
0.0120989
-0.0250668
-0.00256593
0.0167912
-0.037491
0.0155115
-0.0386321
-0.0086432
-0.00145787
0.0344369
-0.00736917
0.00387187
0.0228299
0.00308073
0.0205733
0.00715708
-0.0472043
0.0154805
-0.00774383
0.0317695
0.00855069
0.00643943
-0.0400388
0.00540462
0.00688452
-0.0412148
0.00742592
-0.0406351
0.0119213
-0.0027607
0.0316197
0.0131753
-0.00314338
0.0315703
0.00125262
0.0398876
-0.00457252
-0.0455001
0.00197569
-0.0175359
0.0349231
0.000890707
0.0141985
2.74255e-05
0.0151244
0.0146336
0.00550012
-0.0233274
0.0051733
-0.0221946
-0.0209744
-0.0163146
-0.0160991
-0.018797
0.000899396
-0.000192477
-0.0120289
4.53251e-05
-0.00681306
0.00185059
-0.0138761
-0.0042385
-0.00256442
0.00121132
-0.00269947
-0.00313497
0.0016467
-0.00309482
0.00224929
-0.00399124
-0.0107217
0.00426391
-0.0113878
0.00116835
-0.0134439
0.000824049
0.000224019
-0.00894167
-0.00022997
-0.0110782
0.00147726
-0.0242949
-0.00412012
-0.00169007
0.00588692
-0.00327832
-0.00248593
0.0030671
-0.0023702
0.00282296
-0.00530713
-0.0176341
0.0024755
-0.0216558
0.00127298
-0.00192558
-0.00133048
0.0129336
-0.00969574
-0.000535359
-0.00277214
0.00432739
-0.0383199
0.00750195
-0.00187617
0.0144714
0.00338933
-0.00598936
0.0126255
-0.00153612
0.0120796
-0.00881535
-0.0206074
0.00452274
-0.0409843
0.00425997
-0.0160073
-0.00244249
0.0313897
-0.00690458
-0.00348003
-0.00838883
0.00173597
-0.0469099
0.00655105
-0.0151656
0.0206794
0.00863251
-0.0161941
0.0232665
-0.0113486
0.0338019
0.00220754
-0.0380143
-0.0180709
-0.036904
-0.0251831
-0.00189495
-0.00124395
0.0345168
0.00431122
0.00315407
-0.0177583
0.00277843
-0.0453814
-0.0136201
-0.00709089
0.0401256
-0.0123188
-0.00676357
0.0318717
-0.0067962
0.0310469
-0.00474263
-0.0403777
-0.00762763
-0.0408305
-0.0396134
0.0160853
0.0207405
0.0161624
0.0221509
0.0232325
-0.00512595
-0.0144296
-0.0053639
-0.01498
-0.0144341
-3.92692e-05
-0.000825825
)
;

boundaryField
{
    fuel
    {
        type            calculated;
        value           nonuniform List<scalar> 
36
(
0.0001276
0.000211184
0.000127594
0.000127602
0.000211182
0.000127594
0.000127604
0.000211181
0.000127594
-0.0001276
-0.000211184
-0.000127594
-0.000127602
-0.000211182
-0.000127594
-0.000127604
-0.000211181
-0.000127594
0
0
0
0
0
0
0
0
0
0
0
0
0
0
0
0
0
0
)
;
    }
    primary_air
    {
        type            calculated;
        value           nonuniform List<scalar> 9(-0.00319402 -0.00527951 -0.00319535 -0.00319412 -0.0052805 -0.00319614 -0.00319388 -0.00528207 -0.00319609);
    }
    Secondary_air_RHS
    {
        type            calculated;
        value           nonuniform List<scalar> 9(0.00594766 0.00961895 0.00595122 0.00593801 0.00959069 0.00594206 0.00593209 0.00959879 0.00593707);
    }
    Secondary_air_LHS
    {
        type            calculated;
        value           nonuniform List<scalar> 9(0.00593315 0.00948278 0.00590409 0.00591991 0.00944538 0.00588699 0.00591835 0.00947468 0.00588127);
    }
    outlet
    {
        type            calculated;
        value           nonuniform List<scalar> 
18
(
-0.00231756
0.0803886
-0.0547778
-0.0399973
0.0692229
-0.0550323
-0.0524648
0.0633471
-0.0548827
-0.055161
0.0637302
-0.0525206
-0.0555088
0.0692111
-0.0399581
-0.0552726
0.0806532
-0.00215391
)
;
    }
    stove_body
    {
        type            calculated;
        value           uniform 0;
    }
    frontAndBack
    {
        type            empty;
        value           nonuniform 0();
    }
}


// ************************************************************************* //
