/*--------------------------------*- C++ -*----------------------------------*\
  =========                 |
  \\      /  F ield         | OpenFOAM: The Open Source CFD Toolbox
   \\    /   O peration     | Website:  https://openfoam.org
    \\  /    A nd           | Version:  6
     \\/     M anipulation  |
\*---------------------------------------------------------------------------*/
FoamFile
{
    version     2.0;
    format      ascii;
    class       volVectorField;
    location    "4.5";
    object      U;
}
// * * * * * * * * * * * * * * * * * * * * * * * * * * * * * * * * * * * * * //

dimensions      [0 1 -1 0 0 0 0];

internalField   nonuniform List<vector> 
297
(
(77.3748 -0.0119615 0.244513)
(77.3703 0.0228924 0.265372)
(77.3731 0.0317391 0.244095)
(-0.000804434 0.0322231 0.330917)
(-0.00113511 -0.0266258 0.351175)
(-0.00144126 -0.0541557 0.324629)
(-77.3764 -0.0148214 0.243613)
(-77.3727 0.0191785 0.265275)
(-77.3759 0.0306384 0.244069)
(77.3754 -0.0120956 0.281172)
(77.3713 0.00603761 0.276934)
(77.3875 0.0316049 0.279029)
(-0.000798705 0.136554 -0.0958288)
(-0.0011335 -0.0956577 -0.104549)
(-0.00144372 -0.132014 -0.145416)
(-77.3766 -0.0141775 0.278455)
(-77.3734 0.00286878 0.276711)
(-77.39 0.0308202 0.2788)
(77.4503 -0.0598385 0.557783)
(77.4357 0.0301985 0.56926)
(77.4913 0.133552 0.566334)
(-0.000718535 -0.218835 0.386936)
(-0.00100052 -0.0790095 0.410084)
(-0.00127041 0.374486 0.41382)
(-77.4517 -0.0618689 0.555823)
(-77.4379 0.027968 0.568811)
(-77.4938 0.132626 0.566221)
(65.1202 4.65518 -5.6232)
(63.4519 4.71549 -2.71431)
(57.1452 2.8033 1.05914)
(0.00539718 1.03691 4.45107)
(0.00823495 -0.628519 3.88393)
(0.00856704 0.0986504 5.20318)
(-65.3643 6.55193 -5.54292)
(-63.9379 4.75958 -3.09162)
(-58.0973 2.36475 1.46063)
(71.277 6.86761 -9.18122)
(70.8817 6.95661 -7.70253)
(66.8637 7.73533 13.4347)
(0.00472765 9.79401 37.1346)
(0.00852324 0.672547 26.1532)
(0.010543 0.649787 34.6161)
(-70.9997 11.7556 -9.61524)
(-70.6718 8.49944 -7.04702)
(-67.7958 8.93729 10.6654)
(70.4159 4.16893 -11.5014)
(69.453 -7.34927 -5.42592)
(80.0913 -23.9911 18.9276)
(-0.00159124 -7.72665 51.6245)
(0.000740216 -3.77306 11.3077)
(0.0141911 7.67783 51.8125)
(-70.0489 10.8237 -13.8711)
(-69.1212 -9.66958 -4.22365)
(-83.0931 -12.6414 24.2507)
(65.6284 -6.65322 -43.2983)
(60.3193 -2.26844 -28.6722)
(68.1058 -10.7153 -39.5153)
(0.021114 -2.05985 2.02303)
(-0.000532098 8.5541 -32.6823)
(0.00465919 -5.93249 24.8088)
(-64.5071 3.32967 -58.2431)
(-63.5239 -2.02338 -27.6724)
(-69.3645 2.49319 -37.1619)
(67.208 10.5421 -29.742)
(60.4211 -0.663927 -36.6895)
(63.9544 -22.9698 -25.703)
(0.0229344 0.115506 -2.56416)
(-0.0125551 5.15922 -14.4629)
(-0.023059 -5.48351 20.6624)
(-60.4553 14.6087 -35.5272)
(-63.7085 -3.81219 -36.4482)
(-70.3602 -3.49736 -19.9609)
(62.1579 18.4991 -26.9306)
(57.2949 15.7071 -34.001)
(59.1459 -31.0839 -31.1312)
(0.057572 -2.71513 6.49096)
(0.00304144 -0.0487088 -16.8086)
(-0.0319519 -2.88837 18.3936)
(-56.3354 13.4709 -30.7744)
(-61.6592 -21.3482 -28.1025)
(-66.7241 -21.4569 -20.8553)
(60.6081 6.41136 -51.2786)
(58.6377 -9.93388 -14.6311)
(74.4243 -40.7879 -32.7875)
(-0.0812391 -5.87592 70.3645)
(-0.0181373 -2.34237 -34.9131)
(0.0101985 0.0243429 68.4573)
(-61.9024 12.9555 -58.3175)
(-61.6148 -13.9672 -16.7166)
(-77.8497 -24.9458 -32.3577)
(60.5438 1.24398 -55.1208)
(57.6496 -6.06759 -12.9862)
(66.2613 -22.6786 -40.0365)
(-0.0775335 -4.81506 78.2844)
(-0.0186194 1.06319 -36.3752)
(0.0109007 0.114209 75.0842)
(-58.6026 7.01854 -62.1722)
(-61.6582 -9.34661 -16.7975)
(-68.3987 -7.82585 -37.9114)
(62.6484 -2.3228 -52.3284)
(59.5312 -3.78032 -17.1504)
(60.962 -18.1366 -40.3508)
(-0.0841708 -3.70658 77.3052)
(-0.0166203 3.02324 -35.0127)
(0.0129914 -5.35183 77.7824)
(-52.2275 6.09804 -61.2584)
(-62.8267 -7.73119 -20.7445)
(-62.8476 -4.12774 -38.1802)
(54.4139 40.4427 -7.89627)
(54.0959 15.2697 -9.1885)
(53.2333 -42.919 -9.21892)
(0.0156569 -6.83923 0.160149)
(-0.00466629 -5.55711 -6.86265)
(-0.0169829 1.72465 12.7636)
(-53.0151 37.0685 -8.94279)
(-55.5441 -18.9588 -9.98054)
(-56.392 -41.8406 -8.39415)
(53.0056 37.8268 -0.793427)
(53.121 27.103 -4.44541)
(53.4567 -28.1196 3.96836)
(0.00924143 3.03334 -1.86478)
(-0.0067129 -3.14363 -5.3255)
(-0.0254792 0.120689 6.36493)
(-52.8574 27.5797 4.2673)
(-55.5176 -23.9103 -3.65291)
(-56.0747 -35.7986 -1.25664)
(53.1843 4.29921 3.59001)
(53.3512 8.72362 1.75419)
(53.5357 5.59998 -1.03786)
(0.0014822 -7.16144 -0.851384)
(-0.00666565 -4.45844 -1.44591)
(-0.0193235 3.02038 -0.426097)
(-53.3564 -3.83829 -0.711248)
(-55.5661 -10.0247 2.01687)
(-55.3931 -0.395653 4.7631)
(52.0836 -48.8867 -6.51836)
(51.4696 -51.7037 -9.18059)
(51.2267 -56.3595 -10.7634)
(0.0647011 1.09935 -0.446907)
(0.10686 -9.54311 -7.8134)
(0.210504 -9.85857 -11.0648)
(-51.3071 -46.5389 -5.72264)
(-52.5497 -49.1878 -13.2799)
(-52.6126 -29.6071 -22.8897)
(53.0956 -35.7668 8.90126)
(52.9111 -40.6157 7.23868)
(52.7417 -45.2463 3.9208)
(0.0330017 11.2838 4.65906)
(0.0794791 8.30413 5.8074)
(0.186331 1.11806 11.709)
(-54.0606 -37.8355 2.36147)
(-53.552 -43.3518 -9.89254)
(-52.2141 -25.3846 -25.6967)
(53.4192 7.6203 4.31209)
(53.5085 13.0784 5.3534)
(53.8401 22.9029 9.916)
(0.0192327 14.8673 0.568696)
(0.0527038 20.3873 0.866009)
(0.0986132 29.759 9.0172)
(-54.9692 -10.4112 14.9858)
(-54.1048 -0.392091 18.315)
(-52.5316 -21.8986 -34.7138)
(52.3717 30.673 -22.6961)
(51.6307 47.5136 -7.89977)
(51.8017 42.1898 -1.98896)
(-0.210382 9.36599 -7.36915)
(-0.12991 -4.41444 -0.0683861)
(-0.0941695 -10.9704 0.831379)
(-51.1451 55.1694 -10.0583)
(-51.8162 49.0957 -8.28848)
(-52.7023 43.3312 -4.1075)
(51.9 27.7046 -23.2842)
(52.9018 44.5295 -6.45497)
(51.9617 38.4479 4.94926)
(-0.167329 0.781575 10.4885)
(-0.0762781 -5.2697 2.98211)
(-0.0401016 -8.40705 -1.19741)
(-52.445 43.5968 4.69921)
(-52.7126 37.9508 7.45296)
(-52.5305 34.3053 7.97989)
(51.9348 24.3931 -31.8733)
(53.1921 6.81931 3.49489)
(52.9147 15.8276 12.1997)
(-0.0763946 -25.4428 8.98467)
(-0.039601 -15.0642 1.68619)
(-0.0245857 -13.2518 -0.344597)
(-52.7112 -19.8338 11.8344)
(-53.0354 -9.2001 7.85024)
(-52.9153 -3.58184 7.13129)
(51.9689 -10.0557 -12.801)
(51.873 2.24515 -33.7856)
(51.9347 22.223 -29.2008)
(0.0374832 4.14601 -7.40876)
(-0.0991939 0.610887 -9.67446)
(-0.224744 10.4692 -8.7515)
(-50.1956 24.9419 -33.5879)
(-49.9833 32.1492 -24.7371)
(-51.7572 53.2398 -18.7364)
(52.0297 -5.25855 10.2944)
(51.9441 10.1119 -44.3656)
(51.713 21.3984 -42.0132)
(-0.0339796 2.01181 13.1829)
(-0.179168 2.39764 8.87831)
(-0.242006 9.44537 10.2621)
(-50.8517 6.15521 -57.2323)
(-51.1 22.813 -31.0271)
(-52.6921 41.1633 -5.21124)
(51.9705 1.21685 2.6935)
(53.8 7.59127 -55.1499)
(52.3545 11.7436 -53.8021)
(-0.11865 0.109186 6.6048)
(-0.222616 -7.1024 8.09754)
(-0.220321 -19.4938 19.0921)
(-53.2443 3.3116 -73.9528)
(-51.6417 21.7371 -22.5547)
(-51.5708 -13.8334 22.3648)
(52.0542 6.79678 -15.0833)
(52.6231 0.851539 -73.2888)
(52.3219 -6.96445 -88.7131)
(-0.366702 0.622671 60.2223)
(-0.364699 -1.2159 34.0372)
(-0.366392 -12.5633 34.3294)
(-52.9259 -9.2723 -103.299)
(-52.9499 11.8036 31.1142)
(-52.9475 -3.93938 71.6501)
(51.2437 1.03543 -132.041)
(51.3403 2.27667 -138.718)
(51.1956 6.90346 -136.823)
(-0.195865 3.17513 86.7089)
(-0.192441 4.51645 72.3796)
(-0.204884 0.331208 69.8011)
(-51.4806 2.90075 -136.723)
(-51.5275 -5.4966 -65.638)
(-51.3806 0.741014 112.878)
(49.2124 0.163086 -165.042)
(49.2842 0.281694 -166.57)
(49.1041 -0.924655 -165.523)
(0.345796 0.179371 161.231)
(0.367142 1.98628 174.147)
(0.39065 0.113111 201.387)
(-48.3962 -6.23955 -155.496)
(-48.0292 -7.35947 -109.453)
(-49.1424 -4.15753 -2.00594)
(51.9329 -53.7395 -19.5092)
(50.1587 -32.3215 -25.205)
(50.6166 -24.9315 -34.0525)
(0.221676 -12.6305 -12.0795)
(0.100672 -2.08164 -11.9858)
(-0.0206421 -4.49967 -8.51608)
(-52.0499 -23.1255 -33.5014)
(-52.0566 -1.13137 -34.9824)
(-52.1051 9.53571 -13.8197)
(52.712 -40.9147 -6.15226)
(51.1163 -23.174 -30.7788)
(51.0999 -5.99511 -56.4081)
(0.243734 -10.8538 11.1692)
(0.189034 -3.4686 9.86604)
(0.053536 -3.02942 12.462)
(-51.8532 -21.0082 -41.5533)
(-52.129 -5.09433 -41.1038)
(-52.0325 4.98747 10.0052)
(52.8035 17.6699 22.2877)
(51.7023 -21.1927 -21.3603)
(53.4868 -2.87348 -72.3939)
(0.247651 22.432 17.974)
(0.241401 10.1722 10.4236)
(0.136081 0.526207 4.12306)
(-52.7702 -11.9011 -55.7291)
(-54.7535 -4.09796 -51.3848)
(-51.8221 0.015049 5.5168)
(53.761 5.55562 69.4192)
(52.992 -13.5781 27.0174)
(52.7042 9.27899 -102.64)
(0.369998 14.1632 35.5879)
(0.350131 0.649563 35.7109)
(0.34725 -0.664624 60.1858)
(-52.2714 9.80039 -85.8783)
(-52.7462 -5.10775 -70.5901)
(-52.1115 -5.15648 -13.9498)
(52.1984 0.170525 113.275)
(51.7089 5.2726 -67.1053)
(51.5035 -3.11867 -136.362)
(0.213598 -0.157008 70.7243)
(0.197344 -4.88946 72.0874)
(0.20083 -3.31618 84.8942)
(-50.4785 -6.94159 -135.252)
(-50.7704 -1.1769 -137.395)
(-51.0685 -1.26816 -131.355)
(49.8546 4.77027 -2.38857)
(48.231 7.2647 -109.585)
(48.43 6.13946 -155.281)
(-0.385168 0.119007 203.742)
(-0.360023 -2.1065 174.91)
(-0.339259 -0.166227 160.695)
(-48.9847 0.670484 -163.418)
(-49.1821 -0.296557 -164.525)
(-49.1797 -0.113735 -163.865)
)
;

boundaryField
{
    fuel
    {
        type            fixedValue;
        value           uniform (0 0 0.25);
    }
    primary_air
    {
        type            fixedValue;
        value           uniform (0 0 2.5);
    }
    Secondary_air_RHS
    {
        type            fixedValue;
        value           uniform (0 47.2222 0);
    }
    Secondary_air_LHS
    {
        type            fixedValue;
        value           uniform (0 -47.2222 0);
    }
    outlet
    {
        type            pressureInletOutletVelocity;
        value           nonuniform List<vector> 
18
(
(0 0 -2.38857)
(-0.385168 0.119007 203.742)
(0 0 -163.418)
(0 0 -109.585)
(-0.360023 -2.1065 174.91)
(0 0 -164.525)
(0 0 -155.281)
(-0.339259 -0.166227 160.695)
(0 0 -163.865)
(0 0 -165.042)
(0.345796 0.179371 161.231)
(0 0 -155.496)
(0 0 -166.57)
(0.367142 1.98628 174.147)
(0 0 -109.453)
(0 0 -165.523)
(0.39065 0.113111 201.387)
(0 0 -2.00594)
)
;
    }
    stove_body
    {
        type            noSlip;
    }
    frontAndBack
    {
        type            empty;
    }
}


// ************************************************************************* //
