# Probe 0 (0 -0.07 0.5)
# Probe 1 (0 -0.04 0.5)
# Probe 2 (0 -0.07 0.3)
# Probe 3 (0 -0.07 0.33)
# Probe 4 (0 -0.04 0.3)
# Probe 5 (0 -0.04 0.33)
# Probe 6 (0 0 0.33)
# Probe 7 (0 0 0.3)
# Probe 8 (0 0.1 0.33)
# Probe 9 (0 0.1 0.3)
# Probe 10 (0 0.14 0.3)
# Probe 11 (0 0.14 0.33)
# Probe 12 (0 0.17 0.3)
# Probe 13 (0 0.17 0.33)
# Probe 14 (0 0.14 0.5)
# Probe 15 (0 0.14 0.33)
#       Probe             0             1             2             3             4             5             6             7             8             9            10            11            12            13            14            15
#        Time
       0.0025       292.749       292.751       356.821       338.458       348.682       295.179        265.38       281.142        265.76       273.695       349.161       295.219       345.721       338.375       292.117       295.219
        0.005       292.549       292.165       364.522       341.056       341.048       348.904       346.372       303.436       332.959       287.261       337.879        334.16       362.187       342.096        292.14        334.16
       0.0075       292.558       292.171       364.971        343.45       345.365       356.049       356.193       333.428       345.736       338.671       339.045       349.209       365.855       340.874       292.089       349.209
         0.01       292.669       292.663       364.612       335.326       343.772       347.215       351.471       356.779       352.048       350.485       342.473       361.229       367.578       340.328       292.147       361.229
