/*--------------------------------*- C++ -*----------------------------------*\
  =========                 |
  \\      /  F ield         | OpenFOAM: The Open Source CFD Toolbox
   \\    /   O peration     | Website:  https://openfoam.org
    \\  /    A nd           | Version:  6
     \\/     M anipulation  |
\*---------------------------------------------------------------------------*/
FoamFile
{
    version     2.0;
    format      ascii;
    class       surfaceScalarField;
    location    "1";
    object      phi;
}
// * * * * * * * * * * * * * * * * * * * * * * * * * * * * * * * * * * * * * //

dimensions      [1 0 -1 0 0 0 0];

internalField   nonuniform List<scalar> 
15525
(
5.05368e-08
6.77181e-07
-6.72183e-07
4.72165e-08
9.13074e-07
-9.8449e-07
4.79175e-07
9.75106e-07
-1.35289e-06
1.7043e-07
1.6061e-07
1.61661e-07
3.33463e-07
-1.44627e-07
1.43174e-07
9.04107e-07
-3.59271e-07
1.92216e-08
-1.85502e-07
1.19765e-06
3.3016e-07
-3.60837e-07
1.00122e-06
1.41954e-07
9.8604e-08
2.44711e-07
3.50232e-07
1.21593e-07
-1.98007e-07
2.08692e-07
8.79402e-07
-7.35205e-08
8.7987e-07
-1.15734e-06
3.56481e-07
9.00741e-07
-1.7718e-06
1.35816e-07
8.30242e-08
2.29868e-07
3.52405e-07
1.29592e-07
1.42265e-07
2.62889e-07
-2.65113e-07
8.47147e-08
-2.95054e-07
1.21501e-06
1.32845e-07
3.84998e-08
7.91656e-07
-2.26858e-08
-1.6601e-07
4.00016e-07
4.21766e-08
2.83375e-07
1.35058e-07
1.25567e-07
6.4918e-08
-2.08002e-07
2.57258e-07
-1.8245e-07
3.34585e-08
5.3668e-08
6.77352e-08
1.08843e-07
-4.3064e-07
-3.63493e-07
9.25113e-08
-7.63619e-07
-1.43598e-07
-5.7169e-07
-7.00394e-07
4.68165e-10
-2.04925e-07
-2.52959e-07
6.22834e-08
-1.63417e-08
-3.16519e-07
-5.23279e-08
-9.81365e-07
2.24765e-07
-8.81081e-08
3.96847e-08
4.29164e-07
-5.36879e-07
3.81739e-07
3.65699e-07
-2.41528e-07
-3.28358e-07
1.95878e-08
-3.66399e-08
-1.02966e-07
1.46775e-07
-4.90259e-07
2.31409e-07
-5.7139e-08
-1.21619e-06
2.6839e-07
-5.56611e-07
-1.07143e-06
2.18548e-07
-2.35254e-07
-4.337e-07
8.61184e-09
-1.37587e-07
-7.83852e-09
-1.36134e-07
-6.31206e-07
3.12522e-08
-3.14728e-07
5.36657e-07
-3.87114e-07
-5.55906e-07
-7.31809e-07
6.90869e-07
-2.84692e-07
-3.95079e-07
8.50339e-08
-3.2403e-07
1.82473e-07
-2.20964e-08
-4.68212e-07
1.50717e-07
1.8735e-07
1.26867e-07
-8.8213e-07
-1.32983e-08
-2.04041e-07
-2.72008e-07
-1.3699e-07
-4.60872e-07
2.50084e-07
-1.65187e-07
-3.58031e-07
2.77681e-07
-1.52317e-07
-2.39465e-07
2.39671e-07
9.17593e-07
-4.89586e-07
-5.09191e-07
3.06275e-07
3.20473e-07
-1.03035e-07
-5.82746e-07
4.43603e-07
-1.30271e-07
-2.75686e-07
3.75103e-07
-8.87413e-08
-3.3125e-07
4.17033e-07
-7.85599e-08
-2.27764e-07
-2.57803e-07
9.41359e-08
2.78368e-08
-7.47153e-08
-3.82371e-07
1.05451e-07
-1.40821e-07
-3.69117e-07
4.19969e-07
-1.41851e-07
-3.52017e-07
2.45636e-07
-7.66958e-08
-6.21528e-08
-2.27811e-07
1.25702e-07
-1.19213e-07
-3.7892e-07
7.69146e-07
-7.4001e-07
2.91543e-07
-5.32457e-07
-9.02518e-07
-4.86864e-07
2.25613e-06
-1.15128e-06
-2.05745e-07
-1.19983e-07
-1.43547e-07
3.99051e-07
-2.9924e-07
2.10785e-07
7.58856e-08
-2.96945e-07
1.50832e-07
3.4768e-07
7.47274e-07
2.26625e-07
-2.04532e-07
3.51572e-07
-2.4061e-07
-4.8534e-07
9.95884e-07
-2.29974e-07
-4.20535e-07
7.14209e-07
-6.72256e-08
-8.19102e-08
1.74794e-07
-2.24976e-07
-2.06673e-07
-1.28809e-07
-8.9973e-08
2.02438e-07
-2.55634e-07
-3.36663e-07
5.533e-07
-1.69919e-07
-1.39336e-07
9.70436e-09
-7.51838e-08
-3.75222e-08
2.77491e-07
-2.22127e-07
-1.95465e-07
-1.2589e-07
-5.51945e-08
-2.32731e-07
-2.77344e-07
2.43909e-07
-1.85892e-07
-1.62492e-07
3.20345e-08
1.30774e-07
-1.03004e-07
-8.78707e-08
2.36299e-07
-2.27402e-07
-1.63735e-07
-1.39319e-07
-2.41291e-07
-1.63638e-07
-4.575e-07
-7.60748e-08
7.08551e-08
-1.25782e-07
-6.34391e-07
-5.71192e-07
-3.48134e-07
-5.34316e-07
-4.86487e-07
-2.39983e-07
-2.09938e-07
-2.09674e-07
-3.5765e-07
-4.25498e-07
1.44595e-07
-2.24794e-07
-4.93626e-08
-3.01214e-07
1.90234e-07
-1.82572e-08
-6.06453e-09
-2.20133e-07
-1.38444e-08
3.19876e-07
6.97361e-07
3.68771e-07
6.86685e-07
3.44478e-07
2.16612e-07
2.23333e-07
9.20833e-09
4.43606e-07
3.04888e-07
9.5001e-07
2.89092e-07
7.12582e-07
3.34124e-07
4.47998e-07
1.82379e-07
3.31845e-08
3.91402e-07
1.74958e-07
6.01431e-07
2.26542e-07
7.9002e-07
2.89122e-07
6.20584e-07
1.95388e-07
-1.39104e-08
4.21344e-07
2.52902e-07
4.28701e-07
1.45368e-07
3.23932e-07
1.70105e-07
1.08121e-07
-5.55796e-09
-5.01674e-08
-1.17091e-08
1.92091e-07
2.10869e-07
3.03486e-07
3.03739e-08
-5.8258e-07
2.6803e-07
3.11672e-07
1.2832e-08
6.76703e-07
-1.25293e-06
-1.25078e-08
5.16245e-07
-4.6221e-07
5.82436e-07
6.7665e-07
-1.25243e-06
2.65569e-07
3.13752e-07
-4.81565e-07
5.69271e-07
1.85805e-07
-2.69719e-07
3.11645e-07
1.57449e-07
2.70286e-07
4.4757e-07
-4.60863e-07
4.81702e-07
3.11359e-07
1.58007e-07
5.66418e-07
1.86234e-07
-3.99538e-07
5.83696e-07
3.55217e-07
-2.21488e-07
1.50363e-07
-6.8471e-09
2.21933e-07
4.96156e-07
-4.8619e-07
3.99728e-07
1.50409e-07
-6.97529e-09
5.82061e-07
3.5397e-07
-3.87664e-08
-1.58986e-08
6.31426e-07
4.45044e-08
6.73216e-08
2.66774e-09
-4.39374e-08
6.23754e-07
-3.90674e-08
3.90539e-08
6.81547e-08
2.0975e-09
-1.69593e-08
6.31008e-07
-5.85318e-08
4.39029e-08
-3.61959e-07
3.72759e-07
3.61719e-07
-9.6127e-08
5.89924e-08
3.72833e-07
4.37148e-08
1.56889e-07
5.36034e-08
1.22616e-07
2.72786e-07
-9.36996e-07
-4.40473e-07
-2.72925e-07
1.67321e-09
9.67034e-08
-1.57019e-07
-9.36757e-07
-4.4037e-07
5.28743e-08
1.25232e-07
4.55335e-07
-2.27448e-07
5.0683e-09
2.51244e-07
-6.34018e-07
4.67003e-08
-2.51187e-07
-8.76054e-08
1.31152e-07
-4.55497e-07
-6.33231e-07
4.67719e-08
-2.28188e-07
5.11247e-09
3.55158e-07
-3.62988e-07
1.49825e-07
2.3027e-07
-4.40286e-07
-7.57482e-08
-2.29598e-07
-2.66549e-07
1.55183e-07
-3.55058e-07
-4.40696e-07
-7.4272e-08
-3.6152e-07
1.46336e-07
3.3249e-07
-4.54459e-07
3.90221e-07
2.20916e-07
1.04599e-08
-3.35655e-07
-2.20305e-07
5.24686e-08
8.40965e-08
-3.32259e-07
1.07685e-08
-3.36717e-07
-4.53224e-07
3.90125e-07
-3.14872e-08
-3.7874e-07
4.75158e-08
3.01883e-07
-4.65141e-08
4.63516e-08
3.2025e-08
3.02654e-07
-3.77195e-07
6.21795e-08
-1.10423e-07
1.89349e-07
5.80034e-12
-4.79389e-08
-3.22715e-07
-1.74834e-09
-9.79653e-08
2.0765e-07
-6.18107e-08
-4.84249e-08
-3.24381e-07
-1.13574e-07
1.95303e-07
5.84591e-08
-1.77446e-07
1.49823e-08
8.03856e-09
1.75009e-07
-1.33095e-07
-8.24125e-09
-1.91356e-07
2.37037e-07
-5.82995e-08
1.76312e-07
-1.35297e-07
-1.81688e-07
1.60293e-08
4.63963e-08
-3.99084e-08
-3.14105e-08
-1.11239e-08
-9.65583e-08
2.49487e-07
7.01408e-09
-3.05893e-07
2.4981e-07
-4.63975e-08
-9.67154e-08
2.48236e-07
-3.0502e-08
-4.87017e-08
3.17554e-07
2.60549e-07
-2.28943e-07
2.14077e-07
9.28884e-08
-4.23961e-07
-2.13498e-07
5.26588e-07
-3.21698e-07
-3.17565e-07
9.23514e-08
-4.24194e-07
2.75313e-07
-2.34511e-07
-3.62277e-07
2.42261e-07
-1.31485e-07
1.59309e-07
1.32678e-07
3.03933e-07
3.64408e-07
1.5853e-07
2.60635e-07
3.4464e-07
-2.10265e-07
6.67913e-08
2.59054e-07
-2.84482e-07
5.38384e-08
-2.59518e-07
1.29789e-07
6.04276e-07
-3.45124e-07
-2.84713e-07
5.22373e-08
-2.17442e-07
7.90675e-08
2.95931e-07
-1.77608e-07
-3.15026e-07
1.64855e-07
-4.37889e-07
1.43693e-07
-1.65062e-07
9.20196e-08
5.98544e-07
-2.96383e-07
-4.38576e-07
1.4199e-07
-1.99568e-07
-2.99858e-07
2.56619e-07
-2.44473e-07
-2.22509e-07
7.3079e-08
-2.30484e-07
2.19905e-07
-7.18408e-08
-1.48879e-07
6.30635e-07
-2.56492e-07
-2.3058e-07
2.19029e-07
-2.2753e-07
-2.78608e-07
4.65404e-07
-4.54422e-07
-4.87274e-07
2.95508e-07
-2.50301e-07
-2.39121e-07
-2.95455e-07
5.26998e-08
6.31461e-08
-4.65493e-07
-2.50521e-07
-2.39184e-07
-4.48394e-07
-4.82e-07
-2.59936e-08
-1.90199e-07
-4.53772e-08
-7.74057e-08
4.63192e-08
2.59059e-07
2.64154e-08
-7.79177e-08
-1.65451e-07
-3.70208e-07
4.57332e-07
-2.48622e-07
-5.89203e-08
2.50424e-07
1.15207e-07
3.74504e-07
-6.32466e-08
4.74086e-07
-2.95708e-07
4.37813e-07
-2.40985e-07
2.26023e-08
2.41774e-07
2.25226e-07
2.99731e-07
1.31454e-08
4.73894e-07
-3.08311e-07
5.18117e-07
-2.13538e-07
1.40486e-07
2.12008e-07
4.24383e-07
2.9044e-07
1.46371e-07
4.80102e-07
-1.93824e-08
4.3416e-08
-7.81571e-08
-4.61522e-08
7.77517e-08
3.2601e-07
2.04462e-08
-4.18346e-08
1.15615e-08
-1.58601e-07
-2.87914e-07
2.91545e-07
1.65927e-07
-4.94991e-08
9.48212e-08
-3.45933e-08
-2.01471e-07
6.48723e-08
9.76051e-08
2.01281e-07
3.3417e-07
-7.15723e-07
4.93253e-08
6.49087e-08
9.75732e-08
9.45503e-08
-3.45116e-08
-3.02091e-08
9.39864e-08
2.83212e-08
-8.79236e-08
2.21239e-08
9.77054e-08
8.76927e-08
-2.2659e-07
3.80523e-07
3.04846e-08
2.18599e-08
9.75161e-08
9.51963e-08
2.71316e-08
-2.59957e-08
9.34412e-08
2.3795e-08
-1.53507e-07
4.4351e-08
1.02668e-07
1.53376e-07
2.85375e-07
-8.36369e-07
2.58433e-08
4.41894e-08
1.02593e-07
9.45614e-08
2.3749e-08
1.36095e-08
2.98596e-08
4.74219e-08
-1.79287e-09
-2.09374e-08
7.81919e-08
1.44228e-09
7.97697e-08
1.97169e-07
-1.42988e-08
-2.10883e-08
7.85229e-08
2.9587e-08
4.81314e-08
2.0896e-08
6.45001e-09
-6.32251e-08
6.06916e-08
6.49259e-08
-5.05609e-08
-1.96275e-08
6.09821e-08
7.4649e-09
8.33613e-08
3.72852e-08
-1.4452e-07
1.95391e-07
-1.26568e-07
1.22645e-07
-1.95353e-07
-3.04238e-07
-1.68236e-08
-8.32993e-08
-1.26778e-07
1.22806e-07
3.70576e-08
-1.44153e-07
8.59749e-08
-1.4514e-08
-8.93102e-09
6.66481e-08
-1.60936e-08
4.08633e-09
-6.64708e-08
2.19398e-07
-1.21043e-08
-8.58431e-08
-1.64371e-08
4.08548e-09
-1.54891e-08
-9.21387e-09
8.92576e-08
2.27254e-08
-1.0619e-07
1.41174e-07
-6.83213e-08
1.01163e-07
-1.41166e-07
-3.06627e-07
-2.12134e-08
-8.91802e-08
-6.88852e-08
1.01266e-07
2.22618e-08
-1.06633e-07
7.37624e-08
-5.00422e-08
4.35511e-08
1.06816e-07
-7.8345e-08
5.26911e-08
-1.06987e-07
-2.02118e-07
3.04295e-07
-7.39411e-08
-7.87285e-08
5.28771e-08
-5.00805e-08
4.36894e-08
3.5995e-08
-8.20672e-08
-2.61748e-09
1.85753e-08
2.45758e-09
-2.58921e-07
-3.63585e-08
1.87132e-08
-8.14001e-08
-4.20928e-07
1.48496e-07
1.4225e-07
-2.45085e-09
-1.65053e-07
-1.22714e-07
2.03348e-09
-4.28307e-08
2.9332e-08
4.20869e-07
-1.6508e-07
-1.22904e-07
1.47984e-07
1.43029e-07
2.36096e-07
-1.06865e-07
6.901e-09
-3.91186e-09
7.91223e-08
-2.36756e-09
3.71874e-09
-8.17928e-08
1.74423e-08
-2.36126e-07
7.8951e-08
-2.37002e-09
-1.06863e-07
6.12213e-09
-4.45899e-07
1.18733e-07
1.06473e-07
-1.5928e-09
-1.61541e-07
-1.01823e-07
1.50411e-09
-1.2822e-07
2.25363e-08
4.45891e-07
-1.61628e-07
-1.01829e-07
1.19157e-07
1.05712e-07
9.66235e-08
1.0646e-07
-4.44906e-08
1.60771e-07
-1.21923e-07
-5.34736e-08
-1.60767e-07
7.92457e-07
-3.04543e-07
-9.65228e-08
-1.218e-07
-5.35433e-08
1.07579e-07
-4.48929e-08
-5.70929e-08
7.89495e-08
-1.42078e-07
-2.04198e-08
1.42013e-07
2.58322e-07
5.72225e-08
-2.03279e-08
8.08934e-08
8.27062e-08
3.97527e-08
3.05293e-08
1.92453e-07
-1.25973e-07
-9.59648e-08
-1.92421e-07
-3.01687e-07
7.19795e-07
-8.2658e-08
-1.26283e-07
-9.59176e-08
3.71697e-08
3.36329e-08
8.51829e-08
-1.27995e-08
-2.8801e-08
6.40063e-08
-1.37132e-08
-9.59112e-08
-6.38171e-08
2.20192e-07
-3.78707e-07
-8.51099e-08
-1.40117e-08
-9.57791e-08
-1.42607e-08
-3.05996e-08
8.90623e-08
2.13631e-08
-2.02423e-08
1.40662e-07
-6.68097e-08
-1.02119e-07
-1.40618e-07
-3.0597e-07
8.36799e-07
-8.88607e-08
-6.73647e-08
-1.01938e-07
2.17277e-08
-2.22516e-08
7.35874e-08
-5.06463e-08
-4.89503e-08
1.06658e-07
-7.8002e-08
-7.77921e-08
-1.06807e-07
-2.02128e-07
-1.97033e-07
-7.37613e-08
-7.8286e-08
-7.80603e-08
-5.0341e-08
-4.94193e-08
3.60782e-08
-1.02163e-08
-3.0482e-09
-6.16446e-08
2.93065e-09
4.90946e-08
-3.65626e-08
-6.14603e-08
-8.47688e-09
-5.00977e-08
9.12272e-08
-2.02524e-07
6.69077e-08
2.02508e-07
3.35903e-07
5.10729e-08
6.5912e-08
9.54263e-08
-3.22183e-08
9.19218e-08
-8.90278e-08
2.50783e-08
8.85929e-08
-2.24988e-07
3.14014e-08
2.46335e-08
9.31024e-08
-2.89063e-08
9.78651e-08
-1.54039e-07
4.55129e-08
1.53706e-07
2.86628e-07
2.79265e-08
4.60404e-08
9.5057e-08
1.31753e-08
3.32337e-08
-2.21986e-09
-1.93412e-08
1.72398e-09
8.05254e-08
-1.43371e-08
-1.83923e-08
2.8475e-08
2.05545e-08
-6.28178e-08
6.47312e-08
-1.75145e-08
-5.8258e-07
2.6803e-07
3.11672e-07
1.2832e-08
6.76703e-07
-1.25293e-06
-1.25078e-08
5.16245e-07
-4.6221e-07
5.82436e-07
6.7665e-07
-1.25243e-06
2.65569e-07
3.13752e-07
-4.81565e-07
5.69271e-07
1.85805e-07
-2.69719e-07
3.11645e-07
1.57449e-07
2.70286e-07
4.4757e-07
-4.60863e-07
4.81702e-07
3.11359e-07
1.58007e-07
5.66418e-07
1.86234e-07
-3.99538e-07
5.83696e-07
3.55217e-07
-2.21488e-07
1.50363e-07
-6.8471e-09
2.21933e-07
4.96156e-07
-4.8619e-07
3.99728e-07
1.50409e-07
-6.97529e-09
5.82061e-07
3.5397e-07
-3.87664e-08
-1.58986e-08
6.31426e-07
4.45044e-08
6.73216e-08
2.66774e-09
-4.39374e-08
6.23754e-07
-3.90674e-08
3.90539e-08
6.81547e-08
2.0975e-09
-1.69593e-08
6.31008e-07
-5.85318e-08
4.39029e-08
-3.61959e-07
3.72759e-07
3.61719e-07
-9.6127e-08
5.89924e-08
3.72833e-07
4.37148e-08
1.56889e-07
5.36034e-08
1.22616e-07
2.72786e-07
-9.36996e-07
-4.40473e-07
-2.72925e-07
1.67321e-09
9.67034e-08
-1.57019e-07
-9.36757e-07
-4.4037e-07
5.28743e-08
1.25232e-07
4.55335e-07
-2.27448e-07
5.0683e-09
2.51244e-07
-6.34018e-07
4.67003e-08
-2.51187e-07
-8.76054e-08
1.31152e-07
-4.55497e-07
-6.33231e-07
4.67719e-08
-2.28188e-07
5.11247e-09
3.55158e-07
-3.62988e-07
1.49825e-07
2.3027e-07
-4.40286e-07
-7.57482e-08
-2.29598e-07
-2.66549e-07
1.55183e-07
-3.55058e-07
-4.40696e-07
-7.4272e-08
-3.6152e-07
1.46336e-07
3.3249e-07
-4.54459e-07
3.90221e-07
2.20916e-07
1.04599e-08
-3.35655e-07
-2.20305e-07
5.24686e-08
8.40965e-08
-3.32259e-07
1.07685e-08
-3.36717e-07
-4.53224e-07
3.90125e-07
-3.14872e-08
-3.7874e-07
4.75158e-08
3.01883e-07
-4.65141e-08
4.63516e-08
3.2025e-08
3.02654e-07
-3.77195e-07
6.21795e-08
-1.10423e-07
1.89349e-07
5.80035e-12
-4.79389e-08
-3.22715e-07
-1.74834e-09
-9.79653e-08
2.0765e-07
-6.18107e-08
-4.84249e-08
-3.24381e-07
-1.13574e-07
1.95303e-07
5.84591e-08
-1.77446e-07
1.49823e-08
8.03856e-09
1.75009e-07
-1.33095e-07
-8.24125e-09
-1.91356e-07
2.37037e-07
-5.82995e-08
1.76312e-07
-1.35297e-07
-1.81688e-07
1.60293e-08
4.63963e-08
-3.99084e-08
-3.14105e-08
-1.11239e-08
-9.65583e-08
2.49487e-07
7.01408e-09
-3.05893e-07
2.4981e-07
-4.63975e-08
-9.67154e-08
2.48236e-07
-3.0502e-08
-4.87017e-08
3.17554e-07
2.60549e-07
-2.28943e-07
2.14077e-07
9.28884e-08
-4.23961e-07
-2.13498e-07
5.26588e-07
-3.21698e-07
-3.17565e-07
9.23514e-08
-4.24194e-07
2.75313e-07
-2.34511e-07
-3.62277e-07
2.42261e-07
-1.31485e-07
1.59309e-07
1.32678e-07
3.03933e-07
3.64408e-07
1.5853e-07
2.60635e-07
3.4464e-07
-2.10265e-07
6.67913e-08
2.59054e-07
-2.84482e-07
5.38384e-08
-2.59518e-07
1.29789e-07
6.04276e-07
-3.45124e-07
-2.84713e-07
5.22373e-08
-2.17442e-07
7.90675e-08
2.95931e-07
-1.77608e-07
-3.15026e-07
1.64855e-07
-4.37889e-07
1.43693e-07
-1.65062e-07
9.20196e-08
5.98544e-07
-2.96383e-07
-4.38576e-07
1.4199e-07
-1.99568e-07
-2.99858e-07
2.56619e-07
-2.44473e-07
-2.22509e-07
7.3079e-08
-2.30484e-07
2.19905e-07
-7.18408e-08
-1.48879e-07
6.30635e-07
-2.56492e-07
-2.3058e-07
2.19029e-07
-2.2753e-07
-2.78608e-07
4.65404e-07
-4.54422e-07
-4.87274e-07
2.95508e-07
-2.50301e-07
-2.39121e-07
-2.95455e-07
5.26998e-08
6.31461e-08
-4.65493e-07
-2.50521e-07
-2.39184e-07
-4.48394e-07
-4.82e-07
-2.59936e-08
-1.90199e-07
-4.53772e-08
-7.74057e-08
4.63192e-08
2.59059e-07
2.64154e-08
-7.79177e-08
-1.65451e-07
-3.70208e-07
4.57332e-07
-2.48622e-07
-5.89203e-08
2.50424e-07
1.15207e-07
3.74504e-07
-6.32466e-08
4.74086e-07
-2.95708e-07
4.37813e-07
-2.40985e-07
2.26023e-08
2.41774e-07
2.25226e-07
2.99731e-07
1.31454e-08
4.73894e-07
-3.08311e-07
5.18117e-07
-2.13538e-07
1.40486e-07
2.12008e-07
4.24383e-07
2.9044e-07
1.46371e-07
4.80102e-07
-1.93824e-08
4.3416e-08
-7.81571e-08
-4.61522e-08
7.77517e-08
3.2601e-07
2.04462e-08
-4.18346e-08
1.15615e-08
-1.58601e-07
-2.87914e-07
2.91545e-07
1.65927e-07
-3.66235e-08
8.35072e-08
-3.6515e-08
-2.12966e-07
4.06266e-08
1.45261e-07
2.08997e-07
3.09291e-07
-7.10623e-07
3.90672e-08
5.26291e-08
1.26967e-07
8.51859e-08
-3.58722e-08
-2.39493e-08
1.20051e-07
-1.49753e-08
-1.15696e-07
-2.94237e-09
1.32381e-07
1.09992e-07
-1.95474e-07
2.783e-07
2.52565e-08
2.68359e-08
1.07967e-07
1.16486e-07
-8.75669e-09
2.88843e-09
1.001e-07
1.4611e-08
-1.63765e-07
-1.85462e-08
1.79642e-07
1.60949e-07
2.74559e-07
-7.94741e-07
1.79737e-09
1.22621e-08
1.72163e-07
9.52597e-08
1.94318e-08
3.3269e-08
1.41146e-08
5.018e-08
1.05041e-09
-5.16895e-08
6.28418e-08
4.22581e-09
7.39288e-08
1.95758e-07
-3.07574e-08
-3.78622e-08
8.29049e-08
6.57025e-09
5.51999e-08
2.07235e-08
-9.17222e-09
-6.50641e-08
3.1511e-08
7.81831e-08
-7.14312e-08
-1.05326e-08
4.8474e-08
-6.35769e-09
1.11076e-07
2.06604e-08
-1.57474e-07
2.08292e-07
-1.1678e-07
1.73941e-07
-2.1503e-07
-3.15184e-07
3.07354e-08
-9.92709e-08
-1.32099e-07
1.52449e-07
3.32149e-08
-1.57503e-07
1.07787e-07
-3.59975e-08
-6.84766e-08
4.02499e-08
-1.12498e-08
9.14207e-08
-7.52742e-08
1.60988e-07
-8.63625e-08
-9.27944e-08
-8.16768e-09
-1.26703e-09
-1.17345e-08
-5.91021e-08
1.37077e-07
-3.62758e-08
-1.24516e-07
1.37348e-07
-6.33329e-08
2.28496e-07
-1.60257e-07
-2.47081e-07
-9.42433e-08
-1.32049e-07
-6.13134e-08
1.94869e-07
-2.09509e-09
-1.25336e-07
6.59276e-08
-4.48712e-08
-9.86768e-09
6.69212e-08
-6.33333e-08
5.91325e-08
-1.13629e-07
-2.03253e-07
3.28791e-07
-7.69299e-08
-8.34744e-08
6.58888e-08
-4.97619e-08
2.31657e-08
2.0096e-08
-7.67228e-08
2.4023e-08
-3.85852e-08
-1.47695e-09
-2.51734e-07
-3.2807e-08
-6.12811e-09
-9.13023e-08
-4.28125e-07
1.44206e-07
1.38058e-07
1.34618e-08
-1.5755e-07
-1.01653e-07
1.63473e-08
-3.05453e-08
6.50861e-08
4.4182e-07
-1.6868e-07
-9.59703e-08
1.50453e-07
1.45375e-07
2.01109e-07
-1.09859e-07
-1.70201e-08
2.50642e-08
1.19038e-07
-1.22098e-08
3.19058e-08
-6.55282e-08
-6.23522e-08
-1.80751e-07
5.92669e-08
-1.92504e-08
-1.10154e-07
1.78134e-08
-4.50049e-07
1.15811e-07
1.01244e-07
3.34554e-08
-9.40666e-08
-4.66591e-08
4.18034e-08
-1.02215e-07
-7.16267e-08
4.83661e-07
-1.18627e-07
-6.8206e-08
1.28605e-07
1.1185e-07
8.14588e-08
7.76663e-08
-5.56582e-08
1.48683e-07
-8.86658e-08
-1.62598e-08
-1.84669e-07
7.75211e-07
-2.24481e-07
-1.00344e-07
-1.27793e-07
-1.1415e-08
1.05381e-07
-5.74577e-08
-5.36877e-08
5.2079e-08
-1.43237e-07
-4.07095e-08
1.47016e-07
2.40242e-07
6.06659e-08
-4.94611e-08
7.239e-08
8.37424e-08
3.647e-08
2.87565e-08
1.80953e-07
-9.43707e-08
-9.53173e-08
-1.95014e-07
-2.49866e-07
6.96893e-07
-8.36393e-08
-1.02205e-07
-9.59347e-08
4.61804e-08
2.65842e-08
9.78495e-08
-3.83127e-08
-4.21681e-08
9.84221e-08
7.8095e-09
-1.17754e-07
-1.31712e-07
2.3337e-07
-3.19266e-07
-1.02059e-07
-2.77761e-08
-1.26021e-07
-1.65547e-08
-2.39235e-08
7.87568e-08
6.65341e-09
-2.50083e-08
1.5873e-07
-3.64132e-08
-8.52725e-08
-1.89519e-07
-2.57847e-07
7.58531e-07
-9.72763e-08
-6.61561e-08
-1.24175e-07
1.8039e-08
-2.34309e-08
5.69894e-08
-4.53374e-08
-6.33231e-08
9.90718e-08
-4.85954e-08
-4.87822e-08
-1.35646e-07
-1.25068e-07
-1.25847e-07
-7.01909e-08
-7.25137e-08
-7.28808e-08
-4.49143e-08
-6.73837e-08
2.29824e-08
-1.88244e-08
-1.29353e-08
-5.61477e-08
3.40335e-08
6.56365e-08
-3.17784e-08
-5.85347e-08
-6.60273e-09
-5.68207e-08
9.6015e-08
-2.01747e-07
6.01843e-08
2.02335e-07
3.0706e-07
4.763e-08
6.94364e-08
8.49298e-08
-3.92901e-08
9.01867e-08
-9.35907e-08
-5.71374e-09
9.71214e-08
-2.03067e-07
3.07168e-08
7.63353e-09
8.96212e-08
-3.84748e-08
1.012e-07
-1.51303e-07
1.89254e-08
1.53503e-07
2.58158e-07
2.85172e-08
6.74632e-09
9.24289e-08
1.14886e-08
2.36419e-08
-9.36536e-09
-1.1738e-08
3.20553e-08
8.84365e-08
-2.50648e-08
-1.13605e-08
-2.32681e-09
2.18829e-09
-6.82844e-08
8.33243e-08
1.1092e-08
-5.8258e-07
2.6803e-07
3.11672e-07
1.2832e-08
6.76703e-07
-1.25293e-06
-1.25078e-08
5.16245e-07
-4.6221e-07
5.82436e-07
6.7665e-07
-1.25243e-06
2.65569e-07
3.13752e-07
-4.81565e-07
5.69271e-07
1.85805e-07
-2.69719e-07
3.11645e-07
1.57449e-07
2.70286e-07
4.4757e-07
-4.60863e-07
4.81702e-07
3.11359e-07
1.58007e-07
5.66418e-07
1.86234e-07
-3.99538e-07
5.83696e-07
3.55217e-07
-2.21488e-07
1.50363e-07
-6.8471e-09
2.21933e-07
4.96156e-07
-4.8619e-07
3.99728e-07
1.50409e-07
-6.97529e-09
5.82061e-07
3.5397e-07
-3.87664e-08
-1.58986e-08
6.31426e-07
4.45044e-08
6.73216e-08
2.66774e-09
-4.39374e-08
6.23754e-07
-3.90674e-08
3.90539e-08
6.81547e-08
2.0975e-09
-1.69593e-08
6.31008e-07
-5.85318e-08
4.39029e-08
-3.61959e-07
3.72759e-07
3.61719e-07
-9.6127e-08
5.89924e-08
3.72833e-07
4.37148e-08
1.56889e-07
5.36034e-08
1.22616e-07
2.72786e-07
-9.36996e-07
-4.40473e-07
-2.72925e-07
1.67321e-09
9.67034e-08
-1.57019e-07
-9.36757e-07
-4.4037e-07
5.28743e-08
1.25232e-07
4.55335e-07
-2.27448e-07
5.0683e-09
2.51244e-07
-6.34018e-07
4.67003e-08
-2.51187e-07
-8.76054e-08
1.31152e-07
-4.55497e-07
-6.33231e-07
4.67719e-08
-2.28188e-07
5.11247e-09
3.55158e-07
-3.62988e-07
1.49825e-07
2.3027e-07
-4.40286e-07
-7.57482e-08
-2.29598e-07
-2.66549e-07
1.55183e-07
-3.55058e-07
-4.40696e-07
-7.4272e-08
-3.6152e-07
1.46336e-07
3.3249e-07
-4.54459e-07
3.90221e-07
2.20916e-07
1.04599e-08
-3.35655e-07
-2.20305e-07
5.24686e-08
8.40965e-08
-3.32259e-07
1.07685e-08
-3.36717e-07
-4.53224e-07
3.90125e-07
-3.14872e-08
-3.7874e-07
4.75158e-08
3.01883e-07
-4.65141e-08
4.63516e-08
3.2025e-08
3.02654e-07
-3.77195e-07
6.21795e-08
-1.10423e-07
1.89349e-07
5.80032e-12
-4.79389e-08
-3.22715e-07
-1.74834e-09
-9.79653e-08
2.0765e-07
-6.18107e-08
-4.84249e-08
-3.24381e-07
-1.13574e-07
1.95303e-07
5.84591e-08
-1.77446e-07
1.49823e-08
8.03856e-09
1.75009e-07
-1.33095e-07
-8.24125e-09
-1.91356e-07
2.37037e-07
-5.82995e-08
1.76312e-07
-1.35297e-07
-1.81688e-07
1.60293e-08
4.63963e-08
-3.99084e-08
-3.14105e-08
-1.11239e-08
-9.65583e-08
2.49487e-07
7.01408e-09
-3.05893e-07
2.4981e-07
-4.63975e-08
-9.67154e-08
2.48236e-07
-3.0502e-08
-4.87017e-08
3.17554e-07
2.60549e-07
-2.28943e-07
2.14077e-07
9.28884e-08
-4.23961e-07
-2.13498e-07
5.26588e-07
-3.21698e-07
-3.17565e-07
9.23514e-08
-4.24194e-07
2.75313e-07
-2.34511e-07
-3.62277e-07
2.42261e-07
-1.31485e-07
1.59309e-07
1.32678e-07
3.03933e-07
3.64408e-07
1.5853e-07
2.60635e-07
3.4464e-07
-2.10265e-07
6.67913e-08
2.59054e-07
-2.84482e-07
5.38384e-08
-2.59518e-07
1.29789e-07
6.04276e-07
-3.45124e-07
-2.84713e-07
5.22373e-08
-2.17442e-07
7.90675e-08
2.95931e-07
-1.77608e-07
-3.15026e-07
1.64855e-07
-4.37889e-07
1.43693e-07
-1.65062e-07
9.20196e-08
5.98544e-07
-2.96383e-07
-4.38576e-07
1.4199e-07
-1.99568e-07
-2.99858e-07
2.56619e-07
-2.44473e-07
-2.22509e-07
7.3079e-08
-2.30484e-07
2.19905e-07
-7.18408e-08
-1.48879e-07
6.30635e-07
-2.56492e-07
-2.3058e-07
2.19029e-07
-2.2753e-07
-2.78608e-07
4.65404e-07
-4.54422e-07
-4.87274e-07
2.95508e-07
-2.50301e-07
-2.39121e-07
-2.95455e-07
5.26998e-08
6.31461e-08
-4.65493e-07
-2.50521e-07
-2.39184e-07
-4.48394e-07
-4.82e-07
-2.59936e-08
-1.90199e-07
-4.53772e-08
-7.74057e-08
4.63192e-08
2.59059e-07
2.64154e-08
-7.79177e-08
-1.65451e-07
-3.70208e-07
4.57332e-07
-2.48622e-07
-5.89203e-08
2.50424e-07
1.15207e-07
3.74504e-07
-6.32466e-08
4.74086e-07
-2.95708e-07
4.37813e-07
-2.40985e-07
2.26023e-08
2.41774e-07
2.25226e-07
2.99731e-07
1.31454e-08
4.73894e-07
-3.08311e-07
5.18117e-07
-2.13538e-07
1.40486e-07
2.12008e-07
4.24383e-07
2.9044e-07
1.46371e-07
4.80102e-07
-1.93824e-08
4.3416e-08
-7.81571e-08
-4.61522e-08
7.77517e-08
3.2601e-07
2.04462e-08
-4.18346e-08
1.15615e-08
-1.58601e-07
-2.87914e-07
2.91545e-07
1.65927e-07
-2.09869e-07
4.20839e-07
-1.92008e-07
-3.43473e-07
-7.68716e-09
1.56411e-07
-2.77057e-07
2.28609e-07
-2.79186e-07
-3.9002e-07
3.24342e-07
-1.94458e-07
6.80463e-07
-1.06527e-06
-1.81834e-07
4.30023e-07
1.72317e-07
-3.34279e-07
-6.64606e-09
1.4615e-07
-2.63445e-07
5.04374e-07
-3.51066e-07
-3.22934e-07
6.24806e-07
-2.45311e-07
6.77927e-07
-3.52039e-07
-1.84968e-07
4.66983e-07
1.44241e-07
-2.8157e-07
-6.55926e-08
1.50847e-07
-2.23082e-07
6.74448e-07
-2.34959e-07
-2.57577e-07
8.92625e-07
-2.41016e-07
8.69027e-07
-5.39798e-07
2.00785e-08
5.25504e-08
3.89074e-07
-1.33933e-07
-9.66114e-08
1.81242e-07
-1.03219e-07
8.21183e-08
5.55542e-07
-2.64304e-07
4.11657e-07
6.37671e-07
3.59449e-07
2.6198e-07
-3.59819e-09
4.77231e-08
-3.18805e-07
2.14496e-07
-2.04494e-07
-3.46479e-08
-1.67801e-07
3.71155e-07
1.9247e-07
2.38349e-07
-9.09593e-08
-3.21426e-07
6.94898e-08
-2.03714e-07
5.4476e-07
1.09114e-07
-3.85438e-08
-2.65568e-07
3.96318e-07
-2.44274e-08
-4.41436e-07
-5.10567e-07
-1.51665e-07
2.31858e-07
-8.24681e-08
-7.31714e-08
6.62993e-08
-1.98608e-07
3.02225e-07
1.14283e-07
1.18826e-08
-4.52788e-07
3.47711e-07
-1.41e-08
-4.93321e-07
-2.06614e-07
-3.14398e-07
2.31729e-07
-2.3375e-07
5.95967e-08
8.57816e-08
-1.73025e-07
2.66688e-07
1.18134e-07
-6.90737e-08
-1.92993e-07
4.04228e-07
-7.16455e-08
-4.74322e-07
6.74575e-08
-3.5955e-07
2.19975e-07
-3.36407e-07
2.67422e-07
3.13565e-07
-1.85138e-07
9.51505e-08
1.05334e-07
-6.43093e-07
1.33123e-06
5.95015e-07
-6.69375e-07
7.41554e-07
8.63266e-07
7.03091e-08
2.0201e-08
-3.14781e-07
-1.42873e-07
1.88514e-07
8.40783e-08
-9.06214e-07
-3.04633e-07
8.66295e-08
6.87755e-07
-9.48732e-07
3.10621e-07
3.43045e-07
1.45946e-07
-4.88251e-07
-5.26425e-08
1.47728e-07
-2.36565e-07
-2.52989e-08
8.99004e-08
-3.51322e-07
-1.66655e-08
-4.53727e-07
4.02788e-07
7.68712e-08
5.05143e-08
1.05068e-07
8.68748e-08
-1.85272e-07
-1.45458e-08
1.07864e-07
-3.3476e-07
-3.83989e-07
6.31223e-08
-3.27056e-07
-4.76061e-07
-3.39002e-07
-3.70135e-07
-6.47208e-08
1.041e-07
6.43891e-08
1.18686e-07
-9.85522e-08
-7.26558e-09
1.00407e-07
-2.53163e-07
-2.75751e-07
8.20378e-08
-3.20154e-07
-4.66721e-07
-4.69781e-07
-1.37228e-07
2.13126e-07
3.16549e-07
-1.70035e-07
4.55587e-07
-1.59473e-07
-9.17393e-08
-1.10381e-07
2.38578e-06
-7.8221e-07
4.04534e-07
-2.33696e-07
1.36151e-07
-7.87632e-07
7.93599e-07
-1.85053e-07
1.90459e-07
-3.24061e-07
1.63839e-07
2.74253e-07
9.30186e-07
-2.15565e-07
3.41387e-07
-3.20141e-07
2.04724e-07
-6.20938e-08
2.16348e-07
5.86741e-07
-2.46879e-07
-1.727e-07
-7.53645e-08
-8.03679e-07
1.44044e-06
-1.91034e-07
-9.67409e-07
1.05277e-06
-9.1026e-07
1.1317e-06
2.4194e-07
-5.11104e-08
-1.53829e-07
5.47029e-07
-3.12595e-07
-2.58167e-07
-9.25042e-08
4.67341e-07
-1.02394e-06
1.39754e-07
-6.36384e-07
-1.04581e-06
-1.62455e-07
-9.84157e-07
2.35508e-07
-1.32129e-07
-9.57776e-08
5.81191e-07
-4.20528e-07
-2.49665e-07
-3.47841e-07
-1.12847e-06
2.21062e-06
3.6419e-07
-1.03185e-06
-7.89424e-07
-9.31355e-07
9.90685e-07
2.8139e-07
-3.11475e-07
-2.77348e-07
5.28808e-07
-3.79686e-07
-3.84886e-07
-7.86172e-08
-6.37954e-07
-6.72871e-07
5.51659e-07
-7.39673e-07
-7.90373e-07
7.6614e-07
-3.66723e-07
2.91326e-08
-1.55582e-07
-9.98479e-08
-9.12468e-08
1.03396e-07
8.4441e-08
-2.77581e-07
-1.94411e-08
1.70436e-07
-1.75809e-07
4.1027e-07
-4.89595e-07
1.56574e-07
2.9253e-09
9.98415e-07
-1.19568e-07
1.23823e-06
1.05882e-06
-1.30417e-07
3.84627e-07
-3.35608e-07
9.91731e-08
2.12029e-07
-5.63581e-07
-2.17078e-07
6.17918e-07
-1.22217e-07
-1.31974e-07
4.18565e-07
-3.88241e-07
1.01859e-07
3.61975e-07
9.45296e-07
-3.06682e-07
4.9256e-07
5.70625e-07
2.92166e-08
1.0847e-07
-1.32664e-07
-1.25875e-07
1.11528e-07
2.26077e-08
-2.73232e-07
8.37352e-08
-6.55034e-08
-5.40212e-08
-2.7564e-07
-1.74539e-07
-1.12093e-07
1.02284e-06
-1.54012e-06
4.4106e-07
1.1911e-06
-1.44268e-06
1.28193e-06
1.2673e-06
-1.19763e-06
1.14534e-06
1.33723e-08
-2.70311e-07
1.51749e-06
1.73154e-07
-1.4746e-07
2.92779e-07
-5.22841e-07
-1.25439e-06
1.61442e-07
-9.14688e-07
-3.93334e-07
1.643e-07
-9.033e-07
-2.94878e-07
1.96862e-07
2.39037e-07
-5.43378e-07
-1.47527e-06
1.86342e-06
2.75807e-08
1.08356e-06
-1.62393e-06
-6.7318e-08
1.03921e-06
-1.85613e-06
7.50836e-07
9.29062e-07
-2.6678e-06
1.39565e-06
3.17236e-08
-4.50116e-07
1.42599e-06
-1.44869e-06
6.58239e-08
9.67407e-07
3.06224e-08
9.2579e-08
1.19151e-06
-1.8309e-07
9.76907e-08
9.78016e-07
-5.91245e-08
1.83158e-07
3.24314e-07
-3.76856e-07
-1.68272e-07
1.79801e-06
8.3903e-07
1.7095e-07
1.1241e-06
9.11982e-07
1.08646e-06
1.02253e-06
1.52404e-07
1.26956e-06
-1.4327e-08
-3.00259e-07
-3.69616e-07
8.19256e-07
-3.48649e-07
1.05848e-06
2.56807e-07
-4.97767e-08
1.07645e-06
-2.32062e-07
9.50071e-08
8.09472e-07
5.66233e-07
4.30778e-07
-4.83736e-07
-5.94887e-07
2.01307e-07
-1.03713e-06
-3.59548e-07
2.51665e-07
1.96085e-07
-6.88861e-07
3.29856e-07
7.95232e-07
-7.965e-07
4.38987e-07
-6.01958e-08
7.61782e-07
7.37306e-07
-1.05347e-07
-7.12577e-07
-5.84352e-07
-2.16482e-07
-1.78601e-07
-1.30191e-06
-3.66053e-07
-2.48588e-07
-1.94367e-06
-9.67244e-07
-3.35117e-07
9.22009e-07
-7.36721e-07
-9.31303e-07
-5.56668e-07
-1.16311e-06
1.014e-06
-3.36856e-07
-1.11749e-06
5.33775e-07
-8.17427e-07
-1.18968e-06
1.36309e-06
-8.45917e-07
-8.79942e-07
1.97644e-07
-3.76076e-07
5.9711e-07
-2.27811e-07
-7.16712e-07
-4.40254e-07
1.37368e-08
4.13738e-09
-6.12931e-07
6.17202e-08
3.33552e-07
-3.25966e-07
-3.75141e-07
4.22054e-07
6.51306e-07
-4.32008e-07
1.17158e-07
1.6948e-07
1.58569e-07
-1.01895e-06
1.83816e-07
7.64176e-07
8.61609e-07
-9.01346e-07
-5.28744e-07
8.06566e-07
-9.55055e-08
8.38154e-08
-5.38255e-07
6.14954e-10
1.67723e-07
6.0044e-08
-4.47671e-07
1.54892e-07
8.03398e-08
-8.59404e-07
3.57002e-07
8.60362e-07
3.84099e-07
-1.04446e-06
2.6334e-08
-3.56156e-07
-1.59006e-07
3.10596e-07
-5.73584e-07
-8.38766e-07
-3.78102e-07
-2.79805e-07
-8.59221e-07
1.06104e-06
-3.48201e-07
1.85031e-07
-3.31272e-07
7.93255e-07
-3.89288e-08
1.59661e-06
-9.04069e-07
-7.47383e-08
-2.38856e-07
2.32405e-07
-6.38221e-07
1.5744e-06
8.1162e-08
-8.77021e-07
-8.81157e-07
9.68125e-07
4.50712e-07
-1.06779e-06
-1.31376e-07
1.04159e-06
-5.14795e-07
1.64567e-07
2.89165e-07
1.4902e-07
6.75043e-07
-9.31827e-07
8.01028e-07
-4.39671e-07
1.30927e-06
-2.68334e-07
-4.36934e-07
1.17231e-06
-1.03199e-06
-1.40132e-07
1.17017e-06
-1.30412e-06
9.399e-08
7.33802e-07
-1.87212e-06
4.07777e-07
4.89346e-07
7.77162e-08
9.02531e-07
-1.83652e-07
2.06957e-08
1.32225e-06
-3.09438e-08
-1.00896e-06
2.63634e-06
-3.60424e-07
-7.31371e-07
6.91676e-07
6.25097e-07
7.99718e-07
-2.17513e-06
5.28551e-07
-9.97023e-07
1.21519e-06
1.59267e-06
-1.21956e-06
6.31456e-07
-2.02928e-06
-2.51167e-06
7.68333e-06
-8.73591e-07
-5.30665e-07
2.36929e-07
-8.19568e-07
1.48859e-06
-4.58417e-07
-1.26292e-06
-2.06554e-07
-6.31125e-08
-1.22339e-06
-1.65598e-07
-1.03949e-06
-1.11763e-06
-3.43105e-07
-6.78709e-07
-6.59764e-07
7.33154e-07
-3.70424e-07
-2.20048e-06
-2.6776e-07
9.33648e-08
-5.32982e-07
-7.88146e-07
-9.80862e-08
-1.41458e-06
7.80267e-08
-1.76735e-06
5.08897e-07
1.00514e-06
-1.25657e-06
1.2181e-06
-1.23477e-06
1.33831e-06
-1.4224e-06
-1.77135e-07