/*--------------------------------*- C++ -*----------------------------------*\
  =========                 |
  \\      /  F ield         | OpenFOAM: The Open Source CFD Toolbox
   \\    /   O peration     | Website:  https://openfoam.org
    \\  /    A nd           | Version:  6
     \\/     M anipulation  |
\*---------------------------------------------------------------------------*/
FoamFile
{
    version     2.0;
    format      ascii;
    class       volVectorField;
    location    "1";
    object      U;
}
// * * * * * * * * * * * * * * * * * * * * * * * * * * * * * * * * * * * * * //

dimensions      [0 1 -1 0 0 0 0];

internalField   nonuniform List<vector> 
6000
(
(-0.0614756 -7.26188e-08 4.52176e-07)
(-0.0522983 2.06606e-08 4.71938e-07)
(-0.0688462 3.52158e-07 2.94419e-07)
(-0.101658 4.55413e-07 2.36929e-08)
(-0.00429422 0.00159045 3.25338e-09)
(-0.0842771 -4.74703e-08 7.1165e-07)
(-0.0784638 -5.84772e-08 6.39529e-07)
(-0.0832017 1.54694e-07 -1.54543e-07)
(-0.102707 3.26253e-07 1.02159e-08)
(-0.00529165 0.00195987 8.17223e-09)
(0 0 0)
(-0.0722578 -2.47148e-07 1.33092e-07)
(-0.0640505 1.36635e-07 2.13747e-07)
(-0.102712 5.89538e-07 -1.28444e-08)
(-0.00673671 0.00249508 9.1804e-09)
(-0.0560526 1.01406e-07 1.39067e-07)
(-0.070657 1.54097e-07 4.98901e-07)
(-0.0839192 9.48934e-08 1.01689e-06)
(-0.096358 2.3562e-07 4.61531e-07)
(-0.00769565 0.00285024 4.27923e-07)
(-0.0137474 5.58516e-09 0.0137475)
(0 0 0)
(-0.00447291 5.77984e-09 0.00447292)
(-0.00830336 1.814e-07 0.00830336)
(-0.0930228 0.0344529 0.0930229)
(-0.0217524 0.000349525 -0.00259265)
(-0.020531 -0.000515376 -0.00273015)
(-0.0225074 -0.00237274 -0.0017593)
(-0.0050675 0.00149957 -3.11829e-05)
(-2.62618e-07 0.0377494 4.31171e-10)
(-0.0194425 0.0002238 -0.00284821)
(-0.020706 -0.000180657 -0.00129045)
(-0.0169995 -0.000988648 0.000276417)
(-0.00620481 0.00195006 -5.06329e-05)
(-3.22233e-07 0.0379997 -7.02504e-10)
(-0.0152155 0.000678831 0.00294039)
(-0.0241329 0.00104238 0.00273038)
(-0.0224143 -0.00191668 0.00122976)
(-0.00641028 0.00181951 0.00036054)
(-4.01031e-07 0.0380796 5.21536e-09)
(-0.0220222 -0.000589821 0.0241381)
(-0.0240223 -0.00165972 0.0171383)
(-0.0154396 -0.00118078 0.0130796)
(-0.0077069 0.00240232 0.00759132)
(-4.34567e-07 0.0357553 4.91223e-07)
(0 0 0)
(-3.4213e-07 -1.53049e-08 0.0623942)
(1.7506e-07 2.54992e-07 0.0880157)
(-4.67999e-07 1.69433e-07 0.0961384)
(-4.84305e-07 0.00329777 0.00890399)
(-0.00427369 -2.82192e-05 -0.000631705)
(-0.00232929 -6.805e-05 -0.000130464)
(-0.00163506 -3.20068e-05 -0.000113942)
(-3.63407e-05 0.000664223 -2.99443e-05)
(1.20587e-08 0.0394949 2.06334e-08)
(-0.000596431 2.32463e-05 -0.000156182)
(-0.00195736 3.44575e-06 -5.52794e-05)
(0 0 0)
(-1.07357e-05 0.000230493 -1.26916e-05)
(1.71032e-08 0.0402934 2.39751e-08)
(0 0 0)
(-0.00374773 4.5196e-05 0.000886573)
(-0.000320182 -1.30912e-05 7.99982e-05)
(-4.89267e-07 1.18957e-05 1.36215e-06)
(1.26732e-08 0.0404722 2.09143e-10)
(-0.000780381 6.81055e-06 0.008506)
(-0.00115844 -2.47496e-05 0.00499385)
(-0.000712761 -5.7489e-05 0.00632506)
(-0.000124707 0.00177401 0.00507197)
(1.2475e-09 0.0385744 5.32657e-07)
(-1.11851e-06 -1.25977e-07 0.100154)
(5.55313e-07 1.17939e-07 0.0941913)
(0 0 0)
(-1.58668e-08 1.00251e-07 0.103917)
(0 0 0)
(5.50186e-05 1.17881e-07 -3.29635e-08)
(0.00064665 -2.92681e-07 -1.86334e-06)
(0.000369347 5.31727e-06 -1.33216e-06)
(0.00454594 0.00171377 -1.55844e-05)
(3.84271e-07 0.0386254 5.04311e-09)
(0.000842534 9.9615e-07 2.69431e-05)
(0.000743962 -1.20924e-06 -1.38407e-06)
(0.000477866 6.62246e-06 -3.89834e-06)
(0.00460314 0.00171476 -1.59375e-05)
(4.29804e-07 0.0387967 -4.1426e-10)
(0.00464153 -4.54702e-05 0.00127849)
(0.00131188 -2.00023e-05 0.000123781)
(0 0 0)
(0.00505664 0.00188823 0.000248253)
(4.79068e-07 0.0387688 -9.89256e-09)
(0.0259373 -0.00174749 0.0214556)
(0.00879144 -0.000684901 0.0093288)
(0.00850778 -5.94282e-06 0.0092965)
(0.00532356 0.00191585 0.00535382)
(4.88187e-07 0.0367543 4.97099e-07)
(1.12123e-07 1.86251e-07 0.0623202)
(5.67042e-07 3.74751e-07 0.0953646)
(-5.27801e-08 6.63518e-08 0.100994)
(4.76511e-07 1.71232e-07 0.0985609)
(4.03281e-07 0.00341641 0.0092243)
(0.0952312 4.36241e-08 1.29668e-07)
(0.0967889 1.70008e-07 9.53168e-08)
(0.103365 2.56034e-07 -1.1535e-08)
(0.104119 2.56778e-07 -3.80646e-09)
(0.00587568 0.00217618 3.59561e-09)
(0.0975848 3.10828e-08 5.24087e-07)
(0.0987344 1.19553e-07 2.79091e-07)
(0.103551 2.17323e-07 4.98657e-08)
(0.104439 2.85553e-07 -2.30811e-08)
(0.00697222 0.0025823 7.75623e-09)
(0.101153 -4.89684e-08 9.67814e-07)
(0.101741 -5.52079e-09 4.16607e-07)
(0.105014 1.41583e-07 2.21523e-07)
(0.104131 2.81135e-07 -4.85475e-08)
(0.00812997 0.0030111 6.65255e-09)
(0 0 0)
(0.0962209 -1.49286e-07 5.34233e-07)
(0.0982909 4.02462e-08 4.61948e-07)
(0.0983067 2.21773e-07 4.82158e-07)
(0.00914312 0.00338634 4.04648e-07)
(0.0188129 5.23143e-09 0.0188126)
(0.00644472 2.52788e-09 0.00644472)
(0.00538097 5.96467e-09 0.00538098)
(0.00876617 1.52099e-07 0.00876617)
(0.0746525 0.0276491 0.0746525)
(-0.00844106 -0.00422053 2.3287e-09)
(-0.297695 -2.79375e-06 -2.1382e-06)
(-0.300629 1.93788e-08 -1.11551e-07)
(-0.297882 2.83065e-06 -2.14449e-06)
(-0.00850302 0.0042515 2.53613e-09)
(0 0 0)
(-0.285337 -2.77005e-06 -3.10243e-06)
(-0.298589 1.6767e-08 -1.30022e-07)
(-0.285516 2.80867e-06 -3.10984e-06)
(0 0 0)
(-0.0227164 -0.0113583 8.65978e-08)
(-0.282516 -2.51417e-06 -1.78318e-06)
(-0.297956 1.63544e-08 2.49274e-07)
(-0.282717 2.54758e-06 -1.7837e-06)
(-0.022909 0.0114545 8.69552e-08)
(-0.0364357 -0.0182179 2.28835e-06)
(-0.263075 -2.94523e-06 4.39278e-06)
(-0.28062 1.61308e-08 5.26565e-06)
(-0.263234 2.97885e-06 4.39457e-06)
(-0.0366503 0.0183253 2.27612e-06)
(-0.100665 -0.0503323 0.100664)
(-0.0326546 -1.00966e-06 0.0326547)
(-0.030188 1.60769e-09 0.0301881)
(-0.0326403 1.00142e-06 0.0326404)
(-0.0996764 0.0498383 0.0996763)
(-2.72747e-06 -0.148065 -1.07303e-06)
(-0.0380799 -0.0183559 3.24389e-05)
(-0.0129494 6.53018e-07 5.59755e-05)
(-0.0381869 0.0184106 3.02057e-05)
(-2.74889e-06 0.148217 -1.08293e-06)
(-3.07155e-06 -0.144861 -1.10996e-06)
(-0.0329845 -0.0163878 -0.000317505)
(-0.0127523 2.33617e-07 7.55008e-05)
(-0.0330999 0.0164449 -0.000323237)
(-3.10702e-06 0.144998 -1.12348e-06)
(-2.8883e-06 -0.146348 -1.23629e-06)
(-0.0252648 -0.0129264 0.000959726)
(-0.0113422 -2.87902e-07 0.000711233)
(-0.0253655 0.0129761 0.000964585)
(-2.9235e-06 0.146488 -1.25188e-06)
(-4.47851e-06 -0.135415 3.25679e-06)
(-0.0198962 -0.0101756 0.0197478)
(-0.0201426 1.18572e-06 0.020352)
(-0.0199659 0.0102102 0.0198124)
(-4.52732e-06 0.135499 3.29343e-06)
(-1.86372e-06 -0.0158823 0.0317645)
(-4.45237e-06 -2.50253e-06 0.266255)
(-4.12618e-06 1.2292e-08 0.285267)
(-4.47176e-06 2.54141e-06 0.266365)
(-1.8584e-06 0.0160495 0.0320988)
(-2.04429e-06 -0.163565 -3.64915e-07)
(-0.00010548 -0.00130187 4.25939e-05)
(0 0 0)
(-0.000102548 0.00126418 4.11047e-05)
(-2.05925e-06 0.163748 -3.74207e-07)
(-1.04084e-06 -0.159937 -6.60063e-07)
(-0.000260851 -0.00322148 0.000181449)
(-0.000802791 -1.30014e-05 0.000863291)
(-0.000256987 0.00316948 0.000177614)
(-1.05878e-06 0.160112 -6.80081e-07)
(-1.119e-06 -0.157242 -6.6764e-07)
(-0.000240395 -0.00416937 0.000629536)
(-0.000442544 -9.2636e-06 0.00189905)
(-0.000237209 0.00411181 0.000622267)
(-1.13615e-06 0.157395 -6.9159e-07)
(1.05122e-07 -0.145946 4.08624e-06)
(0.000357118 -0.0102848 0.0204017)
(-4.33343e-07 -5.27798e-07 0.00990064)
(0.000356063 0.0103255 0.0204866)
(7.31846e-08 0.146024 4.14268e-06)
(-4.08233e-08 -0.0148737 0.0297474)
(3.84171e-07 -2.5368e-06 0.28779)
(4.84554e-07 6.23123e-09 0.306728)
(3.57425e-07 2.58072e-06 0.287893)
(-4.08616e-08 0.0150918 0.0301835)
(2.6758e-07 -0.149447 -1.87755e-07)
(0.0247497 -0.0123304 3.38472e-05)
(0.0103274 6.22339e-08 2.47311e-05)
(0.0248289 0.0123731 3.23459e-05)
(2.95888e-07 0.14958 -2.00928e-07)
(1.31383e-06 -0.148703 -3.3907e-07)
(0.0196884 -0.00989514 6.21728e-05)
(0.00954155 -2.45686e-07 5.12951e-05)
(0.0197763 0.00993891 6.04937e-05)
(1.39886e-06 0.14881 -3.55778e-07)
(2.32054e-06 -0.148009 -1.80469e-07)
(0.0164138 -0.00827544 0.00160694)
(0.00859214 -3.56517e-07 0.00061003)
(0.0165038 0.00831979 0.00161553)
(2.47093e-06 0.148108 -2.12067e-07)
(2.9244e-06 -0.133013 3.7806e-06)
(0.0294258 -0.0147607 0.0297596)
(0.0216327 1.37287e-08 0.0216462)
(0.0294535 0.0147742 0.0297864)
(3.06304e-06 0.133022 3.83337e-06)
(2.27698e-06 -0.0135941 0.0271881)
(3.46772e-06 -2.0845e-06 0.263092)
(3.79009e-06 -1.03649e-09 0.287911)
(3.50871e-06 2.12422e-06 0.263079)
(2.40971e-06 0.0138561 0.0277121)
(0.0115397 -0.00576986 2.77796e-08)
(0.29232 -9.27699e-07 1.39955e-07)
(0.310139 1.06035e-08 7.26893e-08)
(0.292432 9.67103e-07 1.38468e-07)
(0.0118754 0.00593775 3.0507e-08)
(0.0147995 -0.00739975 7.22409e-08)
(0.292716 -1.24692e-06 3.15222e-07)
(0.309775 9.77489e-09 2.25373e-07)
(0.29284 1.31021e-06 3.12582e-07)
(0.0154174 0.0077087 8.06284e-08)
(0.0179699 -0.00898499 8.00197e-08)
(0.293164 -1.53912e-06 2.4581e-07)
(0.309627 9.12048e-09 3.30758e-07)
(0.293292 1.63004e-06 2.26185e-07)
(0.0189105 0.00945524 8.73051e-08)
(0.0209078 -0.0104539 1.87982e-06)
(0.263827 -1.57026e-06 3.264e-06)
(0.289006 -6.02265e-10 3.52428e-06)
(0.263819 1.64836e-06 3.30036e-06)
(0.0219164 0.0109582 2.03383e-06)
(0.149035 -0.0745177 0.149035)
(0.0212377 -9.36745e-07 0.0212377)
(0.0207521 2.04539e-09 0.0207521)
(0.021583 9.89799e-07 0.021583)
(0.154629 0.0773148 0.154629)
(-0.000944985 -0.000524991 8.09405e-11)
(-0.0296109 -2.64398e-08 2.70156e-09)
(-0.026681 9.66721e-11 1.45665e-08)
(-0.0296154 2.40426e-08 2.62286e-09)
(-0.000687299 0.000381833 6.25068e-11)
(-0.000990096 -0.000550053 1.64323e-10)
(-0.0300966 -1.91771e-08 4.29008e-09)
(-0.0293577 6.28038e-11 -4.31056e-08)
(-0.0301014 1.68281e-08 4.08517e-09)
(-0.000731449 0.000406361 1.3808e-10)
(-0.00115876 -0.000643756 1.49444e-10)
(-0.0301174 -5.42361e-08 1.25797e-09)
(-0.0234227 -4.00909e-12 1.01079e-08)
(-0.0301205 5.21813e-08 1.04091e-09)
(-0.000938709 0.000521505 1.66348e-10)
(-0.00110781 -0.00061545 1.02614e-08)
(-0.029689 -1.39268e-08 1.8006e-08)
(-0.0292487 -5.45952e-11 9.61017e-08)
(-0.0296935 1.24044e-08 1.74978e-08)
(-0.000958616 0.000532564 9.32921e-09)
(-0.0156165 -0.00867582 0.0156165)
(-0.00104853 -5.37002e-09 0.00104853)
(0 0 0)
(-0.00103642 5.50718e-09 0.00103642)
(-0.0163158 0.00906433 0.0163158)
(-1.89798e-08 -0.0164545 1.62029e-09)
(-0.000520802 -0.000273292 -5.67315e-06)
(-0.0052877 6.00105e-07 -0.000290068)
(-0.000525377 0.000275952 -5.80498e-06)
(-1.38467e-08 0.0164705 1.36882e-09)
(-2.08392e-08 -0.0166901 1.05849e-09)
(-0.000642796 -0.000352129 -5.5036e-06)
(-0.0036362 1.05849e-07 8.51044e-05)
(-0.000637549 0.000349501 -5.66991e-06)
(-1.63466e-08 0.0167008 6.427e-10)
(-4.19169e-08 -0.0166352 1.77628e-09)
(-0.000104515 -5.33158e-05 1.65604e-06)
(-0.00547771 -3.84053e-07 0.00015925)
(-9.04557e-05 4.61805e-05 1.39804e-06)
(-3.78189e-08 0.0166438 1.28238e-09)
(-2.19968e-08 -0.0164795 2.20118e-08)
(-0.000525497 -0.000285727 0.000523427)
(-0.000729866 -1.38132e-07 0.000676015)
(-0.000526611 0.000286211 0.000524197)
(-1.95745e-08 0.0164813 2.11078e-08)
(-1.0325e-08 -0.000622801 0.00112104)
(-1.7871e-08 -1.20638e-08 0.0296815)
(-2.89567e-08 -1.69247e-10 0.0294525)
(-1.77273e-08 1.16735e-08 0.0296742)
(-1.04003e-08 0.000604629 0.00108833)
(-3.48945e-10 -0.0166609 9.83763e-10)
(-1.06805e-06 -0.00200556 -4.8358e-05)
(-1.63667e-05 2.71569e-07 -2.54685e-05)
(-5.53533e-07 0.00200664 -4.77777e-05)
(1.47087e-10 0.0166859 4.27128e-10)
(-1.06638e-10 -0.0169449 -1.80899e-08)
(-8.91805e-07 -0.00181243 1.48041e-05)
(0 0 0)
(-2.76471e-07 0.0018163 1.56473e-05)
(-8.5169e-10 0.0169497 -1.85051e-08)
(1.94593e-10 -0.0160198 2.3379e-09)
(-6.27928e-07 -0.00176739 5.92286e-05)
(-1.57745e-06 1.05647e-06 0.000684484)
(1.4498e-06 0.00177317 5.75544e-05)
(2.06975e-09 0.0160275 1.76438e-09)
(3.84722e-10 -0.01669 4.36366e-08)
(1.636e-08 -6.17962e-05 0.000111511)
(2.34276e-07 -5.87431e-07 0.00306211)
(3.71448e-09 5.55455e-05 0.000100185)
(-2.74596e-10 0.0166863 4.31953e-08)
(-1.37193e-11 -0.000700029 0.00126005)
(2.54494e-10 -1.66573e-08 0.0302367)
(1.02865e-10 -2.1175e-10 0.0297326)
(1.25807e-10 1.66517e-08 0.0302263)
(3.43705e-11 0.000710069 0.00127812)
(1.89155e-08 -0.0164491 1.86076e-09)
(0.000510862 -0.000268751 -5.55782e-06)
(0.00522225 1.0282e-06 -0.000279325)
(0.000520222 0.000273917 -5.70758e-06)
(1.26154e-08 0.016478 3.96192e-10)
(2.03659e-08 -0.016692 1.61097e-09)
(0.000633569 -0.000347382 -5.35229e-06)
(0.00361671 4.9373e-07 9.09465e-05)
(0.000634695 0.000347859 -5.24109e-06)
(1.76591e-08 0.0166762 2.64827e-09)
(4.10034e-08 -0.016645 2.26577e-09)
(9.81946e-05 -5.01213e-05 1.60008e-06)
(0.00546907 1.81119e-06 0.000163205)
(0.000105012 5.37839e-05 1.63444e-06)
(3.47726e-08 0.0167031 1.85137e-09)
(2.10801e-08 -0.0164891 2.15011e-08)
(0.000529933 -0.00028815 0.000527885)
(0.000732375 -1.83577e-07 0.000678602)
(0.000527731 0.000286629 0.00052515)
(2.10664e-08 0.0164721 1.97662e-08)
(1.01141e-08 -0.000600552 0.00108099)
(1.7417e-08 -1.18311e-08 0.0296913)
(2.90902e-08 -2.3889e-10 0.0294559)
(1.83936e-08 1.20622e-08 0.0296802)
(1.11351e-08 0.000638464 0.00114924)
(0.000968982 -0.000538323 6.95558e-11)
(0.0295936 -2.67867e-08 2.9411e-09)
(0.0267059 3.69834e-10 1.48241e-08)
(0.0296244 2.37582e-08 2.18375e-09)
(0.000612984 0.000340547 1.08618e-10)
(0.000969233 -0.000538463 1.32404e-10)
(0.0300922 -1.91582e-08 4.84787e-09)
(0.0293521 -1.2086e-11 -4.25199e-08)
(0.0300829 1.78103e-08 4.8044e-09)
(0 0 0)
(0.0010944 -0.000608 1.24198e-10)
(0.0301277 -5.38029e-08 1.82645e-09)
(0.023424 3.06228e-10 1.05117e-08)
(0.0301502 5.05331e-08 1.45341e-09)
(0.000638586 0.00035477 1.17097e-10)
(0.00103324 -0.00057402 9.75407e-09)
(0.0297029 -1.33778e-08 1.74831e-08)
(0.0292501 -2.1384e-10 9.63624e-08)
(0.0296942 1.3202e-08 1.73821e-08)
(0.00105971 0.000588728 1.05661e-08)
(0.0158897 -0.00882762 0.0158897)
(0.00100813 -5.24247e-09 0.00100813)
(0 0 0)
(0.00106712 5.74659e-09 0.00106712)
(0.016455 0.00914165 0.016455)
(-0.00844106 -0.00422053 2.3287e-09)
(-0.297695 -2.79375e-06 -2.1382e-06)
(-0.300629 1.93788e-08 -1.11551e-07)
(-0.297882 2.83065e-06 -2.14449e-06)
(-0.00850302 0.0042515 2.53613e-09)
(0 0 0)
(-0.285337 -2.77005e-06 -3.10243e-06)
(-0.298589 1.6767e-08 -1.30022e-07)
(-0.285516 2.80867e-06 -3.10984e-06)
(0 0 0)
(-0.0227164 -0.0113583 8.65978e-08)
(-0.282516 -2.51417e-06 -1.78318e-06)
(-0.297956 1.63544e-08 2.49274e-07)
(-0.282717 2.54758e-06 -1.7837e-06)
(-0.022909 0.0114545 8.69552e-08)
(-0.0364357 -0.0182179 2.28835e-06)
(-0.263075 -2.94523e-06 4.39278e-06)
(-0.28062 1.61308e-08 5.26565e-06)
(-0.263234 2.97885e-06 4.39457e-06)
(-0.0366503 0.0183253 2.27612e-06)
(-0.100665 -0.0503323 0.100664)
(-0.0326546 -1.00966e-06 0.0326547)
(-0.030188 1.60769e-09 0.0301881)
(-0.0326403 1.00142e-06 0.0326404)
(-0.0996764 0.0498383 0.0996763)
(-2.72747e-06 -0.148065 -1.07303e-06)
(-0.0380799 -0.0183559 3.24389e-05)
(-0.0129494 6.53018e-07 5.59755e-05)
(-0.0381869 0.0184106 3.02057e-05)
(-2.74889e-06 0.148217 -1.08293e-06)
(-3.07155e-06 -0.144861 -1.10996e-06)
(-0.0329845 -0.0163878 -0.000317505)
(-0.0127523 2.33617e-07 7.55008e-05)
(-0.0330999 0.0164449 -0.000323237)
(-3.10702e-06 0.144998 -1.12348e-06)
(-2.8883e-06 -0.146348 -1.23629e-06)
(-0.0252648 -0.0129264 0.000959726)
(-0.0113422 -2.87902e-07 0.000711233)
(-0.0253655 0.0129761 0.000964585)
(-2.9235e-06 0.146488 -1.25188e-06)
(-4.47851e-06 -0.135415 3.25679e-06)
(-0.0198962 -0.0101756 0.0197478)
(-0.0201426 1.18572e-06 0.020352)
(-0.0199659 0.0102102 0.0198124)
(-4.52732e-06 0.135499 3.29343e-06)
(-1.86372e-06 -0.0158823 0.0317645)
(-4.45237e-06 -2.50253e-06 0.266255)
(-4.12618e-06 1.2292e-08 0.285267)
(-4.47176e-06 2.54141e-06 0.266365)
(-1.8584e-06 0.0160495 0.0320988)
(-2.04429e-06 -0.163565 -3.64915e-07)
(-0.00010548 -0.00130187 4.25939e-05)
(0 0 0)
(-0.000102548 0.00126418 4.11047e-05)
(-2.05925e-06 0.163748 -3.74207e-07)
(-1.04084e-06 -0.159937 -6.60063e-07)
(-0.000260851 -0.00322148 0.000181449)
(-0.000802791 -1.30014e-05 0.000863291)
(-0.000256987 0.00316948 0.000177614)
(-1.05878e-06 0.160112 -6.80081e-07)
(-1.119e-06 -0.157242 -6.6764e-07)
(-0.000240395 -0.00416937 0.000629536)
(-0.000442544 -9.2636e-06 0.00189905)
(-0.000237209 0.00411181 0.000622267)
(-1.13615e-06 0.157395 -6.9159e-07)
(1.05122e-07 -0.145946 4.08624e-06)
(0.000357118 -0.0102848 0.0204017)
(-4.33343e-07 -5.27798e-07 0.00990064)
(0.000356063 0.0103255 0.0204866)
(7.31846e-08 0.146024 4.14268e-06)
(-4.08233e-08 -0.0148737 0.0297474)
(3.84171e-07 -2.5368e-06 0.28779)
(4.84554e-07 6.23123e-09 0.306728)
(3.57425e-07 2.58072e-06 0.287893)
(-4.08616e-08 0.0150918 0.0301835)
(2.6758e-07 -0.149447 -1.87755e-07)
(0.0247497 -0.0123304 3.38472e-05)
(0.0103274 6.22339e-08 2.47311e-05)
(0.0248289 0.0123731 3.23459e-05)
(2.95888e-07 0.14958 -2.00928e-07)
(1.31383e-06 -0.148703 -3.3907e-07)
(0.0196884 -0.00989514 6.21728e-05)
(0.00954155 -2.45686e-07 5.12951e-05)
(0.0197763 0.00993891 6.04937e-05)
(1.39886e-06 0.14881 -3.55778e-07)
(2.32054e-06 -0.148009 -1.80469e-07)
(0.0164138 -0.00827544 0.00160694)
(0.00859214 -3.56517e-07 0.00061003)
(0.0165038 0.00831979 0.00161553)
(2.47093e-06 0.148108 -2.12067e-07)
(2.9244e-06 -0.133013 3.7806e-06)
(0.0294258 -0.0147607 0.0297596)
(0.0216327 1.37287e-08 0.0216462)
(0.0294535 0.0147742 0.0297864)
(3.06304e-06 0.133022 3.83337e-06)
(2.27698e-06 -0.0135941 0.0271881)
(3.46772e-06 -2.0845e-06 0.263092)
(3.79009e-06 -1.03649e-09 0.287911)
(3.50871e-06 2.12422e-06 0.263079)
(2.40971e-06 0.0138561 0.0277121)
(0.0115397 -0.00576986 2.77796e-08)
(0.29232 -9.27699e-07 1.39955e-07)
(0.310139 1.06035e-08 7.26893e-08)
(0.292432 9.67103e-07 1.38468e-07)
(0.0118754 0.00593775 3.0507e-08)
(0.0147995 -0.00739975 7.22409e-08)
(0.292716 -1.24692e-06 3.15222e-07)
(0.309775 9.77489e-09 2.25373e-07)
(0.29284 1.31021e-06 3.12582e-07)
(0.0154174 0.0077087 8.06284e-08)
(0.0179699 -0.00898499 8.00197e-08)
(0.293164 -1.53912e-06 2.4581e-07)
(0.309627 9.12048e-09 3.30758e-07)
(0.293292 1.63004e-06 2.26185e-07)
(0.0189105 0.00945524 8.73051e-08)
(0.0209078 -0.0104539 1.87982e-06)
(0.263827 -1.57026e-06 3.264e-06)
(0.289006 -6.02265e-10 3.52428e-06)
(0.263819 1.64836e-06 3.30036e-06)
(0.0219164 0.0109582 2.03383e-06)
(0.149035 -0.0745177 0.149035)
(0.0212377 -9.36745e-07 0.0212377)
(0.0207521 2.04539e-09 0.0207521)
(0.021583 9.89799e-07 0.021583)
(0.154629 0.0773148 0.154629)
(0 0 0)
(-0.0294885 -3.22708e-08 5.45172e-09)
(-0.0267891 -1.10851e-09 2.92113e-08)
(-0.0298283 3.71126e-08 6.88338e-09)
(0 0 0)
(-0.000966115 -0.000568303 6.32725e-11)
(-0.0298564 -1.31744e-08 8.50608e-09)
(-0.0306907 -4.41467e-10 7.06076e-08)
(-0.0303299 1.69404e-08 1.37228e-08)
(-0.00134444 0.000790844 -3.56499e-10)
(-0.00114931 -0.000676066 1.37269e-10)
(-0.0299723 6.60681e-09 3.13954e-09)
(0 0 0)
(-0.0305834 -8.10683e-09 3.30446e-09)
(-0.000882116 0.000518891 4.491e-11)
(-0.00111232 -0.000654308 1.10696e-08)
(-0.0294758 -6.42998e-09 1.71159e-08)
(-0.0303807 -3.78043e-10 -1.24748e-08)
(-0.0297902 8.79167e-09 1.6728e-08)
(-0.00130282 0.000766365 1.39946e-08)
(-0.016816 -0.00989175 0.016816)
(-0.00112026 -6.58162e-09 0.00112026)
(-0.0014868 6.82717e-11 0.0014868)
(-0.00123176 7.75411e-09 0.00123176)
(-0.0178566 0.0105039 0.0178566)
(-7.79652e-11 -0.0177575 -4.13307e-09)
(-0.00140625 -0.000785095 -2.37197e-06)
(-0.00523358 -4.40704e-05 -0.000336267)
(-0.00137847 0.000760301 -4.78703e-06)
(-8.24538e-09 0.0179911 -3.19876e-09)
(-1.2435e-08 -0.0176538 -7.55926e-09)
(-0.0011247 -0.000670701 1.39643e-08)
(-0.00263638 -2.39506e-05 -0.000260838)
(-0.000870728 0.000511283 3.30679e-07)
(-2.11494e-08 0.0179529 -4.06941e-09)
(-1.90542e-08 -0.0175082 -1.75525e-09)
(-0.00229614 -0.00143069 4.22178e-05)
(-0.00136884 -1.01828e-05 4.47078e-05)
(-0.00187625 0.00116792 4.441e-05)
(-4.32086e-08 0.017853 -1.11705e-09)
(-2.11122e-08 -0.0172667 2.00561e-08)
(-0.000543523 -0.000320364 0.000543459)
(-0.0022719 -1.55149e-05 0.00239384)
(-0.000602121 0.000350353 0.000603026)
(-2.56382e-08 0.0174908 2.24713e-08)
(-1.08354e-08 -0.000638587 0.0010856)
(-2.15288e-08 -1.58516e-08 0.0293287)
(-3.16887e-08 2.09147e-10 0.0294025)
(-2.00474e-08 1.87543e-08 0.0296996)
(-1.396e-08 0.000780341 0.00132658)
(0 0 0)
(-1.03701e-05 -0.00174254 4.05981e-05)
(0 0 0)
(-2.30121e-06 0.00148935 2.87836e-05)
(0 0 0)
(-2.21088e-10 -0.0182311 -1.77313e-08)
(6.4567e-06 -0.00170848 8.42449e-05)
(0.0001429 -7.54565e-05 0.00014206)
(1.17254e-05 0.00140675 0.000100367)
(-5.93458e-10 0.0184543 -4.45248e-08)
(1.17994e-10 -0.0177936 -5.61017e-09)
(1.45736e-05 -0.00198663 0.000107266)
(1.87983e-05 1.28163e-08 2.78498e-05)
(2.23762e-05 0.00198871 0.000118409)
(-3.4237e-09 0.0169377 -3.40806e-09)
(-1.43078e-09 -0.0174189 1.80902e-08)
(1.01942e-07 -0.000327426 0.000566906)
(7.6923e-05 -3.22704e-05 0.00396558)
(1.81364e-07 6.27847e-05 0.000109606)
(-3.18581e-10 0.0176739 4.93377e-08)
(-5.12318e-11 -0.000677072 0.00115102)
(-3.59053e-10 -1.88616e-08 0.0295701)
(2.67256e-09 2.32721e-09 0.0288558)
(1.24225e-10 2.23568e-08 0.0302559)
(-7.14346e-11 0.000834922 0.00141937)
(-8.89429e-09 -0.0177591 -2.19078e-09)
(0.00127642 -0.000754828 5.9825e-06)
(0.00304536 -1.85017e-05 6.01145e-05)
(0.00134657 0.000786883 3.79164e-06)
(1.95491e-09 0.0180026 -3.5476e-09)
(1.17544e-09 -0.0176026 -5.28161e-09)
(0.000947762 -0.000554865 8.28948e-06)
(0.00320753 -2.38297e-05 0.000151454)
(0.00103624 0.000596178 8.52148e-06)
(1.77925e-08 0.0178368 -7.41853e-09)
(7.59018e-09 -0.017427 -2.96723e-09)
(0.000568794 -0.000327989 9.23922e-06)
(0.00406433 -2.76472e-05 0.000151205)
(0.00018652 0.000106671 3.74513e-06)
(4.73427e-08 0.0176097 -8.52955e-10)
(1.46675e-08 -0.0172155 1.85798e-08)
(0.00036789 -0.000213207 0.000368529)
(0.000433076 -2.65422e-06 0.000432096)
(0.000517201 0.000295826 0.000517025)
(2.35777e-08 0.0174506 2.4454e-08)
(1.2202e-08 -0.000627435 0.00106664)
(1.70362e-08 -1.34741e-08 0.0293031)
(2.35838e-08 4.82175e-10 0.0289229)
(1.52654e-08 1.62331e-08 0.0296561)
(1.64351e-08 0.000726228 0.00123459)
(0 0 0)
(0.0299406 9.32973e-09 -5.51865e-10)
(0 0 0)
(0.0302983 -3.27042e-09 -3.87476e-10)
(0.00107603 0.00063296 2.61458e-11)
(0.000347156 -0.000204209 -7.39482e-12)
(0.0297663 -3.60923e-09 -2.51723e-09)
(0.0304047 -1.89471e-12 -3.97401e-08)
(0.0301906 1.19763e-08 8.69446e-10)
(0.00113878 0.000669872 1.11968e-10)
(0.000588099 -0.000345941 1.6257e-10)
(0.0295319 -1.31331e-08 -5.00426e-10)
(0.0287139 1.81768e-09 -5.03846e-09)
(0.0300927 2.16289e-08 1.09201e-10)
(0.00134974 0.000793963 1.20987e-10)
(0.000843039 -0.000495905 9.94313e-09)
(0.0292502 -1.1322e-08 1.7638e-08)
(0.0288904 3.47843e-10 2.43185e-08)
(0.0295899 1.63524e-08 1.67439e-08)
(0.00128412 0.000755367 1.71725e-08)
(0.0195981 -0.0115283 0.0195981)
(0.000936079 -6.44719e-09 0.000936079)
(0.000919029 3.81006e-11 0.000919029)
(0.0010206 8.25663e-09 0.0010206)
(0.0228417 0.0134363 0.0228417)
(-0.00844106 -0.00422053 2.3287e-09)
(-0.297695 -2.79375e-06 -2.1382e-06)
(-0.300629 1.93788e-08 -1.11551e-07)
(-0.297882 2.83065e-06 -2.14449e-06)
(-0.00850302 0.0042515 2.53613e-09)
(0 0 0)
(-0.285337 -2.77005e-06 -3.10243e-06)
(-0.298589 1.6767e-08 -1.30022e-07)
(-0.285516 2.80867e-06 -3.10984e-06)
(0 0 0)
(-0.0227164 -0.0113583 8.65978e-08)
(-0.282516 -2.51417e-06 -1.78318e-06)
(-0.297956 1.63544e-08 2.49274e-07)
(-0.282717 2.54758e-06 -1.7837e-06)
(-0.022909 0.0114545 8.69552e-08)
(-0.0364357 -0.0182179 2.28835e-06)
(-0.263075 -2.94523e-06 4.39278e-06)
(-0.28062 1.61308e-08 5.26565e-06)
(-0.263234 2.97885e-06 4.39457e-06)
(-0.0366503 0.0183253 2.27612e-06)
(-0.100665 -0.0503323 0.100664)
(-0.0326546 -1.00966e-06 0.0326547)
(-0.030188 1.60769e-09 0.0301881)
(-0.0326403 1.00142e-06 0.0326404)
(-0.0996764 0.0498383 0.0996763)
(-2.72747e-06 -0.148065 -1.07303e-06)
(-0.0380799 -0.0183559 3.24389e-05)
(-0.0129494 6.53018e-07 5.59755e-05)
(-0.0381869 0.0184106 3.02057e-05)
(-2.74889e-06 0.148217 -1.08293e-06)
(-3.07155e-06 -0.144861 -1.10996e-06)
(-0.0329845 -0.0163878 -0.000317505)
(-0.0127523 2.33617e-07 7.55008e-05)
(-0.0330999 0.0164449 -0.000323237)
(-3.10702e-06 0.144998 -1.12348e-06)
(-2.8883e-06 -0.146348 -1.23629e-06)
(-0.0252648 -0.0129264 0.000959726)
(-0.0113422 -2.87902e-07 0.000711233)
(-0.0253655 0.0129761 0.000964585)
(-2.9235e-06 0.146488 -1.25188e-06)
(-4.47851e-06 -0.135415 3.25679e-06)
(-0.0198962 -0.0101756 0.0197478)
(-0.0201426 1.18572e-06 0.020352)
(-0.0199659 0.0102102 0.0198124)
(-4.52732e-06 0.135499 3.29343e-06)
(-1.86372e-06 -0.0158823 0.0317645)
(-4.45237e-06 -2.50253e-06 0.266255)
(-4.12618e-06 1.2292e-08 0.285267)
(-4.47176e-06 2.54141e-06 0.266365)
(-1.8584e-06 0.0160495 0.0320988)
(-2.04429e-06 -0.163565 -3.64915e-07)
(-0.00010548 -0.00130187 4.25939e-05)
(0 0 0)
(-0.000102548 0.00126418 4.11047e-05)
(-2.05925e-06 0.163748 -3.74207e-07)
(-1.04084e-06 -0.159937 -6.60063e-07)
(-0.000260851 -0.00322148 0.000181449)
(-0.000802791 -1.30014e-05 0.000863291)
(-0.000256987 0.00316948 0.000177614)
(-1.05878e-06 0.160112 -6.80081e-07)
(-1.119e-06 -0.157242 -6.6764e-07)
(-0.000240395 -0.00416937 0.000629536)
(-0.000442544 -9.2636e-06 0.00189905)
(-0.000237209 0.00411181 0.000622267)
(-1.13615e-06 0.157395 -6.9159e-07)
(1.05122e-07 -0.145946 4.08624e-06)
(0.000357118 -0.0102848 0.0204017)
(-4.33343e-07 -5.27798e-07 0.00990064)
(0.000356063 0.0103255 0.0204866)
(7.31846e-08 0.146024 4.14268e-06)
(-4.08233e-08 -0.0148737 0.0297474)
(3.84171e-07 -2.5368e-06 0.28779)
(4.84554e-07 6.23123e-09 0.306728)
(3.57425e-07 2.58072e-06 0.287893)
(-4.08616e-08 0.0150918 0.0301835)
(2.6758e-07 -0.149447 -1.87755e-07)
(0.0247497 -0.0123304 3.38472e-05)
(0.0103274 6.22339e-08 2.47311e-05)
(0.0248289 0.0123731 3.23459e-05)
(2.95888e-07 0.14958 -2.00928e-07)
(1.31383e-06 -0.148703 -3.3907e-07)
(0.0196884 -0.00989514 6.21728e-05)
(0.00954155 -2.45686e-07 5.12951e-05)
(0.0197763 0.00993891 6.04937e-05)
(1.39886e-06 0.14881 -3.55778e-07)
(2.32054e-06 -0.148009 -1.80469e-07)
(0.0164138 -0.00827544 0.00160694)
(0.00859214 -3.56517e-07 0.00061003)
(0.0165038 0.00831979 0.00161553)
(2.47093e-06 0.148108 -2.12067e-07)
(2.9244e-06 -0.133013 3.7806e-06)
(0.0294258 -0.0147607 0.0297596)
(0.0216327 1.37287e-08 0.0216462)
(0.0294535 0.0147742 0.0297864)
(3.06304e-06 0.133022 3.83337e-06)
(2.27698e-06 -0.0135941 0.0271881)
(3.46772e-06 -2.0845e-06 0.263092)
(3.79009e-06 -1.03649e-09 0.287911)
(3.50871e-06 2.12422e-06 0.263079)
(2.40971e-06 0.0138561 0.0277121)
(0.0115397 -0.00576986 2.77796e-08)
(0.29232 -9.27699e-07 1.39955e-07)
(0.310139 1.06035e-08 7.26893e-08)
(0.292432 9.67103e-07 1.38468e-07)
(0.0118754 0.00593775 3.0507e-08)
(0.0147995 -0.00739975 7.22409e-08)
(0.292716 -1.24692e-06 3.15222e-07)
(0.309775 9.77489e-09 2.25373e-07)
(0.29284 1.31021e-06 3.12582e-07)
(0.0154174 0.0077087 8.06284e-08)
(0.0179699 -0.00898499 8.00197e-08)
(0.293164 -1.53912e-06 2.4581e-07)
(0.309627 9.12048e-09 3.30758e-07)
(0.293292 1.63004e-06 2.26185e-07)
(0.0189105 0.00945524 8.73051e-08)
(0.0209078 -0.0104539 1.87982e-06)
(0.263827 -1.57026e-06 3.264e-06)
(0.289006 -6.02265e-10 3.52428e-06)
(0.263819 1.64836e-06 3.30036e-06)
(0.0219164 0.0109582 2.03383e-06)
(0.149035 -0.0745177 0.149035)
(0.0212377 -9.36745e-07 0.0212377)
(0.0207521 2.04539e-09 0.0207521)
(0.021583 9.89799e-07 0.021583)
(0.154629 0.0773148 0.154629)
(-0.00787278 -0.00281171 6.13141e-09)
(-0.112787 -3.25495e-07 1.00528e-08)
(-0.111918 -1.42194e-07 3.66195e-08)
(-0.109384 -5.23129e-09 -1.96167e-08)
(0 0 0)
(-0.0090387 -0.00322811 1.736e-08)
(-0.113398 -3.45547e-07 1.48704e-08)
(-0.112075 -1.53139e-07 1.30759e-07)
(-0.109971 -1.08681e-07 2.33611e-08)
(-0.104604 -7.94103e-08 -1.4883e-06)
(-0.0108975 -0.00389197 2.22536e-08)
(-0.113546 -3.58251e-07 7.24257e-09)
(-0.113574 -1.41e-07 2.35951e-07)
(-0.110714 -6.14011e-07 2.97142e-07)
(-0.0631324 -3.25568e-07 -1.43269e-07)
(-0.0123824 -0.0044223 9.09282e-07)
(-0.108009 -3.27751e-07 6.84027e-07)
(-0.104542 -4.50216e-08 8.31207e-07)
(-0.101746 -2.5851e-07 8.28993e-07)
(-0.0557095 -1.40846e-07 1.12283e-06)
(-0.12433 -0.0444035 0.12433)
(-0.0108431 -2.87794e-07 0.0108431)
(-0.0133854 -7.94373e-09 0.0133854)
(-0.0098965 -1.1753e-08 0.0098965)
(-0.0177504 -1.54213e-08 0.0177504)
(-5.0405e-07 -0.0405407 2.42937e-08)
(-0.00480649 -0.00175635 -1.87323e-05)
(-0.00107492 -8.87418e-06 3.73516e-06)
(-0.00230609 5.30322e-06 -1.89709e-05)
(-0.0049657 -2.45692e-05 0.000106382)
(-5.50227e-07 -0.0408362 2.49963e-08)
(-0.00419252 -0.00150749 -1.87526e-05)
(-0.000899944 -8.69094e-06 2.45223e-06)
(-0.00139526 1.249e-05 -1.23553e-05)
(-0.00667133 3.79375e-05 0.00142706)
(-6.48747e-07 -0.0408674 -1.81776e-08)
(-0.00479497 -0.00171486 0.000222946)
(-0.0013542 -1.29272e-05 0.000130129)
(-0.0016328 0.000125576 0.000185307)
(-0.0221745 0.00206991 0.0112652)
(-6.92149e-07 -0.0387724 7.99931e-07)
(-0.00555187 -0.00188095 0.00557654)
(-0.0100416 0.000146708 0.0111274)
(-0.0120755 0.00145825 0.0128408)
(-0.0225371 0.00304265 0.0200837)
(-9.80026e-07 -0.0048121 0.0134739)
(-6.96768e-07 -3.94549e-07 0.10783)
(-1.0474e-06 -1.52409e-08 0.102495)
(-5.09101e-07 -1.97768e-07 0.102917)
(-9.01218e-08 -1.46297e-07 0.0565995)
(6.81825e-09 -0.0414651 4.72576e-08)
(4.87586e-05 -0.00107886 -4.31138e-05)
(0 0 0)
(0.00661168 -0.000284999 -0.000745364)
(0 0 0)
(1.1451e-08 -0.0423318 8.19598e-08)
(1.15947e-05 -0.000269058 -1.48814e-05)
(0.000567688 -2.85309e-06 9.99281e-07)
(0.00350454 -0.000225036 -0.000700071)
(0.00077953 -7.46232e-05 0.000191513)
(2.17614e-08 -0.0427381 5.72653e-08)
(8.39429e-06 -0.000227507 2.55434e-05)
(0 0 0)
(0.000742359 -1.81832e-07 0.000411754)
(-0.00184067 -3.73104e-05 0.00243276)
(2.16491e-08 -0.0408957 7.29114e-07)
(0.000121571 -0.00175804 0.00547833)
(0.00125041 9.26609e-05 0.0144769)
(0.000362804 8.13045e-06 0.00737294)
(-0.00303105 0.000297636 0.0148514)
(4.13148e-09 -0.0043905 0.0122934)
(-1.98456e-08 -4.74739e-07 0.112647)
(-3.07697e-08 -5.05507e-09 0.0965638)
(6.68879e-08 2.09055e-07 0.110407)
(1.27398e-06 3.46463e-08 0.105217)
(7.07752e-07 -0.0398895 2.81347e-08)
(0.00489384 -0.00150485 -2.28021e-05)
(0.0200623 0.00138703 -0.000410062)
(0.0239132 -9.26829e-06 -0.00269171)
(0.023152 -0.000647309 -0.00048335)