/*--------------------------------*- C++ -*----------------------------------*\
  =========                 |
  \\      /  F ield         | OpenFOAM: The Open Source CFD Toolbox
   \\    /   O peration     | Website:  https://openfoam.org
    \\  /    A nd           | Version:  6
     \\/     M anipulation  |
\*---------------------------------------------------------------------------*/
FoamFile
{
    version     2.0;
    format      ascii;
    class       volScalarField;
    location    "5";
    object      O2;
}
// * * * * * * * * * * * * * * * * * * * * * * * * * * * * * * * * * * * * * //

dimensions      [0 0 0 0 0 0 0];

internalField   nonuniform List<scalar> 
297
(
0
0
0
0
0
0
0
0
0
0
0
0
0
0
0
0
0
0
0
0
0
0
0
0
0
0
0
0.101218
0.138502
0.212832
0.180934
0.203968
0.226348
0.104494
0.142775
0.215307
0
0.0324824
0.0408082
0.0161075
0.148364
0.192614
0
0.0417097
0.0524992
0
0.0290506
0
0.0148511
0.0256823
0.106454
0
0.0362698
0
0.00443978
0.0112132
0.00336071
0
0.00246626
0
0.00581796
0.0143571
0.00424939
9.14508e-07
3.2102e-07
9.08982e-08
1.65338e-06
7.75645e-08
3.80529e-09
1.08316e-06
4.85712e-07
1.02076e-07
4.74828e-11
1.28623e-11
1.6123e-12
9.41959e-11
2.47652e-11
1.47367e-12
6.65069e-11
2.66919e-11
5.88388e-12
0
0.0252983
0
0
0.00246696
0.0442675
0
0.0304474
0
0
0.0250012
0
0
0.00246643
0
0
0.0300941
0
0
0.0243451
0
0
0.00246635
0
0
0.0293239
0
1.99782e-15
7.21919e-16
5.55443e-17
2.47691e-15
8.43256e-16
3.75497e-17
2.373e-15
1.55876e-15
4.0283e-16
5.08332e-19
3.02476e-19
8.52523e-21
3.66799e-19
3.92241e-19
1.24202e-20
5.25401e-19
9.97852e-19
2.30804e-19
4.28868e-20
8.531e-20
1.26946e-22
1.82186e-20
2.10864e-19
2.38281e-20
9.68778e-20
1.00215e-18
9.94053e-19
1.32409e-21
4.47115e-26
3.11091e-30
8.43531e-22
6.50378e-24
1.24592e-26
1.50168e-20
1.6141e-22
2.59677e-25
3.14467e-24
1.80239e-26
1.83498e-29
8.66995e-23
8.81925e-23
3.35062e-27
2.8666e-20
2.15218e-21
6.10043e-25
1.47455e-22
1.34775e-25
4.96404e-29
4.56017e-21
3.00857e-24
6.085e-28
8.65265e-19
2.417e-20
1.2179e-24
2.00869e-29
1.00398e-24
4.71962e-20
1.88181e-29
8.47709e-25
4.47263e-20
4.00455e-29
1.05857e-24
5.25766e-20
5.37688e-32
9.68211e-28
2.05069e-23
1.7573e-30
3.26158e-26
6.42815e-24
7.61423e-32
1.23426e-27
1.95339e-23
4.54591e-32
5.87432e-28
6.3197e-24
3.36741e-31
1.37167e-27
1.93883e-24
7.44042e-32
1.40311e-27
1.14993e-23
8.66252e-38
1.39264e-37
1.27353e-33
2.03329e-37
1.9697e-37
7.53795e-34
2.62986e-37
2.61532e-37
2.38408e-33
3.57172e-39
1.35821e-40
2.6201e-36
1.59985e-37
8.42209e-39
7.89136e-35
2.58698e-38
2.78869e-40
4.30436e-36
1.92542e-41
1.68512e-41
9.3325e-37
8.81068e-38
9.66811e-40
1.69808e-35
4.34186e-41
3.6776e-41
1.68903e-36
2.05467e-42
5.01848e-43
3.82683e-42
3.90072e-38
3.45543e-41
1.67878e-40
3.4639e-42
1.02056e-42
1.24889e-41
2.63092e-43
6.5614e-44
1.18314e-44
2.08149e-38
3.21535e-39
3.92884e-40
2.02357e-43
6.38099e-44
7.41554e-45
3.44051e-44
6.75648e-45
8.44415e-46
9.82353e-39
1.8847e-39
2.41933e-40
6.18666e-44
1.23886e-44
1.52467e-45
4.45059e-34
2.86512e-37
1.27108e-37
3.01391e-30
8.18311e-33
8.29322e-33
4.68317e-29
1.49461e-32
1.90281e-32
1.4742e-33
1.19283e-37
1.19633e-38
9.51188e-31
2.15825e-33
2.81263e-33
3.21462e-29
3.36221e-33
9.01099e-33
1.54399e-33
4.22271e-38
2.86132e-40
2.02782e-30
2.66216e-34
4.38137e-35
2.97529e-29
1.45369e-33
1.31417e-34
1.55816e-38
8.77185e-40
1.3012e-40
8.64126e-35
1.06035e-35
2.91331e-36
1.68247e-34
2.5596e-38
2.01706e-39
3.88244e-40
6.20847e-41
1.75925e-41
4.69049e-35
4.7328e-36
2.1015e-36
7.82906e-40
4.63032e-41
2.35632e-41
7.42611e-41
7.64788e-42
3.48195e-42
2.08011e-35
2.11224e-36
9.77537e-37
1.41784e-40
1.39398e-41
6.49946e-42
)
;

boundaryField
{
    fuel
    {
        type            fixedValue;
        value           uniform 0;
    }
    primary_air
    {
        type            fixedValue;
        value           uniform 0.23;
    }
    Secondary_air_RHS
    {
        type            fixedValue;
        value           uniform 0.23;
    }
    Secondary_air_LHS
    {
        type            fixedValue;
        value           uniform 0.23;
    }
    outlet
    {
        type            inletOutlet;
        inletValue      uniform 0;
        value           nonuniform List<scalar> 
18
(
0
2.08011e-35
0
0
2.11224e-36
0
0
9.77537e-37
0
0
9.82353e-39
0
0
1.8847e-39
0
0
2.41933e-40
0
)
;
    }
    stove_body
    {
        type            fixedValue;
        value           uniform 0;
    }
    frontAndBack
    {
        type            empty;
    }
}


// ************************************************************************* //
