/*--------------------------------*- C++ -*----------------------------------*\
  =========                 |
  \\      /  F ield         | OpenFOAM: The Open Source CFD Toolbox
   \\    /   O peration     | Website:  https://openfoam.org
    \\  /    A nd           | Version:  6
     \\/     M anipulation  |
\*---------------------------------------------------------------------------*/
FoamFile
{
    version     2.0;
    format      ascii;
    class       volScalarField;
    location    "5";
    object      p;
}
// * * * * * * * * * * * * * * * * * * * * * * * * * * * * * * * * * * * * * //

dimensions      [1 -1 -2 0 0 0 0];

internalField   nonuniform List<scalar> 
297
(
117164
117164
117164
195230
195230
195230
117164
117164
117164
117164
117164
117164
195230
195230
195230
117164
117164
117164
117164
117164
117164
195230
195230
195230
117164
117164
117164
98042
97855.1
97829.1
162911
162805
162867
98024.9
97840.2
97813.5
98520
97611.7
97625.6
162625
162466
162279
98507.2
97602.4
97600.9
97358.3
96103.1
96494.2
157743
160045
158081
97408.1
96117
96490.1
94632.6
96289.7
94961.7
159975
158850
159541
94577.2
96247.8
95064.1
97692.4
97570.6
97331.3
162880
162049
162280
97660.2
97555.5
97391.7
97592.3
97747.2
97622.8
162573
162769
162711
97526.9
97709.6
97715.8
83027.5
94364.1
89007.2
136656
155706
147265
82848.7
94346.7
89400.3
82585.1
94362.4
88768
135190
155506
146236
82387.1
94339.2
89222.3
83791.8
94584.6
89389.6
136696
155918
146582
83602.8
94555.7
89892.8
97808.8
97859.8
97789.2
162841
162926
162859
97739.5
97805.6
97777.6
97850.3
97858.6
97822.1
162931
162950
162916
97802.6
97806.1
97774.6
97855.9
97852.7
97821.8
162958
162954
162942
97809.7
97802.4
97774.9
97873
97950
98092
162914
162956
163007
97825.8
97902.6
98056.3
97828.5
97853.4
97949.8
162915
162921
162940
97786.5
97826.4
97922.7
97782.9
97739
97726.6
162938
162919
162906
97782.6
97780.8
97763.2
98212
98004.5
97908.7
163088
162985
162930
98218.1
97984.5
97875.1
98001.6
97894
97863.3
162954
162915
162924
97987.4
97860.9
97824.6
97736.8
97776.4
97828.5
162873
162910
162948
97701
97737.6
97785.6
98393.5
98423.1
98390.1
163349
163352
163255
98430.5
98460.9
98418.5
98346
98354
98221.4
163192
163193
163097
98382.1
98387.1
98233.7
98279.8
98302.2
98105.3
162955
163000
162918
98314.1
98333.1
98104.1
97543.5
97511.7
97476.2
161860
161879
161803
97528.3
97493.5
97456.1
93358.5
93322.1
93330.1
154679
154673
154668
93337.2
93300.9
93311.3
86521.7
86516.1
86518.2
139546
139534
139520
86496
86490.1
86491.5
98241.1
98357.8
98426.9
163068
163116
163156
98101.4
98030.2
97993.9
98122.7
98265.9
98354.3
163002
163055
163095
98014
97994.8
97976
98006
98187.1
98281
162933
162971
162994
97956.7
98006.2
97988.6
97630.7
97703.7
97742.1
162317
162365
162358
97806.4
97845.4
97862
93772.7
93743.6
93739
155668
155672
155669
94056.7
94058
94077.9
87174.6
87172.8
87172
140597
140605
140605
87304.9
87305.4
87311
)
;

boundaryField
{
    fuel
    {
        type            zeroGradient;
    }
    primary_air
    {
        type            zeroGradient;
    }
    Secondary_air_RHS
    {
        type            zeroGradient;
    }
    Secondary_air_LHS
    {
        type            zeroGradient;
    }
    outlet
    {
        type            totalPressure;
        rho             rho;
        psi             none;
        gamma           1;
        p0              uniform 100000;
        value           nonuniform List<scalar> 
18
(
90462.6
100000
90669.9
90442.8
100000
90667.3
90443.4
100000
90684.6
89937.3
100000
89912.6
89911.3
100000
89886.3
89922.5
100000
89898.1
)
;
    }
    stove_body
    {
        type            zeroGradient;
    }
    frontAndBack
    {
        type            empty;
    }
}


// ************************************************************************* //
