/*--------------------------------*- C++ -*----------------------------------*\
  =========                 |
  \\      /  F ield         | OpenFOAM: The Open Source CFD Toolbox
   \\    /   O peration     | Website:  https://openfoam.org
    \\  /    A nd           | Version:  6
     \\/     M anipulation  |
\*---------------------------------------------------------------------------*/
FoamFile
{
    version     2.0;
    format      ascii;
    class       surfaceScalarField;
    location    "5";
    object      phi;
}
// * * * * * * * * * * * * * * * * * * * * * * * * * * * * * * * * * * * * * //

dimensions      [1 0 -1 0 0 0 0];

internalField   nonuniform List<scalar> 
675
(
1.27346e-05
-4.36883e-05
0.000154979
-1.27183e-05
2.00947e-06
0.000147452
-4.37146e-05
0.000155021
-1.95854e-05
4.36898e-05
0.000139032
1.93383e-05
-2.00928e-06
0.000171917
4.37138e-05
0.000138734
1.27354e-05
0.000154979
-1.27179e-05
0.000147453
0.000155021
7.70261e-06
-6.14315e-05
0.000208663
-7.63909e-06
4.48287e-07
0.000162284
-6.12522e-05
0.00020859
-3.55815e-05
6.14334e-05
5.18382e-05
3.84082e-05
-4.47805e-07
9.89103e-05
6.12513e-05
5.47281e-05
7.70337e-06
0.000208665
-7.63877e-06
0.000162286
0.000208589
2.46615e-06
8.20826e-05
-2.43302e-06
4.3053e-05
8.20421e-05
9.405e-06
-8.20813e-05
-1.22156e-05
-4.30556e-05
-8.20433e-05
2.46924e-06
-2.43092e-06
0.00432259
0.00300633
-0.00410411
0.00448106
0.00243953
0.000620711
0.00442876
0.00327224
0.00884575
-0.0028355
0.00235626
0.00425565
-0.00214621
0.0145343
-0.00375946
0.0178094
0.00426378
-0.00387499
0.00446115
0.000874656
0.00392138
0.0050062
0.0061107
-0.0152209
-0.00915268
-0.000462233
0.0152424
0.00512699
-0.0110065
0.00228783
-0.00599505
0.0121747
0.00451384
0.000584881
0.0112633
-0.00485989
0.0323139
0.00491223
-0.0147821
-0.00903618
0.0154087
-0.00997329
0.000334353
0.0139479
-0.0295026
-0.00371728
-0.00559563
0.0248904
0.0150868
-0.0298106
-0.0372429
-0.013943
0.0773094
0.0224849
0.00549443
-0.0595524
-0.0154897
0.0853775
0.000341598
-0.0290662
-0.00416419
0.0254098
-0.0296268
-0.0190881
-0.0171994
-0.010634
0.0469221
0.0152404
0.00810424
-0.0225655
-0.0198668
-0.0158257
-0.019225
0.0502921
-0.00199434
0.0174027
0.0161929
-0.0488001
-0.00695795
-0.00735676
-0.0569475
0.0773754
0.0150645
0.0149309
-0.0527795
-0.0187858
-0.0101741
0.0463631
0.0149751
-0.0206617
-0.0204555
-0.0205634
0.050604
0.00365189
-0.00853842
-0.00574676
-0.00408376
0.00616689
-0.020996
-0.00667638
-0.0166318
0.000829597
0.00940725
-0.00258273
-0.0207958
-0.00536893
-0.0237841
0.00317699
-0.0157165
0.0047132
-0.00547959
-0.00193772
-0.0193791
-0.0193217
0.0115433
-0.00215876
-0.0151331
0.000696373
0.00242534
-0.0125734
-0.00412721
-0.0118107
0.00595538
0.0100781
-0.0207762
0.000948702
0.0010766
-0.0174201
-0.00301799
-0.0158728
0.0191693
-0.0145777
0.0130136
-0.0121494
-0.00932313
-0.000859407
-0.00057918
-0.0353447
0.000578384
-0.000503126
0.0239557
-0.000676402
-0.0363609
-0.00340229
0.000594477
0.0675546
0.00159009
0.000501738
-0.0655499
0.000606057
0.0727713
-0.000862926
-0.0348738
0.000556488
0.0244921
-0.0363039
-0.00115431
-0.000183442
-0.0412489
0.0011019
-0.000447217
0.0221467
0.000159139
-0.0432022
-0.00277713
0.000211534
0.0580819
0.00251969
0.000446321
-0.0717406
-0.000255713
0.0628822
-0.00115226
-0.0407346
0.00106437
0.0227218
-0.0433192
-0.00185944
0.000184933
0.00112659
-0.000706222
0.000377759
-0.00235304
-0.000167149
0.0018627
0.000712478
-0.000510899
-0.00186987
0.00110888
0.00301011
-0.000750064
-0.00617235
-0.0112217
-0.00630146
-0.000375363
-0.00288623
-0.000975518
-0.00600494
-0.0111333
0.00477941
0.00126836
-0.0131986
-0.0143737
-0.00451094
0.000634616
-0.00913856
0.000565889
-0.0103471
-0.0115803
0.00706932
-0.00831035
-0.0120675
-0.00121098
-0.00323341
-0.00214015
-0.00782794
0.00124902
0.00070066
-0.000552503
-0.00756991
-0.00413205
0.00114045
0.00135497
4.18295e-05
-0.00191806
-0.0082629
0.00174973
0.000163707
-0.00481697
-0.00959245
-0.00286992
-6.58654e-05
-0.0033118
-0.000100219
-0.00482991
-0.00824851
0.00136708
-0.00148231
-0.00803035
-0.00340536
0.00147484
-0.000215807
-0.00543048
-0.00085327
0.00120704
-0.000906188
-0.00074158
0.00124384
0.000507835
-0.00317091
0.000848809
-0.000515759
-0.003941
-0.000723007
-0.000495762
-0.000123697
-0.00492666
-0.000206408
-0.0017905
0.000774469
0.000433837
-0.0101883
-0.00020588
-0.000739972
-0.0103762
0.00126855
-0.00108099
0.00165944
-0.00395195
-0.00808374
-0.0112505
0.000130062
-0.000668865
-0.00933892
-0.00112292
0.000475077
-0.00116078
0.00109909
-0.00762236
-0.00715587
-0.00054324
-0.00722619
-0.00105391
-0.00439835
-0.00398949
-0.00842523
-0.00028235
-0.000297998
-0.00844741
0.000661815
-0.00172203
0.000236314
-0.00441664
-0.00821953
-0.00915936
-1.66475e-06
-4.28123e-05
-0.00796075
-0.000538886
0.000472093
-1.95826e-05
0.00121592
-0.00782845
-0.00562284
-0.000354077
-0.00598932
-0.00122816
-0.00537165
-0.00503696
-0.00326933
-0.000203184
-0.00417789
-0.000815933
-0.00102687
-0.00756943
-0.00515487
-2.27038e-05
-0.00560078
9.62297e-05
0.000818793
-0.00623859
5.51525e-05
-0.0010791
-0.00563398
0.0101166
0.00141662
-0.00428391
-0.0072495
0.0101613
0.0013786
-0.0014238
-6.00099e-05
-0.00100125
0.0112977
-0.001413
0.00114638
-0.00961355
0.0136796
-0.00141662
0.000413988
0.000187385
-0.000940537
0.0107818
-0.00450086
-0.0076932
0.0107503
-0.00138432
-0.00112929
0.00779395
0.000274838
-0.00502859
-0.00732398
0.00801769
0.000688935
-0.00233662
5.69547e-05
-0.000610916
0.00938718
-0.000208812
0.00136964
-0.0091262
0.0108527
-0.000663942
0.000301717
0.00016563
0.000211688
0.00833715
-0.00531719
-0.00772914
0.00856811
-0.00227898
-0.000425726
0.00373913
-0.000948893
-0.00781854
0.00180936
-0.000406709
0.000292083
0.00422651
0.00104033
-0.00484569
0.00344478
0.000676975
7.92418e-06
0.00381036
-0.00808675
0.0022083
-0.00164862
0.00146715
0.000181591
0.00207863
0.0015916
-0.00531873
0.00110162
-0.00627248
-0.00101483
-0.00153538
0.00401857
0.00502479
-0.00164552
-0.00280158
-0.00117396
-0.00231247
-0.00165475
0.00012025
0.00231973
-0.00561922
-0.00654667
-0.000702554
0.00148374
-0.000599395
0.0042271
0.00138969
-0.0116378
0.000747818
-0.010117
7.35258e-05
-0.00153155
0.0069614
0.00519382
-0.00143601
-0.00509529
-0.000799343
-0.00469703
-0.000642998
-0.000767551
0.00454718
-0.0122448
-0.0105274
-0.00306765
0.00136992
0.00109853
0.00653535
0.00362731
-0.0248679
0.00158717
-0.0129871
-0.000244974
-0.00139999
0.0099773
0.00452088
-0.00382482
-0.0024081
-0.00152952
-0.0019045
-0.00321998
0.00105353
0.00686878
-0.0261574
-0.0132741
0.0100077
0.00850719
-0.0174169
-0.00164694
0.0102266
-0.0234397
0.0102097
-0.0248431
-0.00209754
-0.00835247
0.0289393
-0.00412459
-0.0101227
0.0199717
-0.00992677
0.01411
0.010413
-0.0177011
-0.00192352
-0.0239346
-0.0251173
0.00379517
0.00717917
-0.0283864
0.00352984
0.00662722
-0.0297969
0.00722983
-0.0285386
0.00585943
-0.00696477
0.0372312
0.00387306
-0.00642441
0.0350171
-0.00704775
0.0322681
0.00384884
-0.0285088
0.00341263
-0.0299165
-0.0287457
0.000533628
0.0192769
-0.000250237
0.0192383
0.0194391
0.00322811
-0.0191804
0.00272865
-0.0191413
-0.0193335
0.00055781
-0.000197973
-0.00539453
0.00139239
-0.00408233
-0.00328825
0.00129613
-0.00340204
0.00140999
-0.00469672
-0.00474591
-0.000947092
-0.000542161
-0.0027441
-0.000989277
0.000279512
-0.000950239
-0.000385105
-7.72221e-05
-0.00486006
0.00130114
-0.00236836
0.000350417
-0.0056993
0.000741548
-0.00734406
-0.00290495
0.0011839
-0.00737869
0.0013822
-0.00898134
-0.00549921
-0.000384659
-0.0017506
-0.00249401
-0.000589435
-0.000956717
-0.000897139
-0.000602686
-0.00249248
-0.00779024
8.63257e-05
-0.0055376
-0.000461073
-0.00448212
0.000629692
-0.0110602
-0.0038846
0.00155677
-0.00953074
0.00288305
-0.0157457
-0.00573154
-0.00114794
-0.000484732
-0.00292013
-0.00165001
-0.000564978
-0.00114589
0.000503653
-0.00142181
-0.0131515
0.000309449
-0.00891975
-0.00129806
0.00183075
0.00834153
-0.021192
0.00476542
0.00899528
-0.0214248
0.0102959
-0.0212496
0.00150081
-0.0103988
0.0167726
0.000899183
-0.00983464
0.0188857
-0.00943161
0.0211496
-0.00387681
-0.019663
-0.00385054
-0.0187713
-0.0145718
-0.000485113
0.00625683
-0.0269612
-0.000276498
0.00579131
-0.0274189
0.00584055
-0.0273574
-0.00103348
-0.00852358
0.0325887
-0.00167639
-0.00831865
0.0336422
-0.00876755
0.0340865
-0.00199765
-0.0261865
-0.00225056
-0.0268341
-0.0255864
0.000197005
0.0198882
7.10687e-05
0.0197957
0.0198003
-0.000828978
-0.0203958
-0.000970537
-0.0203049
-0.0204269
4.87527e-06
-0.000541292
)
;

boundaryField
{
    fuel
    {
        type            calculated;
        value           nonuniform List<scalar> 
36
(
0.00012407
0.000206737
0.00012407
0.00012407
0.000206738
0.00012407
0.00012407
0.000206737
0.00012407
-0.00012407
-0.000206737
-0.00012407
-0.00012407
-0.000206737
-0.00012407
-0.00012407
-0.000206737
-0.00012407
0
0
0
0
0
0
0
0
0
0
0
0
0
0
0
0
0
0
)
;
    }
    primary_air
    {
        type            calculated;
        value           nonuniform List<scalar> 9(-0.00322401 -0.00535716 -0.00322344 -0.00321786 -0.00535368 -0.00321737 -0.003217 -0.0053557 -0.00321649);
    }
    Secondary_air_RHS
    {
        type            calculated;
        value           nonuniform List<scalar> 9(0.00780508 0.0129137 0.00783955 0.0077841 0.0128235 0.00782394 0.00783862 0.0128538 0.00788274);
    }
    Secondary_air_LHS
    {
        type            calculated;
        value           nonuniform List<scalar> 9(0.00728072 0.0119835 0.00726504 0.00724193 0.0118548 0.00722457 0.00734774 0.0119869 0.00733117);
    }
    outlet
    {
        type            calculated;
        value           nonuniform List<scalar> 
18
(
-0.0470508
0.0736909
-0.0465933
-0.0470939
0.0738738
-0.046599
-0.0470927
0.0733329
-0.0465607
-0.0481904
0.07247
-0.0482428
-0.0482448
0.0739059
-0.0482979
-0.0482213
0.073779
-0.048273
)
;
    }
    stove_body
    {
        type            calculated;
        value           uniform 0;
    }
    frontAndBack
    {
        type            empty;
        value           nonuniform 0();
    }
}


// ************************************************************************* //
