/*--------------------------------*- C++ -*----------------------------------*\
  =========                 |
  \\      /  F ield         | OpenFOAM: The Open Source CFD Toolbox
   \\    /   O peration     | Website:  https://openfoam.org
    \\  /    A nd           | Version:  6
     \\/     M anipulation  |
\*---------------------------------------------------------------------------*/
FoamFile
{
    version     2.0;
    format      ascii;
    class       volScalarField;
    location    "5";
    object      Qdot;
}
// * * * * * * * * * * * * * * * * * * * * * * * * * * * * * * * * * * * * * //

dimensions      [1 -1 -3 0 0 0 0];

internalField   nonuniform List<scalar> 
297
(
0.000353922
0.000353922
0.000353922
0
0.000281287
0
0.000140644
0
0
0.000353922
0.000213278
0.000353922
0.000426556
0
0
0
0
0
0.000213278
0
0
0
0
8.79023e-06
0
0
0.000213278
0
0
-1.02678e-09
-1.02678e-09
0
3.01864e-10
-2.56695e-10
-4.75657e-10
0
0
0
9.43327e-12
0
0
-8.75848e-10
0
-2.56695e-10
0
-2.56695e-10
4.71663e-12
0
4.71663e-12
-1.00791e-09
0
0
0
0
1.17916e-12
0
1.17916e-12
0
2.35832e-12
0
-2.56695e-10
-5.1339e-10
-5.12211e-10
0
0
7.19701e-17
2.8788e-16
-2.05356e-09
0
0
0
0
0
1.75708e-20
2.19635e-21
0
0
-8.21424e-09
0
0
0
0
4.71663e-12
0
0
-1.02678e-09
0
0
4.71663e-12
-5.1339e-10
0
4.71663e-12
0
0
-1.02442e-09
0
-2.56695e-10
4.71663e-12
0
0
0
0
-2.56695e-10
0
-5.1339e-10
-2.56695e-10
-5.08674e-10
-5.1339e-10
0
1.07244e-24
-4.10712e-09
0
2.14488e-24
0
0
0
0
1.0473e-27
5.23651e-28
0
0
0
0
0
0
0
0
-4.10712e-09
-4.10712e-09
0
-8.21424e-09
6.54564e-29
0
2.09461e-27
0
2.04551e-30
0
0
0
1.59806e-32
3.12121e-35
-4.10712e-09
0
0
0
0
3.04805e-38
0
0
0
6.54564e-29
0
0
0
2.49696e-34
0
0
0
1.95075e-36
0
-4.10712e-09
0
0
1.99757e-33
0
6.0961e-38
1.99757e-33
0
-4.10712e-09
0
0
0
1.95075e-36
0
0
0
0
1.19065e-40
0
-4.10712e-09
0
0
1.59806e-32
9.52516e-40
3.90151e-36
-8.21424e-09
1.19065e-40
1.95075e-36
1.59806e-32
-4.10712e-09
0
0
0
0
1.86038e-42
0
4.54195e-46
0
7.0968e-48
2.21775e-49
3.63356e-45
4.54195e-46
-8.21424e-09
2.32548e-43
0
0
-4.10712e-09
2.77219e-50
0
-4.10712e-09
0
0
0
0
0
-4.10712e-09
3.46523e-51
-4.10712e-09
6.93047e-51
-8.21424e-09
0
4.4355e-49
0
0
0
0
1.08289e-52
0
-4.10712e-09
-4.10712e-09
8.871e-49
-4.10712e-09
0
0
0
0
1.69201e-54
2.83872e-47
0
-4.10712e-09
0
0
0
0
4.54195e-46
0
0
0
-8.21424e-09
0
0
-4.10712e-09
0
0
0
0
-8.21424e-09
-8.21424e-09
0
0
-4.10712e-09
0
0
0
0
0
1.16274e-43
6.0961e-38
0
0
0
0
0
0
-8.21424e-09
0
2.32548e-43
0
0
0
-4.10712e-09
0
-8.21424e-09
0
7.26712e-45
-4.10712e-09
-4.10712e-09
-4.10712e-09
0
0
0
5.8137e-44
-4.10712e-09
0
0
-4.10712e-09
0
)
;

boundaryField
{
    fuel
    {
        type            calculated;
        value           uniform 0;
    }
    primary_air
    {
        type            calculated;
        value           uniform 0;
    }
    Secondary_air_RHS
    {
        type            calculated;
        value           uniform 0;
    }
    Secondary_air_LHS
    {
        type            calculated;
        value           uniform 0;
    }
    outlet
    {
        type            calculated;
        value           uniform 0;
    }
    stove_body
    {
        type            calculated;
        value           uniform 0;
    }
    frontAndBack
    {
        type            empty;
    }
}


// ************************************************************************* //
