/*--------------------------------*- C++ -*----------------------------------*\
  =========                 |
  \\      /  F ield         | OpenFOAM: The Open Source CFD Toolbox
   \\    /   O peration     | Website:  https://openfoam.org
    \\  /    A nd           | Version:  6
     \\/     M anipulation  |
\*---------------------------------------------------------------------------*/
FoamFile
{
    version     2.0;
    format      ascii;
    class       volScalarField;
    location    "0.5";
    object      p;
}
// * * * * * * * * * * * * * * * * * * * * * * * * * * * * * * * * * * * * * //

dimensions      [1 -1 -2 0 0 0 0];

internalField   nonuniform List<scalar> 
297
(
122213
122213
122213
203422
203422
203422
122213
122213
122213
122213
122213
122213
203422
203422
203422
122213
122213
122213
122213
122213
122213
203422
203422
203422
122213
122213
122213
96807.4
96814.2
96811.4
160692
160747
160756
96802.8
96814.5
96810.4
97095.1
96568.4
96931.8
160595
161023
160562
97118.8
96571.3
96926.7
93492.3
93598
93870.1
150322
156002
150802
93522.6
93536.1
93888.1
90205.2
93404.3
89780
154056
153630
153471
90196
93423.7
89778.6
95835.2
96204.3
95669
159727
159192
159818
95835.1
96194.7
95665.8
95772.9
96214.9
95697.2
159152
159873
159490
95777.6
96208.7
95703.8
70100.3
91433.8
70985.4
115275
148763
115519
69983.9
91404.5
71104
68625
91287.9
69434
111349
148126
111437
68514.4
91255.4
69545
70956.9
91430.5
71591.5
114254
148421
114156
70873.8
91396.9
71674.3
96551.9
96718.7
96533.2
160241
160515
160283
96551.6
96710.7
96534.2
96675.8
96717.1
96654.2
160564
160650
160565
96674.6
96709.2
96654.1
96678.5
96705.2
96658.3
160714
160715
160696
96676.8
96697.2
96657.8
96820.5
97056.7
97625.3
160509
160636
160897
96819.1
97054.4
97620.8
96688.7
96763.2
97152.7
160558
160567
160642
96687.9
96761.8
97150
96566.9
96431.4
96347.5
160685
160596
160481
96566.4
96430.9
96346.4
97634.3
97073.2
96838.4
160928
160665
160526
97626.9
97069.4
96836.2
97168.6
96784.5
96709.7
160676
160599
160583
97163.5
96781.8
96707.9
96374.1
96457.3
96590
160517
160631
160714
96372.6
96455.8
96588.4
98869.7
98640.4
98228.9
161941
161752
161374
98851.1
98624.9
98217.4
98552.9
98281.9
97837.2
161572
161383
161021
98537.5
98269.5
97827.9
98149.9
97866.2
97339.4
161098
160869
160605
98137.8
97856.8
97333.1
96175.8
96081
95909.8
158881
158765
158657
96177.9
96083.4
95912.6
90192.8
90232.7
90286.7
149074
149073
149070
90198.2
90237.6
90291.6
82780.2
82781.3
82783.8
132669
132665
132653
82783.6
82784.7
82787.2
98230.5
98650.6
98884.9
161351
161736
161928
98221.8
98636.5
98866.8
97831.3
98285
98561.7
160991
161359
161553
97825.9
98275
98547.3
97325.2
97860.9
98150.2
160566
160835
161070
97321.6
97853.6
98139.2
95871.5
96044.5
96140.9
158586
158696
158814
95875
96047.5
96143.3
90224.2
90169.6
90128.6
148963
148966
148967
90227.9
90173.6
90133.4
82717.8
82715.3
82714.2
132553
132565
132570
82720.1
82717.7
82716.6
)
;

boundaryField
{
    fuel
    {
        type            zeroGradient;
    }
    primary_air
    {
        type            zeroGradient;
    }
    Secondary_air_RHS
    {
        type            zeroGradient;
    }
    Secondary_air_LHS
    {
        type            zeroGradient;
    }
    outlet
    {
        type            totalPressure;
        rho             rho;
        psi             none;
        gamma           1;
        p0              uniform 100000;
        value           nonuniform List<scalar> 
18
(
86334.1
100000
86337.4
86286.5
100000
86289.9
86271.9
100000
86275.7
86338.2
100000
86343
86352.2
100000
86356.6
86399.4
100000
86403.7
)
;
    }
    stove_body
    {
        type            zeroGradient;
    }
    frontAndBack
    {
        type            empty;
    }
}


// ************************************************************************* //
