/*--------------------------------*- C++ -*----------------------------------*\
  =========                 |
  \\      /  F ield         | OpenFOAM: The Open Source CFD Toolbox
   \\    /   O peration     | Website:  https://openfoam.org
    \\  /    A nd           | Version:  6
     \\/     M anipulation  |
\*---------------------------------------------------------------------------*/
FoamFile
{
    version     2.0;
    format      ascii;
    class       volScalarField;
    location    "0.5";
    object      Qdot;
}
// * * * * * * * * * * * * * * * * * * * * * * * * * * * * * * * * * * * * * //

dimensions      [1 -1 -3 0 0 0 0];

internalField   nonuniform List<scalar> 
297
(
0
8.1966e-05
8.1966e-05
0
0.000272035
0.000163932
5.40515e-05
0
5.40515e-05
0.000136018
0
5.40515e-05
0
0
0.000272035
0
0.000136018
0.000136018
2.70254e-05
5.40514e-05
4.09826e-05
0
0
-1.57843e-09
6.80084e-05
0.000136018
2.70254e-05
0
0
-1.54943e-09
-1.52042e-09
1.16011e-10
1.16011e-10
0
0
0
0
-1.57843e-09
0
0
-1.57843e-09
2.90028e-11
0
7.25069e-12
0
-1.57843e-09
-1.57843e-09
0
-1.56393e-09
-1.57843e-09
2.90028e-11
0
-1.57843e-09
-1.57843e-09
0
0
-1.57843e-09
-1.57843e-09
0
0
-1.57843e-09
0
0
0
2.76592e-17
0
-3.15686e-09
0
0
-1.57843e-09
0
0
-1.57843e-09
-1.57843e-09
-1.57843e-09
0
-3.15686e-09
0
0
0
1.68818e-21
0
7.25069e-12
-7.89215e-10
0
-1.57752e-09
-1.57843e-09
-7.89215e-10
7.25069e-12
0
-7.89215e-10
0
0
-1.57843e-09
-1.57752e-09
-1.57843e-09
-7.89215e-10
7.25069e-12
-7.89215e-10
-7.89215e-10
7.25069e-12
-7.89215e-10
-1.57843e-09
0
0
-7.89215e-10
0
-7.89215e-10
0
0
5.15193e-26
0
-3.15686e-09
0
-1.57843e-09
5.15193e-26
0
-1.57843e-09
-1.57843e-09
0
0
-3.15686e-09
0
3.93061e-31
-1.57843e-09
6.28897e-30
7.86122e-31
0
7.86122e-31
3.93061e-31
0
1.9653e-31
0
1.25779e-29
0
0
2.39905e-35
1.83033e-40
-3.15686e-09
1.19953e-35
-3.15686e-09
-1.57843e-09
0
-1.57843e-09
-1.57843e-09
0
-1.57843e-09
2.39905e-35
0
0
0
5.85706e-39
-1.57843e-09
0
0
3.57487e-43
0
-3.15686e-09
5.71979e-42
0
-1.57843e-09
-1.57843e-09
0
3.74852e-37
0
0
0
0
0
3.74852e-37
2.45663e-32
-1.57843e-09
0
-1.57843e-09
1.78743e-43
-3.15686e-09
0
0
0
0
-1.57843e-09
-1.57843e-09
0
-3.15686e-09
0
0
8.93717e-44
-1.57843e-09
-1.57843e-09
0
-1.57843e-09
-1.57843e-09
-3.15686e-09
5.32697e-51
8.72771e-47
0
-1.57843e-09
-1.57843e-09
-1.57843e-09
0
0
0
-3.15686e-09
2.72741e-48
2.03208e-56
0
2.72741e-48
0
-1.57843e-09
-1.57843e-09
0
4.16169e-53
0
2.03208e-56
0
-1.57843e-09
1.01604e-56
0
0
4.06415e-56
-1.57843e-09
0
2.03208e-56
3.25132e-55
0
-1.57843e-09
-1.57843e-09
0
0
-1.57843e-09
-1.57843e-09
0
-1.57843e-09
7.9378e-59
0
4.96113e-60
1.98445e-59
-1.57843e-09
1.30053e-54
-1.57843e-09
3.1007e-61
0
-1.57843e-09
-1.57843e-09
-1.57843e-09
0
5.58573e-45
1.70463e-49
0
0
0
1.04042e-53
0
-1.57843e-09
-1.57843e-09
-3.15686e-09
-3.15686e-09
-3.15686e-09
-1.57843e-09
-1.57843e-09
0
-1.57843e-09
-1.57843e-09
-1.57843e-09
-3.15686e-09
0
-3.15686e-09
1.09096e-47
1.66468e-52
1.62566e-55
0
6.50265e-55
0
0
0
-1.57843e-09
4.16169e-53
-1.57843e-09
-1.57843e-09
2.5401e-57
-1.57843e-09
-1.57843e-09
-1.57843e-09
0
1.04042e-53
0
0
3.9689e-59
-1.57843e-09
0
1.98445e-59
-1.57843e-09
-1.57843e-09
0
0
1.58756e-58
-1.57843e-09
)
;

boundaryField
{
    fuel
    {
        type            calculated;
        value           uniform 0;
    }
    primary_air
    {
        type            calculated;
        value           uniform 0;
    }
    Secondary_air_RHS
    {
        type            calculated;
        value           uniform 0;
    }
    Secondary_air_LHS
    {
        type            calculated;
        value           uniform 0;
    }
    outlet
    {
        type            calculated;
        value           uniform 0;
    }
    stove_body
    {
        type            calculated;
        value           uniform 0;
    }
    frontAndBack
    {
        type            empty;
    }
}


// ************************************************************************* //
