/*--------------------------------*- C++ -*----------------------------------*\
  =========                 |
  \\      /  F ield         | OpenFOAM: The Open Source CFD Toolbox
   \\    /   O peration     | Website:  https://openfoam.org
    \\  /    A nd           | Version:  6
     \\/     M anipulation  |
\*---------------------------------------------------------------------------*/
FoamFile
{
    version     2.0;
    format      ascii;
    class       volScalarField;
    location    "0.5";
    object      T;
}
// * * * * * * * * * * * * * * * * * * * * * * * * * * * * * * * * * * * * * //

dimensions      [0 0 0 1 0 0 0];

internalField   nonuniform List<scalar> 
297
(
292.676
292.669
292.676
292.953
292.944
292.953
292.676
292.669
292.676
293.204
292.875
293.232
294.261
293.222
294.228
293.203
292.875
293.232
323.488
305.268
325.393
479.72
326.935
476.086
323.314
305.254
325.431
305.203
302.328
304.545
303.181
301.582
302.825
305.344
302.441
304.565
307.021
305.543
307.476
302.698
301.053
302.276
307.182
305.65
307.582
307.371
304.74
308.202
298.234
306.314
298.695
307.558
304.774
308.314
295.57
306.187
296.961
308.515
303.47
308.512
295.652
306.39
297.04
300.17
302.33
302.301
306.488
304.643
307.584
300.449
302.519
302.371
303.831
304.101
304.17
304.598
304.457
304.721
304.367
304.352
304.344
291.849
304.019
293.358
293.612
302.443
292.875
291.195
303.474
294.323
290.314
303.892
292.532
291.499
302.153
290.64
290.407
303.595
292.686
292.281
303.983
294.239
293.185
302.57
292.251
292.37
304.173
294.369
303.018
304.49
303.382
304.514
305.03
304.641
303.63
304.853
303.712
303.755
304.3
304.198
305.171
305.114
305.225
304.275
304.636
304.386
304.169
304.276
304.566
305.439
305.09
305.666
304.592
304.593
304.664
303.088
303.166
303.408
304.217
304.216
304.424
303.522
303.628
303.889
304.204
304.005
304.099
304.99
304.948
305.126
304.405
304.22
304.337
304.777
304.666
304.405
305.823
305.824
305.781
304.861
304.749
304.492
303.113
302.866
302.788
304.361
304.127
304.091
303.817
303.559
303.454
303.725
303.583
303.795
305.057
304.885
304.954
304.258
304.14
304.325
303.955
304.221
304.33
305.621
305.663
305.653
304.406
304.65
304.76
303.389
303.697
303.347
305.433
305.176
304.72
304.64
304.618
304.123
303.528
303.998
303.564
305.958
305.647
305.37
304.525
304.526
304.131
303.433
303.877
303.389
306.202
305.843
305.71
304.304
304.17
303.917
303.367
303.74
303.137
307.037
306.055
306.649
304.009
303.819
303.731
300.059
300.141
300.141
303.564
303.529
305.375
300.058
300.138
300.139
292.655
292.688
292.736
292.721
292.782
293.168
292.654
292.687
292.735
303.618
303.944
303.774
304.752
305.167
305.329
304.202
304.71
304.733
303.887
304.084
303.661
305.456
305.772
306.016
304.206
304.615
304.616
303.882
303.967
303.528
305.884
305.98
306.321
303.983
304.223
304.365
303.732
303.898
303.446
306.239
306.063
307.172
303.799
303.888
304.079
300.181
300.181
300.095
305.07
303.205
303.578
300.18
300.178
300.093
292.755
292.705
292.673
293.14
292.865
292.812
292.754
292.704
292.673
)
;

boundaryField
{
    fuel
    {
        type            fixedValue;
        value           uniform 293;
    }
    primary_air
    {
        type            fixedValue;
        value           uniform 293;
    }
    Secondary_air_RHS
    {
        type            fixedValue;
        value           uniform 293;
    }
    Secondary_air_LHS
    {
        type            fixedValue;
        value           uniform 293;
    }
    outlet
    {
        type            inletOutlet;
        inletValue      uniform 293;
        value           nonuniform List<scalar> 
18
(
293
293.14
293
293
292.865
293
293
292.812
293
293
292.721
293
293
292.782
293
293
293.168
293
)
;
    }
    stove_body
    {
        type            fixedValue;
        value           uniform 293;
    }
    frontAndBack
    {
        type            empty;
    }
}


// ************************************************************************* //
