/*--------------------------------*- C++ -*----------------------------------*\
  =========                 |
  \\      /  F ield         | OpenFOAM: The Open Source CFD Toolbox
   \\    /   O peration     | Website:  https://openfoam.org
    \\  /    A nd           | Version:  6
     \\/     M anipulation  |
\*---------------------------------------------------------------------------*/
FoamFile
{
    version     2.0;
    format      ascii;
    class       volVectorField;
    location    "0.5";
    object      U;
}
// * * * * * * * * * * * * * * * * * * * * * * * * * * * * * * * * * * * * * //

dimensions      [0 1 -1 0 0 0 0];

internalField   nonuniform List<vector> 
297
(
(33.0638 -0.00803 0.217632)
(33.0629 0.000952463 0.224702)
(33.0638 0.00843939 0.219205)
(-3.88567e-07 0.0110758 0.272297)
(-3.8097e-07 0.000290149 0.271499)
(-3.73575e-07 -0.0109182 0.271969)
(-33.0638 -0.00806482 0.217646)
(-33.0629 0.000881694 0.224726)
(-33.0638 0.00840495 0.219209)
(33.123 -0.00526928 0.245483)
(33.0852 -0.000440649 0.270621)
(33.1261 0.00466808 0.245571)
(-3.91681e-07 0.0241914 0.26548)
(-3.82174e-07 0.000979043 0.167115)
(-3.75486e-07 -0.0229141 0.265484)
(-33.1228 -0.00537628 0.245532)
(-33.0851 -0.000625977 0.270623)
(-33.1261 0.00455948 0.245603)
(31.9965 0.0055763 0.367564)
(33.6836 -0.00131788 0.44322)
(32.3342 0.00413355 0.371927)
(-4.23584e-07 -0.0269832 0.0132057)
(-3.20476e-07 0.00290576 0.237135)
(-4.03757e-07 0.0102649 0.0167067)
(-31.9784 0.00544179 0.367759)
(-33.6818 -0.00178488 0.443264)
(-32.3378 0.00394037 0.371907)
(22.6798 9.51934 1.5472)
(22.3511 5.5566 7.15526)
(22.6052 -9.46209 9.12105)
(-0.00024381 5.49199 2.35224)
(1.90303e-05 2.72518 2.07415)
(-5.12177e-05 -5.9613 5.00043)
(-22.691 9.5366 1.38873)
(-22.3603 5.85339 7.17533)
(-22.6052 -9.27492 9.43064)
(22.8484 11.4818 9.71063)
(22.8508 2.64249 40.963)
(22.9388 -12.6286 17.5833)
(0.00124933 24.4274 76.8823)
(0.000149747 0.136013 71.9619)
(-0.000264838 -27.512 81.6059)
(-22.8566 11.5832 10.0943)
(-22.8579 1.61664 40.5827)
(-22.9478 -12.3217 17.5408)
(22.2704 -1.04142 -18.669)
(22.901 3.86692 62.2093)
(22.3263 -0.673811 -0.603066)
(0.00168043 -21.5502 117.694)
(-0.00336247 0.910301 -11.4798)
(0.000998346 19.1104 123.113)
(-22.2785 -1.47648 -18.4507)
(-22.9125 4.82086 62.6626)
(-22.3325 -1.20351 -0.946567)
(22.3774 -17.5734 -125.89)
(22.3902 -4.01735 -7.57239)
(22.507 20.6147 -117.465)
(-0.000513038 -3.91938 1.73083)
(0.00108514 3.2813 -81.2519)
(-7.58027e-05 2.52674 15.7063)
(-22.3856 -17.6403 -126.104)
(-22.4036 -4.21911 -7.79715)
(-22.5131 20.5257 -117.418)
(22.4282 37.8667 -84.7149)
(22.4176 -13.7752 -74.2279)
(22.6178 -29.5883 -76.9344)
(-8.88313e-06 17.8084 -49.0936)
(-0.000513866 1.62605 -61.6468)
(-0.000174369 -11.1172 -33.3884)
(-22.4487 37.8421 -84.7756)
(-22.4329 -13.5868 -74.2678)
(-22.6233 -29.6305 -76.8574)
(22.6747 27.5913 -26.7241)
(22.6609 -16.9832 -22.507)
(22.7303 -32.5547 -26.4137)
(0.000253252 28.4577 -27.3993)
(-0.000330383 12.2871 -28.1824)
(0.000354861 -17.5758 -30.1855)
(-22.7139 27.516 -26.706)
(-22.6805 -16.9471 -22.5398)
(-22.7424 -32.5082 -26.4137)
(16.4829 2.70564 -186.495)
(22.0357 -0.876458 84.5752)
(16.7173 -1.77405 -176.47)
(-0.00829845 -12.9632 166.227)
(-0.00143926 3.46123 -100.542)
(0.00843021 10.4324 171.646)
(-16.4587 2.50026 -186.837)
(-21.9961 -1.05986 84.7945)
(-16.7583 -2.24572 -176.184)
(17.3068 -2.8564 -189.718)
(19.731 -1.27265 83.9821)
(17.5113 4.52385 -179.984)
(-0.00660953 -7.12549 185.702)
(-0.00158305 3.47603 -103.334)
(0.00656125 4.62996 191.333)
(-17.3189 -2.9838 -190.11)
(-19.6851 -1.55485 84.2184)
(-17.5083 4.16656 -179.642)
(21.3373 -8.9011 -171.192)
(19.905 -1.58581 81.3879)
(21.3448 11.3443 -162.026)
(-0.00460057 -1.37367 182.165)
(-0.00187176 3.49877 -103.699)
(0.00452552 -0.94117 188.03)
(-21.3702 -8.95094 -171.519)
(-19.894 -1.98027 81.5652)
(-21.3223 11.1256 -161.753)
(22.3429 55.5801 -14.3018)
(22.5213 1.28012 -15.5836)
(22.3737 -55.9335 -14.5695)
(-1.58486e-05 39.7453 -16.2961)
(-0.000425725 -4.07768 -16.4963)
(5.44666e-05 -40.595 -14.0154)
(-22.3884 55.4805 -14.3005)
(-22.5498 1.3136 -15.5838)
(-22.3983 -55.8271 -14.5544)
(22.6175 34.8378 -4.59913)
(22.715 -3.01473 -1.30489)
(22.6518 -35.1639 -4.64667)
(-6.25132e-05 21.6679 -8.22892)
(-0.000420458 0.894534 -7.22995)
(-5.47183e-06 -22.829 -7.82542)
(-22.6562 34.796 -4.61291)
(-22.7414 -2.96654 -1.34459)
(-22.666 -35.1029 -4.67475)
(22.7396 -3.8829 -5.00257)
(22.7555 -0.65544 3.31639)
(22.7691 4.34879 -5.20798)
(-9.11618e-05 6.71851 -5.57319)
(-0.000427021 -1.76739 -2.07526)
(-2.89186e-05 -6.9388 -4.56471)
(-22.7715 -3.7937 -5.02251)
(-22.7805 -0.639084 3.27309)
(-22.7766 4.32572 -5.17965)
(22.3412 -58.6813 -6.02975)
(22.598 -53.1675 -9.36333)
(22.5174 -45.4937 -12.6783)
(-6.90341e-05 -45.7004 -5.48348)
(-0.000121416 -43.6162 -5.07342)
(-0.000237008 -36.5162 -5.23385)
(-22.374 -58.5685 -5.99889)
(-22.6328 -53.0332 -9.3251)
(-22.5539 -45.3529 -12.6461)
(22.5382 -43.5081 -2.83568)
(22.708 -45.1808 -10.9421)
(22.4241 -38.2212 -20.3615)
(-4.45767e-05 -37.1678 -0.316558)
(-7.26189e-05 -37.471 1.56034)
(-0.000145286 -31.458 3.58315)
(-22.5535 -43.4509 -2.86075)
(-22.7243 -45.1003 -10.9503)
(-22.4411 -38.1391 -20.3775)
(22.8035 -7.95014 -5.04343)
(22.7984 -23.5946 -18.2765)
(22.4613 -32.7943 -29.026)
(-2.24458e-05 -19.7569 2.0724)
(-2.69963e-05 -20.9531 4.34545)
(-5.68125e-05 -22.8857 4.26806)
(-22.8099 -7.91418 -4.99661)
(-22.8048 -23.5334 -18.239)
(-22.4681 -32.7431 -29.0115)
(22.4975 45.0893 -12.5917)
(22.5758 52.6843 -9.29158)
(22.3203 58.2305 -6.01262)
(-0.000387726 36.3777 -5.24286)
(-0.000202696 43.1258 -5.01623)
(-0.000113038 45.7623 -5.54547)
(-22.5509 44.9926 -12.5672)
(-22.6281 52.5777 -9.26486)
(-22.3702 58.1278 -5.98901)
(22.3978 37.8844 -20.2205)
(22.6762 44.8393 -10.8997)
(22.5124 43.1181 -2.90076)
(-0.000270531 31.2321 3.51475)
(-0.000147063 37.2022 1.64973)
(-9.32449e-05 37.0482 -0.514082)
(-22.4385 37.835 -20.2196)
(-22.7183 44.7806 -10.9024)
(-22.5515 43.074 -2.91055)
(22.4301 32.5281 -28.8239)
(22.7655 23.4918 -18.3092)
(22.7689 7.34878 -5.10652)
(-7.80532e-05 22.7074 4.20409)
(-7.94122e-05 20.8633 4.24719)
(-8.40516e-05 19.6708 1.9961)
(-22.4643 32.4917 -28.786)
(-22.7982 23.475 -18.2531)
(-22.8014 7.41717 -5.05682)
(22.3295 14.1142 -22.1653)
(22.3476 20.9909 -15.2499)
(22.4278 32.68 -17.8076)
(-0.000980901 13.4491 -11.1116)
(-0.000816136 18.2321 -6.08514)
(-0.000612403 27.6937 -6.47593)
(-22.4247 14.0827 -22.0712)
(-22.418 20.9415 -15.1901)
(-22.4869 32.5908 -17.7611)
(22.3905 5.545 -33.9947)
(22.4333 18.1863 -24.124)
(22.3496 31.4976 -30.4336)
(-0.000808682 9.23715 -10.2042)
(-0.000652332 14.385 -4.8658)
(-0.000491501 25.2638 -3.07285)
(-22.4666 5.56302 -33.8696)
(-22.4747 18.1472 -24.1133)
(-22.3939 31.4551 -30.4166)
(22.6928 4.66427 -42.4643)
(22.4841 20.1305 -37.6546)
(22.3833 18.3271 -46.8791)
(-0.00063904 7.40562 -16.2927)
(-0.000500535 15.153 -11.1332)
(-0.00033616 20.4832 -0.8372)
(-22.7591 4.67373 -42.3326)
(-22.5081 20.1083 -37.639)
(-22.4241 18.3094 -46.8031)
(22.612 -5.67481 -67.779)
(22.6104 -4.38362 -63.0075)
(22.6062 -10.2264 -67.3763)
(0.000115963 -6.31562 4.52296)
(0.00012979 1.7008 17.6285)
(0.000151003 -7.87443 14.7186)
(-22.6594 -5.6155 -67.6386)
(-22.6163 -4.37071 -63.0253)
(-22.6502 -10.2275 -67.2505)
(22.233 2.46235 -132.597)
(22.2231 -1.16142 -132.96)
(22.2157 4.60992 -131.703)
(0.000309728 -2.04033 64.4836)
(0.000282341 0.211824 66.815)
(0.000284257 -1.90734 61.1578)
(-22.232 2.42865 -132.495)
(-22.2221 -1.14583 -132.912)
(-22.2147 4.59978 -131.641)
(21.1532 -0.0904813 -165.896)
(21.1553 -0.0305164 -165.797)
(21.1577 -0.162348 -165.465)
(0.000209352 -0.597457 172.176)
(0.000206184 0.335021 170.847)
(0.000204776 -0.522097 168.684)
(-21.1526 -0.088313 -165.862)
(-21.1547 -0.0296557 -165.767)
(-21.1571 -0.161356 -165.435)
(22.4451 -33.0121 -17.948)
(22.3615 -21.1875 -15.3992)
(22.3529 -14.2568 -22.3707)
(-0.000458052 -28.0622 -6.52266)
(-0.000743116 -18.4093 -6.14951)
(-0.000953843 -13.6217 -11.2137)
(-22.4894 -32.8745 -17.8859)
(-22.4203 -21.1189 -15.2904)
(-22.4267 -14.1906 -22.2516)
(22.3723 -31.7352 -30.6883)
(22.4365 -18.324 -24.3621)
(22.3963 -5.57703 -34.3316)
(-0.000288896 -25.5163 -3.13027)
(-0.000529905 -14.4875 -4.91764)
(-0.000761221 -9.31598 -10.3392)
(-22.3942 -31.6604 -30.649)
(-22.4772 -18.3136 -24.2757)
(-22.4691 -5.59074 -34.1767)
(22.4153 -18.4715 -47.2172)
(22.4874 -20.269 -38.0319)
(22.699 -4.68949 -42.9043)
(-0.000189867 -20.7359 -0.829597)
(-0.000390413 -15.2362 -11.302)
(-0.000580704 -7.48838 -16.4869)
(-22.4239 -18.4289 -47.1948)
(-22.5089 -20.2335 -37.9762)
(-22.7624 -4.70439 -42.7439)
(22.6495 10.2298 -67.84)
(22.6208 4.47432 -63.5857)
(22.617 5.76896 -68.4469)
(0.000189332 7.791 14.6739)
(0.000162065 -1.65204 17.4711)
(0.000133239 6.37291 3.91419)
(-22.654 10.2388 -67.7876)
(-22.6201 4.41663 -63.5604)
(-22.6637 5.68822 -68.31)
(22.2174 -4.57676 -132.238)
(22.225 1.15602 -133.503)
(22.235 -2.50158 -133.171)
(0.000215093 1.90524 61.1461)
(0.000227559 -0.146077 66.8015)
(0.000271144 2.07714 64.9168)
(-22.2167 -4.5885 -132.19)
(-22.2242 1.14989 -133.46)
(-22.234 -2.46698 -133.113)
(21.1589 0.162314 -165.925)
(21.1564 0.0298015 -166.259)
(21.1546 0.0917653 -166.362)
(0.00014444 0.509775 168.416)
(0.000145677 -0.346791 170.658)
(0.000147064 0.590681 171.959)
(-21.1585 0.161979 -165.902)
(-21.156 0.0292567 -166.235)
(-21.1542 0.0902177 -166.335)
)
;

boundaryField
{
    fuel
    {
        type            fixedValue;
        value           uniform (0 0 0.25);
    }
    primary_air
    {
        type            fixedValue;
        value           uniform (0 0 2.5);
    }
    Secondary_air_RHS
    {
        type            fixedValue;
        value           uniform (0 150 0);
    }
    Secondary_air_LHS
    {
        type            fixedValue;
        value           uniform (0 -150 0);
    }
    outlet
    {
        type            pressureInletOutletVelocity;
        value           nonuniform List<vector> 
18
(
(0 0 -165.925)
(0.00014444 0.509775 168.416)
(0 0 -165.902)
(0 0 -166.259)
(0.000145677 -0.346791 170.658)
(0 0 -166.235)
(0 0 -166.362)
(0.000147064 0.590681 171.959)
(0 0 -166.335)
(0 0 -165.896)
(0.000209352 -0.597457 172.176)
(0 0 -165.862)
(0 0 -165.797)
(0.000206184 0.335021 170.847)
(0 0 -165.767)
(0 0 -165.465)
(0.000204776 -0.522097 168.684)
(0 0 -165.435)
)
;
    }
    stove_body
    {
        type            noSlip;
    }
    frontAndBack
    {
        type            empty;
    }
}


// ************************************************************************* //
