/*--------------------------------*- C++ -*----------------------------------*\
  =========                 |
  \\      /  F ield         | OpenFOAM: The Open Source CFD Toolbox
   \\    /   O peration     | Website:  https://openfoam.org
    \\  /    A nd           | Version:  6
     \\/     M anipulation  |
\*---------------------------------------------------------------------------*/
FoamFile
{
    version     2.0;
    format      ascii;
    class       volScalarField;
    location    "3.5";
    object      O2;
}
// * * * * * * * * * * * * * * * * * * * * * * * * * * * * * * * * * * * * * //

dimensions      [0 0 0 0 0 0 0];

internalField   nonuniform List<scalar> 
297
(
0
0
0
0
0
0
0
0
0
0
0
0
0
0
0
0
0
0
0
0
0
0
0
0
0
0
0
0.0297224
0.0766675
0.0468981
0.0934181
0.138845
0.1152
0.0297535
0.0767434
0.046925
0
0.0132234
0
0.0152654
0.0655666
0.0305179
0
0.013248
0
0
0.0101899
0
0.012097
0.0158072
0.0143357
0
0.0102116
0
0.00206331
0.00613626
0.00206094
0
0.000818523
0
0.00206811
0.00614743
0.00206627
0
2.07856e-08
0
0
0
0
0
2.08286e-08
0
2.34172e-14
7.95464e-14
0
0
0
0
9.11323e-15
7.98229e-14
0
0
0.0101911
0
0
0.000841065
0
0
0.0102095
0
0
0.0101435
0
0
0.000817926
0
0
0.0101811
0
0
0.0100856
0
0
0.000818267
0
0
0.0101054
0
5.10062e-19
2.42605e-18
0
0
5.18233e-21
0
1.43233e-19
2.38382e-18
0
6.86055e-23
4.76141e-22
3.00809e-24
6.18172e-24
1.82383e-22
4.49826e-24
2.08305e-23
4.56475e-22
1.74207e-23
2.6796e-23
4.75194e-22
2.54486e-23
6.21494e-24
2.71012e-22
4.48796e-24
2.26358e-23
4.5488e-22
2.3383e-23
0
4.0384e-34
9.43534e-38
0
5.43035e-32
1.29871e-36
0
0
2.67365e-37
6.54627e-29
1.21072e-32
8.67419e-37
7.0918e-29
3.90261e-32
1.01831e-36
1.9336e-28
1.66131e-32
8.73544e-37
1.65422e-27
6.9705e-32
1.56173e-36
1.35284e-28
8.53911e-33
7.49939e-37
1.52496e-27
6.45407e-32
1.45757e-36
7.95392e-34
7.59256e-29
6.52384e-24
1.38602e-34
8.04018e-30
0
4.56081e-34
2.15723e-29
1.84216e-24
1.76415e-36
5.01993e-32
1.58662e-27
1.66134e-35
5.11621e-31
6.45652e-29
1.5942e-36
3.22179e-32
5.2085e-28
1.93557e-36
7.688e-32
1.78879e-27
3.05748e-36
2.03718e-32
1.84289e-28
2.49239e-36
1.02624e-31
1.51031e-27
3.2815e-47
1.20752e-42
2.39748e-38
4.87067e-47
4.07553e-43
3.97266e-39
5.02314e-47
7.04972e-43
1.38588e-38
1.98711e-49
2.81882e-45
5.47255e-41
9.43976e-49
5.99433e-45
2.5495e-40
7.68989e-49
2.65431e-45
6.98596e-41
2.72485e-49
9.98631e-46
3.90066e-41
7.40677e-49
1.47145e-45
6.43514e-41
8.50982e-49
9.93993e-46
4.80571e-41
4.03176e-49
2.42845e-48
1.36703e-46
7.01523e-49
8.96608e-47
9.05503e-46
8.27121e-49
7.71681e-48
2.84466e-46
7.62166e-53
7.51402e-52
4.92084e-51
8.87871e-48
8.83136e-47
5.7508e-46
6.52816e-53
9.91876e-52
4.44095e-51
2.39375e-53
2.34117e-52
1.37845e-51
4.26589e-48
4.10164e-47
2.47154e-46
2.39312e-53
2.34091e-52
1.37863e-51
8.84373e-42
1.19754e-45
5.19216e-49
3.85568e-41
2.13659e-45
1.24611e-48
2.41185e-41
1.14778e-45
9.06828e-49
3.88051e-41
2.16515e-45
5.41644e-49
2.76587e-41
1.22192e-45
7.2326e-49
3.89601e-41
1.97402e-45
7.75858e-49
3.16762e-41
8.24603e-46
4.69721e-49
1.89382e-41
5.05741e-46
6.50727e-49
2.82453e-41
5.8073e-46
7.24237e-49
1.47358e-46
2.61852e-48
4.35783e-49
3.76263e-46
4.05885e-47
6.27389e-49
1.66187e-46
6.70303e-48
7.12658e-49
1.57699e-51
3.42268e-52
2.13898e-53
2.36552e-46
3.99869e-47
3.25701e-48
1.89112e-51
2.96799e-52
2.51846e-53
5.63585e-52
1.05375e-52
9.16149e-54
1.01233e-46
1.8552e-47
1.60801e-48
5.63676e-52
1.05456e-52
9.06418e-54
)
;

boundaryField
{
    fuel
    {
        type            fixedValue;
        value           uniform 0;
    }
    primary_air
    {
        type            fixedValue;
        value           uniform 0.23;
    }
    Secondary_air_RHS
    {
        type            fixedValue;
        value           uniform 0.23;
    }
    Secondary_air_LHS
    {
        type            fixedValue;
        value           uniform 0.23;
    }
    outlet
    {
        type            inletOutlet;
        inletValue      uniform 0;
        value           nonuniform List<scalar> 
18
(
0
1.01233e-46
0
0
1.8552e-47
0
0
1.60801e-48
0
0
4.26589e-48
0
0
4.10164e-47
0
0
2.47154e-46
0
)
;
    }
    stove_body
    {
        type            fixedValue;
        value           uniform 0;
    }
    frontAndBack
    {
        type            empty;
    }
}


// ************************************************************************* //
