/*--------------------------------*- C++ -*----------------------------------*\
  =========                 |
  \\      /  F ield         | OpenFOAM: The Open Source CFD Toolbox
   \\    /   O peration     | Website:  https://openfoam.org
    \\  /    A nd           | Version:  6
     \\/     M anipulation  |
\*---------------------------------------------------------------------------*/
FoamFile
{
    version     2.0;
    format      ascii;
    class       surfaceScalarField;
    location    "3.5";
    object      phi;
}
// * * * * * * * * * * * * * * * * * * * * * * * * * * * * * * * * * * * * * //

dimensions      [1 0 -1 0 0 0 0];

internalField   nonuniform List<scalar> 
675
(
-3.93836e-07
-4.39147e-05
0.000166746
-8.42502e-07
-4.41843e-05
0.00016707
-4.42441e-05
0.00016584
-3.66939e-06
4.3913e-05
0.000119606
4.96765e-06
4.4182e-05
0.000106761
4.4242e-05
0.000120246
-3.91779e-07
0.000166741
-8.39784e-07
0.000167066
0.000165839
1.84266e-06
-7.13151e-05
0.000236231
-2.6588e-06
-7.74259e-05
0.000249004
-7.16321e-05
0.000234824
1.1172e-05
7.13165e-05
-3.41888e-05
-3.65332e-06
7.74265e-05
-3.32963e-05
7.16303e-05
-2.66636e-05
1.84505e-06
0.000236224
-2.6553e-06
0.000248997
0.000234824
4.8383e-06
0.000108986
-7.78435e-06
0.000139201
0.000104628
-1.99118e-05
-0.000108974
2.10729e-05
-0.000139192
-0.00010463
4.84153e-06
-7.77926e-06
0.0128999
0.0117809
-0.0214393
-0.00223044
0.0125521
0.00578727
0.0134337
-0.0124167
0.0089766
-0.0117673
0.0197563
-0.00321148
-0.0125393
0.0424508
-0.013416
0.0288149
0.012883
-0.0214002
-0.00223035
0.00580559
-0.0123998
0.0390721
0.0283852
-0.0889268
-0.0367023
-0.0130065
0.0944015
0.0286967
-0.0778645
0.0166848
-0.0283497
0.0599018
-0.0204046
0.0130261
0.0537222
-0.0286652
0.0658957
0.0390191
-0.0889214
-0.0366712
0.094339
-0.0778774
0.00713282
0.0657662
-0.161846
-0.00696026
0.00236084
0.105402
0.0688832
-0.153766
-0.119325
-0.0658102
0.311033
0.116919
-0.00254319
-0.177016
-0.0689225
0.320849
0.00691201
-0.161608
-0.00675966
0.105994
-0.153541
-0.0657908
-0.0738438
-0.0520502
0.191829
0.0633171
0.0144742
-0.055551
-0.0881098
-0.0756369
-0.0454984
0.184667
0.00991303
0.0738616
0.0961511
-0.25378
0.00499243
-0.014272
-0.17563
0.207492
0.0756415
0.118881
-0.26518
-0.0655421
-0.0520676
0.1915
0.0631009
-0.055652
-0.0876607
-0.0455396
0.184353
0.00588349
-0.0277711
-0.0301218
-0.0206493
0.0107427
-0.0397986
-0.0404132
-0.0257083
0.0601843
0.027765
-0.0195571
-0.0465189
-0.0107209
-0.0477853
0.0403379
-0.00842847
0.0059828
-0.0300268
-0.0206781
-0.0397299
-0.0256682
-0.00943161
0.00366854
-0.0243694
-0.0227315
-0.000484339
-0.0259664
-0.0234197
-0.0250304
0.0283733
-0.00362488
-0.0406737
0.0198964
0.000535837
-0.0403039
0.0233181
-0.0352956
-0.00934978
-0.0243218
-0.0226189
-0.0259082
-0.0249633
-0.00229736
-0.0016247
-0.171782
0.00233647
0.000402046
0.10057
-0.00151987
-0.16395
-0.00704218
0.00162437
0.291978
0.00749084
-0.000397821
-0.190296
0.00151966
0.302368
-0.00228894
-0.171544
0.00232498
0.10083
-0.163726
-0.00219446
-0.00061204
-0.182541
0.00216032
-0.000597178
0.0970424
-0.00051045
-0.175019
-0.00316132
0.000611776
0.271874
0.00352962
0.000591371
-0.19776
0.000510231
0.282772
-0.00219732
-0.182283
0.00216348
0.096896
-0.174773
-0.00516879
0.00043498
0.00505017
-0.00114283
0.000536117
-0.00363047
-0.000431818
0.00396295
0.00113917
-0.000532506
-0.00520782
0.0050885
0.00914257
-0.00207763
-0.0106615
-0.0207787
-0.00869986
-0.00146571
-0.00664362
-0.00240923
-0.0103901
-0.0209375
0.00876184
0.00208474
-0.0268829
-0.0267185
-0.0116383
0.0014786
-0.0228232
0.00240918
-0.0251315
-0.0266221
0.00911838
-0.0106637
-0.0207038
-0.00865811
-0.00665063
-0.0103748
-0.0208455
0.00514254
0.000198069
-0.00158031
-0.0144278
-0.00618893
0.00174514
0.00295848
-8.21002e-05
-0.0019098
-0.0145948
0.00515911
-0.000175705
-0.0123646
-0.019306
-0.00516317
-0.00173037
-0.00899635
8.96557e-05
-0.0110558
-0.0194102
0.00513782
-0.00159429
-0.0143962
-0.00616372
0.0029226
-0.00190998
-0.0145485
-0.000194142
0.00173528
-0.00312723
0.000193903
0.00258714
0.00156353
-0.00328644
0.00137722
-0.00171534
-0.0102928
-0.0024277
-0.0025731
-0.00154971
-0.0103694
-0.000169818
-0.00315363
0.000181584
-0.00328851
-0.0190316
-0.000614622
-0.00129717
-0.0196687
0.00222268
-0.00159167
0.00269138
-0.00682996
-0.015535
-0.0257241
0.000614865
-0.00212924
-0.0226332
-0.00221524
0.00134735
-0.00268223
0.00314083
-0.0203956
-0.018941
-0.00129331
-0.0195733
-0.00158512
-0.00681067
-0.0154445
-0.0145135
-0.000692726
-0.000691481
-0.0146773
0.00149077
-0.00292333
0.000202329
-0.00762778
-0.014083
-0.021561
0.000693333
-0.00136527
-0.017844
-0.00148612
0.000607584
-0.000198548
0.00394858
-0.0182499
-0.014467
-0.000685207
-0.0146313
-0.00290925
-0.00761032
-0.0140302
-0.004104
0.000121188
-0.00670662
-0.000324993
-0.00210359
-0.0122329
-0.0114967
-0.000118466
-0.0115366
0.000321877
0.0021012
-0.0117909
-0.00409607
-0.00668585
-0.0121953
0.0194909
0.00267393
-0.00677498
-0.0153923
0.018872
0.00222209
-0.00160727
-0.000582503
-0.00132895
0.0224688
-0.00266573
0.00308719
-0.0202138
0.0255582
-0.00221437
0.00134719
0.000584646
-0.00232911
0.0194152
-0.00676326
-0.0153162
0.0187976
-0.00159797
-0.00132526
0.0145611
0.000200305
-0.00756075
-0.0139779
0.0144006
0.00150077
-0.00295167
-0.00064917
-0.000711553
0.0177172
-0.000193506
0.00388304
-0.018117
0.0214636
-0.00149441
0.00059598
0.000656872
-0.00147911
0.0145275
-0.00754999
-0.013933
0.0143687
-0.00293507
-0.000699576
0.00666734
-0.00208506
-0.0121451
0.00399759
-0.000285956
0.000154249
0.0114476
0.00208489
-0.0117326
0.0114708
0.000286629
-0.000148406
0.00665558
-0.0121199
0.00400551
0.00672329
0.00221551
-0.00893809
0.0103906
0.00195785
-0.00562486
0.00228579
-0.00728803
0.00946794
-0.00220296
-0.00504511
0.015304
-0.00194698
-0.00192712
-0.00227453
-0.000346287
0.00666832
-0.00886749
0.0103212
-0.00559638
-0.00726687
0.00501056
0.00192326
-0.0158712
0.00931911
0.00178135
-0.0117145
0.0012314
-0.0131787
0.00710941
-0.00191359
-0.0083138
0.0134357
-0.0017742
-0.00469429
-0.00122137
-0.00257194
0.00497852
-0.0157566
0.00928134
-0.0116703
-0.0131378
0.00604321
0.00413339
-0.0260472
0.0065997
0.00205726
-0.0143279
0.000855773
-0.0195802
0.00777144
-0.0041148
-0.00783422
0.0124331
-0.00205816
-0.00523788
-0.000854537
-0.000158874
0.0060001
-0.0258697
0.00657688
-0.014304
-0.0195343
-0.00730994
0.013137
-0.0318695
-0.00122227
0.0110627
-0.0314736
0.0107976
-0.0315956
0.00177772
-0.0131325
0.0166525
-0.00242207
-0.0110966
0.0211161
-0.0108159
0.0190273
-0.00722544
-0.0317837
-0.00118624
-0.0314467
-0.0315434
0.000163891
0.00560206
-0.0376371
0.000703537
0.00568557
-0.0377005
0.00630116
-0.0371949
-0.00296874
-0.00564406
0.0308663
-0.00192302
-0.00572783
0.0314828
-0.00633784
0.0297421
0.000186991
-0.037611
0.000699772
-0.0376835
-0.0371777
-0.000100065
0.0176705
-0.000266269
0.0176516
0.0176446
-0.000454081
-0.017682
0.000205332
-0.0176628
-0.0176557
-9.48766e-05
-0.000263903
-0.0104842
0.00229761
-0.00735101
-0.00678764
0.00196617
-0.00566215
0.00223467
-0.00902064
-0.0154464
-0.00228502
-0.000360213
-0.00956441
-0.00195435
-0.00195687
-0.0022211
-0.0051044
-0.0104059
-0.00732181
-0.00672511
-0.00563253
-0.00894318
-0.00938779
0.00124025
-0.0132849
-0.00505496
0.00179508
-0.0117887
0.00193999
-0.0160138
-0.0135582
-0.00123333
-0.0025786
-0.00717811
-0.0017884
-0.00475063
-0.00192945
-0.00840933
-0.00934829
-0.0132357
-0.00501875
-0.0117484
-0.015889
-0.00664528
0.000852973
-0.0197255
-0.00609343
0.0020748
-0.0144145
0.00416391
-0.0262699
-0.0125578
-0.000853958
-0.000102076
-0.00784608
-0.00207607
-0.00530877
-0.0041422
-0.00794631
-0.00662027
-0.0196641
-0.00604527
-0.0143982
-0.026075
0.00123024
0.0108178
-0.0317701
0.00736649
0.0110945
-0.0316417
0.0132036
-0.0321032
0.00245624
-0.0108365
0.0190908
-0.00179081
-0.0111303
0.0211582
-0.013193
0.0166546
0.00119936
-0.0317044
0.00728206
-0.0316154
-0.0319902
-0.000695506
0.00628035
-0.0373569
-0.000136899
0.00566032
-0.0378627
0.00557543
-0.0378175
0.00199748
-0.00632477
0.0296979
0.00307665
-0.00571168
0.0314506
-0.00562543
0.0309317
-0.000690535
-0.0373362
-0.000172354
-0.0378428
-0.0377854
0.000269859
0.0175949
0.00010704
0.0176023
0.0176146
-0.000236797
-0.0176085
0.000383449
-0.017616
-0.0176286
0.000267037
0.000100179
)
;

boundaryField
{
    fuel
    {
        type            calculated;
        value           nonuniform List<scalar> 
36
(
0.000122424
0.000203751
0.000122424
0.000122424
0.000203751
0.000122424
0.000122424
0.000203751
0.000122424
-0.000122424
-0.00020375
-0.000122424
-0.000122424
-0.00020375
-0.000122424
-0.000122424
-0.00020375
-0.000122424
0
0
0
0
0
0
0
0
0
0
0
0
0
0
0
0
0
0
)
;
    }
    primary_air
    {
        type            calculated;
        value           nonuniform List<scalar> 9(-0.00318242 -0.00528282 -0.00318235 -0.00318283 -0.00528489 -0.0031829 -0.0031825 -0.0052849 -0.00318254);
    }
    Secondary_air_RHS
    {
        type            calculated;
        value           nonuniform List<scalar> 9(0.0140351 0.0228949 0.0140357 0.0137326 0.0220845 0.0137327 0.0141575 0.0226126 0.014157);
    }
    Secondary_air_LHS
    {
        type            calculated;
        value           nonuniform List<scalar> 9(0.0138562 0.0228033 0.0138571 0.013562 0.022013 0.0135622 0.014019 0.0225704 0.0140186);
    }
    outlet
    {
        type            calculated;
        value           nonuniform List<scalar> 
18
(
-0.0552211
0.0651381
-0.055212
-0.0553015
0.0660486
-0.0552923
-0.0553245
0.0665583
-0.0553142
-0.0552074
0.0666731
-0.0551989
-0.0551858
0.066138
-0.0551781
-0.0551057
0.065248
-0.0550981
)
;
    }
    stove_body
    {
        type            calculated;
        value           uniform 0;
    }
    frontAndBack
    {
        type            empty;
        value           nonuniform 0();
    }
}


// ************************************************************************* //
