/*--------------------------------*- C++ -*----------------------------------*\
  =========                 |
  \\      /  F ield         | OpenFOAM: The Open Source CFD Toolbox
   \\    /   O peration     | Website:  https://openfoam.org
    \\  /    A nd           | Version:  6
     \\/     M anipulation  |
\*---------------------------------------------------------------------------*/
FoamFile
{
    version     2.0;
    format      ascii;
    class       volScalarField;
    location    "3.5";
    object      T;
}
// * * * * * * * * * * * * * * * * * * * * * * * * * * * * * * * * * * * * * //

dimensions      [0 0 0 1 0 0 0];

internalField   nonuniform List<scalar> 
297
(
292.683
292.683
292.684
293
293
293.001
292.683
292.683
292.684
292.833
292.881
292.847
293.733
293.659
293.813
292.833
292.881
292.847
293.113
293.127
293.189
294.997
292.974
296.69
293.113
293.127
293.189
276.726
280.264
275.33
283.812
289.66
285.286
276.858
280.375
275.413
274.354
273.588
270.832
272.593
276.71
270.14
274.511
273.706
270.936
274.67
272.365
271.479
271.08
284.364
268.546
274.854
272.294
271.605
270.879
283.088
269.336
271.71
283.435
271.018
271.006
283.336
269.436
287.532
294.575
281.273
279.342
285.387
272.696
287.772
294.874
281.388
303.836
303.924
304.021
304.653
304.464
304.752
304.347
304.353
304.327
260.884
271.527
259.158
264.796
282.019
262.031
261.069
271.156
259.291
261.966
271.303
262.025
261.735
282.089
257.792
262.143
271.585
262.157
265.86
271.379
264.613
259.583
282.656
256.573
266.027
272.108
264.737
303.052
304.361
303.091
304.599
305.058
304.679
303.589
304.892
303.663
303.827
304.275
304.081
305.291
305.146
305.273
304.279
304.717
304.516
304.313
304.252
304.264
305.585
305.086
305.584
304.626
304.669
304.664
302.764
302.811
303.063
304.239
304.264
304.523
303.454
303.58
303.866
303.953
303.725
303.843
305.093
305.029
305.202
304.434
304.217
304.31
304.437
304.311
304.038
305.781
305.792
305.746
304.841
304.718
304.467
303.053
302.812
302.746
304.387
304.147
304.115
303.797
303.537
303.432
303.736
303.622
303.845
305.19
304.986
305.069
304.247
304.124
304.315
304.082
304.343
304.466
305.816
305.857
305.837
304.411
304.656
304.778
303.362
303.598
303.262
305.477
305.226
304.756
304.635
304.611
304.108
303.507
303.816
303.511
306.004
305.823
305.535
304.519
304.52
304.116
303.414
303.792
303.515
306.245
305.986
305.915
304.291
304.155
303.897
303.351
303.772
303.337
307.077
306.032
306.453
303.989
303.798
303.708
300.044
300.123
300.121
303.597
303.453
305.229
300.043
300.119
300.119
292.639
292.673
292.719
292.763
292.818
293.15
292.638
292.672
292.719
303.318
303.728
303.579
304.927
305.382
305.559
304.188
304.706
304.757
303.637
304.107
303.705
305.497
305.813
306.103
304.185
304.581
304.563
303.469
303.947
303.619
305.836
305.965
306.302
303.969
304.235
304.36
303.168
303.761
303.001
306.787
306.203
307.071
303.774
303.867
304.06
300.162
300.166
300.08
305.511
303.59
303.589
300.16
300.161
300.079
292.737
292.689
292.659
293.311
292.941
292.846
292.736
292.689
292.658
)
;

boundaryField
{
    fuel
    {
        type            fixedValue;
        value           uniform 293;
    }
    primary_air
    {
        type            fixedValue;
        value           uniform 293;
    }
    Secondary_air_RHS
    {
        type            fixedValue;
        value           uniform 293;
    }
    Secondary_air_LHS
    {
        type            fixedValue;
        value           uniform 293;
    }
    outlet
    {
        type            inletOutlet;
        inletValue      uniform 293;
        value           nonuniform List<scalar> 
18
(
293
293.311
293
293
292.941
293
293
292.846
293
293
292.763
293
293
292.818
293
293
293.15
293
)
;
    }
    stove_body
    {
        type            fixedValue;
        value           uniform 293;
    }
    frontAndBack
    {
        type            empty;
    }
}


// ************************************************************************* //
