/*--------------------------------*- C++ -*----------------------------------*\
  =========                 |
  \\      /  F ield         | OpenFOAM: The Open Source CFD Toolbox
   \\    /   O peration     | Website:  https://openfoam.org
    \\  /    A nd           | Version:  6
     \\/     M anipulation  |
\*---------------------------------------------------------------------------*/
FoamFile
{
    version     2.0;
    format      ascii;
    class       volVectorField;
    location    "3.5";
    object      U;
}
// * * * * * * * * * * * * * * * * * * * * * * * * * * * * * * * * * * * * * //

dimensions      [0 1 -1 0 0 0 0];

internalField   nonuniform List<vector> 
297
(
(35.2351 -0.0193878 0.288684)
(35.235 -0.00239172 0.300806)
(35.2351 0.0168561 0.289245)
(4.40925e-07 0.0163691 0.297164)
(4.0316e-07 0.00220628 0.320077)
(3.69312e-07 -0.0139099 0.302854)
(-35.2351 -0.0193828 0.288678)
(-35.235 -0.00238018 0.300802)
(-35.2351 0.0168625 0.289246)
(35.2503 -0.00184901 0.303957)
(35.2554 -0.00123193 0.31238)
(35.252 0.00016377 0.302595)
(4.39627e-07 0.0791274 -0.23307)
(4.01983e-07 0.0133071 -0.334253)
(3.69924e-07 -0.0668611 -0.235845)
(-35.2503 -0.00184277 0.303947)
(-35.2554 -0.00121675 0.31237)
(-35.252 0.000172903 0.302592)
(35.2842 -0.00280166 0.546271)
(35.2839 -0.0082316 0.563722)
(35.2934 -0.00691787 0.542506)
(3.15874e-07 0.0201674 0.448218)
(2.65563e-07 -0.00590357 0.505105)
(2.70029e-07 -0.0199747 0.462041)
(-35.2842 -0.00279229 0.546261)
(-35.2839 -0.00820874 0.563714)
(-35.2934 -0.00690371 0.542506)
(21.9189 9.27061 1.32953)
(22.0897 5.43247 6.96538)
(21.7869 -9.35707 8.61857)
(-0.000106417 5.47233 2.09078)
(0.000102042 2.69866 1.67012)
(5.59199e-05 -5.98504 4.65817)
(-21.9296 9.26964 1.35341)
(-22.0979 5.42518 6.9719)
(-21.7933 -9.35251 8.62894)
(21.7557 11.2616 9.33487)
(21.7984 2.33151 38.1328)
(21.5309 -12.521 16.2154)
(4.62214e-05 23.4145 72.6544)
(0.000203267 0.0574111 68.606)
(2.41579e-05 -26.4212 76.4288)
(-21.7683 11.2527 9.34548)
(-21.8072 2.32119 38.1256)
(-21.5392 -12.5097 16.216)
(21.2024 -0.638624 -17.6762)
(21.8075 3.98405 58.133)
(20.9561 -1.36548 -0.985084)
(0.00159604 -20.52 111.708)
(-0.00120563 0.714635 -9.56515)
(0.00120654 18.112 115.864)
(-21.2127 -0.704777 -17.6305)
(-21.805 3.97141 58.3032)
(-20.9629 -1.30453 -0.963977)
(21.8511 -16.6838 -120.869)
(22.0569 -3.93306 -8.05485)
(21.7545 19.2184 -112.036)
(0.00011588 -3.49936 2.28795)
(-0.000592592 3.68159 -77.7023)
(0.000469698 1.57629 14.8171)
(-21.8609 -16.631 -120.899)
(-22.0798 -3.9132 -8.13415)
(-21.7609 19.1594 -112.061)
(22.8956 36.9536 -81.9702)
(23.272 -13.4835 -72.8531)
(22.4287 -28.7556 -73.6849)
(-0.000126011 17.0051 -45.0462)
(-0.000583792 1.3893 -58.5656)
(-9.72862e-05 -11.1646 -30.1827)
(-22.9148 36.9558 -81.9822)
(-23.2968 -13.4263 -72.9228)
(-22.4378 -28.7867 -73.7035)
(24.1579 27.9531 -26.6149)
(24.1243 -17.1089 -22.7887)
(24.2068 -32.8665 -26.3603)
(0.000325521 28.5687 -27.859)
(-2.62879e-05 12.5296 -28.6744)
(0.000345785 -17.018 -30.7414)
(-24.1978 27.9472 -26.5889)
(-24.1585 -17.0199 -22.7681)
(-24.2303 -32.8069 -26.3383)
(15.698 2.87809 -175.94)
(20.9464 -0.611008 79.0287)
(15.7727 -2.52181 -165.523)
(0.000325942 -12.0873 157.196)
(-0.00465576 3.02431 -96.2284)
(0.000195848 9.57566 160.82)
(-15.711 3.05837 -175.813)
(-20.9523 -0.637585 79.3457)
(-15.7836 -2.70045 -165.38)
(16.6252 -2.48324 -179.419)
(18.7119 -1.02461 78.5082)
(16.7226 3.5472 -169.257)
(7.71392e-05 -6.36613 175.152)
(-0.00577076 3.12182 -99.0269)
(2.22323e-05 3.78104 178.654)
(-16.634 -2.31441 -179.293)
(-18.7764 -1.02982 78.7633)
(-16.7295 3.37693 -169.115)
(20.6803 -8.38278 -162.796)
(18.8731 -1.36314 76.1586)
(20.4837 10.2504 -153.181)
(-0.000103626 -0.847692 171.479)
(-0.00765454 3.21331 -99.4442)
(-0.000119732 -1.66007 175.23)
(-20.6772 -8.24803 -162.678)
(-18.9807 -1.36569 76.1821)
(-20.4779 10.1116 -153.052)
(23.7842 55.8435 -14.309)
(23.9635 1.36465 -15.6852)
(23.7914 -56.2109 -14.6025)
(-0.000247062 39.5045 -16.3469)
(-0.000560538 -4.20612 -16.4723)
(-0.0002168 -40.3847 -13.9897)
(-23.8274 55.752 -14.3067)
(-24.0072 1.40472 -15.6837)
(-23.8376 -56.0891 -14.581)
(24.0916 35.5348 -4.45291)
(24.1889 -2.99505 -1.31447)
(24.1139 -35.8573 -4.50384)
(-0.000371421 20.9644 -8.41669)
(-0.000672844 0.877039 -7.19875)
(-0.0003472 -22.1454 -8.0046)
(-24.128 35.4879 -4.47225)
(-24.2262 -2.9507 -1.33788)
(-24.1496 -35.788 -4.52918)
(24.2354 -3.96732 -5.00214)
(24.2378 -0.684664 3.3987)
(24.2314 4.42864 -5.24866)
(-0.000442591 6.06404 -5.63978)
(-0.000733036 -1.70426 -1.95002)
(-0.000406428 -6.30693 -4.62694)
(-24.2616 -3.85697 -5.0237)
(-24.2734 -0.675712 3.36255)
(-24.2645 4.36424 -5.2301)
(23.7565 -58.9086 -5.97773)
(24.0482 -53.4161 -9.36074)
(23.9599 -45.6825 -12.7111)
(-0.000134347 -45.7155 -5.532)
(-2.77133e-05 -43.7416 -5.09421)
(-6.76614e-05 -36.5685 -5.22715)
(-23.8117 -58.7809 -5.94223)
(-24.1093 -53.2762 -9.31616)
(-24.0236 -45.5477 -12.6637)
(23.978 -43.9195 -2.74343)
(24.1732 -45.4719 -10.9902)
(23.8544 -38.4527 -20.4594)
(-0.000112243 -37.1018 -0.408199)
(5.49834e-05 -37.4688 1.52044)
(9.06341e-05 -31.4482 3.67637)
(-24.0167 -43.8594 -2.76546)
(-24.2122 -45.3827 -10.9937)
(-23.8913 -38.3778 -20.4518)
(24.2693 -8.48438 -5.13265)
(24.2702 -24.0978 -18.432)
(23.883 -33.041 -29.1317)
(-9.13101e-05 -19.4599 2.01303)
(0.000142162 -20.6581 4.41783)
(0.000311257 -22.7665 4.34103)
(-24.3019 -8.50095 -5.08679)
(-24.3028 -24.059 -18.3734)
(-23.9168 -32.98 -29.0875)
(23.9613 45.2884 -12.6084)
(24.0483 52.9226 -9.28222)
(23.7563 58.4248 -5.95878)
(-9.64274e-05 36.4383 -5.23278)
(-0.000109081 43.2396 -5.02874)
(-0.000200921 45.8049 -5.58696)
(-24.0205 45.187 -12.582)
(-24.1061 52.8259 -9.24929)
(-23.8111 58.3425 -5.93079)
(23.8489 38.1005 -20.2771)
(24.1643 45.1625 -10.9313)
(23.972 43.4399 -2.80813)
(1.74849e-05 31.2275 3.58465)
(-5.89836e-05 37.2276 1.60339)
(-0.000188551 37.0126 -0.620289)
(-23.889 38.0505 -20.2836)
(-24.2044 45.1164 -10.9317)
(-24.0082 43.4201 -2.81816)
(23.8884 32.7603 -28.8623)
(24.2722 24.0112 -18.5086)
(24.2702 7.87458 -5.17426)
(0.000187526 22.6018 4.28553)
(-3.85442e-06 20.5915 4.32207)
(-0.000196161 19.3906 1.9268)
(-23.9144 32.7255 -28.8373)
(-24.2977 23.9977 -18.4532)
(-24.2956 7.96404 -5.12057)
(23.7773 14.1659 -22.162)
(23.79 21.0862 -15.2245)
(23.8821 32.8306 -17.806)
(-0.000590869 13.5957 -11.1501)
(-0.000427566 18.3164 -6.13736)
(-0.000233937 27.8051 -6.44962)
(-23.8792 14.1231 -22.054)
(-23.8709 21.0334 -15.142)
(-23.9492 32.7301 -17.7513)
(23.8455 5.55651 -34.0354)
(23.8771 18.2776 -24.137)
(23.7927 31.638 -30.5139)
(-0.000427671 9.25167 -10.3553)
(-0.000256273 14.405 -5.08243)
(-0.000102019 25.3939 -3.14551)
(-23.9265 5.5731 -33.8829)
(-23.9336 18.2561 -24.0802)
(-23.8402 31.5872 -30.4814)
(24.1886 4.67689 -42.5513)
(23.9421 20.2089 -37.749)
(23.8401 18.4218 -46.9713)
(-0.000326628 7.46811 -16.434)
(-0.000179904 15.1168 -11.4361)
(-1.59815e-05 20.6759 -0.652042)
(-24.2585 4.69 -42.3851)
(-23.9727 20.1859 -37.6969)
(-23.8714 18.3929 -46.9019)
(24.0911 -5.69983 -67.9306)
(24.091 -4.42875 -63.1811)
(24.1012 -10.1936 -67.4373)
(-5.13117e-05 -6.33383 4.50185)
(-2.92739e-05 1.60718 17.6926)
(-2.49745e-06 -7.76408 14.7155)
(-24.1418 -5.63204 -67.7751)
(-24.0936 -4.39717 -63.1738)
(-24.1309 -10.1957 -67.3265)
(23.6783 2.47503 -132.588)
(23.6671 -1.15056 -133.027)
(23.6588 4.59772 -131.757)
(0.000336706 -2.00459 64.4046)
(0.000300169 0.152231 66.7452)
(0.000294793 -1.83762 61.0601)
(-23.6772 2.44003 -132.488)
(-23.666 -1.13756 -132.981)
(-23.6577 4.59479 -131.7)
(22.5158 -0.0987786 -165.949)
(22.5181 -0.0205116 -165.853)
(22.5205 -0.177266 -165.507)
(0.000237228 -0.59117 171.926)
(0.000233676 0.32391 170.563)
(0.000231525 -0.509361 168.435)
(-22.5151 -0.0962615 -165.912)
(-22.5175 -0.0193577 -165.82)
(-22.5199 -0.176221 -165.475)
(23.8833 -33.1347 -17.9542)
(23.7955 -21.2888 -15.3475)
(23.7889 -14.2906 -22.3742)
(-0.000275362 -28.1842 -6.494)
(-0.000513735 -18.4963 -6.19369)
(-0.000701479 -13.7647 -11.2496)
(-23.9523 -33.0051 -17.8742)
(-23.8741 -21.2142 -15.2419)
(-23.8839 -14.2333 -22.2334)
(23.7972 -31.8454 -30.7683)
(23.8955 -18.481 -24.3019)
(23.8565 -5.58921 -34.3768)
(-0.00012353 -25.6284 -3.18425)
(-0.000328818 -14.5252 -5.13816)
(-0.00052905 -9.33093 -10.4927)
(-23.841 -31.7711 -30.7231)
(-23.9345 -18.4334 -24.2411)
(-23.9258 -5.60038 -34.1886)
(23.8304 -18.5475 -47.381)
(23.9509 -20.3451 -38.0852)
(24.2041 -4.71389 -42.9883)
(-3.33969e-05 -20.9238 -0.651177)
(-0.000260059 -15.1982 -11.6109)
(-0.000430108 -7.55374 -16.6321)
(-23.8716 -18.5095 -47.2901)
(-23.9761 -20.303 -38.0392)
(-24.2632 -4.72045 -42.7923)
(24.0865 10.2026 -67.9677)
(24.0886 4.47211 -63.6609)
(24.0625 5.78354 -68.6203)
(-1.35211e-05 7.69448 14.6873)
(-4.86199e-05 -1.57135 17.5877)
(-8.00521e-05 6.39146 3.87287)
(-24.1349 10.2081 -67.8369)
(-24.0976 4.44581 -63.6828)
(-24.1466 5.70988 -68.4308)
(23.661 -4.58596 -132.315)
(23.6694 1.16568 -133.578)
(23.6807 -2.5189 -133.254)
(0.000404281 1.83868 61.1266)
(0.000405455 -0.0935189 66.8129)
(0.000447278 2.03299 64.8028)
(-23.6596 -4.5812 -132.245)
(-23.6681 1.14508 -133.525)
(-23.6793 -2.48017 -133.127)
(22.5216 0.178973 -165.986)
(22.5193 0.0220153 -166.334)
(22.5173 0.102638 -166.436)
(0.00026996 0.498956 168.247)
(0.000272709 -0.334919 170.408)
(0.00027777 0.584196 171.681)
(-22.5209 0.177642 -165.948)
(-22.5186 0.0205652 -166.295)
(-22.5166 0.0994796 -166.392)
)
;

boundaryField
{
    fuel
    {
        type            fixedValue;
        value           uniform (0 0 0.25);
    }
    primary_air
    {
        type            fixedValue;
        value           uniform (0 0 2.5);
    }
    Secondary_air_RHS
    {
        type            fixedValue;
        value           uniform (0 150 0);
    }
    Secondary_air_LHS
    {
        type            fixedValue;
        value           uniform (0 -150 0);
    }
    outlet
    {
        type            pressureInletOutletVelocity;
        value           nonuniform List<vector> 
18
(
(0 0 -165.986)
(0.00026996 0.498956 168.247)
(0 0 -165.948)
(0 0 -166.334)
(0.000272709 -0.334919 170.408)
(0 0 -166.295)
(0 0 -166.436)
(0.00027777 0.584196 171.681)
(0 0 -166.392)
(0 0 -165.949)
(0.000237228 -0.59117 171.926)
(0 0 -165.912)
(0 0 -165.853)
(0.000233676 0.32391 170.563)
(0 0 -165.82)
(0 0 -165.507)
(0.000231525 -0.509361 168.435)
(0 0 -165.475)
)
;
    }
    stove_body
    {
        type            noSlip;
    }
    frontAndBack
    {
        type            empty;
    }
}


// ************************************************************************* //
