/*--------------------------------*- C++ -*----------------------------------*\
  =========                 |
  \\      /  F ield         | OpenFOAM: The Open Source CFD Toolbox
   \\    /   O peration     | Website:  https://openfoam.org
    \\  /    A nd           | Version:  6
     \\/     M anipulation  |
\*---------------------------------------------------------------------------*/
FoamFile
{
    version     2.0;
    format      ascii;
    class       volScalarField;
    location    "2";
    object      p;
}
// * * * * * * * * * * * * * * * * * * * * * * * * * * * * * * * * * * * * * //

dimensions      [1 -1 -2 0 0 0 0];

internalField   nonuniform List<scalar> 
297
(
111909
111909
111909
182434
182434
182434
111909
111909
111909
111909
111909
111909
182434
182434
182434
111909
111909
111909
111909
111909
111909
182434
182434
182434
111909
111909
111909
97528.1
97553.8
97538.7
159446
159430
159447
97538.2
97553.8
97528.4
97476.3
97500.6
97497.9
159256
159273
159256
97498
97500.5
97476.1
97370.1
97496
97451.1
158212
158764
158211
97451.4
97496.9
97370
97384.3
97444
97343
159281
158986
159279
97343.9
97444.6
97383.9
97341.6
97386
97262.7
159211
159162
159211
97261.7
97385.2
97341
97275.9
97381.9
97154
158959
159034
158961
97151.1
97379.5
97275.1
97232.6
97587.8
97186.2
156380
158287
156386
97187.2
97590.7
97232.7
97202.7
97584.2
97151.2
156171
158350
156177
97152
97586.5
97202.7
97189.1
97569.5
97144.4
156368
158514
156374
97145.2
97569.1
97188.7
97599
97628.4
97549.9
158931
159032
158935
97548.4
97626.7
97601.2
97663.5
97676.9
97635.9
159047
159046
159051
97634.6
97675.3
97666.4
97686.4
97686.5
97678
159123
159075
159127
97676.8
97685
97689.6
97692.6
97634
97597.9
158538
158691
158904
97666.3
97607
97561.8
97636.5
97536.8
97451.3
158799
158798
158913
97633.4
97544.2
97451.3
97612
97510.8
97429.9
158917
158804
158726
97616.8
97524.4
97422.5
97554.2
97599.1
97659.2
158901
158686
158533
97606.2
97639.8
97695.5
97443.9
97536.1
97626.3
158909
158793
158794
97459.5
97542.6
97639.5
97415.4
97516.2
97609.4
158723
158800
158912
97437.8
97516.6
97615.1
98416.8
98169.9
97757.8
159069
159052
159026
98674.8
98383.5
97879
98120
97807.2
97527
158982
158945
158984
98351.1
97967.5
97600.7
97785.8
97505.3
97322.4
158763
158635
158599
97995.8
97621.2
97376.9
96600
96522.7
96502.9
157254
157155
157087
96721.1
96625.6
96610.3
95331.1
95373.5
95428.8
153234
153217
153218
95219.4
95268.2
95336.1
92444.7
92525.9
92590
141636
141658
141693
92058.1
92131.5
92195.6
97869.1
98372.3
98662.6
159027
159052
159068
97764.7
98175.7
98421.6
97591.4
97957.4
98340.2
158984
158944
158982
97532.9
97811.3
98122.7
97368.8
97612.9
97987.7
158599
158634
158762
97326
97506.3
97784.3
96606.3
96621.6
96716.7
157080
157148
157248
96494.6
96513.3
96588.7
95350.5
95282
95232.4
153226
153225
153241
95433
95379.6
95340.1
92197.8
92133.6
92060.2
141688
141653
141632
92585.5
92521.4
92440.3
)
;

boundaryField
{
    fuel
    {
        type            zeroGradient;
    }
    primary_air
    {
        type            zeroGradient;
    }
    Secondary_air_RHS
    {
        type            zeroGradient;
    }
    Secondary_air_LHS
    {
        type            zeroGradient;
    }
    outlet
    {
        type            totalPressure;
        rho             rho;
        psi             none;
        gamma           1;
        p0              uniform 100000;
        value           nonuniform List<scalar> 
18
(
93551.4
100000
93840.9
93170.8
100000
93536.6
92007
100000
92324.4
92324.7
100000
92004.1
93537.5
100000
93169.3
93841.9
100000
93550.1
)
;
    }
    stove_body
    {
        type            zeroGradient;
    }
    frontAndBack
    {
        type            empty;
    }
}


// ************************************************************************* //
