/*--------------------------------*- C++ -*----------------------------------*\
  =========                 |
  \\      /  F ield         | OpenFOAM: The Open Source CFD Toolbox
   \\    /   O peration     | Website:  https://openfoam.org
    \\  /    A nd           | Version:  6
     \\/     M anipulation  |
\*---------------------------------------------------------------------------*/
FoamFile
{
    version     2.0;
    format      ascii;
    class       volScalarField;
    location    "2";
    object      p;
}
// * * * * * * * * * * * * * * * * * * * * * * * * * * * * * * * * * * * * * //

dimensions      [1 -1 -2 0 0 0 0];

internalField   nonuniform List<scalar> 
297
(
123266
123267
123266
203424
203423
203424
123266
123267
123266
123255
123256
123255
203437
203437
203437
123255
123256
123255
123253
123253
123253
203447
203451
203447
123253
123253
123253
96942.6
96947.1
96966.3
160835
160826
160856
96925
96929.8
96948
97043
96953.3
97064.6
160676
160808
160624
97022.8
96939.1
97051
96415.7
96304.6
96321.3
156770
159356
156580
96417
96305.8
96320.8
94734.7
95990.4
94866
158413
158250
158615
94761.5
95967.4
94866.7
96584.9
96755.4
96647.2
160942
160509
160913
96569.8
96706.5
96714.2
96740.9
96938.9
96847.9
160830
160853
160869
96617.1
96860
96982.4
90532.5
95909.1
90059.1
144948
156726
144698
90666
95892.7
90128.6
89953.5
95891.4
89461.9
143324
156510
143228
90110.4
95873.6
89547.5
90210.8
95911
89786.2
144230
156598
144272
90373.2
95891.6
89882.2
97042.7
97215.9
97120
160744
160878
160857
96873.5
97104.7
97199.1
97106.3
97259.6
97184.3
160780
160904
160876
96950.2
97144.6
97238
97133
97257.4
97206.9
160815
160920
160887
96983.1
97148.8
97248.1
97075.7
97009.9
96980.1
160761
160741
160688
97094.2
97000.2
96939.3
97005.6
96843.6
96714
160742
160714
160618
97054.3
96899.3
96752.2
96996.5
96807.1
96660.9
160749
160672
160497
97043.1
96873
96698.1
96755.9
96857.8
96942.5
160140
160402
160483
96923.1
96868.5
96871
96372.7
96660.3
96875.6
160030
160390
160508
96369.9
96587.5
96792.7
96258
96614.3
96872.9
159781
160303
160521
96210.1
96519.4
96795.8
99249.6
98359.8
97220.1
160106
159965
159874
99273.3
98633.2
97585.4
98294.7
97168.7
96435
159384
158984
159272
98376.9
97583.4
96667.3
97271
96369.1
95858.2
158572
158075
158335
97230.3
96507.5
95916.1
93412.8
93331.2
93242.6
153740
153560
153301
92577.7
92435.2
92270.1
91029.6
91146
91205.6
147817
147832
147780
88751.7
88689.7
88645.8
87163.4
87278.1
87425.7
138354
138375
138358
86861.7
87018.8
87285.9
97334.3
98091.3
98664
160564
160562
160659
97155.9
97693.5
98132.8
96852.7
97337.5
98017
160300
160137
160346
96787.2
97119.7
97623
96575.7
96895.4
97443.1
159914
159781
160040
96534.1
96735.8
97113.6
95633.4
95665.6
95729.1
158178
158267
158362
95389.9
95424.9
95474.8
94291.3
94245.1
94175.2
154879
154895
154890
94396.2
94379.8
94337.3
90720.1
90637
90563
144180
144157
144122
91561.5
91474.8
91375.2
)
;

boundaryField
{
    fuel
    {
        type            zeroGradient;
    }
    primary_air
    {
        type            zeroGradient;
    }
    Secondary_air_RHS
    {
        type            zeroGradient;
    }
    Secondary_air_LHS
    {
        type            zeroGradient;
    }
    outlet
    {
        type            totalPressure;
        rho             rho;
        psi             none;
        gamma           1;
        p0              uniform 100000;
        value           nonuniform List<scalar> 
18
(
92512.3
100000
92990.7
92321.8
100000
92863.7
92086.9
100000
92610.3
88704.1
100000
87861.8
88914.1
100000
92008.7
89332.1
100000
99811.7
)
;
    }
    stove_body
    {
        type            zeroGradient;
    }
    frontAndBack
    {
        type            empty;
    }
}


// ************************************************************************* //
