/*--------------------------------*- C++ -*----------------------------------*\
  =========                 |
  \\      /  F ield         | OpenFOAM: The Open Source CFD Toolbox
   \\    /   O peration     | Website:  https://openfoam.org
    \\  /    A nd           | Version:  6
     \\/     M anipulation  |
\*---------------------------------------------------------------------------*/
FoamFile
{
    version     2.0;
    format      ascii;
    class       surfaceScalarField;
    location    "2";
    object      phi;
}
// * * * * * * * * * * * * * * * * * * * * * * * * * * * * * * * * * * * * * //

dimensions      [1 0 -1 0 0 0 0];

internalField   nonuniform List<scalar> 
675
(
1.67019e-06
-0.000217925
0.000334781
-7.63697e-07
-0.000221004
0.000341969
-0.000214988
0.000332757
2.43504e-06
0.000217925
-0.000245083
-1.29606e-05
0.000221003
-0.000233406
0.000214988
-0.000249728
1.6707e-06
0.000334785
-7.63158e-07
0.000341972
0.000332761
2.15431e-06
1.41956e-05
0.000318465
-6.10045e-07
1.90565e-05
0.000325711
1.57706e-05
0.000316406
-4.20287e-06
-1.4194e-05
-0.000212544
1.80972e-06
-1.90551e-05
-0.000201381
-1.57693e-05
-0.000216453
2.15491e-06
0.000318469
-6.09344e-07
0.000325714
0.00031641
2.27733e-06
0.000197701
1.77039e-06
0.000207721
0.00019968
-1.03926e-05
-0.000197702
1.03729e-05
-0.000207721
-0.000199682
2.27839e-06
1.77176e-06
-0.00586387
0.00589595
0.00317471
0.00610902
0.00312279
-0.0118877
0.0059655
0.00335133
0.0017529
-0.00596927
0.0153555
-0.00174135
-0.00312395
0.0149838
-0.00589272
0.0153606
-0.00609415
0.00333237
0.00587701
-0.0118869
0.00319209
-0.00145093
0.00813807
-0.00351321
0.000311087
0.00288726
-0.0165367
0.00861007
-0.00494701
-0.000638668
-0.00859998
0.0327303
0.000605869
-0.00288788
0.0195142
-0.00814781
0.0327249
-0.00035316
-0.00491579
0.00140765
-0.0165362
-0.00354799
0.00697815
0.0123502
-0.022841
0.00082914
0.00528953
-0.0156534
0.0151929
-0.01931
-0.0319663
-0.0151929
0.0922423
0.0319503
-0.00530237
-0.0338085
-0.0123436
0.0922168
-0.000837747
-0.0192718
-0.00698903
-0.0157119
-0.0228814
-0.00120755
-0.00649522
-0.0199268
0.0276307
0.00519644
0.0075883
-0.0263559
0.0123709
-0.00551481
-0.0132488
0.0239605
0.0190912
0.00550722
0.0402867
-0.0713723
-0.0190653
-0.00758512
0.00429005
0.049039
0.00650268
0.0402781
-0.0713648
-0.00519003
-0.0132302
0.0239296
0.00121994
-0.0263648
0.0123616
-0.0199397
0.0276638
0.00238693
-0.00475754
-0.0175572
0.000261982
-0.00163045
-0.0226044
-0.00185419
-0.0111382
0.0085851
0.00184775
0.0250987
-0.0085639
0.00162558
0.0181817
0.00475985
0.0250966
-0.000247684
-0.0111303
-0.00237818
-0.0226065
-0.017558
-0.00282968
-0.000323118
-0.0144003
-0.00728802
-0.00124869
-0.0168959
-0.002955
-0.0154722
-0.0101448
0.00295957
0.0319643
0.0101477
0.00125819
-0.00461855
0.000330233
0.0319534
0.00729392
-0.0154648
0.00283363
-0.0168907
-0.0143995
0.000839339
-0.0027176
-0.0241596
-0.000164226
-0.00181435
-0.0128313
-0.00178636
-0.0208833
-0.00277334
0.00179227
0.0853618
0.00277342
0.00188332
-0.0430529
0.00271166
0.0853464
0.000167197
-0.0208435
-0.000832354
-0.0128313
-0.0242008
0.000370915
-0.00144007
-0.0262862
0.000140856
-0.00126867
-0.0113318
-0.00111709
-0.0228206
-0.00138829
0.00112026
0.0790516
0.00138876
0.00131524
-0.0484171
0.00143664
0.0790433
-0.000135984
-0.0227822
-0.00036275
-0.0112888
-0.0263246
0.000319023
-0.0021702
0.000144255
0.00121613
-0.00191105
-0.00154388
0.0019068
0.00154395
-0.00124651
0.00217386
-0.000140127
-0.000316527
0.00256167
-0.00251037
-0.00392562
-0.0105239
-0.00586489
-0.0010793
-0.00738819
-0.00381669
-0.0050261
-0.0124925
-0.00154304
0.00381745
0.0162823
0.0108981
0.00154352
0.00108186
-0.00986616
0.00251126
0.0162734
0.0108952
0.00586472
-0.0050214
-0.0124919
-0.00256155
-0.00738423
-0.00392393
-0.0105276
0.00296816
0.000440086
0.000894525
-0.00822574
-0.00461474
0.00124449
-0.00104752
-0.000209637
0.000434183
-0.00986305
-0.000847276
0.000211024
0.00487785
0.0124817
0.000848438
-0.00124188
-0.00907536
-0.000440426
0.00487427
0.0124782
0.00461415
0.000436611
-0.0098627
-0.00296848
-0.00104539
0.000894753
-0.00822961
0.00120449
0.00211252
-0.0024196
-0.0024317
0.00259108
0.00182939
-0.00382426
0.0019486
-0.00182798
0.0068706
-0.00194681
-0.00258878
-0.00211125
0.00686792
0.00243171
-0.00382478
-0.00120453
-0.00242319
-0.012016
-0.00168039
0.00120451
-0.0123775
-0.000869065
0.0012308
-0.00100996
0.00136156
-0.0127292
0.00689566
0.00124
0.00107962
0.00640205
0.000719267
-0.00109373
0.000947622
0.000628146
0.00381764
-0.0103964
0.00110904
-0.0108006
0.00112472
0.00134666
-0.0111976
-0.00952688
-0.00195257
0.0028217
-0.0096835
-0.000607582
0.00199525
-0.000301717
0.000776531
-0.00879687
0.0111372
0.00134287
-0.000874089
0.010425
0.000500364
-0.00148831
0.000524035
0.00256976
0.00765917
-0.00823007
0.0024526
-0.00847251
0.0018689
0.00145851
-0.00805815
-0.00129117
0.000289339
-0.00014432
0.000848706
0.000818792
-0.000186788
0.00680345
-0.000519614
0.007035
-0.000870076
-0.000532869
0.0109578
-0.000489932
0.000510083
0.00143766
0.0107961
-0.000948298
0.00134637
-0.0111948
0.010391
-0.000719574
0.00112441
-0.00124056
0.00110814
-0.00640192
0.00100936
0.000628672
0.00381561
-0.00689704
0.000868733
-0.00109301
0.00167959
0.00108106
0.0123819
0.00136099
-0.0127343
0.0120187
0.00123045
0.00120499
0.00846812
-0.000524283
0.00145777
-0.00805601
0.00822455
-0.000500982
0.00186875
-0.00134545
0.00245299
-0.010426
0.000302531
0.00256915
0.00765855
-0.0111395
0.000608133
-0.00148861
0.00195157
-0.000873717
0.00968838
0.000777077
-0.0088028
0.00952942
0.00199604
0.00282202
-0.000514151
0.000531326
0.00143974
0.000485181
0.000869245
0.00051903
-0.00703622
-0.000820875
0.0109571
-0.00680577
-0.000849967
-0.000289869
0.000148771
-0.000193231
0.00129364
0.00694242
0.000282776
-0.00722705
0.0114023
-0.00125421
-0.00320748
-2.68192e-05
0.000233229
0.00429186
-0.000279112
-0.0037305
-0.000744465
0.00103762
0.00274396
-3.12329e-06
0.00304704
0.0078065
-0.00808577
0.0127888
-0.00394418
5.1432e-05
0.00496761
0.000268381
-0.0124665
0.00813999
-0.000603272
-0.00577953
0.000405409
-8.97535e-05
0.00327756
-0.000327551
-0.0064129
-0.00395168
0.000618427
0.00875079
-0.000470571
0.00762938
0.00534618
-0.0137551
0.00852421
-0.00650327
-0.00069768
0.00502274
0.00232251
-0.0198038
0.00409508
-0.000847781
-0.00400698
-0.000400088
0.00584356
0.000714772
-0.00258808
-0.0022174
-0.00682484
0.00132969
0.0141122
-2.88302e-05
0.0113898
0.00488969
-0.0212259
0.00540402
-0.00568658
0.00448455
0.00453795
0.00665459
-0.03099
0.00541007
0.00315578
-0.00805225
0.00240866
0.00883084
0.0112203
-0.00751655
0.000727073
0.012876
-0.00348227
0.0190882
-0.00332067
0.0299901
0.00330129
-0.0320218
0.00605262
-0.0119142
0.00722655
-0.0124291
0.0105161
-0.029081
-0.0115616
0.00712757
-0.0160199
0.0066256
-0.00933562
-7.28595e-05
-0.0102687
0.0215975
-0.00343
-0.00653876
0.0361238
-0.00626696
0.039463
-0.0128435
-0.0294879
-0.0124663
-0.0188428
-0.0115226
-0.00864655
0.0223205
-0.00647919
0.0214899
0.0230273
-0.00766842
-0.0217333
-0.0077386
-0.0206186
-0.0218426
-0.00762786
-0.00635821
-0.0127836
1.69731e-06
5.26144e-05
-0.00780323
-0.00103887
-0.00394154
0.000276634
-0.0080797
0.000747214
2.52529e-05
0.00304795
-0.00428935
0.00125298
0.00274568
-0.000284193
-0.00372771
-0.0114041
0.000233643
-0.0069429
-0.00320636
-0.0072252
-0.00851826
0.000468995
-0.000695173
-0.00534147
-0.000620043
-0.00649876
0.000325429
-0.0137498
0.00395346
-0.00040649
0.00763031
-0.00327525
0.000602562
0.00875277
-0.000266483
-0.00641048
-0.00814015
-8.89248e-05
-0.00496528
-0.00577702
-0.0124573
-0.00539844
2.70879e-05
0.00448898
-0.0048853
-0.00133151
-0.00568165
0.00258863
-0.0212288
0.00682553
0.000398778
0.0113919
-0.000713239
0.000847626
0.0141132
-0.00232016
-0.00221504
-0.00409373
0.00584266
-0.00501526
-0.00400744
-0.0197993
-0.00604654
0.00331037
0.00721368
-0.00327901
0.00347283
-0.0119291
0.0075088
-0.0320389
-0.0128749
-0.00241289
0.0299941
-0.0112196
-0.0031565
0.0190922
-0.00665315
0.000731237
-0.00539629
0.00883927
-0.00451129
-0.00804213
-0.0309825
0.0124525
0.0062937
-0.0115141
0.0128072
0.0065668
-0.0188356
0.0102867
-0.0294782
0.00343127
-0.00661655
0.0394631
7.62933e-05
-0.00712171
0.0361241
-0.010514
0.0215984
0.0115435
-0.00934153
0.0123881
-0.0160229
-0.0290868
0.00635825
0.0218468
0.00762556
0.0206231
0.0217326
0.00774273
-0.0230275
0.00767619
-0.0214904
-0.0223179
0.00647748
0.008646
)
;

boundaryField
{
    fuel
    {
        type            calculated;
        value           nonuniform List<scalar> 
36
(
0.000118505
0.000193188
0.000118505
0.000118505
0.000193188
0.000118505
0.000118505
0.000193188
0.000118505
-0.000118506
-0.000193187
-0.000118506
-0.000118506
-0.000193187
-0.000118506
-0.000118506
-0.000193187
-0.000118506
0
0
0
0
0
0
0
0
0
0
0
0
0
0
0
0
0
0
)
;
    }
    primary_air
    {
        type            calculated;
        value           nonuniform List<scalar> 9(-0.00320711 -0.00524322 -0.00320744 -0.00320795 -0.00524267 -0.00320795 -0.00320745 -0.00524324 -0.00320712);
    }
    Secondary_air_RHS
    {
        type            calculated;
        value           nonuniform List<scalar> 9(0.00319586 0.00514258 0.00319739 0.00319471 0.00513573 0.00319641 0.00319449 0.00514218 0.00319594);
    }
    Secondary_air_LHS
    {
        type            calculated;
        value           nonuniform List<scalar> 9(0.00319739 0.00514238 0.0031959 0.00319641 0.00513551 0.00319474 0.00319596 0.00514199 0.00319451);
    }
    outlet
    {
        type            calculated;
        value           nonuniform List<scalar> 
18
(
-0.0397194
0.076593
-0.0388478
-0.0407267
0.0783017
-0.0396825
-0.0435864
0.0733217
-0.0427589
-0.0427565
0.0733202
-0.0435926
-0.0396786
0.078302
-0.0407301
-0.0388436
0.0765935
-0.0397225
)
;
    }
    stove_body
    {
        type            calculated;
        value           uniform 0;
    }
    frontAndBack
    {
        type            empty;
        value           nonuniform 0();
    }
}


// ************************************************************************* //
