/*--------------------------------*- C++ -*----------------------------------*\
  =========                 |
  \\      /  F ield         | OpenFOAM: The Open Source CFD Toolbox
   \\    /   O peration     | Website:  https://openfoam.org
    \\  /    A nd           | Version:  6
     \\/     M anipulation  |
\*---------------------------------------------------------------------------*/
FoamFile
{
    version     2.0;
    format      ascii;
    class       surfaceScalarField;
    location    "2";
    object      phi;
}
// * * * * * * * * * * * * * * * * * * * * * * * * * * * * * * * * * * * * * //

dimensions      [1 0 -1 0 0 0 0];

internalField   nonuniform List<scalar> 
675
(
-2.856e-06
-0.000573369
0.00579729
3.34377e-06
-0.000563973
0.00577957
-0.000573576
0.005798
5.34217e-06
0.000573369
0.00746552
-3.74353e-06
0.000563974
0.00749467
0.000573576
0.00746662
-2.85121e-06
0.00579729
3.33958e-06
0.00577956
0.005798
-3.57388e-06
-0.000763005
0.00656395
3.8616e-06
-0.0008248
0.00659762
-0.000763582
0.00656552
7.60049e-05
0.000763005
0.00586417
-8.67345e-05
0.000824801
0.006006
0.000763582
0.0058534
-3.57262e-06
0.00656395
3.86039e-06
0.00659761
0.00656552
4.63662e-06
0.00133881
-2.91778e-07
0.00138113
0.00134473
-7.61679e-05
-0.00133881
7.50518e-05
-0.00138113
-0.00134473
4.6359e-06
-2.91466e-07
-0.00126359
0.00459309
0.00944141
-0.00445592
0.00453531
0.0114289
0.00677063
0.00154801
6.79912e-06
-0.00397144
0.0297439
-0.00524417
-0.00404208
0.0350148
-0.00611384
0.0288323
-0.00133417
0.0101293
-0.00418568
0.0115782
0.0024732
0.0140877
0.0123102
-0.0169429
-0.019528
0.00183648
0.0432266
0.0147478
-0.0327152
0.00347851
-0.0119623
0.0505632
-0.0103684
-0.00127292
0.0519941
-0.0138728
0.0471055
0.0128672
-0.0146838
-0.0194863
0.0426753
-0.0308746
0.0111322
0.0487709
-0.0768333
-0.00952243
0.0171368
0.0467564
0.0456231
-0.0878537
-0.0799606
-0.0490842
0.228411
0.0803489
-0.0169604
-0.0741985
-0.0456326
0.21873
0.0110193
-0.0747621
-0.0103374
0.0470899
-0.0868315
-0.0371545
-0.0372785
-0.0233257
0.0977644
0.0382514
0.00317486
-0.0416678
-0.0368987
-0.037929
-0.0313396
0.107534
0.008315
0.0362807
0.109418
-0.191304
-0.0133966
-0.00284131
-0.0717981
0.0995398
0.0377917
0.0900553
-0.179162
-0.0381093
-0.0215918
0.0959866
0.0373633
-0.0409634
-0.0373387
-0.0316045
0.106777
0.00720088
-0.0205178
-0.00998875
-0.00421307
-0.00309013
-0.0271445
-0.017562
-0.0179794
0.0298262
0.02192
0.0371876
-0.0353069
0.00389732
-0.0136147
0.0182109
0.019002
0.00579437
-0.0054578
-0.0072496
-0.0240178
-0.0206263
0.0150934
-0.0108809
-0.0141813
0.00513023
-0.000765124
-0.0164172
0.00164116
-0.0144805
-0.0113388
0.0104825
0.0271703
-0.0239582
0.00116477
-0.00290384
-0.00244608
-0.000832572
0.015792
-0.0107686
0.00899742
-0.0160537
-0.0140597
-0.00133354
-0.00190802
-0.0830583
0.00133415
0.000453486
0.0436361
-0.00230549
-0.093631
-0.00632062
0.0017612
0.215907
0.0059083
-0.000407874
-0.0855648
0.00225723
0.204946
-0.00134528
-0.0811361
0.00128576
0.0440522
-0.0927124
-0.00163023
-0.000213951
-0.0906201
0.00164651
-0.000837061
0.0411973
-0.000553484
-0.100785
-0.00234106
0.000137826
0.20291
0.00225813
0.000855557
-0.0918554
0.000517208
0.191157
-0.00165654
-0.0887641
0.00160896
0.0416435
-0.0999492
-0.00279449
0.000505941
0.00298864
-0.00148361
0.000349467
-0.0023729
-0.000596281
0.00230821
0.00152097
-0.000432949
-0.00282351
0.00300346
0.00659309
-0.00281401
-0.00177035
-0.0161837
-0.00472758
-0.000309074
-0.00478759
-0.00180194
-0.00393015
-0.0134725
0.00115175
0.00317493
0.0113945
0.00863969
0.00273543
0.000811501
-0.00560102
0.000284745
-0.00572713
0.00554821
0.0118499
-0.00215708
-0.0172868
0.00117057
-0.00455962
-0.00259725
-0.0100015
0.00612866
0.00109882
0.00313541
-0.012129
-0.00340877
0.00116186
0.00358771
0.00177543
0.00193328
-0.0110476
0.00271689
-0.000988335
0.00354263
0.00722578
0.00211862
-0.00194621
-0.00188814
-0.00227673
-0.00290788
0.00335531
0.0107907
0.000476306
-0.0144139
0.000782342
0.0035058
0.00358747
-0.00767289
8.92598e-05
0.00261129
0.000432842
0.000825893
0.00285247
0.00316877
-0.000410089
-0.000782197
-0.0020576
0.00898595
0.00257834
-0.00238921
-0.00331478
0.00615883
-0.000953504
-0.000626811
0.000164702
0.000445194
-0.014275
-0.000818524
0.00162317
-0.0148125
-0.00119555
0.00173467
-0.00126607
0.00147369
-0.0150175
0.00474464
0.000246506
-0.000261066
0.00129966
0.000850931
0.00139872
0.00107793
0.00456321
-0.00560728
-0.0112086
0.00145537
-0.0119139
0.00155701
0.00159701
-0.0124318
-0.0111586
-0.000639899
0.00237511
-0.0107289
-6.39911e-05
0.00137041
-0.000371551
0.000931065
-0.00981289
0.00415126
0.000111012
-0.00180711
0.00303642
-7.36846e-05
0.00252377
0.000597845
0.00783356
-0.00120335
-0.00848337
0.00237854
-0.00859582
0.00159689
0.00178654
-0.0081853
0.00152767
0.000436699
0.00275952
0.000138922
-0.000457023
0.00414887
0.00541231
-0.000623095
0.00843812
-0.000362667
0.000741383
0.0150737
0.00220256
0.00343815
0.00596717
0.0174944
-0.00145959
0.00185122
-0.017884
0.0173789
-0.00183567
0.00195236
-0.000643787
0.00183986
0.00375674
0.00159917
0.00520925
-0.0120237
-0.00364188
0.00234345
0.0032193
0.00103018
0.00332446
0.0183709
0.00199419
-0.0187639
0.0182041
0.00251156
0.00194783
0.0119846
-0.00117165
0.00274892
-0.011709
0.0123603
-0.000718805
0.00229675
-0.000620107
0.00269305
-0.00457479
0.000598976
0.0115123
-0.00349766
-0.00810061
0.000386393
0.00563885
0.00115044
0.000679619
0.0129089
0.00171571
-0.0120291
0.0139503
0.00185795
0.00263523
-0.00501711
-0.00117756
0.00894514
-0.00270146
-1.73778e-05
0.000424684
-0.0155114
0.00100887
0.0248371
-0.0103325
0.000442543
-0.000244798
-0.00406523
0.00679029
-0.00176415
0.011995
0.00218963
-0.0141844
0.0185933
0.000634701
-0.00723206
0.00103953
-0.000328666
0.0124072
-0.0033471
-0.00686999
0.014964
-0.00235553
0.000434076
-0.00151639
0.00549699
0.0103211
-0.0136669
0.0182164
-0.0102491
-0.00206172
0.00894923
0.00181476
-0.0249475
0.0128944
0.00051052
-0.0116874
0.000887624
-2.96743e-05
0.0103202
-0.00200119
-0.0133728
0.00791056
-0.0011564
0.00451257
-0.000820157
0.0116192
0.00832435
-0.023993
0.0140574
-0.0171366
-0.000851652
0.00908479
0.00471169
-0.0387439
0.00228835
0.000284704
-0.00517622
-0.000605492
0.0118107
0.00190319
-0.00485463
-0.00570783
-0.0127975
-0.00131978
0.0208187
0.000581423
0.0224724
0.00953845
-0.038385
0.00481625
-0.0137333
0.0113369
-0.00264128
0.0131798
-0.0492729
0.00568296
0.00800774
-0.0215313
0.00651901
0.010974
0.0115243
-0.00723182
0.0032027
0.0166541
-0.00326356
0.0269698
-0.00214476
0.0477884
0.00236497
-0.0479682
0.0150153
-0.0296505
0.0242071
-0.0210981
0.0121589
-0.0403354
-0.0183073
0.0101486
-0.0344482
0.0106021
-0.0179405
-0.00574221
0.0017966
0.0193051
-0.00505489
0.00205513
0.0343675
0.00269408
0.0506268
0.0010286
-0.0472007
0.00269347
-0.0292601
0.0295958
-0.00865646
0.0191492
-0.0112261
0.0185428
0.0204317
-0.0115991
-0.0188586
-0.0122206
-0.0187196
-0.0195071
-0.0137281
-0.0179741
-0.0152743
0.000685599
-0.000426133
-0.00973361
0.00017667
-0.00571316
0.00148391
-0.0112112
-0.00872524
-0.000618236
0.00442344
-0.00898584
-0.000128464
0.000568151
-0.00129356
-0.0062054
-0.0129603
-8.86589e-05
-0.00843361
-0.00465405
-0.00972637
-0.0101739
0.000551389
-0.000613494
-0.0070713
3.71186e-05
-0.00884904
0.000900664
-0.0191851
-0.00387327
-0.000574702
0.00822088
-0.00649138
-8.32163e-05
0.00330874
-0.000877214
-0.010916
-0.0088682
2.11675e-05
-0.00598357
-0.00762075
-0.0165868
-0.00300133
-0.00046351
0.00700133
-0.00636184
-0.000213736
-0.00527507
0.00294974
-0.02852
0.00845046
0.000695648
0.0136861
-0.00147378
3.25908e-05
0.0129881
-0.0026688
-0.00676961
-0.00147561
0.00816031
-0.00605011
-0.00301269
-0.0253053
-0.00466817
0.00351798
0.00814775
-0.000396259
0.004531
-0.014077
0.00873824
-0.0376261
-0.0111627
-0.00071497
0.0290904
-0.00917298
-0.00249682
0.0180334
-0.00597593
-0.00121949
-0.00497452
0.0124217
-0.00403909
-0.00644189
-0.0353154
0.0130048
0.00713354
-0.0119855
0.0153427
0.00649041
-0.0228993
0.0078092
-0.0300822
0.00908683
-0.00802772
0.035171
0.0086441
-0.00797531
0.0329494
-0.0085759
0.0238227
0.0117358
-0.00733536
0.0141847
-0.0168579
-0.0296977
0.00776642
0.0225628
0.00699201
0.0206716
0.0202866
0.0114548
-0.0254816
0.0119726
-0.0230125
-0.0219584
0.00818579
0.00965663
)
;

boundaryField
{
    fuel
    {
        type            calculated;
        value           nonuniform List<scalar> 
36
(
0.00522074
0.00861755
0.00522074
0.0052207
0.0086177
0.0052207
0.00522073
0.00861756
0.00522073
-0.00522127
-0.00861656
-0.00522127
-0.00522129
-0.00861653
-0.00522129
-0.00522127
-0.00861656
-0.00522127
0
0
0
0
0
0
0
0
0
0
0
0
0
0
0
0
0
0
)
;
    }
    primary_air
    {
        type            calculated;
        value           nonuniform List<scalar> 9(-0.0127514 -0.0211556 -0.0127491 -0.012752 -0.0211544 -0.0127497 -0.0127545 -0.0211583 -0.0127521);
    }
    Secondary_air_RHS
    {
        type            calculated;
        value           nonuniform List<scalar> 9(0.00941756 0.0151312 0.00942483 0.00935511 0.0149774 0.00936406 0.00938902 0.0150867 0.00939907);
    }
    Secondary_air_LHS
    {
        type            calculated;
        value           nonuniform List<scalar> 9(0.00946706 0.0151574 0.00948102 0.00940652 0.0149875 0.00942293 0.00943343 0.0150823 0.0094504);
    }
    outlet
    {
        type            calculated;
        value           nonuniform List<scalar> 
18
(
-0.0423019
0.0717791
-0.0409929
-0.0427831
0.0761347
-0.0413317
-0.0433634
0.078062
-0.04199
-0.0508228
0.0689197
-0.0523273
-0.0504154
0.0722594
-0.043731
-0.0495914
0.0783468
-0.00789092
)
;
    }
    stove_body
    {
        type            calculated;
        value           uniform 0;
    }
    frontAndBack
    {
        type            empty;
        value           nonuniform 0();
    }
}


// ************************************************************************* //
