/*--------------------------------*- C++ -*----------------------------------*\
  =========                 |
  \\      /  F ield         | OpenFOAM: The Open Source CFD Toolbox
   \\    /   O peration     | Website:  https://openfoam.org
    \\  /    A nd           | Version:  6
     \\/     M anipulation  |
\*---------------------------------------------------------------------------*/
FoamFile
{
    version     2.0;
    format      ascii;
    class       volScalarField;
    location    "2";
    object      Qdot;
}
// * * * * * * * * * * * * * * * * * * * * * * * * * * * * * * * * * * * * * //

dimensions      [1 -1 -3 0 0 0 0];

internalField   nonuniform List<scalar> 
297
(
0
7.86755e-05
3.12646e-05
0
0.000157351
9.48219e-05
7.86755e-05
3.12646e-05
3.12646e-05
4.74109e-05
7.86755e-05
7.86755e-05
9.48219e-05
0
9.48219e-05
0
0
7.86755e-05
4.74109e-05
0
0
7.86755e-05
0
3.12646e-05
0
3.12646e-05
0
1.34207e-10
1.34207e-10
1.34207e-10
1.34207e-10
-7.78791e-10
1.34207e-10
-9.12998e-10
0
-9.12998e-10
0
-9.12998e-10
-9.12998e-10
-9.12998e-10
0
-7.78791e-10
0
-9.12998e-10
0
-9.12998e-10
3.35517e-11
0
-9.12998e-10
-9.12998e-10
-8.45895e-10
-9.12998e-10
0
0
8.38792e-12
0
-9.12998e-10
1.67758e-11
0
0
1.67758e-11
0
-9.12998e-10
0
0
2.09698e-12
-1.826e-09
8.38792e-12
0
-9.0461e-10
0
-9.12998e-10
-9.08804e-10
-9.12998e-10
-9.12998e-10
1.67758e-11
8.38792e-12
-1.826e-09
0
0
0
-9.12998e-10
0
-9.12998e-10
-9.12998e-10
0
3.35517e-11
0
3.35517e-11
0
0
0
-9.12998e-10
-8.79446e-10
1.67758e-11
0
-9.12998e-10
-9.12998e-10
0
0
0
0
1.67758e-11
-1.826e-09
-9.12998e-10
0
0
0
0
1.04849e-12
2.62123e-13
1.67758e-11
8.38792e-12
-1.8239e-09
0
1.04849e-12
-9.12998e-10
-9.1195e-10
0
0
0
-1.826e-09
0
1.04849e-12
0
-9.12998e-10
1.04849e-12
5.24245e-13
1.31061e-13
0
-1.826e-09
0
-9.1195e-10
0
1.31061e-13
-9.12867e-10
-9.12998e-10
3.27653e-14
0
0
0
1.31061e-13
0
1.63827e-14
-9.12998e-10
0
0
5.24245e-13
0
5.24245e-13
0
-9.12965e-10
0
6.55306e-14
0
-9.12933e-10
0
0
5.24245e-13
-9.12998e-10
-9.12933e-10
0
-9.12965e-10
2.62123e-13
-9.12474e-10
6.55306e-14
-1.81761e-09
0
-9.12965e-10
2.62123e-13
1.04849e-12
-9.12867e-10
5.24245e-13
0
0
-1.826e-09
-1.826e-09
0
-9.12736e-10
0
-9.12998e-10
1.04849e-12
0
0
0
4.19396e-12
0
0
1.04849e-12
-9.12965e-10
3.27653e-14
-9.12965e-10
6.55306e-14
0
-1.826e-09
3.27653e-14
-9.12965e-10
3.27653e-14
0
0
-9.12998e-10
0
6.55306e-14
0
-9.12965e-10
0
-9.12998e-10
3.27653e-14
-9.12998e-10
0
-1.826e-09
2.09698e-12
4.19396e-12
-9.12998e-10
0
1.04849e-12
-9.12998e-10
0
-9.12474e-10
3.27653e-14
-9.12998e-10
-9.12998e-10
-9.12965e-10
-9.12998e-10
0
-9.12998e-10
0
-9.12736e-10
-9.12867e-10
-9.12998e-10
-9.12998e-10
-9.12998e-10
0
0
-9.12998e-10
3.99967e-18
0
-9.12867e-10
0
1.04849e-12
0
0
0
0
0
0
4.09566e-15
4.09566e-15
4.09566e-15
4.09566e-15
0
-9.12994e-10
0
0
2.04783e-15
8.19133e-15
-1.82599e-09
0
8.19133e-15
8.19133e-15
-9.12998e-10
0
-9.12998e-10
0
5.24245e-13
0
0
6.55306e-14
0
4.09566e-15
-9.12965e-10
-9.12998e-10
-9.12998e-10
-1.82573e-09
6.55306e-14
0
-9.12933e-10
-9.1299e-10
4.09566e-15
-9.12982e-10
0
0
2.62123e-13
6.55306e-14
0
0
0
4.09566e-15
-9.12998e-10
2.4998e-19
6.24949e-20
-9.12933e-10
0
-9.12982e-10
0
-9.12998e-10
-9.12998e-10
)
;

boundaryField
{
    fuel
    {
        type            calculated;
        value           uniform 0;
    }
    primary_air
    {
        type            calculated;
        value           uniform 0;
    }
    Secondary_air_RHS
    {
        type            calculated;
        value           uniform 0;
    }
    Secondary_air_LHS
    {
        type            calculated;
        value           uniform 0;
    }
    outlet
    {
        type            calculated;
        value           uniform 0;
    }
    stove_body
    {
        type            calculated;
        value           uniform 0;
    }
    frontAndBack
    {
        type            empty;
    }
}


// ************************************************************************* //
