/*--------------------------------*- C++ -*----------------------------------*\
  =========                 |
  \\      /  F ield         | OpenFOAM: The Open Source CFD Toolbox
   \\    /   O peration     | Website:  https://openfoam.org
    \\  /    A nd           | Version:  6
     \\/     M anipulation  |
\*---------------------------------------------------------------------------*/
FoamFile
{
    version     2.0;
    format      ascii;
    class       volScalarField;
    location    "2";
    object      T;
}
// * * * * * * * * * * * * * * * * * * * * * * * * * * * * * * * * * * * * * //

dimensions      [0 0 0 1 0 0 0];

internalField   nonuniform List<scalar> 
297
(
292.186
292.186
292.186
293.003
293.002
293.003
292.186
292.186
292.186
292.187
292.186
292.187
293.011
293.008
293.011
292.187
292.186
292.187
292.142
292.136
292.142
308.766
293.094
308.671
292.142
292.136
292.142
292.157
292.184
292.267
292.855
292.889
292.888
292.144
292.18
292.26
287.896
289.829
288.408
289.94
291.901
290.169
287.895
289.96
288.264
286.03
288.211
288.519
287.601
289.803
288.38
285.494
288.058
288.277
286.86
291.556
287.893
287.222
288.058
288.577
286.683
291.067
287.788
287.992
293.471
291.843
287.482
288.757
288.646
286.962
292.653
291.937
294.783
297.426
296.812
288.323
290.857
290.424
293.711
297.334
296.703
284.536
288.204
286.164
284.149
288.007
285.545
284.16
288.05
286.004
285.059
288.317
286.479
282.519
287.886
284.088
284.777
288.164
286.201
286.142
288.333
287.07
282.036
287.852
283.753
285.932
288.183
287.081
298.371
298.254
296.27
288.374
294.812
297.358
298.067
298.486
296.047
299.816
298.958
296.605
290.133
298.234
298.072
299.139
299.374
296.247
300.284
299.341
297.277
297.783
300.229
298.607
299.456
299.633
296.485
296.144
295.975
295.794
297.434
297.414
297.235
295.47
295.323
295.112
296.472
296.285
296.232
297.987
297.786
297.408
295.666
295.55
295.426
296.769
296.666
296.629
297.959
297.776
297.451
295.948
295.814
295.86
299.982
299.818
299.589
302.436
295.509
288.18
300.108
299.857
299.478
300.511
300.322
299.668
300.403
290.026
288.775
299.576
299.593
299.018
299.583
300.129
300.004
295.085
294.368
297.223
298.583
299.263
299.399
300.672
300.719
299.901
302.514
302.489
302.31
301.298
301.095
300.181
300.223
300.722
300.584
302.84
302.744
302.227
300.839
299.663
299.671
299.46
300.723
299.686
302.824
299.853
296.854
299.653
298.787
298.824
298.926
299.787
295.344
303.648
299.312
294.973
297.838
295.914
295.125
293.853
297.476
298.981
300.886
297.572
293.626
295.153
294.252
293.882
291.703
291.294
290.79
289.127
286.394
282.539
291.079
289.926
295.237
295.815
296.381
296.381
297.036
297.072
297.038
294.964
295.382
295.334
296.344
296.371
296.152
297.032
297.203
297.135
295.41
295.494
295.07
296.648
296.458
295.527
297.183
297.13
297.101
295.946
295.613
294.536
294.262
296.052
294.843
295.718
296.046
297.298
293.953
295.636
293.837
295.816
295.263
293.735
293.976
294.288
296.327
295.12
295.423
292.983
290.258
290.08
290.002
284.292
283.137
282.692
289.788
289.596
289.592
)
;

boundaryField
{
    fuel
    {
        type            fixedValue;
        value           uniform 293;
    }
    primary_air
    {
        type            fixedValue;
        value           uniform 293;
    }
    Secondary_air_RHS
    {
        type            fixedValue;
        value           uniform 293;
    }
    Secondary_air_LHS
    {
        type            fixedValue;
        value           uniform 293;
    }
    outlet
    {
        type            inletOutlet;
        inletValue      uniform 293;
        value           nonuniform List<scalar> 
18
(
293
284.292
293
293
283.137
293
293
282.692
293
293
289.127
293
293
286.394
293
293
282.54
293
)
;
    }
    stove_body
    {
        type            fixedValue;
        value           uniform 293;
    }
    frontAndBack
    {
        type            empty;
    }
}


// ************************************************************************* //
