/*--------------------------------*- C++ -*----------------------------------*\
  =========                 |
  \\      /  F ield         | OpenFOAM: The Open Source CFD Toolbox
   \\    /   O peration     | Website:  https://openfoam.org
    \\  /    A nd           | Version:  6
     \\/     M anipulation  |
\*---------------------------------------------------------------------------*/
FoamFile
{
    version     2.0;
    format      ascii;
    class       volVectorField;
    location    "2";
    object      U;
}
// * * * * * * * * * * * * * * * * * * * * * * * * * * * * * * * * * * * * * //

dimensions      [0 1 -1 0 0 0 0];

internalField   nonuniform List<vector> 
297
(
(55.8067 -0.00915681 10.5169)
(55.8077 0.00130608 10.5076)
(55.8067 0.010174 10.5177)
(2.29147e-07 -0.0461645 9.80765)
(-1.12566e-06 0.00538994 9.83248)
(5.33067e-07 0.0459161 9.80745)
(-55.8067 -0.00914539 10.517)
(-55.8077 0.00130751 10.5076)
(-55.8067 0.010164 10.5177)
(55.7499 -0.00301156 10.7305)
(55.7487 0.000170998 10.7242)
(55.7498 0.00415409 10.7316)
(-1.28929e-07 0.245404 8.3705)
(1.22782e-07 -0.0274734 8.27872)
(8.55595e-08 -0.250518 8.36522)
(-55.7499 -0.00300853 10.7305)
(-55.7487 0.000171125 10.7241)
(-55.7498 0.00415118 10.7316)
(56.5844 -0.00372269 14.8732)
(56.5785 0.00906914 14.8848)
(56.5842 0.018922 14.8776)
(3.48708e-08 -7.32043 5.64063)
(1.31943e-07 0.0423774 8.27663)
(-6.1435e-09 7.24077 5.62312)
(-56.5844 -0.00372431 14.8733)
(-56.5785 0.00906821 14.8848)
(-56.5842 0.0189227 14.8776)
(36.5924 -0.398412 5.97258)
(36.5874 -1.49644 9.05323)
(36.6255 -1.20728 5.04271)
(-0.00151193 -0.208964 10.691)
(-0.00148113 -0.969008 10.0268)
(-0.00157272 -0.762777 10.5957)
(-36.5946 -0.42269 6.12766)
(-36.5919 -1.44049 9.00292)
(-36.6281 -1.12606 4.9409)
(36.672 7.98581 25.9572)
(36.777 -1.79887 22.4349)
(37.0635 -9.57306 17.402)
(-0.0017202 11.187 49.2617)
(-0.00121457 -1.73357 36.6501)
(-0.0011697 -12.4839 47.2716)
(-36.6242 7.50248 26.5146)
(-36.7441 -2.35622 22.5114)
(-37.0096 -9.24771 18.555)
(36.1377 8.54382 13.5447)
(36.937 -2.66757 29.922)
(36.391 -4.08515 -2.91305)
(0.000115918 -9.47653 72.5734)
(0.000106844 -0.985499 22.4588)
(-3.96799e-05 11.5529 69.545)
(-36.0743 8.99296 15.9612)
(-36.8939 -3.24675 30.2762)
(-36.3606 -4.46074 -1.9114)
(36.8881 -11.8289 -54.0857)
(36.8518 2.27763 -14.3299)
(37.0463 9.89194 -62.7972)
(0.00232329 -0.17529 29.5992)
(-0.00203043 -1.76574 -30.7528)
(6.33583e-05 2.14648 17.1269)
(-36.855 -12.688 -51.7762)
(-36.7857 1.34529 -13.2728)
(-37.031 10.325 -61.1629)
(37.1522 14.8224 -32.9607)
(37.6941 4.89704 -41.8413)
(37.6727 -19.6411 -43.4098)
(-0.00129501 6.01008 5.23764)
(-0.00425194 -0.595044 -18.9418)
(0.00581477 -6.72646 -6.47338)
(-37.0059 11.3845 -30.3144)
(-37.6027 2.79302 -41.6044)
(-37.6144 -14.5857 -42.1921)
(37.98 19.0598 -15.5466)
(38.2787 11.5809 -16.9251)
(38.3173 -17.6184 -17.5495)
(-0.0107318 2.14603 6.82919)
(-0.00691743 -8.73661 -13.7759)
(0.011763 -7.16404 -1.61038)
(-37.9338 13.4 -14.5768)
(-38.3062 17.9452 -12.7055)
(-38.2144 -7.45303 -17.4013)
(31.1743 6.37152 -71.9527)
(35.9638 1.04941 35.1891)
(30.4648 -4.98995 -81.4195)
(0.0127893 -4.41715 98.3176)
(-0.0013082 -1.72629 -41.3683)
(0.00666176 6.90704 94.2238)
(-31.2922 6.60263 -70.235)
(-35.8873 0.710389 35.4936)
(-30.5367 -5.19793 -80.5599)
(32.3427 -0.945825 -75.5303)
(33.857 1.42456 34.2744)
(31.8112 0.642233 -84.9019)
(0.0120406 -1.58481 109.26)
(-0.00141573 -1.92087 -43.8949)
(0.00669897 4.09709 104.388)
(-32.4361 -1.18572 -73.6525)
(-33.7947 1.12537 34.5938)
(-31.849 0.630913 -83.9437)
(34.8755 -5.31433 -69.7638)
(34.1533 2.04557 32.2737)
(35.0005 4.63009 -79.4268)
(0.0116411 0.956273 108.024)
(-0.00169781 -1.95047 -44.298)
(0.00704069 1.48231 102.831)
(-34.9543 -5.58853 -67.5703)
(-34.0911 1.91409 32.5789)
(-35.1426 4.66133 -78.1647)
(38.0453 37.6684 -8.18519)
(38.1347 2.38227 -9.13767)
(37.8188 -32.0819 -8.55212)
(-0.0146936 -3.43596 8.14957)
(-0.00987848 3.49754 -1.7942)
(0.00708871 4.90504 -2.39211)
(-38.1169 40.1504 -5.85722)
(-38.1984 29.9405 -9.96383)
(-37.8559 -21.5824 -7.85139)
(38.5041 28.8091 4.90207)
(38.3229 6.38272 0.840824)
(38.115 -25.8757 2.83558)
(-0.0135978 -2.21482 7.00046)
(-0.0103236 8.50137 -1.55925)
(0.00480742 -0.807328 -1.23951)
(-38.5116 34.3647 4.21534)
(-38.5077 27.3822 1.67831)
(-38.0721 -15.2738 3.04085)
(38.6619 -4.7457 -0.948027)
(38.5035 2.53232 1.45952)
(38.279 5.90294 -1.80657)
(-0.0134555 -12.573 -1.42216)
(-0.00982982 3.85154 0.390468)
(0.00370425 6.31814 -1.51466)
(-38.6104 -20.7503 -5.07428)
(-38.5729 13.1735 0.89992)
(-38.1622 -1.13653 0.754311)
(37.7781 -37.0349 -3.90187)
(37.7279 -42.6713 -8.01553)
(37.6247 -46.1838 -9.4245)
(0.00166004 7.34728 -1.53812)
(-0.000872625 11.6598 -0.337847)
(-0.00363598 -5.53478 1.35049)
(-37.7945 -29.556 -2.88105)
(-37.7297 -33.4471 -6.04658)
(-37.6266 -37.9765 -7.03612)
(37.9068 -30.4651 5.79132)
(38.1534 -34.2988 4.77088)
(38.1572 -35.3516 1.66923)
(0.00437065 5.22392 -1.77395)
(0.0049874 12.277 2.90653)
(0.00340377 2.99493 9.36675)
(-37.8805 -23.4361 5.50008)
(-38.0441 -25.6172 4.89578)
(-37.975 -29.1257 3.18342)
(38.1769 -1.47054 6.88826)
(38.2502 2.99941 7.47253)
(38.1603 11.3445 10.6331)
(0.00419575 9.33275 -0.46162)
(0.00591692 13.1129 0.502031)
(0.00330899 22.7785 5.68079)
(-38.0711 1.16055 5.56123)
(-38.1304 7.05271 5.91628)
(-37.9575 12.2418 8.34006)
(37.8338 56.1592 -11.2558)
(37.9116 49.7495 -9.29175)
(38.2051 46.1927 -5.46874)
(0.0151202 19.9114 -1.72693)
(0.000955311 -4.47743 2.07757)
(-0.00619081 -13.6752 6.75647)
(-37.6417 57.2909 -11.3795)
(-37.7171 52.029 -8.47375)
(-38.1531 49.3501 -4.8104)
(38.4674 42.6722 5.46851)
(38.5322 35.5835 8.30024)
(38.3201 32.9153 8.17829)
(-0.000245229 1.80375 15.34)
(-0.00633645 -21.3494 7.94174)
(-0.00720265 -11.9152 3.03941)
(-38.51 45.6841 1.73693)
(-38.5644 43.1558 7.35868)
(-38.1859 37.7802 7.57563)
(38.2668 -18.1619 11.3517)
(38.6573 -9.61496 7.31499)
(38.5768 -4.86022 6.56856)
(-0.00422334 -37.7186 6.85308)
(-0.00843179 -25.4819 -0.0964381)
(-0.00694869 -19.2572 -1.20158)
(-38.2286 -17.7648 14.5851)
(-38.5309 -4.22125 8.55426)
(-38.5201 1.74937 7.48464)
(37.371 23.7257 -35.4931)
(37.1505 31.6039 -26.5418)
(38.1956 53.7489 -20.7179)
(0.00214332 18.2649 -14.6254)
(0.0247694 20.2598 -10.2539)
(0.0329676 25.8003 -3.44447)
(-37.9305 19.5598 -35.2742)
(-37.8645 29.0759 -30.6605)
(-38.2082 49.9876 -24.244)
(37.6144 3.90792 -56.959)
(37.5894 22.5428 -32.7954)
(38.5898 40.9125 -5.74974)
(0.00739527 8.99813 -15.8933)
(0.0378766 13.5204 -2.91852)
(0.021071 18.8332 17.9111)
(-37.7347 8.96515 -54.5142)
(-37.5083 23.2201 -43.9499)
(-38.2971 37.0269 -12.716)
(38.904 -0.389264 -71.8611)
(37.761 18.4655 -22.903)
(37.6313 -13.8882 15.8621)
(-0.00369775 6.49641 -23.4165)
(0.012468 -12.9035 25.1927)
(0.00503074 -31.6259 23.1303)
(-38.9848 3.95006 -71.8779)
(-37.9653 16.4417 -46.4216)
(-37.4987 -3.90019 19.3539)
(38.5448 -13.8344 -96.7548)
(38.3973 3.59093 5.05555)
(37.6869 -3.826 97.6002)
(-0.0798435 -9.31735 12.3822)
(-0.0844241 11.9212 54.2499)
(-0.0904589 -11.6878 94.0388)
(-38.6393 -5.70124 -105.945)
(-38.2459 -3.76413 -53.3338)
(-38.0803 6.93901 53.3092)
(37.077 -1.03956 -129.865)
(37.3643 -14.8386 -95.5733)
(37.5407 -3.79123 -7.85686)
(-0.224391 -1.73692 40.5294)
(-0.23877 1.66895 76.1715)
(-0.245075 -8.83479 110.554)
(-37.9161 0.977095 -138.595)
(-37.8269 -4.00695 -101.839)
(-37.7276 5.44036 92.9372)
(36.0228 -2.55683 -148.823)
(35.9109 -4.32109 -147.259)
(35.9429 -2.6084 -144.118)
(-0.0300126 -3.41887 173.489)
(-0.0254532 -3.34521 180.361)
(-0.0134986 -5.20574 193.226)
(-36.076 -4.66393 -155.01)
(-35.8891 -8.27204 -122.906)
(-36.4852 -1.30217 -18.1133)
(37.8103 -43.7048 -17.402)
(37.0117 -25.6986 -20.9972)
(37.1911 -19.2092 -28.367)
(-0.0158777 -15.861 -1.03442)
(-0.0354588 -12.841 -6.7427)
(-0.0471576 -12.2473 -11.4536)
(-37.7924 -37.2708 -13.8677)
(-37.1301 -21.735 -17.3336)
(-37.2852 -16.2368 -23.9647)
(38.1129 -30.995 -5.2012)
(37.3961 -18.3195 -26.3687)
(37.3165 -3.81693 -45.777)
(-0.00584337 -11.7001 12.2443)
(-0.0195005 -7.40494 -1.91659)
(-0.0348259 -4.57956 -14.2065)
(-38.042 -27.3969 -3.76822)
(-37.4523 -15.3016 -21.836)
(-37.4079 -2.35338 -40.2576)
(37.7629 0.256533 9.88762)
(37.5113 -12.0994 -16.1587)
(38.2075 -0.449628 -56.6706)
(-0.00365639 18.8666 15.0749)
(-0.0142531 8.6188 17.0432)
(-0.0293073 -3.14975 -18.5177)
(-37.56 9.85285 11.241)
(-37.5948 -13.3001 -13.9605)
(-38.1649 0.0375123 -51.1766)
(37.7955 -3.38752 67.9576)
(38.0943 -1.14006 4.42574)
(38.1091 9.59778 -71.1816)
(-0.0220666 6.29461 57.3494)
(-0.0218142 -8.29696 35.6143)
(-0.0231347 7.93292 8.15786)
(-37.7926 2.55316 64.3913)
(-38.1069 -5.22653 13.4607)
(-38.0189 8.36361 -66.9791)
(37.5988 1.68254 -0.575774)
(37.537 10.1252 -55.3761)
(37.4605 0.87666 -93.9845)
(0.00961833 4.34958 84.1055)
(0.0123595 2.61574 64.7818)
(0.0149923 1.39033 31.1399)
(-37.4989 3.01834 29.0366)
(-37.5643 9.03135 -19.0147)
(-37.3118 1.65265 -86.423)
(36.0519 1.70627 -118.647)
(35.9312 3.23277 -120.271)
(35.9266 1.88059 -122.252)
(0.0788424 2.83843 177.416)
(0.078178 4.08815 187.682)
(0.0756839 2.65494 192.244)
(-35.8155 1.77512 -114.498)
(-35.6533 4.00252 -115.611)
(-35.6163 2.63819 -117.805)
)
;

boundaryField
{
    fuel
    {
        type            fixedValue;
        value           uniform (0 0 10);
    }
    primary_air
    {
        type            fixedValue;
        value           uniform (0 0 10);
    }
    Secondary_air_RHS
    {
        type            fixedValue;
        value           uniform (0 79.5 0);
    }
    Secondary_air_LHS
    {
        type            fixedValue;
        value           uniform (0 -79.5 0);
    }
    outlet
    {
        type            pressureInletOutletVelocity;
        value           nonuniform List<vector> 
18
(
(0 0 -118.647)
(0.0788424 2.83843 177.416)
(0 0 -114.498)
(0 0 -120.271)
(0.078178 4.08815 187.682)
(0 0 -115.611)
(0 0 -122.252)
(0.0756839 2.65494 192.244)
(0 0 -117.805)
(0 0 -148.823)
(-0.0300126 -3.41887 173.489)
(0 0 -155.01)
(0 0 -147.259)
(-0.0254532 -3.34521 180.361)
(0 0 -122.906)
(0 0 -144.118)
(-0.0134986 -5.20574 193.226)
(0 0 -18.1133)
)
;
    }
    stove_body
    {
        type            noSlip;
    }
    frontAndBack
    {
        type            empty;
    }
}


// ************************************************************************* //
