/*--------------------------------*- C++ -*----------------------------------*\
  =========                 |
  \\      /  F ield         | OpenFOAM: The Open Source CFD Toolbox
   \\    /   O peration     | Website:  https://openfoam.org
    \\  /    A nd           | Version:  6
     \\/     M anipulation  |
\*---------------------------------------------------------------------------*/
FoamFile
{
    version     2.0;
    format      ascii;
    class       volScalarField;
    location    "2";
    object      O2;
}
// * * * * * * * * * * * * * * * * * * * * * * * * * * * * * * * * * * * * * //

dimensions      [0 0 0 0 0 0 0];

internalField   nonuniform List<scalar> 
297
(
0
0
0
0
0
0
0
0
0
0
0
0
0
0
0
0
0
0
0
0
0
0
0
0
0
0
0
0.126994
0.0487334
0.126169
0.186955
0.171417
0.185267
0.127217
0.0486708
0.126701
0.0319872
0.000335141
0.0322246
0.113141
0.116079
0.112862
0.0320789
0.000293952
0.0321373
0
0
0
0.0756846
0.0195583
0.075397
0
0
0
0
7.97297e-11
0
0
0
0
0
0
0
7.29108e-17
4.28275e-15
1.89331e-17
6.59696e-19
3.05279e-14
5.41608e-19
2.3402e-15
4.88717e-15
2.37614e-15
2.66394e-15
2.10931e-15
2.76723e-15
6.06342e-15
1.97328e-14
6.18564e-15
2.69842e-15
1.9552e-15
2.7437e-15
0
0
0
0.0296516
2.22821e-07
0.0293482
0
0
0
0
0
0
0.0126135
0
0.0121983
0
0
0
0
0
0
0
0
0
0
0
0
1.94861e-15
1.38895e-15
1.98961e-15
5.85607e-15
1.06676e-15
5.96581e-15
1.9689e-15
1.39149e-15
1.98581e-15
1.05198e-15
9.72531e-16
1.05645e-15
5.27357e-15
1.06417e-15
5.38108e-15
1.0137e-15
1.01599e-15
1.05464e-15
8.72015e-16
8.81873e-16
8.85562e-16
1.4182e-15
1.08477e-15
1.33063e-15
8.48775e-16
8.87921e-16
9.07031e-16
1.14802e-15
6.52134e-16
2.34404e-16
5.95802e-15
5.95162e-15
5.94201e-15
1.14962e-15
6.5288e-16
2.35043e-16
1.06361e-15
2.89138e-16
1.68522e-16
4.44315e-15
4.49642e-15
5.27373e-15
1.05532e-15
2.88549e-16
1.68119e-16
8.67307e-16
2.7757e-16
1.94719e-16
1.2618e-15
1.13608e-15
3.16412e-15
8.88496e-16
2.77726e-16
1.94019e-16
3.37597e-16
5.39462e-16
1.1282e-15
5.83672e-15
5.8432e-15
5.8497e-15
2.49048e-16
4.56006e-16
1.14835e-15
1.79371e-16
2.89055e-16
1.04318e-15
5.24006e-15
4.42772e-15
4.38023e-15
1.55472e-16
2.68863e-16
1.04736e-15
2.28807e-16
2.8877e-16
8.43428e-16
2.96047e-15
1.13778e-15
1.32288e-15
1.78528e-16
2.48974e-16
8.04612e-16
1.12866e-18
2.07969e-17
2.12063e-17
3.4059e-18
3.41463e-18
2.01107e-15
1.42992e-18
2.48815e-17
2.51034e-17
3.52061e-18
5.55716e-17
6.92632e-17
3.89253e-18
4.5547e-18
3.25096e-15
4.106e-18
6.62577e-17
7.60825e-17
3.7624e-18
1.0044e-16
2.09827e-16
4.07783e-18
1.36581e-15
3.20435e-15
4.10352e-18
1.2073e-16
1.72212e-16
3.75941e-18
1.84937e-17
1.07952e-16
4.06861e-18
6.0431e-16
2.02097e-15
4.10086e-18
1.28857e-17
8.69863e-17
4.28155e-18
1.9853e-17
4.28632e-17
3.66725e-17
4.94697e-16
1.34972e-15
4.41095e-18
1.36841e-17
3.44457e-17
2.917e-22
2.12204e-21
4.13096e-21
3.76397e-17
2.42862e-16
5.45961e-16
5.35759e-22
2.10547e-21
4.10814e-21
2.21559e-17
2.2e-17
4.12834e-18
2.07265e-15
4.53613e-18
4.4403e-18
2.21651e-17
2.19583e-17
4.58436e-18
7.0977e-17
5.76669e-17
4.13253e-18
3.29756e-15
4.95523e-18
4.46539e-18
7.02973e-17
5.67928e-17
4.58453e-18
2.01475e-16
1.04424e-16
4.13333e-18
3.26177e-15
1.38505e-15
4.4789e-18
2.06075e-16
1.02589e-16
4.58304e-18
1.01558e-16
1.56825e-17
4.13182e-18
1.74823e-15
5.05618e-16
4.45105e-18
1.04915e-16
1.62059e-17
4.58145e-18
4.00959e-17
1.80946e-17
4.12728e-18
1.3851e-15
4.46284e-16
3.55782e-17
4.16342e-17
1.83412e-17
4.57872e-18
4.39566e-21
2.06571e-21
2.83515e-22
5.83351e-16
2.23927e-16
3.58147e-17
4.40073e-21
2.06722e-21
5.26234e-22
)
;

boundaryField
{
    fuel
    {
        type            fixedValue;
        value           uniform 0;
    }
    primary_air
    {
        type            fixedValue;
        value           uniform 0.23;
    }
    Secondary_air_RHS
    {
        type            fixedValue;
        value           uniform 0.23;
    }
    Secondary_air_LHS
    {
        type            fixedValue;
        value           uniform 0.23;
    }
    outlet
    {
        type            inletOutlet;
        inletValue      uniform 0;
        value           nonuniform List<scalar> 
18
(
0
5.83351e-16
0
0
2.23927e-16
0
0
3.58147e-17
0
0
3.76397e-17
0
0
2.42862e-16
0
0
5.45961e-16
0
)
;
    }
    stove_body
    {
        type            fixedValue;
        value           uniform 0;
    }
    frontAndBack
    {
        type            empty;
    }
}


// ************************************************************************* //
