/*--------------------------------*- C++ -*----------------------------------*\
  =========                 |
  \\      /  F ield         | OpenFOAM: The Open Source CFD Toolbox
   \\    /   O peration     | Website:  https://openfoam.org
    \\  /    A nd           | Version:  6
     \\/     M anipulation  |
\*---------------------------------------------------------------------------*/
FoamFile
{
    version     2.0;
    format      ascii;
    class       surfaceScalarField;
    location    "2";
    object      phi;
}
// * * * * * * * * * * * * * * * * * * * * * * * * * * * * * * * * * * * * * //

dimensions      [1 0 -1 0 0 0 0];

internalField   nonuniform List<scalar> 
675
(
1.53473e-06
-0.000209659
0.000325635
-1.59404e-06
-0.000212963
0.000333603
-0.000209826
0.000325747
6.57647e-06
0.000209659
-0.000233122
-5.91696e-06
0.000212963
-0.000220651
0.000209826
-0.000232784
1.53542e-06
0.000325639
-1.59345e-06
0.000333606
0.000325751
1.7302e-06
1.31071e-05
0.000310823
-1.83765e-06
1.77675e-05
0.000319424
1.30003e-05
0.000310934
-3.28425e-06
-1.31056e-05
-0.000203683
3.48002e-06
-1.7766e-05
-0.000191949
-1.29983e-05
-0.000203366
1.73093e-06
0.000310828
-1.83698e-06
0.000319429
0.000310939
1.29331e-06
0.000192048
-1.56995e-06
0.000204784
0.000191881
-1.23738e-05
-0.000192049
1.23975e-05
-0.000204786
-0.000191882
1.29427e-06
-1.56902e-06
-0.00618102
0.00601334
0.00336635
0.00624302
0.00276408
-0.0119886
0.00601372
0.00342722
0.000835138
-0.00600615
0.0164387
-0.000827173
-0.00273589
0.0124152
-0.00600419
0.0164438
-0.00621473
0.00340782
0.0062534
-0.0120051
0.00344767
-0.000173719
0.00852084
-0.00498373
-0.000167322
0.00434475
-0.01638
0.0085368
-0.00527927
-0.00168394
-0.0085341
0.0351748
0.00143712
-0.00447696
0.0181111
-0.00853071
0.0349458
-0.000103516
-0.0050233
-0.000143171
-0.0164025
-0.00522667
0.00425215
0.0168888
-0.0261272
-0.00364661
0.00842731
-0.0169777
0.0170865
-0.0260158
-0.0364742
-0.0169617
0.105501
0.0364345
-0.00851835
-0.0378539
-0.0170046
0.105471
0.00408414
-0.0260658
-0.00386818
-0.0168982
-0.0260968
-0.00411155
-0.00895569
-0.0211138
0.0341756
0.0042308
0.00800663
-0.0307786
0.0144151
-0.00893678
-0.0208733
0.0340412
0.0193062
0.00893644
0.0429667
-0.0801649
-0.0194018
-0.00801235
0.00279312
0.0519337
0.00894164
0.0429322
-0.0802128
-0.00416511
-0.0210051
0.0341063
0.00419949
-0.0307736
0.0144084
-0.0209825
0.0341227
0.00153337
-0.00578491
-0.0168622
-0.00147589
-0.00276971
-0.0250022
-0.00573492
-0.0166142
0.00882724
0.00574589
0.0226031
-0.00882644
0.00276
0.0149152
0.00576192
0.0226096
0.00150286
-0.0167641
-0.00150037
-0.0250127
-0.0167231
0.00242939
-0.00287478
-0.0164135
-0.0029617
-0.00100314
-0.0186053
-0.00310169
-0.0164741
-0.0101295
0.00295886
0.0268989
0.0104017
0.00100528
-0.00762559
0.00302286
0.0268853
0.00263645
-0.0164451
-0.00275979
-0.0186173
-0.016465
0.000700895
-0.0024551
-0.0286167
-0.000660093
-0.00183225
-0.0137836
-0.00241268
-0.0285074
-0.00327657
0.0024416
0.0970621
0.00327267
0.00174992
-0.0479855
0.00242862
0.0970837
0.000691336
-0.0285566
-0.00067583
-0.0137797
-0.028585
0.000194659
-0.0012826
-0.0317694
-0.000165335
-0.00107753
-0.0123392
-0.00126288
-0.0316505
-0.00151227
0.00127789
0.0892084
0.0015074
0.00104466
-0.0531243
0.00126831
0.0892546
0.000188286
-0.0317057
-0.000176026
-0.0123762
-0.0317315
9.77608e-05
-0.00192981
-7.49049e-05
0.00225186
-0.00192226
-0.00162967
0.00192579
0.00162358
-0.00219462
0.00192592
8.81181e-05
-7.88925e-05
0.00453754
-0.00352913
-0.00480717
-0.0126142
-0.00461555
-0.000946113
-0.00850651
-0.00358569
-0.00485703
-0.0126498
-0.00128579
0.00355006
0.00945412
0.0116509
0.00133507
0.00094673
-0.0121404
0.00356571
0.00935805
0.0117092
0.00456553
-0.00482206
-0.0126395
-0.00459278
-0.0085137
-0.00485137
-0.0126397
0.00436316
0.0001695
0.00101453
-0.010354
-0.00450349
0.00164283
-0.0012835
0.000148909
0.000884646
-0.0103983
-0.000824857
-0.000163098
0.000732189
0.00987776
0.00085264
-0.00164327
-0.0105334
-0.000157747
0.000601822
0.00991347
0.00440458
0.000988355
-0.0103792
-0.00447109
-0.00128278
0.000911087
-0.0103899
0.00226264
0.00243026
-0.00367802
-0.00214426
0.00312224
0.00243752
-0.00370216
0.00218656
-0.00243308
0.00340939
-0.00210077
-0.00312549
-0.00244067
0.00337669
0.00223976
-0.00368561
-0.00217002
-0.00369794
-0.012287
-0.00190033
0.0015361
-0.0131291
-0.00073906
0.00158065
-0.000789545
0.00141683
-0.0137555
0.00798364
0.00189658
-7.16691e-05
0.00649695
0.000736551
1.18762e-05
0.000788241
0.00345453
0.0014675
-0.0122764
0.0015358
-0.013118
0.00158205
0.0014189
-0.0137444
-0.0100739
-0.00188014
0.00309015
-0.0103115
-0.000449031
0.00226651
-0.000165596
0.000828135
-0.00955694
0.00898737
0.00187647
-0.00290245
0.00747529
0.000444792
0.000631359
0.00016338
0.00619941
0.0044013
-0.0100665
0.00309169
-0.0103037
0.00226789
0.000835991
-0.00955324
-0.000931622
0.000317689
0.000500321
0.000833429
0.000482625
0.000844979
0.00111126
-0.000319509
0.00340955
-0.000833414
-0.000477365
0.0105733
-0.000923215
0.000514982
0.000876894
0.0130968
-0.000789675
0.00141043
-0.0137177
0.012258
-0.000733092
0.00157186
-0.00189349
0.00153735
-0.00644357
0.000786419
0.00341418
0.00145329
-0.00790225
0.000732442
-6.87523e-06
0.00189974
-4.46998e-05
0.0131261
0.00140593
-0.0137455
0.0122829
0.00157562
0.00154288
0.0102821
-0.000163265
0.000828517
-0.00953707
0.0100395
-0.000443217
0.00225757
-0.00187356
0.00309646
-0.00745115
0.000157084
0.00616616
0.0043788
-0.0089539
0.000442227
0.000610292
0.00188022
-0.00287485
0.0102994
0.000815192
-0.00955154
0.0100583
0.00225887
0.00310204
-0.000528029
0.000475982
0.000880511
0.000899504
0.000830019
0.000317976
-0.00343993
-0.000480675
0.0105627
-0.00116977
-0.000829925
-0.000317302
-0.000527804
0.000862374
0.000901077
0.00845353
0.000574895
-0.00902847
0.0138054
-0.000764378
-0.0045877
0.000189867
-0.000102467
0.0060395
-0.000576102
-0.00488856
0.00238843
0.00075741
0.00212927
-0.000190118
0.00422171
0.0084641
-0.00904009
0.0138262
-0.00460452
-0.000109386
0.00607073
0.000446214
-0.0155454
0.00926892
-0.000413288
-0.00737296
0.000527475
-0.000898235
0.00494123
-0.000452459
-0.00893109
3.38872e-05
0.000413307
0.00620999
-0.000528283
0.00969016
0.00607131
-0.0155637
0.00927388
-0.00739365
-0.000915228
0.00550467
0.00275682
-0.023807
0.00494231
-0.00100988
-0.00580065
-8.78038e-05
0.00501242
0.00186923
-0.00276795
-0.00527544
-0.00598437
0.00102093
0.0120328
8.25027e-05
0.0140981
0.00550196
-0.0238335
0.00496638
-0.00583704
0.0049961
0.00242544
0.00776227
-0.0339945
0.00571863
0.00343977
-0.0125333
0.00291151
0.00781976
0.0102107
-0.00777527
5.18266e-05
0.0106206
-0.00344477
0.0185078
-0.00292242
0.0305531
0.00240378
-0.0340123
0.005735
-0.0126127
0.00780899
-0.0141731
0.00994859
-0.0297697
-0.0132266
0.00658154
-0.0200611
0.00648535
-0.011892
-0.00140454
-0.00995401
0.0213593
-0.0048093
-0.00656792
0.0350623
-0.00647713
0.0387066
-0.0141703
-0.0297958
-0.0132434
-0.0201074
-0.0119113
-0.0075099
0.0218095
-0.00672424
0.0209665
0.0223248
-0.00809308
-0.0218
-0.00823461
-0.020937
-0.0223098
-0.0075029
-0.00672985
-0.013838
0.000189999
-0.000106786
-0.00847197
-0.000754292
-0.00461246
0.000578584
-0.00905296
-0.00238262
-0.00018966
0.00423228
-0.00605012
0.000762542
0.0021536
-0.000577402
-0.00489134
-0.0138305
-0.000100421
-0.00846775
-0.00459743
-0.00904245
-0.00928058
0.000529083
-0.000913192
-0.00607344
-0.00041305
-0.00741033
0.000455142
-0.0155853
-3.95758e-05
-0.000528489
0.00973304
-0.0049539
0.000413474
0.0062438
-0.000450046
-0.00893855
-0.00928424
-0.000895083
-0.00607924
-0.00738633
-0.0155698
-0.0049853
-8.07348e-05
0.00499503
-0.0055055
-0.00102604
-0.00586924
0.00276867
-0.0238456
0.00597401
8.67708e-05
0.0141653
-0.00188291
0.00101434
0.0120613
-0.00276148
-0.00529074
-0.00495664
0.00502678
-0.00550906
-0.00581887
-0.0238439
-0.00577523
0.0029537
0.00781406
-0.00244615
0.00343953
-0.0126392
0.0077909
-0.0340467
-0.0106006
-0.00292944
0.0306507
-0.0102
-0.00342371
0.018518
-0.00776285
6.28746e-05
-0.00573662
0.00781169
-0.0024123
-0.0125796
-0.0340633
0.0132629
0.00646983
-0.0119084
0.0141963
0.00656339
-0.0201164
0.00991781
-0.0298052
0.00486248
-0.00648888
0.0387492
0.00155009
-0.00658826
0.0351183
-0.00990975
0.0214466
0.0132387
-0.0118932
0.0141561
-0.0200697
-0.0297634
0.0067548
0.0222978
0.00751914
0.020958
0.0217969
0.00825162
-0.0223061
0.00812148
-0.0209739
-0.0217787
0.00674474
0.00751821
)
;

boundaryField
{
    fuel
    {
        type            calculated;
        value           nonuniform List<scalar> 
36
(
0.000117494
0.000192738
0.000117494
0.000117494
0.000192738
0.000117494
0.000117494
0.000192738
0.000117494
-0.000117495
-0.000192737
-0.000117495
-0.000117495
-0.000192737
-0.000117495
-0.000117495
-0.000192737
-0.000117495
0
0
0
0
0
0
0
0
0
0
0
0
0
0
0
0
0
0
)
;
    }
    primary_air
    {
        type            calculated;
        value           nonuniform List<scalar> 9(-0.00319844 -0.00525344 -0.00319844 -0.00319911 -0.00525297 -0.00319911 -0.00319847 -0.00525344 -0.00319846);
    }
    Secondary_air_RHS
    {
        type            calculated;
        value           nonuniform List<scalar> 9(0.00424241 0.00681834 0.00424243 0.00423953 0.00680537 0.00423956 0.00423802 0.00681725 0.00423806);
    }
    Secondary_air_LHS
    {
        type            calculated;
        value           nonuniform List<scalar> 9(0.00424248 0.0068185 0.00424245 0.00423965 0.00680557 0.00423963 0.00423816 0.00681746 0.00423816);
    }
    outlet
    {
        type            calculated;
        value           nonuniform List<scalar> 
18
(
-0.0409636
0.0750859
-0.0409545
-0.0418411
0.0771456
-0.0418276
-0.0440852
0.0731208
-0.0440344
-0.0440691
0.0730622
-0.0440926
-0.041813
0.0771077
-0.0418173
-0.0409408
0.0751069
-0.0409508
)
;
    }
    stove_body
    {
        type            calculated;
        value           uniform 0;
    }
    frontAndBack
    {
        type            empty;
        value           nonuniform 0();
    }
}


// ************************************************************************* //
