/*--------------------------------*- C++ -*----------------------------------*\
  =========                 |
  \\      /  F ield         | OpenFOAM: The Open Source CFD Toolbox
   \\    /   O peration     | Website:  https://openfoam.org
    \\  /    A nd           | Version:  6
     \\/     M anipulation  |
\*---------------------------------------------------------------------------*/
FoamFile
{
    version     2.0;
    format      ascii;
    class       volScalarField;
    location    "2";
    object      T;
}
// * * * * * * * * * * * * * * * * * * * * * * * * * * * * * * * * * * * * * //

dimensions      [0 0 0 1 0 0 0];

internalField   nonuniform List<scalar> 
297
(
293.462
292.024
293.46
299.806
297.198
299.801
293.462
292.024
293.46
293.501
292.066
293.499
309.323
302.647
309.32
293.501
292.066
293.5
296.318
293.875
296.312
310.461
303.439
310.457
296.318
293.875
296.312
295.577
301.108
295.578
294.389
296.937
294.39
295.636
301.264
295.636
305.899
303.913
306.186
301.061
299.683
301.223
306.009
304.102
306.182
309.548
303.91
309.835
304.366
306.654
304.49
309.619
304.097
309.755
302.803
299.594
302.979
310.89
308.546
311.048
302.849
299.566
302.932
301.61
299.467
301.802
310.884
310.638
311.04
301.642
299.439
301.714
299.559
298.055
299.75
309.641
307.104
309.723
299.657
298.054
299.701
309.814
301.497
310.106
307.301
307.981
307.442
309.884
301.895
310.023
307.443
299.815
306.785
307.881
307.996
308.026
307.503
300.12
306.724
305.671
299.354
305.874
309.853
308.09
310.009
305.721
299.679
305.82
298.414
297.897
298.466
309.217
300.172
309.279
298.489
297.901
298.502
296.787
296.893
296.804
308.138
300.175
308.21
296.729
297.019
296.84
296.631
296.721
296.742
300.815
300.223
300.715
296.595
296.71
296.771
297.014
295.804
294.726
309.237
309.29
309.287
297.063
295.854
294.776
296.961
295.284
294.89
306.409
306.525
308.024
296.984
295.321
294.923
296.653
295.464
295.209
300.559
300.301
303.932
296.714
295.493
295.209
294.95
295.518
296.962
309.23
309.23
309.178
294.728
295.369
297.064
294.877
295.253
296.913
308.067
306.48
306.374
294.8
295.21
296.923
295.24
295.431
296.574
303.631
300.246
300.609
295.089
295.365
296.527
294.835
294.987
294.392
298.436
298.477
302.151
294.94
295.054
294.456
294.683
294.985
294.729
298.534
298.589
304.338
294.804
295.012
294.747
294.22
295.132
295.165
298.528
300.794
303.98
294.265
295.086
295.091
293.966
294.434
292.862
298.788
298.721
300.263
294.053
294.266
292.737
292.838
293.796
294.201
298.594
296.968
297.462
292.912
293.603
294.153
288.89
288.383
288.389
285.541
283.527
284.529
288.892
288.387
288.392
294.453
295.053
294.94
302.26
298.533
298.509
294.503
295.102
294.992
294.784
295.049
294.795
304.382
298.618
298.59
294.811
295.072
294.839
295.182
295.181
294.385
304.047
300.833
298.573
295.199
295.172
294.274
292.861
294.41
293.955
299.024
299.062
298.803
292.861
294.417
294.007
294.199
293.793
292.711
296.946
296.577
298.428
294.222
293.814
292.535
288.398
288.394
288.895
284.633
283.149
285.411
288.397
288.392
288.892
)
;

boundaryField
{
    fuel
    {
        type            fixedValue;
        value           uniform 293;
    }
    primary_air
    {
        type            fixedValue;
        value           uniform 293;
    }
    Secondary_air_RHS
    {
        type            fixedValue;
        value           uniform 293;
    }
    Secondary_air_LHS
    {
        type            fixedValue;
        value           uniform 293;
    }
    outlet
    {
        type            inletOutlet;
        inletValue      uniform 293;
        value           nonuniform List<scalar> 
18
(
293
284.632
293
293
283.151
293
293
285.411
293
293
285.541
293
293
283.527
293
293
284.529
293
)
;
    }
    stove_body
    {
        type            fixedValue;
        value           uniform 293;
    }
    frontAndBack
    {
        type            empty;
    }
}


// ************************************************************************* //
