/*--------------------------------*- C++ -*----------------------------------*\
  =========                 |
  \\      /  F ield         | OpenFOAM: The Open Source CFD Toolbox
   \\    /   O peration     | Website:  https://openfoam.org
    \\  /    A nd           | Version:  6
     \\/     M anipulation  |
\*---------------------------------------------------------------------------*/
FoamFile
{
    version     2.0;
    format      ascii;
    class       volVectorField;
    location    "2";
    object      U;
}
// * * * * * * * * * * * * * * * * * * * * * * * * * * * * * * * * * * * * * //

dimensions      [0 1 -1 0 0 0 0];

internalField   nonuniform List<vector> 
297
(
(118.629 0.0164588 0.264967)
(118.5 -3.52559e-05 0.271994)
(118.63 -0.0165104 0.265026)
(4.96174e-08 0.103999 -0.529141)
(3.30171e-09 0.00107803 -0.548616)
(1.2193e-08 -0.102924 -0.529126)
(-118.629 0.0164606 0.264972)
(-118.5 -3.18928e-05 0.271999)
(-118.63 -0.016509 0.265031)
(118.564 0.00114216 0.597022)
(118.349 -0.000284818 0.610254)
(118.566 -0.00144509 0.597279)
(3.41994e-08 0.0195855 -0.314527)
(3.54399e-08 -0.00012424 -0.30568)
(3.86969e-09 -0.0195566 -0.314459)
(-118.564 0.00114419 0.59703)
(-118.349 -0.000281031 0.610261)
(-118.566 -0.0014434 0.597288)
(111.973 -0.0202838 0.922258)
(111.253 -0.000773181 0.939829)
(111.98 0.0194695 0.922541)
(2.58124e-08 0.00568042 0.518767)
(5.76964e-08 -0.000303284 0.555592)
(-7.14032e-09 -0.00591525 0.519397)
(-111.973 -0.0202806 0.922262)
(-111.252 -0.0007682 0.939833)
(-111.98 0.0194713 0.922545)
(79.5057 -3.05113 -5.41188)
(81.5909 0.0302203 -8.94716)
(79.5129 3.11259 -5.47068)
(2.2644e-05 -1.50677 2.96811)
(-2.61157e-06 -0.0103078 3.11453)
(-8.09226e-05 1.54014 2.98936)
(-79.5189 -3.07526 -5.50435)
(-81.6306 0.00997663 -8.97609)
(-79.5233 3.1233 -5.52278)
(83.3282 3.8423 12.0506)
(82.9775 0.12431 -14.9911)
(83.4025 -4.40298 11.7977)
(4.04747e-05 2.34457 29.3068)
(-0.000301097 0.0692113 16.8023)
(-0.000172782 -2.67883 29.2535)
(-83.3578 3.95281 12.0508)
(-82.8237 0.0539789 -15.0402)
(-83.4034 -4.32094 11.928)
(83.6825 15.4785 -7.26893)
(82.4534 0.251887 -15.9368)
(83.765 -15.2016 -6.9141)
(0.000520455 -1.48754 36.1)
(-0.000436824 0.0305821 0.350132)
(-0.000486941 1.43674 36.0945)
(-83.7025 15.3633 -7.1183)
(-82.331 0.1149 -15.9802)
(-83.7411 -15.3225 -7.15124)
(82.0009 5.39795 -27.9464)
(81.6285 -0.200633 -18.9697)
(82.0524 -4.95079 -27.8402)
(3.56451e-05 3.04025 -1.22957)
(9.39627e-05 -0.046382 -10.0495)
(0.00030083 -3.08102 -1.19495)
(-82.0151 5.21911 -27.8872)
(-81.6085 -0.0418727 -18.9749)
(-82.0364 -5.12015 -27.9079)
(82.038 11.494 -18.6121)
(81.3485 -0.264362 -24.7589)
(82.1015 -11.0328 -18.4208)
(-0.000571096 3.12511 2.53102)
(-5.45262e-08 0.0154952 1.1627)
(0.000437465 -3.20621 2.53512)
(-82.052 11.3224 -18.5332)
(-81.3414 -0.0643274 -24.7686)
(-82.0725 -11.2165 -18.5092)
(81.5714 18.1021 -26.6012)
(80.9347 -0.459303 -26.3115)
(81.6196 -17.862 -26.5086)
(-0.000535547 0.328219 11.2673)
(0.000174941 0.0885104 3.0454)
(0.000799682 -0.298344 11.2665)
(-81.5969 18.0335 -26.5819)
(-80.9335 -0.115486 -26.3263)
(-81.6063 -17.9528 -26.5636)
(76.3913 18.9673 -22.7318)
(78.0293 0.0702347 -12.7899)
(76.5262 -18.4751 -22.6707)
(-0.000136531 -0.483273 45.6597)
(-7.39597e-05 0.00596544 -24.8269)
(9.41149e-05 0.435037 45.6897)
(-76.4265 18.7717 -22.6992)
(-75.6846 0.0582033 -12.7548)
(-76.4751 -18.6459 -22.7143)
(74.2675 11.3857 -27.506)
(79.0773 -0.0290422 -10.329)
(74.1871 -10.8698 -27.38)
(-0.000106814 0.229478 49.2877)
(0.000270605 0.000608319 -23.6872)
(0.000132399 -0.276932 49.3346)
(-74.299 11.1901 -27.4524)
(-77.8941 0.0339461 -10.3765)
(-74.1443 -11.0526 -27.4501)
(69.6165 9.12005 -27.3221)
(80.5848 -0.0602157 -11.7827)
(69.7059 -8.65294 -27.2111)
(-3.07775e-06 0.790025 47.9684)
(0.000948023 -0.00367228 -19.8665)
(0.000168057 -0.837147 48.0205)
(-69.6413 8.93393 -27.2692)
(-82.3434 0.0197396 -11.8052)
(-69.654 -8.82423 -27.2751)
(79.3247 29.9244 -6.70344)
(79.9711 -0.209885 -9.08665)
(79.327 -29.9933 -6.78252)
(-4.89621e-05 -7.80785 11.3281)
(0.000515976 0.02587 -6.6458)
(0.000910875 7.95377 11.3135)
(-79.338 29.987 -6.73884)
(-79.9698 -0.0875857 -9.09382)
(-79.3374 -29.9776 -6.76054)
(80.017 25.3757 -1.72211)
(80.3495 -0.371743 -4.25846)
(80.0177 -25.4819 -1.74868)
(6.13893e-05 -9.42874 3.04762)
(0.000602586 0.00793077 -5.1672)
(0.000947886 9.55027 2.99468)
(-79.9986 25.4333 -1.72133)
(-80.3815 -0.189607 -4.26003)
(-80.0251 -25.4629 -1.74921)
(80.5733 5.89598 2.53338)
(80.7504 0.200427 -1.26287)
(80.6055 -5.70182 2.44426)
(0.000155138 -1.69183 -1.70862)
(0.000650297 0.230961 -1.29529)
(0.000942193 1.55077 -1.8454)
(-80.5632 5.84047 2.52356)
(-80.7455 0.118955 -1.26602)
(-80.6094 -5.74103 2.45409)
(77.7416 -31.8269 -1.3227)
(78.9489 -39.2998 -5.22588)
(79.0486 -41.6494 -7.3723)
(0.000157909 17.876 9.05901)
(-0.000427308 15.0284 7.9399)
(-0.000843106 12.6708 10.3477)
(-77.7554 -31.8026 -1.31216)
(-78.9687 -39.2762 -5.20705)
(-79.0693 -41.6308 -7.35053)
(78.0167 -26.3908 4.43741)
(79.3747 -32.0838 3.59372)
(79.9643 -33.3824 0.729875)
(0.000232348 16.3891 -3.88967)
(-0.000316415 15.1953 -4.76168)
(-0.00078496 15.7453 2.85318)
(-78.0219 -26.3704 4.4362)
(-79.3883 -32.0664 3.59308)
(-79.9784 -33.3674 0.729303)
(80.1422 -7.90699 8.59439)
(80.4749 -4.31831 9.34456)
(80.4458 6.80678 10.6857)
(0.000217588 2.36545 -4.34353)
(-0.000277679 2.16027 3.37096)
(-0.00085687 16.6314 6.95204)
(-80.1566 -7.87898 8.5901)
(-80.4817 -4.28303 9.33098)
(-80.4415 6.78028 10.6774)
(79.1113 41.5464 -7.33766)
(78.8816 39.2062 -5.21163)
(77.7403 31.7344 -1.3094)
(9.52929e-05 -12.6082 10.3289)
(0.000163419 -14.8898 7.94976)
(0.000222379 -17.782 9.104)
(-79.0523 41.6192 -7.38435)
(-78.8398 39.2798 -5.24883)
(-77.7582 31.799 -1.32359)
(79.961 33.2936 0.715616)
(79.3731 31.9903 3.575)
(78.0182 26.2891 4.43528)
(-5.02515e-05 -15.6994 2.81595)
(-5.57777e-05 -15.15 -4.76432)
(6.49352e-05 -16.3446 -3.8424)
(-79.9449 33.3523 0.693886)
(-79.3619 32.0547 3.57652)
(-78.0125 26.3465 4.44697)
(80.4484 -6.78155 10.6419)
(80.4666 4.20832 9.29449)
(80.1258 7.79426 8.59209)
(8.45881e-06 -16.6074 6.8814)
(-9.40892e-05 -2.24048 3.30422)
(3.64474e-05 -2.44088 -4.27981)
(-80.4103 -6.86334 10.6748)
(-80.4485 4.24184 9.33388)
(-80.1117 7.82292 8.6193)
(77.7123 18.2543 -22.1663)
(76.8163 23.2183 -15.7911)
(79.1288 37.8226 -12.7493)
(0.000814704 9.40186 -7.51635)
(0.000693054 7.70017 -0.486198)
(0.000352695 5.66276 6.26666)
(-77.7351 18.2904 -22.2106)
(-76.8371 23.2591 -15.8394)
(-79.1437 37.8704 -12.7951)
(78.1974 5.33255 -36.6033)
(78.073 14.0629 -21.7726)
(80.1322 27.4215 -3.33475)
(0.000873495 4.06474 -11.5379)
(0.000662723 6.12728 3.57697)
(0.000263559 1.11757 12.7497)
(-78.2311 5.35709 -36.6227)
(-78.0746 14.0365 -21.8173)
(-80.1356 27.4403 -3.34392)
(81.3702 2.31132 -46.0616)
(77.6416 7.75794 -15.9476)
(79.6161 13.6995 4.37393)
(0.000880159 3.45493 -15.4927)
(0.000553055 -4.55532 17.0358)
(0.000242069 -14.3438 17.4474)
(-81.3894 2.32841 -46.0789)
(-77.6086 7.71123 -16.0314)
(-79.6015 13.8717 4.32022)
(80.5281 -8.35657 -60.9823)
(79.9794 -0.600305 -5.53974)
(79.4294 10.5332 63.5455)
(0.000285538 -7.58388 9.7426)
(0.00021768 7.30158 35.8021)
(0.000221603 -2.63027 58.9003)
(-80.5524 -8.36761 -60.9962)
(-79.9326 -0.641326 -5.74815)
(-79.3955 10.6093 63.5322)
(78.7764 -1.59502 -83.6532)
(78.2044 -9.27974 -38.8638)
(78.1495 0.0258328 -0.446204)
(-0.00057347 -0.848747 29.6431)
(-0.000542273 -1.1818 66.5742)
(-0.000476462 -1.16732 86.5129)
(-78.8018 -1.58485 -83.7293)
(-78.1538 -9.28222 -39.0899)
(-78.1382 0.0380515 -0.546302)
(74.4 -1.7828 -124.443)
(73.9412 -2.89367 -116.523)
(74.1755 -1.51602 -113.544)
(-0.000973755 -1.98058 177.401)
(-0.000978386 -2.92729 186.362)
(-0.000969812 -1.72931 181.921)
(-74.404 -1.78455 -124.525)
(-73.9401 -2.89337 -116.535)
(-74.1782 -1.51757 -113.576)
(79.1402 -37.8975 -12.7965)
(76.8372 -23.2797 -15.847)
(77.7336 -18.3127 -22.221)
(-0.00101151 -5.64499 6.25345)
(-0.0010823 -7.73041 -0.434206)
(-0.0012486 -9.42746 -7.506)
(-79.1566 -37.8972 -12.7706)
(-76.843 -23.2693 -15.8211)
(-77.7487 -18.2979 -22.2049)
(80.1449 -27.4616 -3.33494)
(78.0821 -14.0289 -21.8526)
(78.2176 -5.37418 -36.6802)
(-0.00115826 -1.10186 12.8145)
(-0.00164657 -6.16583 3.61839)
(-0.00236161 -4.08551 -11.5503)
(-80.1544 -27.4717 -3.32875)
(-78.0896 -14.0778 -21.8167)
(-78.2399 -5.34739 -36.6702)
(79.6284 -13.9664 4.30827)
(77.6177 -7.70579 -16.1142)
(81.4035 -2.3518 -46.1481)
(-0.00144586 14.3642 17.5303)
(-0.00241429 4.51815 17.0895)
(-0.00408474 -3.47893 -15.5315)
(-79.6258 -13.768 4.38882)
(-77.6403 -7.75186 -16.0006)
(-81.3964 -2.31289 -46.1486)
(79.4225 -10.6512 63.5317)
(79.9637 0.637351 -5.91866)
(80.5157 8.35866 -61.0886)
(-0.00294828 2.63928 58.9216)
(-0.00301077 -7.31876 35.8202)
(-0.00344303 7.59504 9.71983)
(-79.4317 -10.5701 63.5867)
(-79.9781 0.616652 -5.64392)
(-80.5451 8.37026 -61.1063)
(78.1572 -0.0572734 -0.500933)
(78.2115 9.31032 -39.1022)
(78.7581 1.5926 -83.8369)
(0.00457793 1.17644 86.5236)
(0.00481907 1.20999 66.6076)
(0.00558039 0.872363 29.7785)
(-78.1502 -0.0412681 -0.469449)
(-78.2043 9.29032 -38.9421)
(-78.6834 1.58368 -83.8196)
(74.1826 1.52324 -113.621)
(73.9502 2.89905 -116.619)
(74.4096 1.78824 -124.5)
(0.000939588 1.73232 181.932)
(0.000956725 2.93482 186.209)
(0.00100301 1.98782 177.467)
(-74.1805 1.52 -113.589)
(-73.95 2.89881 -116.571)
(-74.4022 1.78699 -124.316)
)
;

boundaryField
{
    fuel
    {
        type            fixedValue;
        value           uniform (0 0 0.25);
    }
    primary_air
    {
        type            fixedValue;
        value           uniform (0 0 2.5);
    }
    Secondary_air_RHS
    {
        type            fixedValue;
        value           uniform (0 33.3333 0);
    }
    Secondary_air_LHS
    {
        type            fixedValue;
        value           uniform (0 -33.3333 0);
    }
    outlet
    {
        type            pressureInletOutletVelocity;
        value           nonuniform List<vector> 
18
(
(0 0 -113.621)
(0.000939588 1.73232 181.932)
(0 0 -113.589)
(0 0 -116.619)
(0.000956725 2.93482 186.209)
(0 0 -116.571)
(0 0 -124.5)
(0.00100301 1.98782 177.467)
(0 0 -124.316)
(0 0 -124.443)
(-0.000973755 -1.98058 177.401)
(0 0 -124.525)
(0 0 -116.523)
(-0.000978386 -2.92729 186.362)
(0 0 -116.535)
(0 0 -113.544)
(-0.000969812 -1.72931 181.921)
(0 0 -113.576)
)
;
    }
    stove_body
    {
        type            noSlip;
    }
    frontAndBack
    {
        type            empty;
    }
}


// ************************************************************************* //
