/*--------------------------------*- C++ -*----------------------------------*\
  =========                 |
  \\      /  F ield         | OpenFOAM: The Open Source CFD Toolbox
   \\    /   O peration     | Website:  https://openfoam.org
    \\  /    A nd           | Version:  6
     \\/     M anipulation  |
\*---------------------------------------------------------------------------*/
FoamFile
{
    version     2.0;
    format      ascii;
    class       volScalarField;
    location    "1";
    object      O2;
}
// * * * * * * * * * * * * * * * * * * * * * * * * * * * * * * * * * * * * * //

dimensions      [0 0 0 0 0 0 0];

internalField   nonuniform List<scalar> 
297
(
0
0
0
0
0
0
0
0
0
0
0
0
0
0
0
0
0
0
0
0
0
0
0
0
0
0
0
0.132766
0.14146
0.0773402
0.188857
0.173235
0.174091
0.142266
0.141951
0.0775132
0
0.00276122
0
0.119896
0.169418
0.0834136
0
0.00346673
0
0
0.00172571
0
0.0575739
0.0362179
0.0413501
0
0.00218845
0
0.000167376
0.00065865
0.000173355
0
8.87901e-05
0
0.000302149
0.000857841
0.000304191
3.24341e-09
7.06456e-09
2.84322e-09
2.48119e-10
7.83978e-10
1.83593e-10
6.07604e-09
9.73474e-09
4.49076e-09
4.74846e-14
6.16999e-14
4.40192e-14
1.42861e-14
2.1861e-14
1.23976e-14
8.61529e-14
8.77412e-14
6.45619e-14
0
0.00168641
0
0.0162306
8.9767e-05
0.00712015
0
0.00213845
0
0
0.00167342
0
0
8.91062e-05
0
0
0.00212161
0
0
0.00163257
0
0
8.91604e-05
0
0
0.00206798
0
1.79452e-18
2.72399e-18
1.55426e-18
2.45678e-19
6.8933e-19
3.51491e-19
2.33196e-18
5.02635e-18
4.26267e-18
4.01514e-22
1.00113e-21
1.8625e-22
1.1609e-22
7.16136e-22
1.78679e-22
2.49292e-22
1.85023e-21
1.22984e-21
3.65959e-22
5.61036e-22
1.95498e-25
1.56167e-22
6.22314e-22
1.64874e-22
1.18264e-25
8.79705e-22
7.75053e-22
3.40602e-23
1.27015e-27
2.20568e-32
7.2544e-24
5.83202e-28
5.68016e-32
1.31055e-22
6.85788e-27
7.23722e-31
2.88856e-26
2.30469e-30
4.3565e-33
6.92069e-25
1.54624e-28
1.62638e-32
1.02866e-25
3.46969e-27
8.37053e-31
2.79188e-25
1.30174e-29
1.2391e-32
1.87127e-23
3.16294e-27
1.23183e-31
2.07427e-22
3.47081e-26
1.55038e-30
1.58467e-32
8.2215e-28
4.01693e-23
6.69256e-33
2.39907e-28
2.28295e-24
3.00687e-32
8.82744e-28
4.77462e-23
1.60405e-34
1.71254e-30
1.82225e-26
5.45308e-34
7.28792e-31
4.85157e-27
7.21454e-35
4.45557e-31
9.7671e-27
2.14584e-34
4.33833e-30
5.57348e-26
6.69025e-34
6.90353e-30
3.01987e-26
8.67442e-35
1.76722e-31
1.21477e-27
7.33548e-41
1.1559e-40
1.01043e-36
1.2042e-40
1.00711e-40
3.20041e-37
1.63086e-40
1.68198e-40
1.64375e-36
4.52917e-42
3.83837e-43
9.41013e-39
9.92208e-41
6.88095e-42
4.53049e-38
3.07056e-41
2.59144e-43
4.13708e-39
3.30854e-44
7.03641e-44
4.3837e-39
5.45212e-41
2.03316e-42
4.00652e-38
4.58456e-44
3.89225e-44
1.8679e-39
3.18827e-45
7.11645e-46
1.75028e-44
2.39974e-41
8.80813e-44
4.08602e-43
4.67163e-45
1.27569e-45
1.34403e-44
1.8007e-46
4.9895e-47
1.17441e-47
1.35618e-41
2.38083e-42
4.54045e-43
1.36907e-46
4.89718e-47
7.26834e-48
2.35257e-47
5.21187e-48
9.44848e-49
6.6145e-42
1.43148e-42
2.65329e-43
4.26604e-47
9.73901e-48
1.72799e-48
6.10587e-37
5.09275e-41
8.59474e-44
9.22871e-36
9.64004e-39
8.3472e-39
1.06453e-34
2.59826e-38
2.14316e-38
3.32428e-37
2.00707e-41
2.59057e-44
2.46959e-36
2.46086e-39
3.25006e-39
4.92733e-35
5.49828e-39
9.31301e-39
3.58578e-37
9.43977e-42
1.52015e-44
9.15236e-36
1.78287e-39
2.15113e-40
4.89854e-35
2.59102e-39
8.65862e-40
1.83158e-42
1.15955e-43
2.02173e-44
1.38215e-38
2.74155e-39
9.22003e-41
3.23609e-40
1.18173e-43
1.13746e-44
1.12464e-43
2.07201e-44
4.0406e-46
1.23542e-38
1.71468e-39
5.41028e-41
1.35586e-43
1.56444e-44
5.16324e-46
2.31504e-44
2.76382e-45
8.03407e-47
6.1974e-39
7.74402e-40
2.32957e-41
4.43446e-44
4.92635e-45
1.4229e-46
)
;

boundaryField
{
    fuel
    {
        type            fixedValue;
        value           uniform 0;
    }
    primary_air
    {
        type            fixedValue;
        value           uniform 0.23;
    }
    Secondary_air_RHS
    {
        type            fixedValue;
        value           uniform 0.23;
    }
    Secondary_air_LHS
    {
        type            fixedValue;
        value           uniform 0.23;
    }
    outlet
    {
        type            inletOutlet;
        inletValue      uniform 0;
        value           nonuniform List<scalar> 
18
(
0
6.1974e-39
0
0
7.74402e-40
0
0
2.32957e-41
0
0
6.6145e-42
0
0
1.43148e-42
0
0
2.65329e-43
0
)
;
    }
    stove_body
    {
        type            fixedValue;
        value           uniform 0;
    }
    frontAndBack
    {
        type            empty;
    }
}


// ************************************************************************* //
