/*--------------------------------*- C++ -*----------------------------------*\
  =========                 |
  \\      /  F ield         | OpenFOAM: The Open Source CFD Toolbox
   \\    /   O peration     | Website:  https://openfoam.org
    \\  /    A nd           | Version:  6
     \\/     M anipulation  |
\*---------------------------------------------------------------------------*/
FoamFile
{
    version     2.0;
    format      ascii;
    class       volScalarField;
    location    "1";
    object      p;
}
// * * * * * * * * * * * * * * * * * * * * * * * * * * * * * * * * * * * * * //

dimensions      [1 -1 -2 0 0 0 0];

internalField   nonuniform List<scalar> 
297
(
121490
121491
121490
202224
202225
202224
121490
121491
121490
121491
121491
121490
202224
202226
202224
121490
121491
121491
121491
121491
121490
202224
202226
202224
121491
121491
121491
97834.2
97831.3
97837.2
162538
162497
162486
97814.1
97810.7
97818.2
97970.2
97741
97905.8
162195
162397
162183
97946.4
97718.6
97875.8
97235.4
96845.8
97013.2
158175
160419
157981
97248.9
96835.3
96981.4
95469.4
96664.4
95650.2
159878
159194
160134
95452.5
96641.3
95693.6
97454.9
97528.6
97417
162281
161925
162222
97441.4
97523.9
97497.4
97515.1
97652.8
97479
162320
162355
162253
97446.1
97643
97664
90279.2
96183.7
91025.3
144785
156192
145137
90254.1
96179.1
91234
89754.3
96150.6
90501.4
143582
155854
144100
89723.2
96145.5
90748.9
90237.4
96195.5
90904.9
144819
156036
145424
90204
96188
91165.6
97760.3
97819.4
97722.8
162446
162483
162424
97665
97786.3
97756.7
97796.9
97822
97770.3
162511
162512
162494
97732.7
97791.8
97749.2
97804.4
97810.6
97772.7
162526
162523
162524
97745.6
97783.5
97743.7
97808.4
97887.9
98076.7
162499
162537
162572
97793.9
97881.7
98077.2
97751.4
97763.7
97902
162510
162516
162496
97732.1
97781.9
97913.7
97685.8
97605.2
97612.4
162542
162526
162472
97719.5
97706.6
97699.3
98221.6
97981.6
97871.2
162640
162559
162520
98235.9
97927.3
97794.1
98001.4
97851.2
97808.8
162521
162515
162523
97952.6
97750.9
97718.1
97729.8
97725.8
97771.8
162463
162514
162534
97600
97571.3
97655.7
98389.1
98424.3
98405.1
162899
162904
162807
98461
98502.3
98468.1
98333.6
98351.3
98235.8
162735
162743
162651
98403
98418.7
98260.6
98257.7
98289.8
98110.6
162495
162558
162485
98324.6
98361.3
98104.6
97534.4
97499.6
97462.7
161382
161399
161325
97500.7
97453.8
97409.6
93401
93363.7
93369.7
154107
154097
154091
93344.8
93308.3
93319.5
86689.6
86684
86685.6
138810
138795
138780
86629.4
86622.5
86621.8
98259.2
98381.6
98451.8
162624
162668
162709
98153.4
98079.7
98025.4
98132.5
98288.4
98386
162550
162606
162652
98040.7
98023
97992.1
98001.1
98209.9
98314.3
162483
162524
162558
97954.1
98019.2
97991.1
97602.8
97682.3
97715.8
161845
161894
161889
97747.1
97791.6
97813.3
93669.7
93639.1
93632.4
154924
154928
154927
93975.4
93976.5
94000
87154.9
87154
87153.5
139596
139605
139605
87300.7
87301.5
87306.9
)
;

boundaryField
{
    fuel
    {
        type            zeroGradient;
    }
    primary_air
    {
        type            zeroGradient;
    }
    Secondary_air_RHS
    {
        type            zeroGradient;
    }
    Secondary_air_LHS
    {
        type            zeroGradient;
    }
    outlet
    {
        type            totalPressure;
        rho             rho;
        psi             none;
        gamma           1;
        p0              uniform 100000;
        value           nonuniform List<scalar> 
18
(
90321.1
100000
90554.1
90296.2
100000
90545.9
90296.2
100000
90575.5
89958.7
100000
89899.3
89916.5
100000
89854.7
89944.6
100000
89880.5
)
;
    }
    stove_body
    {
        type            zeroGradient;
    }
    frontAndBack
    {
        type            empty;
    }
}


// ************************************************************************* //
