/*--------------------------------*- C++ -*----------------------------------*\
  =========                 |
  \\      /  F ield         | OpenFOAM: The Open Source CFD Toolbox
   \\    /   O peration     | Website:  https://openfoam.org
    \\  /    A nd           | Version:  6
     \\/     M anipulation  |
\*---------------------------------------------------------------------------*/
FoamFile
{
    version     2.0;
    format      ascii;
    class       surfaceScalarField;
    location    "1";
    object      phi;
}
// * * * * * * * * * * * * * * * * * * * * * * * * * * * * * * * * * * * * * //

dimensions      [1 0 -1 0 0 0 0];

internalField   nonuniform List<scalar> 
675
(
-5.47388e-06
-7.20584e-06
0.000140492
5.41527e-06
-3.88486e-05
0.000156508
-7.18531e-06
0.000140361
9.95831e-06
7.12788e-06
0.000191194
-9.96074e-06
3.87901e-05
0.000158283
7.15241e-06
0.000191201
-5.37002e-06
0.000140254
5.4316e-06
0.000156508
0.000140377
-2.63648e-06
-1.74786e-05
0.000160111
2.5162e-06
-4.65687e-05
0.000198149
-1.72699e-05
0.000159581
1.79447e-05
1.71391e-05
0.000139754
-1.79457e-05
4.65544e-05
0.00010229
1.73055e-05
0.000139811
-2.46395e-06
0.000159291
2.58752e-06
0.0001982
0.000159751
-2.063e-06
3.31554e-05
1.46001e-06
6.63356e-05
3.19738e-05
-1.07745e-05
-3.17201e-05
1.08192e-05
-6.63338e-05
-3.27649e-05
-1.48298e-06
2.05594e-06
-0.000987996
0.00676273
-0.00246417
-0.00509318
0.00663609
0.000707386
0.00447413
-0.00631539
0.00383996
-0.0065907
0.0149343
-0.00195127
-0.00632886
0.0241101
-0.00431301
0.0121705
-0.00123684
-0.00202572
-0.00522013
0.000887248
-0.00628555
0.010614
0.00685797
-0.019909
-0.0112463
0.000432567
0.0221659
0.00803608
-0.0255659
-0.00176832
-0.00653957
0.0301945
0.00174094
-0.000260957
0.0212707
-0.00793505
0.0299523
0.0103258
-0.0188672
-0.0114984
0.0224816
-0.0256854
0.00507503
0.0232253
-0.0481792
-0.00134566
0.000742169
0.0278739
0.0242575
-0.051134
-0.0499565
-0.0230426
0.126486
0.0474541
-0.000665699
-0.0747258
-0.0247447
0.12646
0.00526101
-0.0471444
-0.00113316
0.0282387
-0.0515238
-0.0238925
-0.0235684
-0.0194993
0.0669944
0.0247731
0.00723741
-0.0330961
-0.0227598
-0.0230928
-0.022513
0.070414
0.00824099
0.0239284
0.036144
-0.0918442
-0.0150111
-0.00685857
-0.052265
0.0896346
0.022038
0.0312201
-0.0913264
-0.0232807
-0.0187099
0.0659485
0.0252467
-0.0321622
-0.023179
-0.0237197
0.0710421
0.00695854
-0.013948
-0.012472
-0.00257357
0.000244622
-0.023803
-0.0108181
-0.0142288
0.0079914
0.0152149
-0.000953204
-0.0204686
-0.00020665
-0.0233098
0.00688495
-0.00689033
0.00749237
-0.0109545
-0.00112331
-0.0237412
-0.0179188
0.0122175
-0.00883119
-0.0158392
0.00109824
0.00187467
-0.0145198
0.00040583
-0.0135161
-0.00960886
0.0158267
-0.0160492
-0.0162524
0.00179777
-0.0166586
-0.00461065
-0.0181723
0.0190612
-0.0141704
0.0114162
-0.0142621
-0.0110931
-0.00057485
-0.00137615
-0.0541428
0.000631486
-0.000719396
0.027389
-0.00120269
-0.0572794
-0.00284155
0.00138069
0.113877
0.00232498
0.0007243
-0.0813342
0.00115115
0.113707
-0.000578227
-0.0530981
0.000632656
0.027754
-0.0577376
-0.000877358
-0.000520855
-0.0606131
0.000950036
-0.00038
0.0259435
-0.000431106
-0.0638318
-0.00172547
0.000525369
0.101967
0.00132432
0.000392777
-0.0851547
0.000385841
0.101581
-0.000877416
-0.0595613
0.00095005
0.0263212
-0.0643567
-0.00191409
0.000384768
0.00187704
-0.000605432
0.000490209
-0.0018122
-0.00037681
0.00143242
0.000631887
-0.000572203
-0.00189759
0.00187836
0.00342894
-0.00210383
-0.00542163
-0.0117361
-0.00650103
-0.00101388
-0.00356838
-0.00208452
-0.00590252
-0.0120237
0.00473456
0.00284615
-0.0122481
-0.013498
-0.00373854
0.00113556
-0.0103486
0.000658812
-0.0130067
-0.0116608
0.00934596
-0.00751455
-0.0131493
0.000225842
-0.00399904
-0.00167204
-0.00853065
0.00229355
0.000990531
-0.000124563
-0.00857416
-0.00489875
0.00147478
0.00215656
0.000117057
-0.00148798
-0.00942341
0.00108013
0.00033102
-0.00486257
-0.00781839
-0.0024257
-0.00128818
-0.00409282
-0.00115107
-0.00648005
-0.00769785
0.00450194
-0.0017413
-0.00993719
-0.00202205
0.00124391
0.00165197
-0.00649104
-0.00159547
0.00197834
-0.000499882
-0.00148112
0.00204944
0.00136505
-0.00432758
-0.000211688
-0.00106865
-0.00161597
-0.000180245
-0.00208755
-0.00171007
-0.00359874
0.00115108
-0.00395384
0.000314455
0.000262653
-0.0109978
-0.000736274
-0.000287391
-0.0114215
0.00127189
-0.000846357
0.00157605
-0.00429201
-0.00870393
-0.0116656
0.000360141
-0.00109747
-0.00905534
-0.00127046
-7.29349e-05
-0.00119475
0.00125091
-0.0075388
-0.00797679
-0.000191318
-0.00827964
-0.000965528
-0.00469458
-0.00477847
-0.00927394
-0.000713963
0.000279503
-0.00960729
0.000619527
-0.00113074
-0.000201342
-0.00480183
-0.00889495
-0.00869869
-0.000152557
-0.000663917
-0.00742757
-0.000669915
-5.96061e-05
0.000353192
0.000972199
-0.00770692
-0.00686937
3.69381e-05
-0.00691385
-0.00158883
-0.00555905
-0.00569479
-0.00397847
-6.71565e-05
-0.0051212
1.3838e-05
-0.00161051
-0.00831199
-0.00386285
-0.000472814
-0.00370486
-0.000208835
0.00131354
-0.00566038
-0.000170817
-0.00196648
-0.00621075
0.0105738
0.00125613
-0.00453793
-0.00729098
0.0105492
0.00136908
-0.00134242
-0.000527347
-0.000656949
0.0108657
-0.0011984
0.00145684
-0.00987178
0.0136072
-0.00125295
-0.000124611
0.000838555
-0.00126237
0.0121255
-0.00495931
-0.00836362
0.0118589
-0.000984525
-0.00044943
0.00855157
-0.000278999
-0.00540447
-0.00740509
0.00861599
0.000767006
-0.00217184
-5.71907e-05
-0.000555288
0.00778405
0.000639534
0.000900692
-0.00815018
0.00940214
-0.000545997
-0.000434674
0.000773993
-0.000515347
0.00999771
-0.00581658
-0.00849993
0.00993549
-0.00146643
0.000325309
0.00410301
-0.00158245
-0.00792417
0.00161809
0.000315096
0.000565514
0.00184699
0.00200884
-0.00454133
0.00167406
4.83683e-05
0.000102818
0.00493947
-0.00874635
0.00352326
-0.00178149
0.00146518
0.000316224
0.0018467
0.00160127
-0.00522953
0.000973691
-0.00641797
-0.00113373
-0.00155579
0.00415396
0.00532121
-0.00158199
-0.00327279
-0.00105139
-0.00252726
-0.00184293
0.00028698
0.00239474
-0.00581985
-0.00702018
-0.00093691
0.00146209
-0.000209275
0.00401307
0.00131721
-0.0114969
0.000468565
-0.0102786
0.000123984
-0.00153709
0.00702847
0.00524201
-0.0013049
-0.0057697
-0.000421366
-0.00454717
-0.000818474
-0.000431838
0.00480014
-0.0127435
-0.0111412
-0.00301427
0.00129101
0.00151386
0.00630578
0.00388742
-0.0247047
0.00149141
-0.0133884
-0.00053662
-0.00134735
0.0102028
0.00483538
-0.00435232
-0.00290266
-0.00123073
-0.00153251
-0.00345133
0.00167197
0.0070466
-0.0275939
-0.0140716
0.0107228
0.00817949
-0.0173877
-0.00119893
0.0105561
-0.0233377
0.0104737
-0.0250596
-0.00334234
-0.00781818
0.0295389
-0.00504679
-0.0103389
0.0196931
-0.00981537
0.0137065
0.0117711
-0.0179169
-0.00186638
-0.0242949
-0.0257527
0.00387234
0.00734746
-0.0286042
0.00372819
0.006804
-0.0299943
0.00736584
-0.0286938
0.00617153
-0.00693647
0.0376467
0.0041526
-0.00641404
0.0349255
-0.00702809
0.0322486
0.00399335
-0.0288436
0.00353669
-0.0302492
-0.0292409
0.00053387
0.0191638
-0.000276603
0.0192055
0.0193604
0.00344562
-0.0189561
0.0029331
-0.0189983
-0.0191279
0.000628663
-9.84451e-05
-0.00564951
0.00128159
-0.00433518
-0.00349186
0.00109984
-0.00325713
0.00121441
-0.00470607
-0.0046308
-0.00102434
-0.000603423
-0.0024218
-0.00115743
4.7662e-05
-0.00115872
-4.90099e-05
-0.000392727
-0.00540951
0.00165316
-0.00320297
0.000494507
-0.00579207
0.000551412
-0.00798897
-0.00272712
0.0010292
-0.00735104
0.00123869
-0.00867165
-0.00546487
-0.000260338
-0.00203513
-0.00237439
-0.000549828
-0.00146444
-0.00105127
-0.000133774
-0.00270865
-0.00865539
0.00040112
-0.00686219
-0.000155598
-0.00444182
0.000422301
-0.0122813
-0.00354394
0.00156639
-0.00981513
0.00298988
-0.0152053
-0.00578622
-0.00130137
-0.000187165
-0.0028559
-0.00196313
-0.000865896
-0.00122239
0.00122248
-0.00122384
-0.0149434
0.000590073
-0.0106391
-0.000787855
0.001316
0.00854134
-0.0221405
0.00427607
0.00920259
-0.0219786
0.010398
-0.0213279
0.00207361
-0.0103547
0.0166292
0.00110225
-0.00989316
0.0191974
-0.00894465
0.0216629
-0.0046037
-0.0206948
-0.00555769
-0.019579
-0.0152906
-0.000776583
0.00641849
-0.0277793
-0.000641104
0.00603357
-0.0281458
0.00609972
-0.0280676
-0.00141037
-0.00834116
0.032792
-0.00196567
-0.00813937
0.033919
-0.00859269
0.0343828
-0.00217875
-0.0268556
-0.00240733
-0.0274885
-0.026289
0.000137001
0.0195937
3.16375e-05
0.0195222
0.0195267
-0.000985668
-0.0201406
-0.00104727
-0.0200576
-0.0201569
9.40883e-06
-0.000513311
)
;

boundaryField
{
    fuel
    {
        type            calculated;
        value           nonuniform List<scalar> 
36
(
0.000128652
0.000214143
0.000128652
0.000128652
0.000214146
0.000128652
0.000128651
0.000214143
0.000128652
-0.000128651
-0.000214143
-0.000128651
-0.000128652
-0.000214145
-0.000128652
-0.000128651
-0.000214143
-0.000128651
0
0
0
0
0
0
0
0
0
0
0
0
0
0
0
0
0
0
)
;
    }
    primary_air
    {
        type            calculated;
        value           nonuniform List<scalar> 9(-0.00321717 -0.0053449 -0.00321651 -0.00321708 -0.00534354 -0.0032164 -0.00321727 -0.00534317 -0.00321665);
    }
    Secondary_air_RHS
    {
        type            calculated;
        value           nonuniform List<scalar> 9(0.00798205 0.0127271 0.00800035 0.00793611 0.0126362 0.00795781 0.00797149 0.0127523 0.00799436);
    }
    Secondary_air_LHS
    {
        type            calculated;
        value           nonuniform List<scalar> 9(0.00791662 0.0126963 0.00791442 0.0078706 0.0125908 0.00786787 0.00791296 0.0126993 0.00791003);
    }
    outlet
    {
        type            calculated;
        value           nonuniform List<scalar> 
18
(
-0.0475137
0.0735124
-0.0470082
-0.0475664
0.0735593
-0.047026
-0.0475664
0.0730186
-0.0469619
-0.0483021
0.0723242
-0.0484282
-0.0483894
0.0736448
-0.0485202
-0.0483309
0.0736729
-0.0484671
)
;
    }
    stove_body
    {
        type            calculated;
        value           uniform 0;
    }
    frontAndBack
    {
        type            empty;
        value           nonuniform 0();
    }
}


// ************************************************************************* //
