/*--------------------------------*- C++ -*----------------------------------*\
  =========                 |
  \\      /  F ield         | OpenFOAM: The Open Source CFD Toolbox
   \\    /   O peration     | Website:  https://openfoam.org
    \\  /    A nd           | Version:  6
     \\/     M anipulation  |
\*---------------------------------------------------------------------------*/
FoamFile
{
    version     2.0;
    format      ascii;
    class       volScalarField;
    location    "1";
    object      T;
}
// * * * * * * * * * * * * * * * * * * * * * * * * * * * * * * * * * * * * * //

dimensions      [0 0 0 1 0 0 0];

internalField   nonuniform List<scalar> 
297
(
292.64
292.64
292.64
292.969
292.961
292.969
292.64
292.64
292.64
292.742
292.645
292.733
294.125
293.179
294.119
292.733
292.645
292.738
294.221
292.747
293.88
448.92
297.962
448.199
293.865
292.737
294.161
605.39
533.029
707.499
376.034
431.25
411.033
576.931
512.062
677.456
1023.91
946.495
906.194
735.844
448.354
718.115
1050.73
926.946
863.636
1025.95
963.328
907.613
778.61
669.44
740.116
1052.83
957.565
865.074
780.223
630.27
701.596
1025.73
717.97
951.156
796.987
637.05
670.01
679.668
397.869
532.987
1006.33
624.868
837.06
717.477
402.972
449.265
299.773
299.794
299.42
300.115
299.756
299.653
299.881
299.952
299.651
1017.81
958.554
900.29
860.051
717.999
800.059
1044.03
952.952
858.839
921.408
955.582
788.318
931.778
717.489
865.057
943.768
950.011
752.702
843.867
952.357
755.658
1011.22
717.407
938.713
862.869
946.792
722.021
299.649
299.748
299.196
300.185
300
299.59
299.699
299.902
299.115
299.844
299.69
299.447
300.28
300.014
299.66
299.986
299.882
299.193
299.504
299.442
299.571
300.12
300.129
299.685
300.162
300.009
299.441
299.159
299.208
299.299
299.551
299.553
299.616
299.063
299.095
299.212
299.408
299.359
299.423
299.642
299.639
299.631
299.172
299.209
299.222
299.57
299.52
299.423
299.655
299.658
299.652
299.311
299.233
299.218
299.771
299.653
299.605
300.165
300.1
300.112
299.867
299.701
299.633
299.886
299.827
299.859
300.278
300.275
300.297
299.99
299.9
299.929
299.904
299.942
299.962
300.457
300.482
300.403
299.989
300.094
300.186
299.542
299.818
299.79
300.207
300.229
300.227
299.988
299.926
299.896
299.808
299.811
299.796
300.156
300.273
300.322
300.015
299.921
299.904
299.953
299.794
299.747
300.126
300.241
300.477
300.042
299.899
299.837
299.549
299.767
299.648
298.924
299.958
300.779
299.653
299.864
299.742
297.487
297.329
297.58
298.023
298.206
298.965
297.511
297.387
297.538
291.493
291.387
291.364
286.663
286.523
286.588
291.522
291.418
291.397
299.418
299.583
299.596
299.618
299.645
299.663
299.186
299.13
299.128
299.409
299.554
299.596
299.652
299.676
299.694
299.145
299.112
299.122
299.389
299.452
299.563
299.633
299.624
299.775
299.064
299.089
299.029
299.319
299.368
299.502
299.391
299.053
298.593
299.042
299.08
298.954
297.158
297.231
297.264
298.625
298.253
297.909
297.098
296.749
296.975
291.278
291.288
291.335
286.049
285.968
286.096
291.166
291.173
291.206
)
;

boundaryField
{
    fuel
    {
        type            fixedValue;
        value           uniform 293;
    }
    primary_air
    {
        type            fixedValue;
        value           uniform 293;
    }
    Secondary_air_RHS
    {
        type            fixedValue;
        value           uniform 293;
    }
    Secondary_air_LHS
    {
        type            fixedValue;
        value           uniform 293;
    }
    outlet
    {
        type            inletOutlet;
        inletValue      uniform 293;
        value           nonuniform List<scalar> 
18
(
293
286.049
293
293
285.968
293
293
286.096
293
293
286.664
293
293
286.523
293
293
286.588
293
)
;
    }
    stove_body
    {
        type            fixedValue;
        value           uniform 293;
    }
    frontAndBack
    {
        type            empty;
    }
}


// ************************************************************************* //
