/*--------------------------------*- C++ -*----------------------------------*\
  =========                 |
  \\      /  F ield         | OpenFOAM: The Open Source CFD Toolbox
   \\    /   O peration     | Website:  https://openfoam.org
    \\  /    A nd           | Version:  6
     \\/     M anipulation  |
\*---------------------------------------------------------------------------*/
FoamFile
{
    version     2.0;
    format      ascii;
    class       volVectorField;
    location    "1";
    object      U;
}
// * * * * * * * * * * * * * * * * * * * * * * * * * * * * * * * * * * * * * //

dimensions      [0 1 -1 0 0 0 0];

internalField   nonuniform List<vector> 
297
(
(33.901 -0.0170366 0.216952)
(33.8957 -0.000148079 0.257583)
(33.901 0.0170731 0.216885)
(-9.9203e-07 0.0179828 0.27618)
(3.39717e-06 -5.16128e-06 0.26306)
(1.42851e-05 -0.0179767 0.276172)
(-33.901 -0.0168711 0.216941)
(-33.8957 0.000158411 0.257657)
(-33.9009 0.0168504 0.216968)
(33.9119 -0.0319147 0.25707)
(33.8957 -0.000225519 0.278435)
(33.911 0.0315612 0.256954)
(-1.77353e-06 0.0680993 0.257968)
(2.97937e-06 1.2398e-05 0.128698)
(1.44002e-05 -0.0681293 0.257974)
(-33.9109 -0.0315144 0.256604)
(-33.8957 0.000239044 0.278455)
(-33.9115 0.0318791 0.256802)
(31.4343 -0.114231 0.392348)
(33.9144 -0.00178316 0.49427)
(31.6656 0.113964 0.393166)
(-2.55404e-06 0.1737 -0.0358191)
(2.22602e-06 -2.12967e-05 0.201035)
(1.46374e-05 -0.173153 -0.0356441)
(-31.6309 -0.114839 0.392316)
(-33.9133 0.00171268 0.49443)
(-31.5618 0.115442 0.392937)
(45.6183 2.14299 1.47349)
(40.1136 -4.33351 7.24873)
(53.6242 -6.56294 1.37172)
(-0.00130479 1.54599 6.00685)
(-0.00154372 -0.390617 4.44058)
(-0.00135386 -1.30359 6.56599)
(-43.4315 1.48465 1.23799)
(-38.5404 -4.27287 7.37534)
(-51.3577 -6.16504 1.86509)
(78.1108 7.27359 27.2625)
(72.4195 0.9415 26.3219)
(69.2456 -9.59194 6.84029)
(-0.00305923 18.8638 87.2665)
(-0.0017464 -0.0144673 55.2701)
(-0.00377966 -18.8725 82.241)
(-80.1767 7.16828 30.4042)
(-70.9401 0.104492 26.5178)
(-66.0146 -8.83953 6.72091)
(76.635 -11.8661 -6.35869)
(73.27 7.42823 75.2071)
(67.9405 5.81073 -20.409)
(0.00189801 -20.6599 118.474)
(-0.0012354 -1.8011 -4.10166)
(-0.00425146 18.3299 110.508)
(-78.6237 -12.9121 -3.10793)
(-72.8355 8.31564 75.793)
(-64.7983 5.38085 -20.555)
(59.8772 -20.5068 -99.4763)
(47.4634 2.78842 -22.0714)
(53.8547 15.4549 -93.2671)
(-0.00307269 -15.5937 14.0947)
(-0.00301452 -2.14774 -84.0594)
(0.00732095 9.34836 0.590883)
(-61.1606 -21.449 -99.4882)
(-47.9793 3.58201 -20.1734)
(-51.4322 16.1315 -87.7393)
(52.0795 18.3844 -71.2721)
(30.3862 7.28747 -51.6444)
(40.8724 -26.9453 -65.6422)
(-0.00240713 -13.7824 -42.0996)
(-0.000522433 -5.13638 -67.9609)
(0.0119539 1.72977 -46.6856)
(-54.9695 11.9266 -71.5032)
(-30.7785 10.7518 -50.9702)
(-34.438 -19.3862 -60.1716)
(22.9802 19.8047 -16.9626)
(22.9603 6.31475 -13.3477)
(22.9717 -18.7539 -16.5001)
(-0.00367482 4.34977 -13.5341)
(-0.00052228 -5.6351 -13.6051)
(0.00983504 -11.8526 -13.7923)
(-22.9933 16.9035 -15.6737)
(-22.9527 14.4663 -13.122)
(-22.9407 -5.40779 -14.1549)
(59.6923 -14.689 -159.394)
(63.1551 5.67175 73.05)
(53.3918 4.69323 -145.922)
(-0.00420739 -20.0017 167.099)
(-0.000519308 -4.77338 -99.5434)
(0.0323829 16.9712 155.141)
(-61.1892 -16.2465 -160.35)
(-62.7278 6.10832 73.6168)
(-51.2834 4.20088 -140.047)
(57.4422 -16.2938 -160.212)
(65.8587 4.85043 71.8133)
(49.7999 8.06176 -146.141)
(-0.00468437 -20.9325 189.514)
(-0.00057797 -4.37321 -102.919)
(0.0350362 16.926 175.583)
(-58.8102 -17.6863 -161.214)
(-65.363 5.0363 72.3507)
(-47.7592 7.82568 -140.096)
(62.3564 -17.5829 -141.043)
(66.3876 2.38904 67.5058)
(55.7997 11.2619 -130.265)
(-0.00505386 -21.0686 188.532)
(-0.000946866 -4.09587 -103.43)
(0.0372471 16.1073 173.912)
(-63.7499 -18.7585 -141.72)
(-65.8816 1.61866 68.0505)
(-53.4717 11.3566 -124.238)
(22.8069 31.2481 -9.57861)
(22.8519 -8.25886 -8.56721)
(22.7789 -31.4797 -7.70154)
(-0.00505082 17.9085 -7.24797)
(-0.0017545 0.512328 -6.67205)
(0.00179107 -15.9243 -7.80806)
(-22.8124 34.4162 -9.76868)
(-22.8731 21.7225 -8.92428)
(-22.8331 -23.8743 -5.70271)
(22.9601 22.8762 -0.401186)
(22.9464 -6.22844 0.272006)
(22.9075 -23.4374 -1.60611)
(-0.00341504 5.78793 -2.13327)
(-0.00160572 -1.17262 -3.34949)
(-0.00112196 -8.73967 -2.87046)
(-22.9546 23.9932 -0.541578)
(-22.9668 4.65679 0.436884)
(-22.9269 -20.2988 0.135903)
(22.9602 -6.23477 -2.38759)
(22.9493 -2.34217 0.384491)
(22.9611 -3.13045 -4.45149)
(-0.00313079 -0.987742 -5.11337)
(-0.00143901 0.866759 -1.5408)
(-0.00153867 -2.82592 -4.59914)
(-23.0078 2.15754 -5.79461)
(-23.0039 3.25695 -1.14226)
(-22.9705 -6.95099 1.88757)
(22.7734 -33.1179 -3.06835)
(22.9308 -30.3265 -5.42979)
(22.8899 -25.2108 -8.1115)
(-0.000766007 -19.5751 -4.41412)
(-0.000329845 -18.6548 -4.42095)
(2.82076e-05 -13.1752 -4.34632)
(-22.8205 -24.9208 -4.39321)
(-22.923 -20.8268 -7.84107)
(-22.851 -13.8472 -10.16)
(22.8391 -27.3372 0.101902)
(22.9685 -28.4224 -6.06755)
(22.7996 -23.6888 -12.5711)
(-0.00102233 -13.8438 1.36165)
(0.000958555 -14.1546 1.96418)
(0.000618641 -12.6443 2.87633)
(-22.9228 -21.1505 -2.14762)
(-22.9536 -18.8227 -5.71729)
(-22.7588 -15.7612 -13.5356)
(22.9741 -13.5221 -3.23089)
(23.0058 -17.1574 -11.3754)
(22.7777 -21.1762 -17.3194)
(0.00179176 -4.35223 -0.467487)
(0.00538278 -7.02207 -0.303347)
(0.00459606 -8.51842 0.49202)
(-22.9714 3.64606 6.54573)
(-22.9592 -5.73824 -6.67969)
(-22.7676 -13.9984 -16.3435)
(22.8504 22.1532 -12.3843)
(22.9361 28.1418 -9.08532)
(22.8042 32.6258 -6.06373)
(0.00075866 16.2722 -6.05633)
(-0.0028884 23.0988 -6.4356)
(-0.00408358 23.2481 -5.74633)
(-22.8478 24.8662 -13.7279)
(-22.95 32.16 -9.65832)
(-22.7963 36.7315 -6.45943)
(22.7837 21.1418 -11.9583)
(22.9737 25.9439 -5.56426)
(22.9223 25.419 -0.379892)
(-0.00259914 13.4889 2.24802)
(-0.00531702 16.376 2.19983)
(-0.00479734 15.2319 2.50502)
(-22.7699 23.7779 -13.108)
(-22.9979 30.056 -5.10774)
(-22.8757 29.7118 1.59712)
(22.7853 18.7032 -18.0388)
(23.0108 14.0968 -12.3771)
(23.0032 1.45912 -2.96688)
(-0.00690497 7.83406 0.0397224)
(-0.00823313 3.01346 -1.00626)
(-0.00618056 1.50478 -2.90648)
(-22.7953 21.258 -19.9441)
(-23.0623 17.3244 -13.0754)
(-23.0253 12.1304 -3.16523)
(22.8986 -4.48031 -6.25926)
(22.9186 1.86694 -16.2194)
(22.8168 12.7978 -20.4763)
(0.00380418 -3.50058 0.43691)
(0.00413378 3.6147 -8.06062)
(0.00333886 11.545 -8.1572)
(-22.9209 -4.8079 -7.44485)
(-22.9002 2.61322 -17.8725)
(-22.8187 15.2371 -22.3955)
(22.9005 -0.316637 4.71327)
(22.909 4.22916 -18.8625)
(22.7944 14.6331 -21.773)
(0.00367798 -2.2419 10.0517)
(0.00356099 5.45334 -6.25337)
(0.0013133 9.90331 -4.48844)
(-22.9036 0.17914 5.45692)
(-22.8937 5.46465 -20.8364)
(-22.7896 17.2029 -24.0521)
(22.8776 1.4624 1.32634)
(23.1875 3.96019 -21.6799)
(22.951 10.645 -28.0669)
(0.00354246 -2.24765 13.6525)
(0.00377229 4.42865 -10.1105)
(-0.00031979 7.66768 -6.29061)
(-22.8704 1.97812 0.268902)
(-23.2196 4.89821 -23.8536)
(-22.9288 11.6498 -31.5287)
(22.8629 3.62842 -3.2337)
(22.9431 3.23018 -30.3561)
(22.9303 -9.85757 -47.8836)
(-0.00179804 1.21094 47.417)
(-0.00244465 1.84501 26.1922)
(-0.00284657 -11.5351 15.78)
(-22.8741 4.73182 -3.92277)
(-22.9603 1.84932 -31.9617)
(-22.9419 -9.3172 -47.5299)
(22.5916 0.602637 -99.125)
(22.5739 -0.0693669 -104.946)
(22.5978 5.94182 -98.9225)
(-0.00312323 1.27756 72.3657)
(-0.00308204 1.7595 62.4934)
(-0.00279921 0.679864 55.1141)
(-22.6013 0.133578 -100.088)
(-22.5869 0.385029 -106.136)
(-22.6028 5.67959 -101.793)
(21.6298 0.102073 -139.334)
(21.6182 0.0825448 -139.659)
(21.6167 -0.117636 -139.442)
(-0.00353787 0.819816 182.453)
(-0.00361246 1.20924 185.733)
(-0.00374496 0.4569 185.848)
(-21.6409 0.133908 -139.792)
(-21.6299 0.142002 -140.135)
(-21.6282 -0.08253 -139.936)
(22.8499 -18.4761 -11.0223)
(22.8074 -11.1226 -9.19277)
(22.8121 -7.0296 -12.5856)
(-0.00560988 -10.446 -5.52664)
(-0.0160089 -4.47028 -3.73722)
(-0.0226039 -1.0891 -4.1374)
(-22.8377 -7.74132 -14.8063)
(-22.8772 -2.66407 -10.6643)
(-22.9056 8.19689 -3.91014)
(22.8036 -20.1162 -18.2672)
(22.8221 -10.5632 -13.6611)
(22.8313 -2.14113 -16.5306)
(-0.00486468 -11.0788 -0.0563911)
(-0.0140583 -5.70373 1.63277)
(-0.0208689 -0.645263 2.63444)
(-22.7746 -10.7767 -20.4207)
(-22.8243 -8.5976 -12.7332)
(-22.901 7.5857 0.965606)
(22.8236 -13.1447 -26.1316)
(22.8778 -12.9218 -20.0445)
(23.0238 -1.17374 -19.993)
(-0.00248876 -9.68445 -2.34243)
(-0.0101001 -7.82501 -2.85624)
(-0.0171169 -0.714191 -0.0889549)
(-22.93 -6.68659 -26.2128)
(-22.9634 -9.38733 -15.9986)
(-22.9024 1.27602 5.19987)
(22.9275 7.80206 -37.5742)
(22.9227 3.37208 -35.9575)
(22.9415 -0.155497 -33.4318)
(0.00768092 7.91665 21.9391)
(0.00581206 -1.59523 26.2634)
(0.00517627 -1.06372 31.6507)
(-22.8929 5.34976 -29.7955)
(-22.8798 -2.55442 -20.761)
(-22.8437 -3.16128 -2.58797)
(22.6147 -3.47433 -96.3872)
(22.6259 0.136936 -97.5877)
(22.6321 0.0240208 -97.2959)
(0.0169405 0.700367 57.522)
(0.0186697 -0.960445 60.6182)
(0.0203166 -0.580914 62.9645)
(-22.5557 -3.14474 -93.9101)
(-22.5284 -0.0848173 -96.8882)
(-22.5493 -0.102717 -91.6788)
(21.6215 0.073593 -136.521)
(21.6226 0.0250655 -136.716)
(21.6264 0.011953 -136.716)
(0.00849561 0.147409 185.047)
(0.00859566 -0.530573 185.114)
(0.00894358 -0.264132 183.818)
(-21.593 0.0266946 -134.695)
(-21.593 -0.127146 -134.76)
(-21.5973 -0.108201 -134.527)
)
;

boundaryField
{
    fuel
    {
        type            fixedValue;
        value           uniform (0 0 0.25);
    }
    primary_air
    {
        type            fixedValue;
        value           uniform (0 0 2.5);
    }
    Secondary_air_RHS
    {
        type            fixedValue;
        value           uniform (0 66.6667 0);
    }
    Secondary_air_LHS
    {
        type            fixedValue;
        value           uniform (0 -66.6667 0);
    }
    outlet
    {
        type            pressureInletOutletVelocity;
        value           nonuniform List<vector> 
18
(
(0 0 -136.521)
(0.00849561 0.147409 185.047)
(0 0 -134.695)
(0 0 -136.716)
(0.00859566 -0.530573 185.114)
(0 0 -134.76)
(0 0 -136.716)
(0.00894358 -0.264132 183.818)
(0 0 -134.527)
(0 0 -139.334)
(-0.00353787 0.819816 182.453)
(0 0 -139.792)
(0 0 -139.659)
(-0.00361246 1.20924 185.733)
(0 0 -140.135)
(0 0 -139.442)
(-0.00374496 0.4569 185.848)
(0 0 -139.936)
)
;
    }
    stove_body
    {
        type            noSlip;
    }
    frontAndBack
    {
        type            empty;
    }
}


// ************************************************************************* //
