/*--------------------------------*- C++ -*----------------------------------*\
  =========                 |
  \\      /  F ield         | OpenFOAM: The Open Source CFD Toolbox
   \\    /   O peration     | Website:  https://openfoam.org
    \\  /    A nd           | Version:  6
     \\/     M anipulation  |
\*---------------------------------------------------------------------------*/
FoamFile
{
    version     2.0;
    format      ascii;
    class       volScalarField;
    location    "0.005";
    object      O2;
}
// * * * * * * * * * * * * * * * * * * * * * * * * * * * * * * * * * * * * * //

dimensions      [0 0 0 0 0 0 0];

internalField   nonuniform List<scalar> 
3773
(
0
0
0
0
0
0
0
0
0
0
0
0
0
0
0
0
0
0
0
0
0
0
0
0
0
0
0
0
0
0
0
0
0
0
0
0
0
0
0
0
0
0
0
0
0
0
0
0
0
0
0
0
0
0
0
0
0
0
0
0
0
0
0
0
0
0
0
0
0
0
0
0
0
0
0
0
0
0
0
0
0
0
0
0
0
0
0
0
0
0
0
0
0
0
0
0
0
0
0
0
0
0
0
0
0
0
0
0
0
0
0
0
0
0
0
0
0
0
0
0
0
0
0
0
0
0
0
0
0
0
0
0
0
0
0
0
0
0
0
0
0
0
0
0
0
0
0
0
0
0
0
0
0
0
0
0
0
0
0
0
0
0
0
0
0
0
0
0
0
0
0
0
0
0
0
0
0
0
0
0
0
0
0
0
0
0
0
0
0
0
0
0
0
0
0
0
0
0
0
0
0
0
0
0
0
0
0
0
0
0
0
0
0
0
0
0
0
0
0
0
0
0
0
0
0
0
0
0
0
0
0
0
0
0
0
0
0
0
0
0
0
0
0
0
0
0
0
0
0
0
0
0
0
0
0
0
0
0
0
0
0
0
0
0
0
0
0
0
0
0
0
0
0
0
0
0
0
0
0
0
0
0
0
0
0
0
0
0
0
0
0
0
0
0
0
0
0
0
0
0
0
0
0
0
0
0
0
0
0
0
0
0
0
0
0
0
0
0
0
0
0
0
0
0
0
0
0
0
0
0
0
0
0
0
0
0
0
0
0
0
0
0
0
0.00299142
0.00292441
0.00275094
0.00264101
0.00272938
0.00289195
0.00296785
0.0041344
0.00409274
0.00401166
0.00395785
0.00399436
0.00407034
0.00410854
0.00514827
0.00514506
0.0051391
0.0051339
0.00513642
0.00514193
0.00514433
0.00558586
0.00557718
0.00556605
0.00557677
0.00556129
0.00557578
0.00558991
0.005173
0.00516937
0.00516319
0.00515767
0.00515841
0.00516151
0.00516213
0.00417236
0.00412544
0.00404776
0.00399022
0.00402702
0.00410293
0.00414488
0.003024
0.00295191
0.00277741
0.00264955
0.002748
0.00291698
0.00299034
6.18187e-06
5.69568e-06
3.99207e-06
3.27289e-06
3.78208e-06
4.67442e-06
5.80943e-06
4.64188e-05
4.40379e-05
3.99796e-05
3.90977e-05
4.00851e-05
4.43699e-05
4.79302e-05
0.000506805
0.000499324
0.00049367
0.000494025
0.000495609
0.000505805
0.000517836
0.000658007
0.000669674
0.000683328
0.000678419
0.000690222
0.000678868
0.000663679
0.000540327
0.00053309
0.000526843
0.00052347
0.000523106
0.000517278
0.000521558
4.80039e-05
4.6928e-05
4.40658e-05
4.12984e-05
4.31783e-05
4.57437e-05
4.77832e-05
4.07321e-06
6.2966e-06
4.73064e-06
3.76632e-06
4.50213e-06
6.18225e-06
7.14534e-06
8.44897e-09
6.53762e-09
2.22037e-09
1.32117e-09
2.05987e-09
2.90931e-09
7.37136e-09
1.55384e-06
1.31834e-06
1.20056e-06
1.16686e-06
1.1533e-06
1.25075e-06
1.37976e-06
4.31078e-05
4.22818e-05
4.2237e-05
4.09184e-05
4.15697e-05
4.0774e-05
3.74613e-05
6.18354e-05
6.4181e-05
6.60691e-05
6.49093e-05
6.72421e-05
6.19728e-05
5.92647e-05
3.7828e-05
3.54668e-05
3.48764e-05
3.49453e-05
3.42741e-05
4.34009e-05
4.44669e-05
1.56812e-06
1.37479e-06
1.24251e-06
1.22128e-06
1.20537e-06
1.29147e-06
1.52379e-06
6.5675e-09
9.55898e-09
3.56796e-09
2.05176e-09
3.23375e-09
8.62912e-09
1.33045e-08
7.16679e-12
9.15802e-12
5.62121e-12
1.15976e-11
1.26989e-11
9.80474e-12
5.48606e-12
7.13872e-08
6.4283e-08
4.41583e-08
2.44248e-08
4.16181e-08
5.81845e-08
6.06748e-08
5.22891e-06
5.22216e-06
5.40829e-06
4.14666e-06
4.89485e-06
4.23388e-06
3.42499e-06
9.51976e-06
9.24791e-06
9.593e-06
9.67394e-06
8.87622e-06
7.16146e-06
8.38481e-06
3.20346e-06
2.56025e-06
2.77168e-06
2.58643e-06
2.99361e-06
4.87895e-06
5.34708e-06
5.89126e-08
4.18608e-08
5.46168e-08
3.77022e-08
4.92553e-08
6.10275e-08
7.26069e-08
6.7362e-12
1.36171e-11
1.46697e-11
1.94768e-11
1.33787e-11
2.49831e-11
9.82628e-12
1.79132e-12
1.18048e-11
8.67741e-12
2.66176e-11
2.8902e-11
3.56149e-11
2.53361e-12
3.44477e-09
2.06206e-09
1.05458e-09
4.63673e-10
9.46903e-10
1.58663e-09
2.33473e-09
6.1601e-07
6.26731e-07
5.86325e-07
3.86097e-07
6.17133e-07
4.86848e-07
3.41295e-07
1.27964e-06
1.13304e-06
1.35948e-06
1.24663e-06
1.30321e-06
1.05713e-06
1.05096e-06
3.50615e-07
2.33238e-07
2.67869e-07
2.12228e-07
3.12486e-07
5.9634e-07
6.00558e-07
2.86305e-09
1.42843e-09
1.25503e-09
7.18419e-10
1.10922e-09
1.81452e-09
2.96085e-09
6.40852e-12
5.62625e-11
3.75584e-11
3.87418e-11
3.19294e-11
9.58207e-11
1.12252e-11
0
1.63128e-11
1.37029e-11
3.39627e-11
2.50495e-11
1.00963e-10
0
4.55117e-11
7.11875e-11
6.70243e-11
1.53294e-10
7.5095e-11
7.69974e-11
2.12746e-11
1.01213e-07
9.49812e-08
7.94009e-08
6.65979e-08
1.26287e-07
7.96348e-08
4.36811e-08
1.81252e-07
1.9862e-07
2.28336e-07
2.1878e-07
2.07027e-07
1.98549e-07
1.7479e-07
4.14407e-08
2.72172e-08
2.98264e-08
3.0046e-08
4.08688e-08
1.20466e-07
8.06756e-08
3.41523e-11
6.31373e-11
2.79722e-11
6.27193e-11
3.65561e-11
8.92454e-11
4.29016e-11
0
1.25746e-10
4.99869e-12
1.35024e-11
9.68178e-12
1.75979e-10
0
0
1.34972e-11
1.65056e-11
4.28779e-11
4.45582e-11
3.35441e-10
0
0
4.58163e-11
2.11001e-10
4.45666e-10
3.04958e-10
2.28033e-10
0
4.61767e-08
2.11393e-08
1.61333e-08
1.05656e-08
2.53809e-08
1.68795e-08
8.49655e-09
1.13288e-07
4.87558e-08
4.31966e-08
4.76956e-08
3.65697e-08
5.00929e-08
1.06282e-07
1.75228e-08
5.62473e-09
4.67648e-09
5.24301e-09
7.64858e-09
2.69921e-08
3.32306e-08
0
9.69478e-11
4.10009e-11
1.86843e-10
1.1359e-10
1.42392e-10
0
0
2.70537e-10
4.7825e-12
1.89996e-11
1.49337e-11
2.16888e-10
0
0
2.24362e-15
2.14179e-14
5.3549e-14
5.00998e-13
0
0
0
5.219e-14
1.13434e-11
7.83658e-12
1.33581e-11
1.27291e-11
0
0
0
3.35024e-10
5.21908e-10
4.71e-10
0
0
0
0
2.14481e-09
3.47137e-09
2.69329e-09
0
0
0
0
1.06537e-10
4.16205e-10
3.71081e-10
5.26305e-11
0
0
1.86897e-13
1.42858e-12
7.12675e-12
1.02543e-11
1.26856e-11
0
0
0
1.86444e-15
5.73066e-14
2.13886e-13
0
0
2.56611e-16
3.22562e-15
5.19802e-14
9.13371e-14
6.1561e-14
5.39052e-14
1.83916e-16
5.2928e-15
5.41171e-13
1.19852e-12
1.21935e-12
9.07604e-13
5.73684e-13
1.60557e-14
1.5668e-13
1.68512e-11
1.81333e-11
3.33765e-11
2.56414e-11
2.17677e-11
6.35058e-13
1.20918e-14
4.17151e-13
2.30585e-10
3.9431e-10
3.7306e-10
4.80542e-12
7.15348e-14
2.40072e-15
8.3701e-15
6.99686e-12
3.11747e-11
2.55725e-11
4.41746e-11
1.0121e-12
1.14602e-14
1.23047e-14
2.98271e-13
1.45069e-12
1.19868e-12
1.75703e-12
5.03997e-13
4.64963e-16
3.9376e-16
2.33162e-15
1.41711e-13
1.38193e-13
2.35024e-13
2.43305e-14
3.22313e-16
4.58424e-15
2.29195e-15
1.47288e-15
5.43843e-15
9.69765e-14
1.12423e-15
2.26347e-14
6.64471e-13
4.88947e-14
2.58329e-14
6.53872e-14
1.26183e-12
6.78085e-14
2.29531e-13
6.95219e-12
8.93436e-13
8.66561e-13
1.539e-12
1.1379e-11
9.66689e-13
1.68178e-14
5.22049e-13
1.76959e-11
3.50247e-11
3.36601e-11
9.94645e-12
3.04892e-13
2.17811e-15
6.48134e-15
3.70591e-13
1.27179e-12
1.44726e-12
1.11282e-11
9.47062e-13
6.04929e-15
7.50596e-16
8.49154e-15
3.20881e-14
9.59391e-14
1.2565e-12
3.79855e-13
1.27184e-16
4.63238e-17
6.44939e-16
4.20211e-15
2.23194e-14
1.47076e-13
2.56411e-14
4.24886e-16
1.23517e-14
6.74437e-17
8.39384e-17
1.4143e-15
9.05173e-14
4.30035e-15
2.35637e-14
2.92076e-13
2.62002e-16
5.23427e-16
5.26795e-15
7.58995e-13
1.06509e-13
2.77823e-13
1.81202e-12
1.05566e-15
2.15788e-15
4.27566e-15
4.4474e-12
1.0416e-12
2.16233e-14
2.95916e-13
1.72833e-12
4.48577e-12
4.65623e-12
7.87284e-12
8.5317e-13
1.00372e-15
2.51098e-15
2.1698e-15
3.76775e-16
6.33707e-15
3.69335e-12
8.88622e-13
1.15551e-15
9.54576e-17
3.04154e-16
8.4447e-16
5.92161e-15
7.51207e-13
2.24719e-13
3.64797e-17
1.01668e-16
4.63495e-16
1.78374e-15
9.77261e-15
1.1105e-13
1.78267e-14
3.34678e-16
4.325e-15
6.66228e-17
7.0475e-17
1.87378e-15
2.43802e-14
3.25777e-15
1.2675e-14
4.56695e-14
1.10101e-16
1.1218e-15
1.52971e-14
1.76478e-13
7.71842e-14
1.40512e-13
2.17769e-13
1.99986e-16
8.55282e-15
9.73302e-15
7.28189e-13
6.12563e-13
1.39582e-14
1.18351e-13
4.09475e-13
1.04527e-12
1.59849e-12
5.28519e-12
8.50303e-13
2.97893e-16
3.57771e-16
4.85449e-16
3.778e-16
2.39412e-14
7.57193e-13
5.07226e-13
2.85236e-16
1.55684e-16
8.59173e-16
3.37433e-15
2.6428e-14
2.24916e-13
9.44575e-14
3.59951e-17
1.35863e-16
4.11259e-16
1.86006e-15
1.15047e-14
4.70704e-14
8.29712e-15
1.80318e-16
2.86774e-16
4.84716e-17
4.69777e-17
6.22049e-16
4.31178e-15
1.54751e-15
3.10558e-15
2.82725e-15
1.23146e-16
1.13039e-15
8.78412e-15
4.53121e-14
2.51259e-14
3.90133e-14
8.83579e-15
7.61465e-16
3.36754e-15
2.83323e-14
2.62912e-13
1.86419e-13
6.68972e-15
3.67981e-14
7.46444e-14
1.86288e-13
3.44302e-13
1.95339e-12
5.44426e-13
1.02596e-16
1.59654e-15
2.35621e-15
1.63317e-15
6.66648e-14
3.37622e-13
1.93906e-13
1.41168e-16
4.04207e-16
1.76864e-15
5.27006e-15
2.47115e-14
6.66365e-14
3.57026e-14
2.75107e-17
1.17813e-16
2.48675e-16
1.13122e-15
3.99976e-15
1.23478e-14
4.27914e-15
1.48086e-16
6.77961e-17
3.17005e-17
3.72658e-17
1.73918e-16
5.21287e-16
1.02205e-15
8.90396e-16
4.13131e-16
1.1673e-16
5.3202e-16
2.67106e-15
1.00793e-14
6.00632e-15
8.82632e-15
2.8612e-16
2.5613e-16
1.19446e-15
6.3468e-15
7.3177e-14
7.43844e-14
2.32367e-15
5.5991e-15
6.40096e-15
2.38591e-14
5.84558e-14
5.05942e-13
2.22988e-13
1.24875e-16
4.81957e-16
8.46879e-16
4.94121e-15
1.68379e-14
6.24726e-14
3.93753e-14
9.83917e-17
3.39702e-16
8.5844e-16
1.59311e-15
4.42823e-15
9.24548e-15
1.11448e-14
8.69374e-18
2.42642e-17
1.03871e-16
1.66639e-16
2.41484e-16
9.65113e-16
1.672e-15
0
6.67725e-11
1.29743e-11
1.6832e-11
4.94611e-11
6.49157e-10
0
0
2.28956e-09
4.6774e-10
3.67524e-10
8.50522e-10
9.15995e-10
0
0
1.56355e-09
1.34581e-08
6.8892e-09
1.95638e-08
5.52429e-09
0
0
0
2.13119e-08
3.87702e-08
1.86589e-08
0
0
0
0
3.95868e-09
4.01653e-09
6.5858e-09
1.34649e-08
0
0
2.73279e-10
9.77934e-11
2.21385e-10
3.25314e-10
4.83369e-10
0
0
6.09289e-10
3.09443e-12
1.22951e-11
1.98435e-11
3.97399e-10
0
0
0
8.66674e-12
1.14443e-11
2.49001e-11
4.04583e-10
0
0
0
2.46976e-10
2.96273e-10
5.37252e-10
6.201e-10
0
0
0
1.20297e-08
6.87462e-09
1.78565e-08
0
0
0
0
1.83354e-08
3.27881e-08
1.67846e-08
0
0
0
0
3.58357e-09
3.48804e-09
5.97668e-09
1.30946e-09
0
0
1.93486e-10
6.56531e-11
1.68691e-10
2.61997e-10
3.95455e-10
0
0
2.69688e-10
1.88125e-12
7.36403e-12
1.00189e-11
1.31766e-09
0
0
0
5.84352e-12
8.24034e-12
1.74063e-11
2.41826e-09
0
0
0
2.1396e-10
2.49402e-10
3.74653e-10
4.35225e-10
0
0
0
1.08016e-08
6.85356e-09
1.46763e-08
0
0
0
0
1.62753e-08
2.56148e-08
1.59963e-08
0
0
0
0
3.34478e-09
3.3017e-09
5.34358e-09
0
0
0
1.1744e-10
4.71695e-11
1.50617e-10
1.80121e-10
1.8299e-10
0
0
1.95217e-11
8.00949e-13
5.83763e-12
6.87648e-12
1.55536e-09
0
0
0
4.10179e-12
4.18794e-12
1.00529e-11
0
0
0
0
1.36841e-10
1.77276e-10
2.65412e-10
0
0
0
0
8.99004e-09
6.67482e-09
1.2654e-08
0
0
0
0
1.34901e-08
2.15545e-08
1.49626e-08
0
0
0
0
2.96004e-09
3.19543e-09
5.05096e-09
0
0
0
0
3.56658e-11
1.16912e-10
1.4827e-10
1.64578e-10
0
0
0
4.24285e-13
4.44796e-12
5.45135e-12
3.5543e-10
0
0
0
2.48972e-12
2.65347e-12
6.95289e-12
0
0
0
0
9.05597e-11
1.06995e-10
1.82187e-10
0
0
0
0
5.9348e-09
5.82666e-09
9.18109e-09
0
0
0
0
1.08679e-08
1.89035e-08
1.2893e-08
0
0
0
0
2.10179e-09
3.11396e-09
4.48478e-09
0
0
0
0
2.6837e-11
9.2053e-11
7.83316e-11
1.16642e-10
0
0
0
2.88273e-13
2.97511e-12
3.89978e-12
7.91248e-10
0
0
0
1.08991e-12
1.55008e-12
2.79927e-12
0
0
0
0
5.1325e-11
7.6504e-11
9.50156e-11
0
0
0
0
4.46953e-09
5.00629e-09
6.3624e-09
0
0
0
0
9.73383e-09
1.5519e-08
1.08539e-08
0
0
0
0
1.69408e-09
2.96218e-09
3.81736e-09
0
0
0
0
1.5668e-11
5.04943e-11
5.92409e-11
1.45536e-10
0
0
0
6.87851e-14
9.75347e-13
1.56281e-12
1.04249e-09
0
0
0
3.20572e-13
3.61307e-13
1.65021e-12
0
0
0
0
3.42007e-11
3.9774e-11
4.57918e-11
0
0
0
0
2.557e-09
3.13301e-09
3.73495e-09
0
0
0
0
8.71145e-09
1.24129e-08
9.93385e-09
0
0
0
0
9.4957e-10
2.27543e-09
2.52409e-09
0
0
0
0
5.80003e-12
3.12577e-11
3.24556e-11
2.30577e-10
0
0
0
5.06234e-16
3.95642e-13
7.66946e-13
0
0
1.28366e-17
1.81311e-17
1.40333e-17
6.1475e-17
1.3813e-16
1.58718e-16
1.23033e-16
2.16359e-16
1.90379e-16
1.54524e-16
5.61206e-16
1.31521e-15
1.81573e-15
2.15987e-15
5.14777e-15
2.3584e-16
1.08117e-16
2.75792e-16
2.08145e-16
1.48456e-15
5.46303e-14
1.81567e-15
2.41063e-15
1.4474e-15
3.87324e-15
9.73958e-18
3.93212e-16
1.43034e-13
1.00715e-16
3.44196e-16
7.46074e-17
1.59485e-16
4.32077e-16
1.15872e-15
1.09349e-15
2.5679e-17
4.09157e-17
5.04706e-17
5.9573e-17
5.74763e-17
5.80165e-17
5.06362e-17
1.93234e-18
4.44564e-18
8.28662e-18
7.57367e-18
4.25168e-18
5.50034e-19
1.78414e-19
1.00003e-17
1.13251e-17
9.81605e-18
6.64262e-17
1.14305e-16
1.31561e-16
1.1877e-16
1.96092e-16
1.73475e-16
1.28882e-16
5.44103e-16
1.27967e-15
1.64425e-15
1.87672e-15
3.70124e-15
6.22259e-17
3.9732e-17
1.37019e-16
2.43368e-16
2.42458e-16
4.0773e-14
1.32095e-15
4.94089e-16
8.38855e-17
1.19123e-16
9.53095e-19
1.37511e-17
1.07097e-13
9.08769e-17
1.85089e-16
3.04634e-17
6.34123e-17
2.87435e-16
7.0724e-16
4.82239e-16
2.97552e-18
1.52428e-17
2.12455e-17
1.60714e-17
3.13453e-17
3.51239e-17
2.36803e-17
4.88027e-19
1.33919e-18
2.68946e-18
2.70242e-18
2.28906e-18
1.55536e-18
9.71381e-20
1.33615e-17
2.20053e-17
1.45379e-17
7.02545e-17
1.49058e-16
1.87488e-16
1.39146e-16
1.65038e-16
1.41755e-16
1.02834e-16
5.25112e-16
1.00432e-15
1.20602e-15
1.32737e-15
2.55688e-15
2.10129e-17
2.94943e-17
1.27407e-16
1.73842e-16
4.5118e-17
2.1925e-14
9.58208e-16
8.16016e-18
1.03529e-18
3.35588e-19
3.03636e-18
2.81229e-17
7.03305e-14
8.02029e-17
9.30777e-17
1.43012e-17
1.63856e-17
7.75037e-17
4.23878e-16
4.95405e-16
2.96858e-18
7.41648e-18
1.20025e-17
9.02469e-18
2.01724e-17
4.02484e-17
2.96972e-17
3.24025e-19
9.12151e-19
1.50634e-18
1.59897e-18
2.00857e-18
1.74129e-18
8.95498e-19
2.1983e-17
2.1083e-17
1.37643e-17
5.84823e-17
1.24938e-16
1.75595e-16
2.25929e-16
1.80361e-16
1.3495e-16
8.80393e-17
4.06207e-16
8.82785e-16
1.33731e-15
2.06232e-15
1.75558e-15
1.96022e-17
2.90892e-17
1.08151e-16
1.8617e-16
9.285e-17
1.79641e-14
4.9369e-16
7.98607e-19
2.54729e-19
4.42898e-19
7.071e-18
2.25049e-17
4.3217e-14
6.10453e-17
4.18235e-17
3.05099e-18
1.24607e-18
4.02394e-18
2.35293e-16
8.16801e-16
4.79016e-18
5.08865e-18
6.28094e-18
5.61529e-18
7.64296e-18
2.2156e-17
4.70761e-17
5.59615e-19
7.86153e-19
1.12648e-18
1.29978e-18
1.68621e-18
1.55945e-18
1.13596e-18
1.21061e-17
1.06183e-17
1.17228e-17
3.68514e-17
8.10735e-17
1.06805e-16
2.68334e-16
2.28136e-16
6.93355e-17
7.33764e-17
3.20728e-16
5.21275e-16
4.72575e-16
2.50126e-15
1.11928e-15
1.61017e-17
2.45639e-17
7.77191e-17
1.06543e-16
5.73047e-17
1.15931e-14
2.18094e-16
9.75049e-19
1.09904e-18
3.10888e-18
6.18108e-18
3.28051e-18
1.93728e-14
4.51208e-17
7.51829e-18
8.38945e-19
5.46899e-19
1.08973e-18
1.93429e-18
8.29243e-16
9.04609e-18
4.99895e-18
3.98544e-18
3.14448e-18
3.96403e-18
1.10516e-17
3.17028e-17
8.82566e-19
5.39237e-19
5.90697e-19
7.97085e-19
1.02372e-18
1.05048e-18
1.00629e-18
4.40697e-18
4.73032e-18
6.57157e-18
2.07639e-17
4.24982e-17
4.78845e-17
9.06547e-17
1.31009e-16
3.49484e-17
6.03605e-17
1.87857e-16
2.92253e-16
1.37176e-16
1.47524e-15
5.6134e-16
6.67632e-18
1.69384e-17
4.18166e-17
4.85995e-17
1.8478e-17
6.50331e-15
8.2519e-17
3.30364e-19
9.20572e-19
1.78195e-18
2.22691e-18
9.45182e-19
5.63751e-15
2.38613e-17
6.97526e-19
4.85175e-19
4.05581e-19
4.79497e-19
4.45549e-19
5.27737e-16
7.93396e-18
3.36908e-18
2.54643e-18
2.08006e-18
2.75286e-18
3.70454e-18
9.66306e-18
5.99556e-19
3.07258e-19
3.32508e-19
5.67167e-19
6.64294e-19
7.7758e-19
7.20558e-19
1.3626e-18
2.38108e-18
3.51533e-18
1.07874e-17
1.39571e-17
1.25103e-17
1.42446e-17
4.0582e-17
1.82017e-17
3.80518e-17
8.89447e-17
7.20629e-17
3.29396e-17
2.49556e-16
1.70925e-16
3.96231e-18
1.11498e-17
2.31492e-17
1.52361e-17
6.91018e-18
1.6963e-15
3.67979e-17
3.83455e-19
9.57563e-19
1.5825e-18
1.24986e-18
5.59952e-19
1.30942e-15
1.14806e-17
8.75914e-20
2.35421e-19
2.6741e-19
3.00748e-19
2.64792e-19
1.66218e-16
2.87786e-18
8.05254e-19
1.00804e-18
1.08544e-18
1.09867e-18
1.14082e-18
1.19038e-18
8.82325e-20
1.01983e-19
1.43904e-19
2.17856e-19
3.05929e-19
3.23599e-19
3.82021e-19
5.93913e-20
6.5585e-20
7.49337e-20
9.07676e-20
9.4743e-20
9.90228e-20
5.26098e-20
2.35948e-19
1.46043e-19
8.4103e-20
5.12092e-20
5.95471e-20
7.56788e-20
8.13572e-20
7.86901e-18
5.39654e-18
9.13872e-18
1.32913e-17
1.77065e-17
2.95529e-17
3.55351e-17
9.08713e-14
2.99501e-14
7.58657e-15
3.80923e-15
2.25945e-15
1.65109e-15
1.1208e-15
3.30648e-18
3.52486e-18
3.9516e-18
4.51824e-18
5.52128e-18
6.69428e-18
9.55168e-18
6.03854e-20
3.08709e-20
2.67894e-20
2.30945e-20
1.37304e-20
1.09584e-20
7.70322e-21
1.07766e-20
9.3758e-21
8.77026e-21
4.5657e-21
3.75771e-21
1.65484e-21
4.67721e-22
3.49794e-19
3.9536e-19
4.39124e-19
4.71557e-19
4.6551e-19
3.82269e-19
2.17859e-19
5.03749e-19
4.82675e-19
5.24778e-19
7.40322e-19
8.47226e-19
9.92394e-19
1.00713e-18
5.90758e-18
4.78893e-18
7.59253e-18
1.07404e-17
1.50364e-17
2.90261e-17
4.01986e-17
8.38003e-14
4.07236e-14
1.66189e-14
6.84377e-15
3.42542e-15
2.7873e-15
2.21787e-15
2.10293e-18
2.23924e-18
2.95806e-18
3.88358e-18
5.06526e-18
7.09853e-18
8.9248e-18
4.95991e-19
5.51125e-19
5.73334e-19
4.91414e-19
2.65226e-19
1.62103e-19
1.255e-19
9.24189e-20
9.46528e-20
8.55078e-20
4.56069e-20
2.96953e-20
7.6612e-21
2.12268e-21
2.09513e-18
2.62802e-18
2.9548e-18
3.07993e-18
2.84453e-18
1.43431e-18
8.87837e-19
2.43606e-18
3.04839e-18
3.7669e-18
5.37628e-18
6.13323e-18
6.39072e-18
5.82621e-18
9.31548e-18
3.42658e-18
5.52991e-18
7.96913e-18
1.13337e-17
1.90157e-17
2.5251e-17
6.52833e-14
4.75611e-14
2.99303e-14
1.33868e-14
1.01159e-14
6.38554e-15
4.64623e-15
6.02792e-17
1.85977e-18
2.3979e-18
2.50566e-18
3.42226e-18
5.68673e-18
7.22821e-18
2.50759e-18
3.04348e-18
3.38568e-18
3.04551e-18
1.97379e-18
1.22787e-18
8.48327e-19
2.15288e-19
3.04333e-19
3.14917e-19
2.7081e-19
1.83077e-19
6.38381e-20
1.08324e-20
7.47007e-18
5.81582e-18
9.85059e-18
8.70679e-18
9.54963e-18
5.22076e-18
1.71144e-18
7.99463e-17
6.36905e-18
1.3188e-17
2.14155e-17
4.29584e-17
4.85211e-17
3.55762e-17
2.95178e-15
1.7069e-17
2.67971e-18
4.61772e-18
7.87154e-18
1.46516e-17
1.72113e-17
4.43454e-14
3.99886e-14
3.00561e-14
2.30306e-14
1.51017e-14
9.92236e-15
6.55719e-15
2.90183e-16
4.15449e-17
1.31543e-17
3.55199e-18
2.50007e-18
2.42836e-18
3.74374e-18
3.96862e-17
3.80958e-17
2.01022e-17
1.3049e-17
9.27669e-18
4.49095e-18
2.69845e-18
6.78156e-19
8.04109e-19
9.26472e-19
7.51708e-19
5.16355e-19
1.78086e-19
3.59822e-20
1.93254e-16
1.17946e-16
5.11134e-17
3.16626e-17
2.60443e-17
1.57264e-17
4.54871e-18
1.48062e-15
9.77973e-16
4.54706e-16
2.42099e-16
1.92456e-16
1.64223e-16
1.07414e-16
7.38369e-15
3.11615e-15
1.94303e-15
8.26903e-16
3.09546e-16
1.42192e-16
6.06573e-17
2.38463e-14
2.33484e-14
2.14862e-14
1.73811e-14
1.40904e-14
1.19051e-14
7.42549e-15
1.63963e-15
1.89414e-15
1.29729e-15
5.06333e-16
3.06588e-16
1.58477e-16
6.60848e-17
3.18397e-17
3.05459e-17
2.58743e-17
2.26194e-17
1.80563e-17
1.15994e-17
6.48738e-18
8.17051e-19
7.82311e-19
7.50324e-19
6.62569e-19
5.73758e-19
3.91393e-19
4.70814e-20
1.17455e-16
1.02447e-16
6.96975e-17
5.37977e-17
4.30656e-17
2.23063e-17
6.51599e-18
1.42237e-15
1.27829e-15
9.00415e-16
6.77761e-16
5.10833e-16
3.46009e-16
2.79018e-16
5.99903e-15
4.88842e-15
3.86171e-15
2.75146e-15
1.93855e-15
1.0871e-15
6.95567e-16
7.62808e-15
7.4563e-15
6.9939e-15
5.99644e-15
5.34566e-15
5.26786e-15
5.06272e-15
8.57899e-16
8.37682e-16
6.30901e-16
5.08625e-16
3.92022e-16
2.38835e-16
1.57428e-16
1.07539e-17
1.01865e-17
7.21636e-18
5.72991e-18
3.47398e-18
2.38924e-18
2.07158e-18
7.01502e-19
6.38766e-19
5.97167e-19
5.16406e-19
4.33166e-19
2.30793e-19
6.49401e-20
1.71509e-17
2.04476e-17
1.95211e-17
1.63443e-17
1.34271e-17
8.90438e-18
3.35482e-18
2.76502e-16
3.07028e-16
2.64874e-16
2.28751e-16
1.917e-16
1.58306e-16
1.14106e-16
2.12327e-15
2.22626e-15
2.13659e-15
1.93679e-15
1.56401e-15
1.08214e-15
9.65966e-16
9.87139e-16
1.17871e-15
1.07139e-15
1.00529e-15
7.76011e-16
7.79662e-16
8.94821e-16
1.69802e-16
1.68726e-16
1.62297e-16
1.54257e-16
1.38402e-16
1.24643e-16
1.19276e-16
1.00268e-18
8.27674e-19
6.20405e-19
4.86618e-19
4.20127e-19
2.91706e-19
2.9575e-19
3.65418e-19
3.47307e-19
2.92897e-19
2.45662e-19
2.15536e-19
1.33664e-19
5.63071e-20
3.49347e-21
1.00158e-20
1.55827e-20
1.55013e-20
1.42926e-20
1.24101e-20
1.10171e-20
2.03203e-20
1.94023e-20
1.43102e-20
1.26424e-20
8.86296e-21
7.22857e-21
9.1718e-21
3.17498e-19
1.51746e-19
1.12075e-19
5.52701e-20
3.9064e-20
2.27707e-20
1.59951e-19
1.32631e-17
1.99434e-17
2.36217e-17
3.74053e-17
7.83177e-17
2.91709e-16
8.49741e-16
3.90776e-19
2.47812e-19
1.51337e-19
8.2713e-20
4.05023e-20
1.75613e-20
3.92357e-17
9.26834e-23
1.25053e-22
1.2679e-22
8.82417e-22
1.27804e-21
1.26477e-21
3.48756e-19
5.69543e-22
6.54134e-22
6.16101e-22
5.53075e-22
5.39565e-22
4.93726e-22
8.4792e-21
4.35545e-20
6.63272e-20
1.11806e-19
1.1678e-19
1.10755e-19
1.05751e-19
9.41957e-20
1.9402e-19
1.81977e-19
1.45886e-19
1.21399e-19
8.06232e-20
6.87574e-20
5.2215e-20
2.94403e-19
1.74436e-19
9.16306e-20
7.10279e-20
3.94429e-20
1.9708e-20
1.11563e-19
3.6391e-17
4.90759e-17
5.64765e-17
7.75101e-17
1.71505e-16
4.36496e-16
8.3542e-16
5.76899e-19
3.12483e-19
1.44705e-19
8.10763e-20
4.02322e-20
1.97108e-20
3.46978e-17
1.04187e-21
1.01315e-21
9.10972e-22
1.06647e-21
1.42332e-21
1.3988e-21
2.42139e-19
2.53829e-21
3.02632e-21
2.89206e-21
2.69806e-21
2.61882e-21
2.36911e-21
9.29985e-21
1.31788e-19
1.81578e-19
2.89564e-19
4.74736e-19
5.35515e-19
5.14647e-19
4.22226e-19
1.14055e-18
8.59804e-19
7.21313e-19
4.91091e-19
3.28104e-19
2.76483e-19
2.09741e-19
2.9775e-19
1.78025e-19
1.20405e-19
7.22003e-20
3.72795e-20
1.97592e-20
7.88213e-19
4.60249e-17
6.46045e-17
8.4735e-17
1.19217e-16
2.42526e-16
4.88873e-16
7.64734e-16
3.45223e-19
2.20561e-19
1.30716e-19
5.45991e-20
2.14493e-20
1.21125e-18
3.57561e-17
7.35256e-21
6.56192e-21
4.83955e-21
4.09634e-21
3.53305e-21
1.78547e-20
8.14059e-19
8.24195e-21
8.11387e-21
9.00673e-21
8.56083e-21
7.83501e-21
6.45763e-21
4.04768e-20
2.97611e-19
5.35412e-19
9.02653e-19
1.24564e-18
2.08578e-18
2.18147e-18
2.982e-18
4.02918e-18
4.15895e-18
4.13666e-18
2.89377e-18
1.59878e-18
1.86776e-18
1.62356e-17
5.6131e-19
4.84784e-19
3.36692e-19
2.36645e-19
1.72029e-19
2.70676e-17
4.90864e-16
5.48895e-17
9.79964e-17
1.26841e-16
1.79839e-16
2.56342e-16
4.14053e-16
5.07027e-16
1.34941e-19
7.91578e-20
3.59279e-20
1.72387e-20
1.14326e-19
8.10649e-18
3.79624e-17
2.3807e-20
2.13199e-20
1.47278e-20
1.04184e-20
9.65753e-21
2.31643e-19
1.09672e-18
1.70249e-20
2.24757e-20
2.80356e-20
2.38239e-20
2.0342e-20
2.12044e-20
6.86824e-20
4.93155e-19
1.06798e-18
2.3027e-18
3.46417e-18
5.77926e-18
1.20205e-17
1.46075e-17
1.06334e-17
1.52605e-17
2.95991e-17
4.33055e-17
6.22097e-17
1.13265e-16
1.5444e-16
1.3637e-17
2.7207e-17
5.1695e-17
8.78743e-17
1.65559e-16
4.25298e-16
7.95815e-16
5.29193e-17
7.79055e-17
1.11604e-16
1.64802e-16
1.89459e-16
2.26816e-16
2.35782e-16
7.93353e-20
3.38811e-19
1.78403e-18
3.33175e-18
1.05684e-17
1.84785e-17
3.7266e-17
3.65427e-20
1.08832e-19
2.3948e-19
5.16114e-19
1.34556e-18
3.62209e-18
6.30358e-18
4.70159e-20
8.39318e-20
9.22647e-20
8.78577e-20
2.01764e-19
4.1529e-19
6.54555e-19
7.90633e-19
1.92289e-18
3.15288e-18
3.93754e-18
3.51522e-18
3.67631e-18
4.1123e-18
3.91099e-17
5.31153e-17
6.92402e-17
8.61757e-17
1.00746e-16
1.28243e-16
1.35272e-16
8.6605e-17
1.57991e-16
1.9451e-16
2.49721e-16
3.28357e-16
5.01944e-16
5.74605e-16
4.54348e-17
5.51424e-17
5.91181e-17
6.90231e-17
7.6258e-17
8.63215e-17
9.02148e-17
2.23056e-18
4.03534e-18
6.44411e-18
1.04842e-17
1.34463e-17
2.07296e-17
2.50197e-17
8.29868e-19
1.57319e-18
2.21578e-18
3.62741e-18
5.23879e-18
6.34072e-18
7.63517e-18
7.10895e-20
1.5273e-19
2.10032e-19
2.80532e-19
4.92355e-19
6.11446e-19
4.26571e-19
1.03933e-18
1.23855e-18
1.635e-18
1.7385e-18
1.751e-18
1.76338e-18
7.20548e-19
2.11818e-17
3.02142e-17
3.66307e-17
3.98907e-17
4.48925e-17
5.06135e-17
4.85422e-17
1.27956e-16
1.47416e-16
1.76735e-16
2.07855e-16
2.42631e-16
2.67717e-16
2.65576e-16
3.18048e-17
3.27522e-17
3.36702e-17
3.50789e-17
3.81061e-17
3.93651e-17
4.09695e-17
3.36837e-18
4.46251e-18
5.90142e-18
7.47868e-18
1.07027e-17
1.21737e-17
1.2622e-17
6.36177e-19
1.00741e-18
1.28687e-18
2.26423e-18
2.62426e-18
2.89385e-18
2.95418e-18
7.01361e-20
8.79767e-20
1.12336e-19
1.83763e-19
2.01885e-19
1.71125e-19
7.69107e-20
6.54425e-25
1.19118e-24
1.45469e-23
6.27202e-23
3.00871e-22
4.75493e-22
1.13714e-21
1.49504e-24
3.22413e-24
7.59721e-23
6.05595e-22
2.1739e-21
5.92375e-21
1.69448e-20
1.5589e-19
4.13744e-19
6.11183e-19
6.13561e-19
4.99589e-19
4.27123e-19
4.20425e-19
1.19569e-18
3.26233e-18
4.89269e-18
5.97368e-18
7.61507e-18
8.79448e-18
1.16837e-17
1.82507e-19
4.79094e-19
6.0712e-19
6.55799e-19
5.95259e-19
5.466e-19
5.74673e-19
5.07224e-25
3.03664e-24
3.39789e-24
8.90568e-24
1.47694e-23
2.04956e-23
4.93453e-23
1.92554e-26
4.89618e-26
3.86396e-25
1.36634e-24
6.86354e-24
4.09499e-23
1.26693e-22
3.95801e-25
2.0441e-24
3.78072e-23
2.88797e-22
6.4592e-22
3.32365e-21
7.11423e-21
1.45388e-24
5.01549e-24
4.61469e-22
4.60994e-21
2.15586e-20
6.2867e-20
1.16461e-19
2.6255e-19
6.10703e-19
1.04937e-18
1.21084e-18
1.00218e-18
6.15367e-19
4.23898e-19
1.98101e-18
5.61354e-18
9.85301e-18
1.50416e-17
1.84718e-17
2.23193e-17
3.12764e-17
3.19001e-19
8.45254e-19
1.11402e-18
1.40489e-18
1.29358e-18
1.18732e-18
9.71118e-19
1.59058e-24
7.63262e-24
1.64213e-23
6.13818e-23
2.82217e-22
4.40035e-22
9.22842e-22
4.3597e-26
2.91672e-25
1.01953e-24
5.56826e-24
2.36155e-23
1.56648e-22
7.21662e-22
3.56695e-25
2.74477e-24
5.81971e-23
4.34936e-22
2.15022e-21
9.74658e-21
2.15181e-20
2.87256e-24
1.12439e-23
1.06419e-21
1.54786e-20
1.36105e-19
6.57762e-19
1.16245e-18
3.4408e-19
7.45835e-19
1.34117e-18
1.19485e-18
7.15416e-19
4.67554e-19
3.99002e-19
2.40731e-18
6.62603e-18
1.13252e-17
1.66888e-17
1.92904e-17
3.02224e-17
4.01547e-17
4.48786e-19
9.86929e-19
1.35419e-18
1.5513e-18
1.27949e-18
6.76217e-19
5.1612e-19
2.05243e-24
1.32574e-23
1.00276e-22
4.16712e-22
2.34772e-21
5.08032e-21
7.46659e-21
7.17887e-26
7.6959e-25
3.24012e-24
2.1473e-23
1.07352e-22
4.46732e-22
3.09245e-21
7.7355e-25
4.40106e-24
1.2144e-22
1.00052e-21
3.47174e-21
2.27424e-20
7.46888e-20
3.62896e-24
2.05925e-23
3.11259e-21
9.47941e-20
8.23385e-19
1.95591e-18
4.08815e-18
3.62815e-19
8.34001e-19
1.58516e-18
9.53594e-19
4.81325e-19
4.19124e-19
5.30034e-19
2.49448e-18
8.78618e-18
1.69702e-17
2.32554e-17
3.03072e-17
3.42523e-17
4.63085e-17
4.70595e-19
9.99625e-19
1.84709e-18
1.58354e-18
8.6405e-19
4.18935e-19
2.35407e-19
2.60815e-24
2.40634e-23
2.78651e-22
1.90014e-21
8.38494e-21
2.36456e-20
3.18928e-20
1.18465e-25
1.13729e-24
6.08856e-24
4.09185e-23
1.89969e-22
7.30031e-22
4.58451e-21
1.47005e-24
9.27155e-24
2.30709e-22
1.29462e-21
8.44316e-21
4.45106e-20
9.95652e-20
3.96392e-24
3.7911e-23
7.32668e-21
2.33375e-19
2.07037e-18
9.43932e-18
1.42503e-17
4.17631e-19
1.00438e-18
1.36295e-18
6.62767e-19
4.79639e-19
9.84278e-19
2.59454e-18
2.95148e-18
9.80525e-18
1.70969e-17
2.29363e-17
2.86998e-17
3.34262e-17
4.48217e-17
5.55275e-19
1.18347e-18
1.72756e-18
1.0853e-18
4.8703e-19
2.0949e-19
1.01972e-19
2.98999e-24
4.27995e-23
7.54622e-22
6.34381e-21
3.00351e-20
6.48659e-20
1.62403e-19
1.63021e-25
1.60767e-24
8.58677e-24
5.08287e-23
2.90765e-22
1.02072e-21
6.10662e-21
2.68371e-24
1.21283e-23
2.74468e-22
1.72345e-21
1.13259e-20
5.84584e-20
1.36358e-19
7.44992e-24
7.20622e-23
1.8389e-20
5.05397e-19
4.81098e-18
1.55144e-17
2.43896e-17
4.22564e-19
1.05673e-18
1.18587e-18
5.61308e-19
1.12305e-18
1.52462e-17
4.97324e-17
2.89051e-18
9.68736e-18
1.68074e-17
2.06019e-17
2.80523e-17
3.31365e-17
4.03379e-17
5.83092e-19
1.17815e-18
1.62588e-18
7.52568e-19
2.85174e-19
2.50405e-19
7.41947e-19
3.07714e-24
6.63771e-23
1.56329e-21
2.60844e-20
9.3972e-20
2.34795e-19
4.92116e-19
2.32487e-25
2.01736e-24
1.43199e-23
8.58034e-23
3.84115e-22
1.22154e-21
8.07798e-21
3.32416e-24
1.55689e-23
3.58785e-22
2.03183e-21
1.29714e-20
7.66416e-20
1.52611e-19
9.78331e-24
1.07135e-22
2.41131e-20
4.75932e-19
4.60584e-18
1.17681e-17
1.53171e-17
4.14591e-19
1.05143e-18
1.87869e-18
1.06859e-17
3.41774e-17
6.45924e-17
9.28521e-17
3.77759e-18
1.15115e-17
1.78901e-17
2.22082e-17
2.71436e-17
2.92053e-17
2.97899e-17
6.20364e-19
1.2118e-18
1.23749e-18
5.34849e-19
7.99984e-19
1.81196e-18
2.63047e-18
3.04236e-24
8.86246e-23
2.51002e-21
4.33614e-20
1.70083e-19
3.29772e-19
4.41726e-19
3.28401e-25
2.58329e-24
1.81254e-23
1.07466e-22
4.32761e-22
1.29826e-21
8.7854e-21
8.93768e-27
1.69126e-23
1.82454e-22
2.36499e-21
1.36873e-20
5.04989e-20
1.78674e-19
1.16527e-23
1.60329e-22
2.23674e-21
3.21523e-20
4.07164e-19
9.38401e-19
1.61229e-18
3.51393e-19
4.08369e-19
6.38824e-19
3.12994e-18
1.13619e-17
2.60552e-17
2.8556e-17
3.38371e-18
7.47829e-18
8.76422e-18
9.21795e-18
1.07444e-17
1.1651e-17
1.11588e-17
4.20264e-19
3.92478e-19
4.23176e-19
2.08045e-19
3.06422e-19
6.17963e-19
5.28338e-19
2.83809e-24
9.97964e-24
1.10136e-22
1.28569e-21
9.19467e-21
1.76836e-20
3.28689e-20
3.72617e-25
1.53085e-24
2.11317e-23
1.32568e-22
4.89051e-22
1.41133e-21
4.10948e-21
1.25593e-26
1.45585e-26
6.12532e-26
1.2076e-25
5.86773e-25
7.93041e-25
4.00398e-24
4.76478e-25
7.74452e-25
1.81544e-24
6.14443e-24
2.87251e-23
5.74468e-23
1.06851e-22
8.81732e-20
1.2247e-19
1.68529e-19
6.06312e-19
3.18208e-18
7.78795e-18
1.13635e-17
1.4941e-18
2.92701e-18
3.1697e-18
3.28086e-18
4.88308e-18
6.09437e-18
6.04378e-18
1.00265e-19
1.18314e-19
1.33271e-19
8.96696e-20
9.51508e-20
1.36099e-19
1.70354e-19
5.40473e-25
5.82701e-25
6.37871e-25
4.8269e-25
5.31114e-25
7.38076e-25
1.31263e-24
1.74797e-26
9.25427e-27
9.3253e-27
5.82214e-27
4.56529e-27
2.68831e-27
7.33098e-27
5.75352e-30
4.33756e-30
1.12364e-28
4.36928e-27
3.67729e-27
8.14745e-27
2.73854e-26
2.62465e-25
2.36814e-25
3.22152e-25
1.39446e-24
7.95661e-24
1.91002e-23
4.55743e-23
4.17707e-20
3.28612e-20
5.37878e-20
2.15543e-19
1.35768e-18
3.31511e-18
7.83094e-18
7.8873e-19
1.43013e-18
1.47238e-18
1.546e-18
2.28738e-18
3.01856e-18
3.68504e-18
4.90145e-20
3.34095e-20
4.07556e-20
3.19807e-20
3.45652e-20
4.41324e-20
8.52273e-20
3.19145e-25
2.48306e-25
2.23409e-25
1.66726e-25
1.73945e-25
2.23252e-25
4.66032e-25
9.86212e-30
2.29066e-28
4.59617e-30
6.8464e-30
8.23596e-29
8.61563e-29
4.01636e-28
2.62736e-30
3.65749e-30
9.4223e-29
2.20805e-27
6.29142e-27
1.52687e-26
4.96542e-26
1.8874e-25
1.85167e-25
1.41155e-25
6.90075e-25
3.45059e-24
7.65397e-24
2.05479e-23
3.20604e-20
3.14408e-20
2.79672e-20
1.33482e-19
6.5655e-19
1.67479e-18
4.05219e-18
3.5026e-19
7.16758e-19
7.48151e-19
8.15648e-19
1.18512e-18
1.45393e-18