/*--------------------------------*- C++ -*----------------------------------*\
  =========                 |
  \\      /  F ield         | OpenFOAM: The Open Source CFD Toolbox
   \\    /   O peration     | Website:  https://openfoam.org
    \\  /    A nd           | Version:  6
     \\/     M anipulation  |
\*---------------------------------------------------------------------------*/
FoamFile
{
    version     2.0;
    format      ascii;
    class       volScalarField;
    location    "0.005";
    object      p;
}
// * * * * * * * * * * * * * * * * * * * * * * * * * * * * * * * * * * * * * //

dimensions      [1 -1 -2 0 0 0 0];

internalField   nonuniform List<scalar> 
3773
(
41411.3
41410.5
41408.9
41408
41409.1
41410.5
41411.6
99759.8
99759.6
99758.7
99758.4
99758.4
99758.3
99757.8
134456
134457
134459
134460
134458
134457
134455
145965
145964
145964
145964
145964
145964
145964
134455
134456
134458
134460
134460
134458
134457
99754.2
99754.8
99755.2
99755.1
99756.1
99756.9
99756.8
41410.1
41409.1
41407.6
41405.8
41405.7
41407.4
41407.5
41411.2
41410.2
41408.4
41407.7
41408.8
41410.6
41411.9
99760.4
99759.8
99758.6
99758.4
99758.5
99758.4
99757.9
134456
134457
134459
134460
134458
134456
134455
145964
145964
145964
145964
145964
145964
145964
134454
134456
134458
134460
134459
134458
134457
99754.5
99754.8
99755.3
99755.1
99755.9
99756.9
99757.4
41410.2
41409.1
41407.5
41405.6
41405.6
41407.2
41407.5
41411.6
41410.5
41408.3
41407.8
41409.1
41411.3
41412.8
99761.2
99760.1
99758.7
99758.6
99758.7
99758.6
99758.1
134456
134457
134459
134460
134458
134456
134454
145964
145964
145964
145964
145964
145964
145964
134454
134456
134458
134460
134459
134458
134457
99754.8
99755
99755.8
99755.4
99756
99757.2
99757.8
41410.8
41409.4
41407.8
41405.7
41405.8
41407.2
41407.9
41411.7
41410.7
41408.1
41407.9
41409.4
41411.7
41413.3
99762.8
99761.3
99759.8
99759.7
99759.6
99759.5
99759.1
134457
134457
134459
134460
134459
134456
134454
145964
145964
145964
145964
145964
145964
145964
134454
134456
134458
134460
134459
134458
134457
99756
99755.7
99756.9
99756.6
99756.8
99758.1
99759
41411
41409.7
41408.1
41405.8
41406.1
41407.2
41408
41410.9
41410.1
41407.7
41407.6
41409.3
41411.3
41412.6
99764.7
99763.1
99761.4
99761.3
99761
99760.9
99760.8
134457
134458
134460
134460
134459
134457
134455
145963
145964
145964
145964
145964
145963
145963
134455
134456
134458
134460
134460
134459
134458
99757.7
99757.1
99758.3
99758
99758
99759.5
99760.7
41410.3
41409.3
41407.9
41405.6
41405.9
41406.6
41407.1
41409.6
41409.3
41407.3
41407.3
41408.9
41410.2
41411.2
99766.5
99764.6
99762.9
99762.6
99762.2
99762.4
99762.5
134458
134458
134460
134461
134459
134457
134456
145963
145963
145963
145963
145963
145963
145963
134456
134457
134459
134460
134460
134459
134459
99759.5
99758.6
99759.5
99759.1
99759
99760.9
99762.4
41408.9
41408.3
41407.3
41405.2
41405.5
41405.6
41405.6
41408.4
41408.6
41406.9
41407.1
41408.3
41409.1
41410
99767.3
99765.4
99763.6
99763.1
99762.8
99763.4
99763.5
134458
134459
134461
134461
134460
134458
134456
145963
145963
145963
145963
145963
145963
145963
134456
134457
134459
134460
134460
134460
134459
99760.5
99759.6
99760.2
99759.8
99759.4
99761.7
99763.3
41407.7
41407.3
41406.5
41404.9
41405.3
41404.8
41404.4
63436.1
63454.4
63535.1
63537.4
63330.5
63035.3
62870.5
150427
150383
150309
150184
149979
149766
149646
201041
200968
200849
200721
200618
200559
200541
217452
217403
217343
217312
217317
217342
217373
200345
200356
200409
200486
200559
200596
200622
149340
149444
149638
149813
149868
149826
149795
62677
62825.4
63087.7
63277.5
63229.9
63078.8
63004.9
63230.2
63401.6
63804.3
63940.5
63692.7
63293.1
63084.2
149858
149938
150073
150076
149896
149694
149565
200369
200349
200326
200267
200176
200123
200111
216893
216858
216811
216763
216737
216756
216787
200028
200008
199976
199959
199986
200017
200035
149333
149380
149453
149488
149503
149436
149360
62861.8
62995.2
63312.9
63442.6
63346.3
63043.5
62885.7
62877.8
63040.9
63314.5
63423.6
63255.7
63167.9
62970.2
149117
149143
149143
149118
149056
149185
149109
199505
199462
199429
199413
199397
199387
199416
216057
216016
215979
215930
215908
215908
215946
199271
199236
199156
199087
199070
199129
199157
148752
148723
148588
148481
148508
148657
148700
62642.4
62671.5
62783.8
62844
62799.6
62698.9
62650.3
62319
62257.6
62237.8
62359.2
62411.7
62557.7
62546.5
148170
148110
147982
147999
147975
148311
148413
198445
198438
198420
198412
198429
198514
198590
214966
214926
214902
214896
214936
214945
215008
198153
198091
198074
198082
198099
198151
198192
147670
147544
147429
147454
147428
147717
147892
61919.5
61792.9
61744.7
61796.4
61952.1
62142.8
62252.7
61630.2
61485.4
61444.9
61587.9
61648.2
61947.7
62140.3
147040
146917
147041
147192
147300
147303
147567
197149
197093
197100
197141
197271
197367
197439
213596
213543
213512
213502
213594
213702
213736
196898
196875
196918
196876
196934
196988
197027
146615
146559
146724
146785
146744
146726
146840
61282
61091.6
61047.8
61212.2
61365.2
61532.8
61611.3
61042.8
60853.7
60850
60997
60892.3
61055.1
61310.9
145590
145439
145472
145584
145888
145934
146081
195367
195262
195191
195234
195467
195658
195772
211853
211743
211617
211626
211732
211906
212001
195352
195265
195182
195081
195161
195253
195325
145398
145319
145407
145333
145403
145342
145422
60712.9
60454.3
60508.5
60552.8
60634.1
60752.3
60897.5
60474.9
60269.8
60379.8
60453.7
59994
60088.6
60409.2
144051
143682
143428
143707
143742
144105
144395
193498
193329
193194
193264
193431
193680
193842
209965
209872
209727
209703
209785
209950
210049
193621
193434
193139
193160
193213
193384
193448
144071
143579
143224
143520
143539
143699
143852
60206
59871.9
59941.8
60182
59965.6
59936.6
60108.2
59493.8
59532
59545.8
59471
59202.6
59106
59160.9
142182
142015
141981
142265
142084
142220
142313
191306
191288
191344
191408
191326
191471
191504
207722
207689
207631
207654
207642
207712
207690
191532
191376
191249
191233
191229
191168
191169
142515
142214
141846
141959
141906
141718
141684
59614.6
59918.9
59494.9
59000.3
58814.2
58661.2
58649.1
58907.7
58865.5
59011.6
58968.8
58629.6
58534.5
58602.2
140934
140820
141010
141147
140925
140870
140930
189698
189797
189938
189962
189851
189812
189753
205961
206049
206006
205965
205932
205895
205840
190055
189935
189809
189708
189615
189530
189450
141716
141230
140977
140690
140495
140385
140412
59463.1
59447
58776.7
58024.5
57917.9
57970.1
58112
58030
57950.2
58356.6
58580.3
58122.3
57950.5
58053.3
139532
139659
140473
140304
139524
139472
139597
188087
188282
188666
188673
188415
188137
188087
204275
204277
204314
204328
204227
204098
204082
188657
188528
188372
188230
188073
187905
187837
141072
140649
140122
139662
139237
139111
139200
59621.9
59200.6
58333.5
57689.6
57568.9
57602.8
57713
57258.7
57077.1
57612.7
58009.9
57636.4
57449.7
57494.6
138216
138304
139438
139141
138127
138286
138510
186542
186672
187082
187095
186765
186563
186664
202819
202652
202556
202564
202453
202397
202482
187655
187306
186778
186500
186406
186392
186414
140728
140315
139050
137932
137673
137926
138096
59805.4
59034.1
58043.5
57196.3
56975.2
57150
57276.4
56888.1
56663.2
57007.9
57668.5
57597.9
57250.3
57245.4
137348
137236
137967
137932
137286
137458
137783
185246
185197
185297
185488
185034
185217
185593
201531
201362
201113
201018
200977
201073
201190
187079
186525
185579
184885
184806
185069
185248
141205
140203
137927
136261
136410
137090
137302
59814.4
59150.8
58017.8
56905.4
56649.8
56940.3
57005.6
56780.9
56720.1
57307.3
58427.6
57858.5
57236.2
57160.4
136916
136593
137115
138073
137405
137170
137388
184383
184327
184530
184868
184602
184765
184980
200507
200525
200363
200281
200312
200382
200370
186663
186019
184940
184231
184058
184268
184530
142159
140316
137233
136066
136285
136769
136898
59751.2
59030.2
57930.3
57295.8
57126.7
57302.8
56909.4
56658.8
57820.1
61000.9
63329.9
60286.1
57654.9
57105.8
136720
136947
140050
142782
139248
137225
137193
184383
184304
185147
185845
185076
184758
184618
199611
200081
200096
200041
200111
200351
200489
184527
184997
184399
183953
184250
184681
185007
140603
139047
137271
136770
137161
137222
136819
59443.8
58575.6
57407
57424.1
58768.3
58874.8
56630
60032.4
60131.5
61010.9
61345.6
60014.1
59957.9
59989
143295
143178
142562
143637
143019
143311
143522
192651
192526
192403
192529
192596
192800
192949
209101
209010
208943
208907
208980
209068
209108
192779
192702
192380
192482
192423
192529
192537
143445
143350
142553
143230
142919
143129
142995
59859.3
59819.9
60458.1
60790.4
59870.6
59579.8
59637.4
59980.5
60098.3
61087.7
61454.4
60035.3
59914.5
59936.9
143201
143109
142487
143635
142944
143218
143416
192560
192425
192307
192439
192495
192696
192852
209009
208900
208843
208802
208875
208971
209015
192684
192602
192287
192394
192332
192433
192439
143373
143327
142503
143185
142872
143049
142888
59814.4
59815.5
60506.2
60810.5
59854
59519
59576.7
59946.3
60076.2
61148.7
61567.2
60045.5
59855.4
59888.1
143114
143016
142452
143646
142897
143122
143322
192464
192328
192229
192354
192401
192595
192750
208918
208796
208745
208704
208775
208876
208921
192593
192507
192206
192308
192249
192336
192340
143311
143304
142453
143150
142847
142960
142792
59777.6
59829.2
60566
60814.8
59841.2
59471.8
59521.5
59926.8
60061.4
61244.6
61710.3
60055.3
59795.7
59852.6
143037
142926
142440
143657
142837
143043
143236
192358
192235
192159
192277
192309
192498
192637
208817
208692
208647
208615
208676
208773
208819
192496
192422
192130
192227
192171
192240
192230
143251
143303
142392
143117
142811
142884
142705
59746.5
59827.9
60610
60833.5
59848.1
59441.8
59476.5
59912.4
60057.4
61397
61890.3
60070.2
59769.8
59816.1
142955
142853
142386
143632
142755
142981
143146
192252
192143
192083
192203
192216
192405
192521
208713
208592
208544
208528
208575
208672
208719
192397
192334
192049
192147
192092
192146
192119
143188
143308
142301
143091
142736
142828
142617
59713.5
59772.3
60652.2
60928
59878.6
59425.7
59426
59888.9
60074.7
61462.6
61939.8
60075.2
59756.7
59767.3
142870
142782
142318
143570
142667
142924
143056
192144
192047
192001
192123
192119
192306
192406
208611
208500
208447
208441
208479
208576
208618
192297
192232
191959
192063
192004
192046
192009
143124
143283
142196
143054
142634
142758
142524
59681.1
59677.2
60658.5
60959.6
59881.1
59387.1
59357.7
59848.5
60070.5
61309.7
61697.2
60033
59689.1
59704.7
142788
142699
142287
143418
142574
142853
142970
192037
191952
191920
192043
192024
192203
192293
208508
208408
208358
208356
208388
208480
208511
192202
192130
191873
191972
191912
191939
191901
143055
143194
142133
142937
142533
142655
142428
59656.9
59630
60532.9
60752.1
59781.4
59299.5
59278.7
58129.8
60105.2
66139.5
68900.6
63191
58659.8
57591.2
137102
139414
145736
148777
142634
138134
137352
184663
184868
186400
187418
185368
184554
184180
198810
200143
200148
200210
199971
200072
199448
183231
183934
183527
184015
185259
186145
185282
138523
137688
136452
137471
140633
141386
140121
58912.9
58042.9
56966.5
58237.8
61692.4
64167.9
63838
58236.5
60605.8
66888.6
69183.7
63031.8
58846.3
57327.8
137303
140202
147047
149519
143023
138510
137093
184699
185136
186909
187803
185419
184507
184055
198915
200143
200117
200218
199879
199897
199319
182698
183476
183292
184093
185681
186566
185310
136802
137051
135991
137857
141731
143014
141072
57454.9
57440.6
57155.6
58813.2
61797.2
64860.6
65378.1
58154.8
60586.5
66510.8
68133
62570.4
58893.6
56945
137764
140621
147144
149063
142621
138642
136953
184798
185330
187196
187824
185322
184445
183984
199075
199997
200035
200167
199777
199693
199262
182449
183243
183247
184158
185975
186953
185314
135011
136387
136427
138620
142294
143815
141747
55962.6
56745.1
57523.4
59294.9
61675.8
64387.1
65373.1
57956.4
60350.3
65397.6
66613.6
62079.3
58899.4
56698.7
138099
140729
146186
147830
141772
138799
136967
184915
185476
187335
187755
185302
184478
183970
199238
199822
199976
200126
199744
199575
199246
182506
183243
183259
184307
186039
187115
185459
133917
135788
136999
139262
142499
143865
142182
55276.5
56474.5
57847.8
59599.8
61349.7
63492.8
64811.6
57882
60281.1
64830.4
66134.2
62127.2
58974
56610.7
138522
140894
145716
147393
141813
139028
137085
185095
185652
187461
187900
185497
184621
184186
199473
199706
199951
200129
199726
199507
199337
182748
183230
183353
184533
186042
187032
185850
133764
135666
137434
139736
142563
143950
142821
55125.5
56447.5
58069.3
59773.9
61027.3
62957.5
64818.9
57881.6
60519.2
65113.1
66432.3
62653.5
59134
56527.9
138771
141239
146088
147703
142364
139316
137064
185287
185861
187661
188201
185838
184826
184351
199690
199665
199967
200169
199749
199480
199487
183064
183181
183507
184741
186071
186866
186187
134014
135820
137699
140049
142636
144238
143596
54985.6
56422.1
58156.1
59823.7
60859.1
62967.5
65302.8
58047.1
60890.8
65654.6
66834.1
63250.4
59340.9
56481.5
138915
141728
146626
148347
142979
139630
136969
185483
186150
187903
188511
186151
185130
184393
199884
199677
200048
200247
199851
199513
199625
183596
183199
183665
184954
186212
186867
186406
134258
135997
137913
140308
142790
144550
144183
54876.7
56441.9
58174.4
59827.9
60889.7
63204.6
65780.9
58323.8
58347.5
58438.7
59740.8
63678
70766.1
80187.3
136565
135582
135140
135435
137283
140925
145920
182247
180717
179002
177565
176655
175874
175179
195935
194992
193746
192024
189934
187702
185640
183402
182498
181738
180903
180085
179404
178877
140439
140151
140569
142413
145285
149170
154067
64521.2
64239.1
64462.9
66187.3
70461.4
77321.7
85659.9
57159
56965.5
57101.7
58177.3
61136.2
66815.5
75377.3
135674
134622
133856
134080
135787
138917
143004
182021
180568
178949
177513
176466
175598
174765
196610
195264
193829
192111
190128
187919
185762
182844
181800
181226
180724
180057
179407
178868
139078
138857
139456
141216
143865
147252
151658
63374.7
62703
62982
64732.3
68281.5
74083.9
82048.5
56269.3
56049.6
56189.6
56891.9
58660.6
62042.5
68282.6
135001
133912
133088
133053
134088
136132
139134
181889
180461
178844
177390
176293
175421
174482
197018
195546
194008
192344
190413
188311
186096
182389
181386
181009
180681
180165
179639
179097
138757
137994
138509
140299
142839
145612
149261
62979.5
61906.9
62053.6
63528.4
66484.7
70650.9
77101.2
56027.1
55882.5
56028.9
56551.9
57646.5
59458.7
62876.9
134892
133748
132894
132637
133154
134462
136419
181684
180201
178628
177237
176124
175295
174444
197324
195887
194317
192669
190753
188664
186374
182425
181444
181060
180803
180482
180078
179476
138916
137681
138204
140217
142984
145612
148105
63075.9
62010.6
61993.3
63480.6
66264.4
69431.3
73498.4
56152
56064.3
56192.4
56661.4
57535
58888.5
60613.7
135227
134161
133321
132854
133006
133906
135430
181721
180078
178604
177251
176047
175135
174407
197609
196239
194683
193028
190994
188642
186140
182964
181836
181329
181112
180804
180354
179804
139543
138273
138775
140910
143594
146000
147859
63466
62607.8
63062
64813.4
67376.9
69992
72566.6
56304.3
56309.1
56496.6
57023
57934.9
59230.7
60389.5
135449
134523
133776
133270
133165
133800
134901
181965
180296
178810
177426
176052
174816
173686
197898
196582
195020
193315
191137
188168
184570
183713
182333
181598
181337
181029
180232
179053
140596
139432
139588
141623
144274
146235
147431
64383.1
63949.3
64716.1
66393.5
68410.1
70654.5
72725.2
56482.5
56745.4
57051.8
57685.7
58638.4
59646.5
60579.3
135508
134810
134170
133754
133787
134211
134497
182066
180422
178971
177668
176288
174666
172146
198049
196745
195172
193421
191157
187731
182074
184163
182749
181795
181516
181317
180073
177206
141263
140362
140568
142617
145099
146691
147102
65237.5
65178.7
65934.9
67400.6
69016.1
71015.6
71326.9
78212.7
70619.5
64987.3
61540.9
60153
59851.9
59582.7
145399
140922
138378
137170
136898
137145
137290
173694
174912
176356
177895
179673
181569
183179
180964
183668
186518
189171
191287
192806
193461
170482
172099
173973
176078
177963
179364
180024
140694
136480
133979
133434
133916
134988
136628
76151.6
66651.8
61195.8
58144.9
57694
58112.3
58775.3
75062.6
67891
62894.7
59957.4
58659.4
58304.1
58379.4
142911
139185
136893
135990
136005
136428
136676
173485
174790
176242
177808
179569
181442
182987
181290
184061
186870
189340
191551
193432
195145
170387
172107
174000
175974
177852
179296
180478
138681
135052
133028
132595
133160
134033
135102
71793.5
63173.6
58670.9
56918.1
56668.7
56883.1
57171.5
70663.8
64230.9
60704.7
58650.5
57616.2
57248.3
57472.4
139830
137002
135509
135113
135330
135834
136362
173494
174803
176208
177744
179527
181426
182936
181725
184591
187321
189720
192013
194154
196135
170280
172092
173954
175829
177670
179121
180429
135089
132658
131643
131596
132015
132684
133301
64421.2
58298.2
55881.5
55332.2
55508.2
55645.5
55656.8
66201.4
61492.4
59543.3
58169.1
57242
56836.1
57051.8
137656
135737
134872
134712
134942
135473
136255
173788
174903
176134
177599
179400
181392
182969
182104
185018
187748
190240
192596
194887
196802
170388
172101
173829
175604
177372
178809
180241
132027
130914
130664
130923
131321
131794
132304
58812
55699.8
54742
54663.7
54879.4
54988.9
55055
63603.1
60610
59320.8
58149.1
57244.8
56818.1
56962.5
136943
135843
134993
134668
134800
135471
136540
174048
175029
176141
177631
179458
181426
183164
181931
184994
187996
190742
193247
195545
197376
170596
172091
173665
175370
177075
178728
180382
131114
130478
130351
130680
131118
131580
132208
56871.6
55285.7
54583.7
54497.9
54699.7
54802.8
54875.7
62893.5
60892.5
59710.7
58424.5
57427.2
56962.9
56989.3
136806
136085
135299
134800
134915
135693
136855
173413
174831
176261
177972
179972
181934
183459
180301
184421
188034
191071
193814
196129
197863
170339
171968
173656
175401
177264
179111
180810
130916
130437
130319
130581
131009
131610
132416
56651.7
55487.7
54675.3
54487
54641.7
54727.5
54769.2
61405.8
61041.9
60189.9
59004.8
57829.9
57291.8
57320.5
136850
136329
135706
135159
135250
136060
137143
171874
174683
176430
178389
180506
182437
183799
177863
184008
188057
191270
194106
196480
198156
169448
172142
173961
175777
177753
179726
181382
130666
130486
130446
130626
131045
131750
132653
56674.6
55786.4
55051.5
54771.4
54782.8
54733.5
54690.7
98529.4
101210
101703
100120
96764.9
91594.6
85596.3
165039
165725
165492
163089
159360
154976
150389
178109
177176
175985
174699
173617
173093
173144
184162
182819
180811
179130
178348
178418
179275
175809
174695
172563
170583
169391
169145
169567
171977
168326
163025
158376
154053
150018
145685
105528
102901
100328
98146
95021.7
90804.5
85099.5
95297
96497.1
97471.8
96226.2
92480.6
87396.2
81947
162906
162092
161141
158843
155280
151297
147271
177053
175814
174581
173561
172784
172480
172711
184086
182513
180308
178533
177714
178002
179231
174264
173109
171416
169782
168714
168562
169199
166908
163709
159408
155199
151110
147268
143205
101366
99907.2
98108.6
95420.5
92232.3
87758.8
81174.4
93208.9
92659.7
92043
90421.5
86508.2
82006.6
77413.9
161958
159400
156602
153495
150107
146751
143401
175537
174348
173079
172159
171762
171961
172547
183632
181720
179344
177476
176770
177514
179284
171789
170831
169617
168464
167794
167957
168855
158724
156647
153317
149654
146082
142461
138734
94060.6
94064.7
92653.8
89857.4
86649.5
81673.4
73979.1
90175.1
88448.7
86687.9
84416.2
80817.3
77069.8
72801.7
159340
155643
152056
149039
146195
143458
140541
173439
172491
171354
170689
170951
171882
172821
182700
180675
178055
176110
175632
176863
179280
168734
167997
167288
166693
166734
167589
168864
149734
148094
145791
143114
140520
137592
134476
85555.2
85978
85196.3
82865.9
79100.6
73412.6
66189.7
85846.5
84085.6
81864.7
79278.6
76094.5
72862.7
68961.3
154541
151116
148198
145938
143788
141596
139064
170620
169892
169182
169136
170230
171667
172893
181350
179112
176193
174412
174574
176508
179140
165542
165069
164703
164789
165834
167480
169052
142279
141116
139936
138247
136299
134253
132404
79818
79447.9
78569.1
75920.9
71779.3
66856.6
61687.3
80889.3
80091.1
77502.2
74824.1
71651.6
69150.1
67153.7
148371
146307
144578
143754
142306
140599
138559
167405
166650
166514
167231
169142
170849
172031
179491
177351
174268
172367
172441
174034
176642
162548
162242
162206
163105
165075
167192
168810
139117
137519
136499
135487
134089
132872
131695
78782.1
76382.3
74016.3
70627.5
66945.4
63361.8
59779.3
75316.4
76012.6
73111.3
70577.2
67453.8
65644.9
65975
141931
141435
140183
140294
139401
138149
137168
163939
163053
163468
165061
166917
167089
167140
177321
175144
171815
169392
168339
168198
170163
159907
159663
160009
161649
163587
164348
164974
137832
135347
134507
133716
133042
132162
130784
78359.8
73961.8
70451.5
66882.5
63922.4
61196.6
58573.8
56760.7
56000.4
55036.3
53732.6
53815
54094.7
53523.1
124356
123828
122946
122133
121342
120444
119641
151052
150573
149930
149082
147415
144606
141259
161637
159863
157199
154375
151111
146984
142040
151708
151175
150405
149347
147454
144730
141667
125051
124554
123887
123344
122783
122001
121414
59925.5
59465.5
58015.8
56995.8
56102.9
55507.8
55583.4
44318.4
44290.3
44576.9
44913.7
45236.4
45374.6
45429.8
102677
102835
103008
103154
103361
103594
103831
131917
131825
131733
131765
131892
131896
131684
142105
141656
141014
140446
140044
139753
139208
133733
133549
133374
133202
133077
132994
132839
104904
105069
105309
105582
105782
105875
105991
45301.4
45584.7
45780.8
46031.9
46308.6
46585.3
46779.5
39394.6
39473.7
39590.2
39606.8
39650.2
39748.5
39794.4
90863.2
91076.4
91365
91676.1
91988
92263.1
92436
119834
119937
120215
120734
121359
121843
121973
129715
129760
129968
130394
130945
131464
131661
120075
120134
120489
120936
121377
121735
121852
90676.4
90869.1
91132.6
91354.1
91540.2
91709.6
91825.4
39492.4
39504.4
39560.6
39582.5
39575.3
39532.4
39477.2
38135.6
38098.7
38005.9
37972.6
37949.9
37926.3
37889.5
86356.5
86335.9
86352
86364
86398.2
86447.4
86476.4
113610
113529
113561
113709
113819
113907
113882
122876
122697
122629
122797
123007
123118
123074
113265
113299
113330
113480
113661
113806
113845
85721.9
85726.8
85722.1
85721.3
85760.6
85807.4
85846.3
37889.7
37872.9
37856.3
37842.2
37828.9
37832.1
37828
37629.2
37642.5
37666.8
37700
37684
37666.6
37673.6
85469.6
85457.8
85455
85450.5
85468.9
85484.2
85492.8
111538
111439
111331
111185
111133
111178
111084
119652
119391
119071
118887
118819
118693
118385
110809
110725
110641
110581
110547
110560
110533
84841.7
84842.4
84814.2
84790.6
84763.8
84748.3
84763.5
37459.2
37472.5
37477.6
37507.2
37547.5
37543.2
37553.3
39044.6
39083.1
39167.2
39263.1
39283.6
39296.3
39326.4
86811.6
86821.1
86854.7
86917.5
86975.6
87000.3
87037.9
110155
110120
110139
110140
110121
110162
110128
116942
116766
116587
116392
116315
116367
116023
109566
109542
109549
109587
109602
109649
109651
86353.4
86369.4
86382
86416.7
86434.4
86436.4
86475.9
38970.3
38998.5
39046.1
39123.8
39196.4
39211.1
39235.5
49478.2
49466.6
49437.5
49396.9
49396.5
49397.9
49370.4
86605.1
86640.2
86706.8
86793.8
86849.6
86872
86904.5
105764
105781
105857
105945
105961
105979
105977
111760
111629
111573
111438
111343
111540
111204
105441
105460
105528
105634
105688
105730
105754
86358.7
86390.4
86452
86525
86584
86603
86635.5
49474.4
49458.6
49460.2
49432.8
49393.5
49387.1
49366.3
88115.7
93760.9
98491
102016
103923
103923
101247
151292
156090
160941
164956
167458
168038
167325
174919
175034
175637
176601
177854
179205
180122
183991
182913
182538
183072
184472
186270
187687
178764
178969
179461
180153
181065
182071
182900
158968
163148
166978
170122
172330
173051
172660
92278.3
97187.8
101520
104672
106481
106630
104361
83572.3
89540.5
94234.9
97700.3
99191.6
98470.5
97507.2
147836
152250
156645
160578
163168
164091
164796
174311
174246
174642
175426
176460
177622
178787
184067
182812
182247
182618
183908
185710
187051
178625
178685
178976
179376
179980
180870
181919
156115
160030
163648
166535
168394
169266
169986
88736.9
93209.2
97109.1
100416
101735
101136
100195
76442.3
83040.8
87763.4
91041.3
92973.3
94162.2
94938.8
142927
146915
150897
154768
158090
160947
163425
173766
173384
173346
173811
174736
175872
177013
184086
182533
181765
181942
182944
184631
186112
178678
178493
178404
178421
178802
179633
180620
153078
156388
159271
161717
163797
165879
168284
84181.6
87889.9
90904.3
93832.4
95356.3
96198.5
97064.3
69390.1
75789.6
80371.6
83932.5
86642.9
89204.9
91247.9
139001
142224
145656
149163
152355
156335
160012
173591
172812
172135
172028
172658
173710
174685
184127
182255
181052
180845
181652
183239
184705
178888
178378
177791
177337
177442
178088
178862
151002
153505
155411
157143
158905
161841
165355
79242.7
82911.4
85257.6
87522.2
89540.5
91472.9
93661.7
64909.2
70391.3
74867.2
78566.8
81553.9
84171.3
86058.4
137221
139324
141902
144731
147159
150572
153960
173448
172280
171034
170110
170074
170806
171579
183787
181562
179824
179128
179891
181603
183092
179009
178043
176977
175976
175592
175838
176445
149687
151389
152644
153744
154935
157426
160575
76044.3
78909.9
81217.9
83338.6
85512.1
87652.4
89682.7
63700.2
68269
71911.3
75306.7
77846
79844.3
80310.7
136198
138104
139866
141447
142869
145014
147071
172557
171316
169681
167965
167194
167363
168169
181295
178956
177370
176884
177786
179725
181056
177727
176546
175314
173840
172917
172847
173552
148111
149155
150399
151600
151867
153254
154883
74853.1
75819.7
77847.9
80982
83129
84866.2
85515.3
62698.7
66773.9
69361.7
72153.5
73928.6
75464.5
74223.2
134302
136904
137413
138084
138457
139943
140507
167908
167733
167378
165614
164230
163922
164776
174688
172939
173038
173752
175083
177284
178700
172383
172054
172297
171203
169790
169374
170173
144751
145387
147122
148694
147893
148767
148815
73413.9
72476
74062.2
77759.3
79749.4
81293.4
80100.9
54023.4
53960.2
54545.3
54693.2
55065.9
54895.6
54898
120263
120946
121280
121728
122317
122897
123308
143664
146893
149521
151134
151974
152529
152910
145749
150697
154822
158220
160951
163214
164625
146937
150320
153392
155377
156390
157138
157580
125209
126412
127544
128497
129325
130005
130440
56135.6
56587.9
57106.7
57444.8
57960.6
58028.6
57761.9
46561.8
46197.4
45912.2
45591
45380.3
45353.2
45477.2
106188
106039
105997
105716
105461
105299
105170
135663
135786
135665
135506
135462
135522
135592
144213
144673
144883
145130
145505
145984
146243
138539
138748
138659
138441
138225
138146
138137
110627
110355
110056
109800
109774
109702
109662
48319.5
48374.5
48308.4
48042.1
47940.4
47955.3
48187.4
40369.6
40377.1
40350
40340.7
40297.6
40203
40126.2
94146.7
94027.1
93825.1
93574.1
93283.9
92987.2
92773.5
125176
125065
124624
124006
123489
123220
123138
135733
135507
134909
134316
133867
133668
133734
127171
127002
126394
125683
125075
124670
124509
97503.8
97162.3
96694.8
96180.4
95690.4
95241
94930.1
41774.5
41705.4
41640.4
41652.1
41606.9
41448.6
41301.4
38333.7
38371.9
38378.5
38307.7
38326.4
38398.4
38446
87579.3
87524.3
87459.6
87399.3
87360.8
87319.6
87322.1
115977
116016
115924
115780
115679
115652
115675
125828
125880
125778
125659
125497
125513
125612
116594
116633
116526
116406
116304
116256
116280
88668.7
88581.4
88462.1
88358.9
88279.4
88224.2
88249.2
38902.7
38904.3
38876.7
38852.8
38886.5
38946
38978.4
38080.2
38047.2
38052.1
38056
38028.3
38008.3
38010.5
85897.1
85901.2
85894.6
85894.2
85909.4
85910.3
85914.5
112088
112149
112149
112197
112288
112384
112491
120014
120272
120409
120459
120663
120978
121245
112063
112135
112196
112318
112466
112598
112742
86174.1
86200.4
86203
86237
86271.9
86313
86351.6
38483.6
38444.5
38461.3
38407
38300.3
38233.1
38200.9
39576.9
39514.8
39509.1
39519
39456.2
39372.7
39324.4
87268.5
87244.8
87226.4
87191.2
87151.7
87124.5
87113.2
110790
110805
110764
110780
110767
110746
110785
117096
117414
117361
117436
117674
117896
118110
110797
110828
110826
110872
110902
110919
110994
87541.3
87537.9
87501.6
87482.1
87468.4
87485.4
87510
39904.9
39860.5
39866.2
39791.8
39623.7
39504.8
39456.9
49279.7
49313.5
49320.1
49312.3
49330.4
49352.6
49358.5
87125.7
87092.6
87073.5
87021.7
86936.3
86863.3
86821.4
106695
106676
106630
106593
106486
106402
106387
112256
112611
112414
112507
112674
112750
112907
106952
106947
106893
106845
106749
106677
106676
87476.7
87453.9
87396
87320.9
87228
87162.5
87133.3
49264.2
49287.2
49273.5
49291.4
49324.3
49331.1
49314.5
)
;

boundaryField
{
    fuel
    {
        type            zeroGradient;
    }
    primary_air
    {
        type            zeroGradient;
    }
    Secondary_air_RHS
    {
        type            zeroGradient;
    }
    Secondary_air_LHS
    {
        type            zeroGradient;
    }
    outlet
    {
        type            totalPressure;
        rho             rho;
        psi             none;
        gamma           1;
        p0              uniform 100000;
        value           nonuniform List<scalar> 
98
(
45060.6
75800
100000
100000
100000
76130.3
45222.1
45166.4
75917.8
100000
100000
100000
76232.7
45313.9
45122.5
75715
100000
100000
100000
76025
45144
45012
75674.9
100000
100000
100000
75994.3
45022.5
45010
75851.4
100000
100000
100000
76119
45209.3
45110.6
75695.9
100000
100000
100000
75969.5
45208.3
45084.5
75566.7
100000
100000
100000
75898
45356.5
45035.9
75287.9
100000
100000
100000
75087.2
44956.8
45035.2
75403.2
100000
100000
100000
75161.4
45006.7
45052.9
75517.1
100000
100000
100000
75242.1
44958.2
45084.3
75453.7
100000
100000
100000
75188.1
44981.2
45200
75444.7
100000
100000
100000
75186.8
44945.4
45150.4
75662.5
100000
100000
100000
75384.1
45006.2
45281.9
75542.7
100000
100000
100000
75301.7
45065.2
)
;
    }
    stove_body
    {
        type            zeroGradient;
    }
    frontAndBack
    {
        type            empty;
    }
}


// ************************************************************************* //
