/*--------------------------------*- C++ -*----------------------------------*\
  =========                 |
  \\      /  F ield         | OpenFOAM: The Open Source CFD Toolbox
   \\    /   O peration     | Website:  https://openfoam.org
    \\  /    A nd           | Version:  6
     \\/     M anipulation  |
\*---------------------------------------------------------------------------*/
FoamFile
{
    version     2.0;
    format      ascii;
    class       surfaceScalarField;
    location    "0.005";
    object      phi;
}
// * * * * * * * * * * * * * * * * * * * * * * * * * * * * * * * * * * * * * //

dimensions      [1 0 -1 0 0 0 0];

internalField   nonuniform List<scalar> 
10143
(
-6.94988e-08
-2.07119e-05
3.27123e-05
3.02404e-08
-1.92045e-05
3.08703e-05
7.84355e-07
-1.93844e-05
3.02395e-05
1.30547e-06
-1.96708e-05
3.06796e-05
1.34744e-06
-1.98059e-05
3.16098e-05
5.08385e-07
-2.03166e-05
3.31243e-05
-2.15624e-05
3.43015e-05
2.70934e-07
-1.57419e-05
2.37182e-06
3.78774e-07
-1.58425e-05
3.99498e-06
-3.56743e-07
-1.60748e-05
5.41034e-06
-7.34666e-07
-1.58029e-05
4.70849e-06
-2.39922e-07
-1.55753e-05
3.05952e-06
-3.79773e-07
-1.58444e-05
3.17729e-06
-1.54932e-05
1.20337e-06
-9.61753e-08
-1.03757e-05
9.52819e-06
1.41498e-07
-1.05598e-05
9.29696e-06
-1.93836e-07
-1.09508e-05
1.01739e-05
1.39494e-07
-1.08488e-05
9.69214e-06
9.32937e-07
-1.08263e-05
9.41432e-06
-2.86038e-07
-1.12009e-05
1.14432e-05
-1.03417e-05
9.36794e-06
2.05395e-07
1.05225e-05
5.68629e-06
1.01907e-06
1.07158e-05
4.56065e-06
1.21349e-07
1.11313e-05
5.40326e-06
-9.45614e-07
1.10527e-05
5.7098e-06
-1.7941e-06
1.091e-05
5.72484e-06
-1.13082e-06
1.11466e-05
3.6895e-06
1.05504e-05
4.78016e-06
-1.02503e-07
1.58572e-05
9.64843e-06
-1.43297e-08
1.59747e-05
9.40516e-06
-5.0271e-07
1.64376e-05
1.0094e-05
-1.51311e-07
1.58965e-05
9.79538e-06
6.68804e-07
1.57651e-05
9.18413e-06
-5.91132e-08
1.6141e-05
1.04887e-05
1.58527e-05
9.38612e-06
1.79569e-07
2.21105e-05
1.15896e-06
1.01514e-06
2.09565e-05
1.97123e-06
-3.74553e-07
2.07815e-05
4.85588e-06
-6.68697e-07
2.06889e-05
3.55953e-06
-6.79011e-08
2.01457e-05
2.97529e-06
-3.25072e-07
2.03363e-05
3.46922e-06
2.21734e-05
1.12614e-06
-3.02146e-07
3.46727e-05
-8.78697e-07
3.37916e-05
-2.6727e-07
3.22128e-05
-4.07833e-07
3.25397e-05
-7.09845e-08
3.16525e-05
7.0387e-08
3.2344e-05
3.44482e-05
-8.33261e-07
8.89657e-07
3.49198e-05
-1.75463e-07
5.64857e-07
3.11076e-05
7.53028e-07
5.16464e-07
2.99779e-05
1.71739e-06
3.64759e-07
3.05399e-05
2.02723e-06
3.33433e-07
3.25407e-05
9.36748e-07
-1.17732e-07
3.61094e-05
3.66456e-07
3.75144e-05
4.07859e-07
-4.39463e-06
-1.02512e-07
-3.65106e-07
-4.80066e-06
3.20523e-06
-3.21559e-07
-6.17978e-06
6.00344e-06
-8.64705e-08
-5.85134e-06
4.84093e-06
3.00332e-07
-5.5497e-06
2.17843e-06
1.41098e-08
-4.94089e-06
1.49474e-06
-4.23727e-06
-1.38333e-06
1.89095e-07
-5.98964e-06
1.04844e-05
-2.34772e-08
-4.80052e-06
9.26784e-06
-2.25066e-09
-8.10712e-06
1.21701e-05
6.77666e-07
-7.77328e-06
1.09886e-05
1.35667e-06
-7.56622e-06
1.07362e-05
-4.57603e-08
-5.39322e-06
1.32957e-05
-5.86235e-06
1.03769e-05
8.67726e-08
5.57698e-06
5.37586e-06
1.59627e-06
5.34983e-06
4.07578e-06
1.50502e-07
6.42786e-06
3.41909e-06
-1.27421e-06
7.16907e-06
3.24705e-06
-2.39704e-06
7.43238e-06
2.9807e-06
-1.23493e-06
6.50445e-06
1.86294e-06
5.61482e-06
3.41257e-06
-3.62418e-08
4.5407e-06
1.03104e-05
-2.71031e-07
4.89501e-06
9.44854e-06
-4.79481e-07
5.56965e-06
1.1087e-05
2.48108e-07
5.47506e-06
1.0796e-05
9.12785e-07
5.68859e-06
1.01514e-05
2.69299e-07
5.441e-06
1.20088e-05
4.46125e-06
1.01812e-05
1.14545e-07
2.65915e-07
-1.89414e-06
5.406e-07
-2.59987e-07
-2.1076e-07
-5.92858e-07
8.84424e-07
4.38605e-06
-5.35759e-08
7.59831e-07
1.73546e-06
3.30236e-07
2.10402e-07
1.91314e-06
-4.04161e-08
4.50105e-07
2.09619e-06
1.72921e-07
-1.58891e-06
-5.96577e-07
3.81854e-05
-1.75223e-06
3.66162e-05
-4.3404e-07
3.37142e-05
-6.80082e-07
3.52193e-05
1.23731e-07
3.26083e-05
4.12439e-07
3.43603e-05
3.76292e-05
-1.85187e-06
9.58553e-06
2.69158e-05
-2.78978e-07
4.08898e-06
2.43296e-05
7.73996e-07
4.5568e-06
2.29422e-05
2.1662e-06
4.50981e-06
2.32197e-05
2.80859e-06
4.14043e-06
2.6621e-05
1.31416e-06
8.29912e-06
2.83779e-05
9.35949e-06
2.90656e-05
1.15595e-06
-3.97726e-06
2.54391e-06
-4.22124e-07
-3.76992e-06
4.17702e-06
-1.41931e-07
-6.2962e-06
9.16521e-06
-1.81348e-07
-5.70413e-06
7.84372e-06
-4.64117e-07
-4.04036e-06
2.74882e-06
-2.57461e-07
-2.98833e-06
3.11451e-06
-2.35708e-06
8.18773e-08
2.09306e-07
-5.71244e-06
1.10494e-05
-1.52263e-07
-3.89094e-06
8.63263e-06
8.27894e-08
-8.86968e-06
1.36432e-05
7.57836e-07
-8.4583e-06
1.22082e-05
1.23793e-06
-6.74097e-06
1.20401e-05
-6.3214e-09
-2.38444e-06
1.28083e-05
-3.63936e-06
1.06493e-05
-1.69221e-07
4.51332e-06
6.37509e-06
1.5936e-06
2.70017e-06
6.68126e-06
3.48387e-08
4.76889e-06
2.16743e-06
-1.35653e-06
5.44224e-06
1.4906e-06
-2.50495e-06
7.1088e-06
1.10528e-06
-1.14172e-06
5.90581e-06
3.23375e-06
3.77605e-06
5.97719e-06
-1.84357e-08
3.38207e-06
1.0601e-05
-3.85963e-07
3.20042e-06
8.40394e-06
-3.22193e-07
2.91308e-06
1.18842e-05
2.77381e-07
3.27553e-06
1.14416e-05
7.0191e-07
4.98993e-06
1.08801e-05
4.24838e-07
4.18678e-06
1.28928e-05
2.82014e-06
1.05138e-05
2.68131e-07
-9.10419e-06
5.20284e-07
8.42306e-07
-8.28947e-06
1.11796e-06
-7.45113e-07
-3.81793e-06
4.4927e-06
3.26882e-07
-9.24741e-06
4.40477e-06
-3.43013e-07
-3.899e-06
3.82371e-06
-3.94399e-07
-6.07488e-06
3.66403e-06
-8.86983e-06
4.9094e-08
-9.45528e-07
2.9772e-05
-2.47979e-06
2.88502e-05
-3.33223e-07
2.68387e-05
-1.17911e-06
2.56728e-05
5.82897e-07
2.57302e-05
9.77686e-07
2.68891e-05
2.94127e-05
-2.36033e-06
9.44663e-06
1.96025e-05
-1.38226e-07
-1.20228e-06
2.24947e-05
7.84571e-07
-8.37107e-08
2.06212e-05
2.53692e-06
-4.04138e-07
2.05268e-05
2.92716e-06
3.57247e-06
2.16236e-05
1.54674e-06
8.30318e-06
2.0589e-05
9.67146e-06
2.03907e-05
1.76957e-06
-3.94701e-06
4.22088e-06
-2.24605e-07
-4.70136e-06
1.78769e-06
-1.0894e-07
-5.01968e-06
7.10929e-06
-7.81995e-07
-4.62563e-06
6.00656e-06
-1.05994e-06
-4.58184e-06
3.2959e-06
-5.98659e-07
-3.50142e-06
4.81634e-06
-3.29014e-06
2.23687e-06
2.26113e-07
-5.1462e-06
1.09239e-05
-2.45197e-08
-5.59888e-06
8.85095e-06
1.27658e-07
-6.06021e-06
1.3655e-05
8.67941e-07
-5.99831e-06
1.19335e-05
1.00339e-06
-5.54037e-06
1.18329e-05
-3.77315e-08
-2.44001e-06
1.15734e-05
-4.02573e-06
1.02718e-05
-5.16161e-08
4.66603e-06
7.60101e-06
1.00606e-06
4.2621e-06
6.63318e-06
-1.15486e-07
6.53283e-06
1.44952e-06
-1.42101e-06
6.52738e-06
9.65184e-07
-2.10871e-06
5.47097e-06
1.5614e-06
-8.58665e-07
4.76594e-06
5.70477e-06
3.77843e-06
8.36974e-06
-3.94429e-08
3.60323e-06
1.07166e-05
-3.11829e-07
3.27839e-06
8.63177e-06
-1.70639e-07
4.87948e-06
1.23058e-05
3.34951e-07
5.11358e-06
1.15286e-05
6.5869e-07
4.3863e-06
1.05843e-05
3.68099e-07
4.87565e-06
1.21501e-05
3.36606e-06
1.01138e-05
5.72724e-07
-9.44454e-06
2.91769e-06
8.5145e-07
-7.69669e-06
2.23041e-06
-5.5199e-07
-1.62237e-06
4.75739e-06
6.10848e-07
-6.36219e-06
6.49532e-06
-9.60682e-07
-1.80494e-06
4.12749e-06
-7.175e-07
-4.65874e-06
4.12191e-06
-8.98628e-06
1.85494e-06
-1.12452e-06
2.10631e-05
-2.55238e-06
2.14726e-05
-6.58141e-07
2.23684e-05
-1.0651e-06
1.85201e-05
8.08421e-07
2.06991e-05
1.16182e-06
2.09556e-05
2.12105e-05
-2.11567e-06
9.46496e-06
1.2898e-05
-2.06776e-07
3.21114e-06
1.73607e-05
6.77839e-07
2.45142e-06
1.68561e-05
2.73424e-06
2.11401e-06
1.60518e-05
2.79004e-06
7.56599e-06
1.38891e-05
1.70205e-06
8.22733e-06
1.34289e-05
9.67177e-06
1.27297e-05
1.75545e-06
-3.85731e-06
5.96912e-06
-3.05232e-08
-4.39139e-06
2.7033e-06
-4.6395e-08
-2.75322e-06
4.68337e-06
-1.09392e-06
-2.88001e-06
4.63922e-06
-1.30289e-06
-3.58079e-06
5.62607e-06
-8.59981e-07
-3.71419e-06
6.75405e-06
-4.12313e-06
5.24129e-06
3.87086e-07
-5.67599e-06
1.12084e-05
9.70601e-08
-5.7695e-06
9.537e-06
1.72126e-07
-3.22386e-06
1.31154e-05
9.20674e-07
-4.28387e-06
1.16743e-05
7.58072e-07
-3.66763e-06
1.12335e-05
-2.5399e-08
-3.78248e-06
1.12788e-05
-5.79294e-06
1.08892e-05
-2.00761e-07
4.90129e-06
8.13496e-06
2.63597e-07
5.18221e-06
6.00908e-06
-1.84278e-07
5.65048e-06
3.7142e-06
-1.30695e-06
5.54797e-06
2.92085e-06
-1.35139e-06
4.50243e-06
4.17443e-06
-5.03009e-07
5.05266e-06
6.85814e-06
5.22754e-06
7.81645e-06
-2.44296e-08
3.82682e-06
1.07869e-05
-2.91266e-07
3.36039e-06
9.70077e-06
-6.32036e-08
4.34678e-06
1.25633e-05
3.22118e-07
4.34008e-06
1.1597e-05
5.80702e-07
3.24561e-06
1.06634e-05
2.23189e-07
5.0313e-06
1.13259e-05
3.90298e-06
1.05064e-05
7.45089e-07
-9.0895e-06
5.27837e-06
5.42242e-07
-7.16044e-06
3.61169e-06
9.84593e-08
-6.05719e-06
6.79755e-06
3.764e-07
-3.13919e-06
6.02104e-06
-1.49193e-06
-3.46447e-06
4.728e-06
-7.55034e-07
-6.52542e-06
6.17243e-06
-9.22369e-06
4.59397e-06
-1.05139e-06
1.34832e-05
-2.40859e-06
1.53545e-05
-1.22082e-06
1.51623e-05
-7.16779e-07
1.4357e-05
9.84267e-07
1.51544e-05
1.13775e-06
1.42684e-05
1.35913e-05
-1.64095e-06
7.16494e-06
8.66135e-06
-2.59599e-08
4.87359e-06
1.15361e-05
4.77859e-07
4.62326e-06
1.21104e-05
2.36837e-06
2.35513e-06
1.20166e-05
2.44892e-06
4.32653e-06
9.94989e-06
1.81289e-06
5.69743e-06
9.05392e-06
7.50281e-06
8.11121e-06
1.36343e-06
-5.87375e-06
8.81549e-06
-3.04517e-07
-5.261e-06
5.96484e-06
2.33095e-07
-5.39059e-06
6.59563e-06
-8.65556e-07
-4.77472e-06
5.93823e-06
-1.58911e-06
-3.80869e-06
6.52098e-06
-8.66918e-07
-5.28033e-06
8.46913e-06
-5.38009e-06
8.29726e-06
6.76578e-07
-8.18066e-06
1.1787e-05
4.12664e-08
-6.26551e-06
1.02507e-05
1.94594e-07
-5.03438e-06
1.15514e-05
8.05715e-07
-5.7833e-06
1.1111e-05
6.03127e-07
-4.25418e-06
1.08306e-05
5.72597e-08
-5.86062e-06
1.12955e-05
-6.8319e-06
1.14243e-05
-6.29076e-07
7.07814e-06
4.34994e-06
-6.37267e-08
5.07138e-06
4.83792e-06
-2.94002e-07
5.12677e-06
4.45423e-06
-1.1322e-06
4.64067e-06
3.98347e-06
-9.2225e-07
5.43476e-06
4.99328e-06
-5.12365e-07
7.15074e-06
4.20283e-06
7.12356e-06
4.25224e-06
2.89388e-07
5.48236e-06
1.11398e-05
-4.1231e-07
4.94901e-06
9.60714e-06
1.05298e-09
4.52262e-06
1.17095e-05
1.87163e-07
4.26436e-06
1.07977e-05
4.219e-07
4.30542e-06
1.05723e-05
1.66212e-07
6.12118e-06
1.14151e-05
5.48017e-06
1.12706e-05
5.49974e-07
-6.74962e-06
8.16915e-06
4.78585e-07
-6.21762e-06
5.99617e-06
5.22616e-07
-4.42597e-06
7.70171e-06
1.69092e-07
-2.85033e-06
6.24647e-06
-1.52012e-06
-1.33259e-06
5.02663e-06
-5.09096e-07
-5.07555e-06
8.33711e-06
-6.9392e-06
7.88717e-06
-8.44e-07
8.76966e-06
-2.31504e-06
1.11833e-05
-1.29194e-06
1.02653e-05
-6.62827e-07
1.10147e-05
8.80841e-07
1.22477e-05
9.9042e-07
9.67857e-06
8.78555e-06
-1.47512e-06
7.69482e-06
2.39358e-07
7.27236e-06
4.21354e-07
8.62716e-06
2.17325e-06
7.15201e-06
2.24305e-06
6.99525e-06
1.95431e-06
6.74076e-06
7.55038e-06
1.23318e-06
-2.22198e-06
-2.89959e-07
-2.40115e-06
5.7305e-07
-2.31635e-06
-5.59482e-07
-2.06188e-06
-1.52739e-06
-2.15112e-06
-6.39779e-07
-2.59825e-06
-2.23439e-06
9.554e-07
-2.63701e-06
-1.40521e-07
-2.24615e-06
4.53565e-07
-2.36154e-06
8.85229e-07
-2.42196e-06
6.72548e-07
-2.13192e-06
1.05961e-07
-1.8882e-06
-1.84285e-06
-6.35962e-07
2.72635e-06
-7.68581e-08
2.30725e-06
-4.28153e-07
2.67007e-06
-1.09266e-06
2.47262e-06
-1.11297e-06
3.13317e-06
-7.04932e-07
2.28439e-06
2.1017e-06
4.96574e-07
2.25406e-06
-5.8267e-07
1.95289e-06
1.66094e-07
2.5964e-06
2.9799e-07
2.16821e-06
5.99036e-07
2.4034e-06
2.17056e-07
2.90196e-06
2.39506e-06
1.95297e-07
-7.08859e-06
5.82746e-07
-1.00311e-05
7.27016e-07
-6.32522e-06
-1.04916e-07
-7.03e-06
-1.40613e-06
-7.88063e-06
-3.35693e-07
-6.48001e-06
-7.15412e-06
-7.33482e-07
-2.41883e-06
-1.30088e-06
-6.55509e-07
5.28394e-07
8.97669e-07
-0.000659828
0.00225312
-0.00159123
-0.001127
0.00241555
-0.00195146
-0.00071836
0.00272268
-0.00307261
0.000482977
0.00291995
-0.00389082
0.00106074
0.00277071
-0.00322653
0.000653211
0.00244806
-0.00209274
0.00226084
-0.00171212
-0.00054796
0.00268958
-0.000540179
-0.000800769
0.00275431
-0.000773996
-0.000477598
0.00286576
-0.00124371
0.000282114
0.00292794
-0.00156306
0.000727529
0.00288956
-0.0013238
0.000519446
0.00277906
-0.000883653
0.00269529
-0.000685037
-0.00012496
0.00116623
0.00162455
-0.000163466
0.00116948
0.00160488
-8.65281e-05
0.00116706
0.00159308
6.38448e-05
0.00116167
0.00158403
0.000177034
0.0011626
0.00157914
0.000147884
0.00116213
0.0015625
0.00115371
0.0015535
2.89128e-05
-0.000825179
0.00239641
6.39646e-05
-0.000834039
0.00242246
6.85038e-05
-0.00083902
0.0024587
4.77425e-05
-0.000838881
0.00246309
3.96568e-05
-0.000847367
0.00241367
3.34385e-05
-0.000846789
0.00233307
-0.000840078
0.00227953
-8.41108e-05
-0.00245039
0.0018751
-8.83022e-05
-0.00252001
0.00185512
1.34704e-05
-0.0026233
0.00182658
0.000162351
-0.00267571
0.00177233
0.000235062
-0.00263706
0.00169714
0.000161932
-0.0025257
0.00163523
-0.00245018
0.00160622
-0.000483557
-0.00217323
-0.000102613
-0.000696226
-0.00232977
-0.000330756
-0.000337603
-0.00263271
-0.000796709
0.000433188
-0.00283041
-0.00118798
0.000799432
-0.00265937
-0.00106294
0.000539571
-0.00232848
-0.00072461
-0.00215016
-0.000556845
-0.000621548
-0.0012685
-0.0010638
-0.0016308
-0.00063952
-0.0027528
0.000611372
-0.0036897
0.00111938
-0.0030312
0.000668625
-0.00196851
-0.0016217
-0.00150633
0.00243804
-0.0024366
-0.00288497
0.002981
-0.0033254
-0.00167647
0.00362014
-0.00683484
0.00122805
0.0039002
-0.00907976
0.00276424
0.00373097
-0.00723565
0.00149385
0.00305206
-0.00359889
0.00255009
-0.00264076
-0.00103525
0.00296173
-0.000472349
-0.00159167
0.00313265
-0.000914262
-0.000931852
0.00322994
-0.00203196
0.000604005
0.0032636
-0.00283996
0.0014238
0.00325861
-0.00215795
0.000933034
0.00318942
-0.00108873
0.00303584
-0.00065335
-0.00016119
0.00118451
0.00338334
-0.000177522
0.00117352
0.0033737
-9.37748e-05
0.00111967
0.00337459
4.63847e-05
0.00107998
0.00336632
0.000120742
0.00111109
0.00337003
0.00012004
0.00117731
0.00334903
0.00119133
0.00334785
8.79475e-05
-0.000838534
0.00469037
0.000146925
-0.000832622
0.00472662
7.88644e-05
-0.0007844
0.00477323
-6.18627e-05
-0.000752776
0.00478192
-0.000139257
-0.000797452
0.00473879
-8.7338e-05
-0.000859412
0.00465762
-0.00087596
0.00459925
-0.00011971
-0.00265897
0.00370152
-0.000140357
-0.00281155
0.00369545
-9.96896e-05
-0.00287453
0.00370258
-1.51476e-05
-0.00289412
0.00367061
7.96208e-05
-0.00292757
0.00358552
8.96871e-05
-0.00287887
0.00348167
-0.0027561
0.0034336
-0.000957377
-0.00229971
0.000118758
-0.00151135
-0.00281134
-0.000275582
-0.000931674
-0.00343392
-0.00126961
0.000480462
-0.00369658
-0.00207927
0.00128245
-0.00353832
-0.00161928
0.000876278
-0.00289379
-0.000750209
-0.00241781
-0.000415312
-0.00146992
-0.00199232
-0.00283156
-0.00283952
-0.0016879
-0.0062753
0.00116208
-0.00870908
0.00263375
-0.00686381
0.00144949
-0.00331741
-0.00246295
-0.0028171
0.00272025
-0.00200762
-0.00465511
0.00353244
-0.00392382
-0.00201143
0.00389807
-0.0115671
0.00161695
0.00366633
-0.0148002
0.00420828
0.00373015
-0.0117833
0.00274609
0.00362315
-0.00472925
0.00288358
-0.00239018
-0.00176116
0.00319494
0.000516821
-0.00265795
0.00339025
-0.000158209
-0.00139203
0.00325219
-0.00240496
0.00103979
0.00313042
-0.00409281
0.00222476
0.00323714
-0.0024829
0.00159255
0.00345357
-0.000540387
0.00328468
0.000269687
-0.00015259
0.00118424
0.0053022
-0.000140117
0.00112178
0.00531425
-7.68685e-05
0.000970482
0.00531486
3.05219e-05
0.000904103
0.00526014
3.69356e-05
0.000978645
0.00533678
8.5261e-05
0.00112231
0.00534511
0.00119285
0.00533514
0.00016975
-0.000826987
0.00680474
0.000252158
-0.000784457
0.00682691
0.000102191
-0.000666978
0.00685083
-0.000157404
-0.000629412
0.00687353
-0.000320531
-0.000687295
0.00686487
-0.000221704
-0.000817102
0.0068673
-0.00088331
0.00684693
-0.000108009
-0.00279524
0.00553373
-9.22027e-05
-0.0029216
0.00554343
-0.000136378
-0.00272449
0.00554377
-0.000219553
-0.0025704
0.00547876
-0.000184576
-0.00279663
0.00548471
-4.23518e-05
-0.00306795
0.00543622
-0.00297306
0.00540207
-0.00158603
-0.00250797
0.0010104
-0.00237905
-0.00320348
0.000399317
-0.00136828
-0.00339049
-0.00157503
0.000425536
-0.00306769
-0.00306934
0.00168538
-0.00344459
-0.00196896
0.00132667
-0.0034023
-0.000207134
-0.00273032
0.000467878
-0.00264967
-0.00163199
-0.00436104
-0.00349527
-0.00197646
-0.0105633
0.00109592
-0.0136599
0.00368981
-0.0113851
0.00252877
-0.00442898
-0.00225959
-0.00291491
0.00273536
-0.00131899
-0.00359353
0.00302243
-0.00511147
-0.00118586
0.00206117
-0.0151768
0.00107537
0.00152987
-0.0183653
0.00296659
0.00142692
-0.0147273
0.00305381
0.00333332
-0.00670987
0.00296835
-0.00203877
-0.00187288
0.00325118
0.00160995
-0.00251352
0.00322662
0.000308325
-0.00159096
0.00264694
-0.00339316
0.00139995
0.00244213
-0.00730941
0.00172752
0.00254941
-0.00357127
0.00168078
0.00323004
-0.000372781
0.00334264
0.00122896
-2.9886e-05
0.00115418
0.00710622
2.84631e-05
0.00107046
0.00705193
-2.44689e-05
0.000923454
0.00686716
6.08519e-05
0.000814141
0.00664918
-9.65887e-05
0.000947906
0.00690577
-4.35837e-05
0.0010448
0.0071112
0.00114408
0.00717746
0.000223648
-0.000803561
0.00871706
0.000307749
-0.00074599
0.0087318
0.000161245
-0.000651298
0.00875884
-0.00017683
-0.000598154
0.00882162
-0.0003174
-0.000676659
0.00882586
-0.000266499
-0.00076088
0.00884291
-0.000844106
0.00885222
3.38541e-06
-0.00279524
0.00712391
4.49202e-05
-0.00269143
0.00707324
-0.000148335
-0.00210655
0.00689688
-0.000268621
-0.00188486
0.00670849
-0.000418382
-0.0020948
0.00685958
-0.000212594
-0.00284831
0.00703984
-0.00301256
0.00710418
-0.00165535
-0.00246356
0.00187761
-0.00219453
-0.00261255
0.000671037
-0.00159995
-0.00148872
-0.00264587
0.000517304
-0.000964225
-0.00580119
0.00102805
-0.00117584
-0.00317341
0.00123311
-0.0030333
-0.000252956
-0.00283647
0.00127202
-0.00268032
-0.00105762
-0.00328651
-0.00466377
-0.00121074
-0.0135332
0.00039752
-0.0161055
0.00245352
-0.0142021
0.00257297
-0.00656858
-0.00188947
-0.00216911
0.00245004
-0.00111827
-0.00179457
0.00172196
-0.00671831
-0.000675026
-0.000119258
-0.0160818
0.00103216
-0.000646011
-0.0196749
0.00210657
-0.000583153
-0.0152646
0.00264288
0.00165073
-0.00840354
0.00290885
-0.00180475
-0.00166036
0.00317024
0.00220783
-0.00289509
0.00294616
0.000284964
-0.00229108
0.00275101
-0.00649497
0.00237766
0.00283431
-0.014597
0.00246503
0.002707
-0.00673286
0.00138977
0.00283253
-0.000583372
0.00322623
0.00171486
6.98957e-05
0.00112721
0.00852724
-3.12143e-05
0.00109392
0.00857128
-4.49233e-05
0.0010114
0.00833116
0.000219752
0.000800987
0.00818444
5.55768e-05
0.000983726
0.00832974
-0.000108677
0.00103712
0.00859906
0.00105519
0.0086204
0.000266782
-0.000825985
0.0103312
0.000418892
-0.000817346
0.0104423
0.000323856
-0.000785923
0.0106489
-0.000188871
-0.000648377
0.0107956
-0.000338177
-0.000776082
0.0107474
-0.000273147
-0.000781098
0.0105926
-0.000825272
0.010523
7.35205e-05
-0.00270451
0.00834893
-9.35184e-05
-0.0025038
0.00833535
-0.000221102
-0.00229507
0.00803903
-0.000149776
-0.0023706
0.008025
-0.000268569
-0.00227139
0.00815114
-0.000270564
-0.00254711
0.00840728
-0.00293695
0.00848376
-0.00152957
-0.0019385
0.002187
-0.00282922
-0.00119346
0.000334266
-0.00244692
0.000750731
-0.00604042
0.00147383
0.00100872
-0.0126099
0.00169582
0.000716265
-0.00626724
0.00107138
-0.00151863
-0.000640481
-0.00264269
0.00167716
-0.00189213
-0.000868026
-0.00164559
-0.00574963
-0.000527702
-0.0138684
0.000668258
-0.016446
0.00166911
-0.0145534
0.00230695
-0.00828238
-0.00175581
-0.00229569
0.00208862
-0.000879534
-0.00151991
4.80529e-05
-0.00756772
-0.000215045
-0.00171083
-0.0158639
0.00208746
-0.00297648
-0.0191911
0.0027563
-0.00167405
-0.0144249
0.00278696
-0.000223321
-0.00817961
0.00242275
-0.00126315
-0.00165114
0.00298396
0.00240402
-0.00376566
0.00271229
-0.000508983
-0.00125684
0.00251894
-0.01286
0.0022705
0.00110962
-0.0220465
0.00417823
0.00252706
-0.0124807
0.00151503
0.00249487
-0.000952477
0.00300111
0.0020267
0.000249755
0.00111982
0.00937168
0.000278437
0.00107772
0.00947725
0.000518393
0.000823071
0.00914301
-0.000240278
0.000451559
0.00908012
-0.000101104
0.000804028
0.009241
-0.000310299
0.00104805
0.00952584
0.00108521
0.00941285
0.000465235
-0.00091413
0.0116294
0.000874599
-0.000938076
0.0117649
0.000674257
-0.000751357
0.0121761
-0.000338986
-0.000431733
0.0124376
-0.00060925
-0.000693232
0.0122741
-0.000318443
-0.000905394
0.0120003
-0.000910798
0.0119457
0.000156491
-0.00252038
0.00906336
1.41118e-05
-0.0024268
0.00922342
0.000377757
-0.00251335
0.00889245
-0.000328526
-0.00118364
0.00900688
-0.000263974
-0.00227388
0.00910428
-0.000308465
-0.00253538
0.00938519
-0.00286614
0.00937855
-0.00170864
-0.00137596
0.00218698
-0.0040057
0.000291537
-0.000430944
-0.00148352
0.00182421
-0.0127307
0.00181821
0.00261579
-0.0197268
0.00361295
0.00159384
-0.0119105
0.00145833
-0.00020371
-0.00110728
-0.00227434
0.00203898
-0.00148255
-0.000721738
-0.000984309
-0.00612863
0.000801381
-0.0139911
0.00218385
-0.0154436
0.00269307
-0.0136621
0.00242274
-0.00828282
-0.00140515
-0.00254523
0.00187695
-0.000334472
-0.00225582
-0.000422101
-0.00754128
3.9677e-05
-0.00189229
-0.0166237
0.00262192
-0.00300701
-0.0189938
0.00355797
-0.00283467
-0.0127488
0.00268691
-0.000956593
-0.00651312
0.00166459
-0.000130438
-0.00165035
0.00265176
0.00256344
-0.00328816
0.00175776
-0.00159207
3.21077e-06
-0.000262623
-0.0183531
0.00124804
-0.00187567
-0.0251895
0.0042662
0.000136464
-0.0185799
0.00199079
0.00154509
-0.00184058
0.00257208
0.00239957
0.00070829
0.000990683
0.00939206
0.000887092
0.00100975
0.00921114
0.000623371
2.69063e-05
0.00836287
-0.00030854
-0.000728106
0.00823503
-0.00043228
0.000198645
0.00852799
-0.000515762
0.00106042
0.00916777
0.00107698
0.00936914
0.000857702
-0.00108444
0.0122991
0.00201669
-0.00114606
0.0122693
0.00141792
-0.000142429
0.0125241
-0.000806453
0.000527939
0.012923
-0.00146271
-9.42528e-05
0.0127638
-0.000694299
-0.000841352
0.012622
-0.000880357
0.0126956
0.000667677
-0.00222209
0.00871825
0.000687371
-0.00134505
0.0086611
0.000721688
0.000100998
0.00799086
-0.000279266
0.00151529
0.00837394
-0.000561922
-0.000129512
0.00877225
-0.000447679
-0.00172213
0.00929521
-0.00251275
0.0096571
-0.0012141
-0.0011941
0.00180052
-0.00245144
0.000855161
-0.00179872
0.00130318
0.00219968
-0.0191357
0.00137418
0.0025054
-0.0215985
0.00436881
0.00262483
-0.017632
0.00212683
0.00054969
-0.0014074
-0.00174834
0.00278945
-0.00150108
-0.000490115
-0.00108806
-0.0058564
0.00302143
-0.016189
0.00420774
-0.0143573
0.00458257
-0.0116023
0.00294498
-0.006243
-0.000142584
-0.00185326
0.0012423
0.0013931
-0.000758894
-0.00217835
0.00124782
-0.00775316
0.00690539
-0.00152447
0.000924811
-0.0177531
0.0158192
0.00132207
0.000189384
-0.0210995
0.0178343
0.00233549
-0.00171069
-0.0108498
0.0113608
0.00107057
0.000363108
-0.00472309
0.00547515
-0.00011681
0.00291121
-0.00169606
-0.00136607
0.000982465
0.00521233
-0.00403752
0.000130995
-0.000180049
-0.00371512
0.00314939
-0.000341862
-0.00285884
-0.0152941
0.0188623
0.00307577
-0.00108936
-0.028294
0.0255224
0.00233314
-0.00203101
-0.0193928
0.0198422
0.00272012
-4.14021e-05
-0.00368067
0.00337824
0.000775362
0.00568597
-0.00422137
0.000338583
-0.000116664
0.00873387
-0.00851131
0.000338185
-0.000152054
0.00777398
-0.00820717
-0.000906145
-0.000923816
0.00626636
-0.00721094
0.000890824
-0.00157901
0.00549626
-0.00716993
0.000296979
-0.000660974
0.00649524
-0.00758647
8.70544e-05
5.06087e-05
0.00784312
-0.00817439
1.83493e-05
0.0087572
-0.00852065
0.000844819
-0.000291726
0.00970727
-0.0107544
0.00172495
-0.000201307
0.00974692
-0.0108809
0.00139435
0.000383274
0.00968959
-0.0110181
-0.000359388
0.00143618
0.00969739
-0.0112922
-0.000943308
0.000947386
0.00982256
-0.0112012
-0.000364332
0.000273356
0.0100007
-0.011141
0.000194885
0.0101436
-0.0110933
0.000865113
-0.00123745
0.00728972
-0.0076742
0.000902049
7.83216e-05
0.00687605
-0.00752331
0.000359245
0.00136262
0.00578598
-0.00661501
0.00121339
0.00128028
0.00630508
-0.00735401
0.000385002
0.0019453
0.00737666
-0.00787216
0.000335157
-0.00018915
0.00869438
-0.00853118
-0.000633229
0.00953664
-0.00892954
-2.6159e-05
-0.00123828
0.00215997
-0.00268944
0.00470801
-0.00303163
-0.00614868
0.00419841
0.00516839
-0.00336164
-0.0167495
0.0201321
0.00535319
-0.000278752
-0.0204573
0.0210075
0.00398757
0.000638332
-0.0160509
0.0182057
0.00353881
-0.000321006
-0.00274299
0.00306742
0.000652188
0.0068558
-0.00477519
-0.000275331
-0.000773002
-0.000420116
0.0019106
-0.0110421
0.00590961
0.000896467
-0.0195084
0.0166858
0.00344291
-0.0156017
0.0124989
0.0030981
-0.00906049
0.00983252
0.00102187
-0.00309962
0.00459291
0.00363964
-0.00199103
-0.00205011
0.00153157
0.00203048
-0.00211484
0.000700155
-0.00830937
-0.00117815
-0.00181956
-0.0169374
0.000601094
-0.00284585
-0.0200934
0.000930685
-0.00236307
-0.00894327
-0.00016826
-0.000832127
-0.00303783
-0.000401621
0.00307771
-0.000603399
0.000953854
0.00584741
0.000694974
-0.00087534
-0.00386499
0.000904902
-0.00396409
-0.0139739
0.00324625
-0.00241449
-0.031537
0.00248919
-0.00226331
-0.0191454
0.00180282
-0.000478891
-0.0035024
0.000498556
0.00609242
9.03375e-05
0.000105322
0.00882321
-0.000378739
1.31892e-05
0.0069042
-0.00133086
-0.000639427
0.00346695
0.000860627
-0.00135062
0.00187017
0.00102304
-0.00057235
0.00426567
0.000423357
0.000172558
0.00735394
0.000163122
0.0089849
0.000640755
-0.000310532
0.00918448
0.00152296
-6.70989e-05
0.0088257
0.00133067
0.000720126
0.00837711
-0.000251015
0.00142681
0.00826332
-0.000415341
0.000657327
0.00857816
0.000111072
5.45128e-05
0.00939743
0.000130676
0.0100526
0.00150179
-0.00176793
0.00663918
0.00166234
0.000459393
0.00586595
0.000902921
0.00302746
0.00381667
0.00178519
0.00309973
0.00336511
0.00121258
0.00277967
0.00543436
0.000685323
0.000524339
0.00840317
-0.000125496
0.00985555
0.00153092
-0.00213576
0.000434613
0.00580643
-0.00107959
-0.00899837
0.00862688
0.000202525
-0.0173218
0.00678507
0.0036767
-0.0197926
0.00392683
0.00313762
-0.0140605
0.00195547
0.00156398
-0.00199341
0.000767145
0.00752418
-4.597e-05
-0.00286548
0.00217634
-0.0142563
5.15449e-05
-0.0174568
0.00048303
-0.0124852
7.47955e-05
-0.0056503
-0.000416271
-0.00129505
0.00403656
-0.00200644
0.00111684
0.00310133
-0.00284659
-0.000366739
-0.00709092
-0.00184788
-0.00232008
-0.0156564
0.000732131
-0.00262807
-0.0200967
0.00124357
-0.00188414
-0.00769133
-0.000233532
-0.000741059
-0.000838911
-0.000310754
0.00319976
-0.00137263
0.00119279
0.00675863
-0.0022504
-0.00165123
-0.00197262
0.0011678
-0.00330076
-0.0166592
0.00373303
-0.00189575
-0.0352997
0.00291608
-0.00324003
-0.0172218
0.001436
-0.00175989
-0.00105947
0.000373349
0.00651486
-0.000768125
0.000762571
0.00940782
-0.00395089
0.000975351
0.00690996
-0.00250037
0.000892347
-0.00258467
0.00299917
0.000309392
-0.00601924
0.00416947
0.00103039
-0.00150014
0.001134
0.000738154
0.0075704
0.000396215
0.00964025
0.000564891
-0.000507735
0.00947327
0.00109389
-0.000466666
0.00946192
0.00109902
-0.000257106
0.00927211
0.000231853
-0.000102697
0.00932516
0.000716196
-0.000751569
0.00961217
0.000586282
-0.000333256
0.0103837
0.000139899
0.0106717
0.00181893
-0.00276147
0.00629241
0.00101249
-9.78578e-05
0.00594819
0.00139524
0.00174121
0.0010625
0.00449072
0.00229328
-0.0025392
0.00431918
0.00407589
0.000412132
0.00127894
0.00254288
0.00821483
0.000332356
0.0104705
0.0015526
-0.00292674
-0.00134194
0.00528442
-0.000802312
-0.0119734
0.00981253
0.000348529
-0.0207003
0.0077894
0.00363863
-0.01954
0.00380032
0.00370062
-0.010073
0.00127534
0.00180642
0.00116116
0.000807963
0.00805483
-6.10309e-05
-0.00544666
-0.000265951
-0.0148867
-0.00282995
-0.0146773
-0.00109504
-0.0106302
-0.0003331
-0.00276592
-0.000646818
0.000690039
0.00417969
-0.000618422
0.000131073
0.00375394
-0.00230977
-0.00121602
-0.00411051
-0.00117886
-0.00281755
-0.0139759
0.000902738
-0.00218523
-0.0200902
0.000687908
-0.000286497
-0.00728863
-0.000258816
-0.000562946
0.000681342
-0.000443552
0.00352516
-0.00184734
0.000601616
0.00790874
-0.00269075
-0.00266264
0.000198127
0.0012288
-0.00112993
-0.022095
0.000273883
-0.00114337
-0.0360433
0.000160691
-0.00459969
-0.0130177
0.000648027
-0.00419244
0.00195656
-0.000852623
0.00748915
-0.00307213
0.00161235
0.010987
-0.00685598
0.00210129
0.00551148
-0.00190885
0.00191067
-0.0106774
0.0052564
0.00115069
-0.0155192
0.00677835
0.00206159
-0.00965543
0.00311366
0.00135325
0.0054574
0.000858746
0.010778
0.000556904
-0.00104315
0.0112355
0.000570851
-0.000630781
0.0119441
0.00124902
-0.00131578
0.0116624
0.00126125
-0.00155875
0.0119376
0.00229482
-0.00179373
0.0123089
0.00131301
-0.000651937
0.0132643
-6.56476e-05
0.0127798
0.0015534
-0.00360775
0.00650024
0.00263527
-0.00166502
0.00533478
0.00540945
5.14778e-05
-0.0034034
0.00843211
0.00232427
-0.00958176
0.00791884
0.00585722
-0.00677667
0.00363806
0.0051607
0.00646397
0.00184781
0.0118429
0.000776675
-0.00292392
-0.00279334
0.00438694
-0.000893528
-0.016137
0.00564588
0.000283899
-0.022451
0.00328556
0.00187258
-0.0169553
0.000442878
0.0029871
-0.00449221
0.000415539
0.00139607
0.00482264
0.00097376
0.00903931
-0.00161393
-0.00627799
-0.00319671
-0.0142585
-0.00333055
-0.0142636
-0.00202717
-0.0100632
-0.000600276
-0.00116177
-0.00071559
0.00217243
0.00442364
0.00104214
-0.00062701
0.00355045
0.000433357
-0.00192965
-0.00159138
0.00116691
-0.00337099
-0.0113207
-0.000251215
-0.000687571
-0.018044
-0.000881781
0.00144202
-0.00802647
-0.000397202
-0.000725603
0.000925738
-0.000278013
0.00349014
-0.0015692
-0.000183629
0.00869372
-0.00143268
-0.00261287
0.000706174
-0.00101702
-9.35078e-05
-0.0255953
-0.00472882
-0.000581677
-0.0326684
-0.00280757
-0.00429962
-0.00948501
-5.94578e-05
-0.00448776
0.00287248
-0.00197625
0.00909582
-0.00349461
0.00174994
0.012158
-0.00379925
0.00204997
0.00102249
0.000111579
0.000196831
-0.0149307
0.00511538
-0.000610343
-0.0205672
0.00401077
-0.000350086
-0.0125497
0.00325105
-9.16463e-05
0.00169679
0.000354917
0.0114509
0.00111957
-0.00142111
0.013188
0.00158465
-0.000220605
0.0136459
0.00184103
3.53198e-05
0.0115514
0.00244427
-0.000913222
0.0116819
0.00218301
0.000709341
0.0115538
0.00115772
0.00111455
0.0130596
0.000805024
0.0135134
0.00163245
-0.0052602
0.00801722
0.0073215
-0.00366746
0.00277344
0.0106311
-0.000268904
-0.00657363