/*--------------------------------*- C++ -*----------------------------------*\
  =========                 |
  \\      /  F ield         | OpenFOAM: The Open Source CFD Toolbox
   \\    /   O peration     | Website:  https://openfoam.org
    \\  /    A nd           | Version:  6
     \\/     M anipulation  |
\*---------------------------------------------------------------------------*/
FoamFile
{
    version     2.0;
    format      ascii;
    class       volScalarField;
    location    "0.005";
    object      T;
}
// * * * * * * * * * * * * * * * * * * * * * * * * * * * * * * * * * * * * * //

dimensions      [0 0 0 1 0 0 0];

internalField   nonuniform List<scalar> 
3773
(
240.521
237.853
237.824
238.226
238.292
238.531
241.473
283.886
283.498
283.534
283.417
283.347
283.526
283.883
310.122
310.884
310.93
310.89
310.867
310.902
310.122
318.116
318.26
318.283
318.28
318.275
318.294
318.13
310.182
310.291
311
310.946
310.926
310.966
310.2
284.098
284.389
283.842
283.606
283.598
283.757
284.084
241.612
238.93
238.907
239.108
238.626
238.483
241.742
220.321
219.051
218.785
218.847
219.148
219.694
219.978
271.899
276.191
276.438
276.328
276.182
276.567
272.876
313.592
311.179
311.404
311.454
311.646
311.179
313.692
324.155
324.17
324.203
324.238
324.23
324.08
324.678
313.857
313.784
311.846
311.785
311.678
311.589
313.949
272.541
272.306
276.206
276.311
276.21
276.706
272.659
220.452
219.449
219.498
219.703
219.157
219.407
220.077
215.068
215.789
214.693
214.709
215.268
215.814
215
267.997
272.48
271.35
270.75
270.688
272.13
268.106
313.859
311.688
313.664
313.686
313.29
311.064
313.583
324.898
324.119
324.537
324.999
325.04
324.126
324.856
313.725
311.794
312.186
312.997
313.508
312.388
313.619
268.169
271.272
272.086
269.165
271.325
272.461
268.175
215.034
215.706
215.074
214.081
214.892
216.091
215.001
214.189
216.843
216.301
216.34
215.611
215.295
214.23
268.178
274.679
273.544
272.995
271.099
272.098
268.191
313.882
311.406
312.306
312.552
313.267
310.751
313.684
324.913
324.161
324.519
324.844
324.643
324.213
324.838
313.817
310.684
313.208
314.42
313.497
311.005
313.68
268.234
272.352
271.652
268.746
271.946
274.019
268.244
214.142
215.38
215.88
213.513
216.005
216.285
214.212
214.086
216.357
216.016
215.902
215.315
215.028
214.077
268.26
274.322
273.597
273.779
272.844
273.068
268.495
313.974
311.326
311.051
311.998
311.465
309.686
313.961
324.944
324.109
324.413
324.393
324.194
324.271
324.919
313.908
310.629
312.02
313.049
312.64
310.435
313.918
268.481
273.309
272.623
271.384
272.408
273.511
268.495
214.124
215.349
215.401
214.488
215.765
215.396
214.077
214.356
216.111
214.017
216.311
216.137
215.531
214.294
269.538
274.44
276.144
274.983
274.666
274.366
269.406
314.376
311.092
310.898
310.294
310.133
310.068
314.173
325.029
324.087
323.942
324.232
323.829
324.467
324.998
314.255
311.345
310.5
310.831
310.504
311.35
314.208
269.695
275.279
274.626
276.156
275.158
273.566
269.486
214.416
214.499
215.625
214.089
216.88
215.561
214.313
214.053
211.329
213.558
213.838
213.867
214.019
214.119
272.417
274.389
272.963
272.59
272.634
273.004
272.393
311.738
312.062
310.905
311.362
310.667
311.346
310.967
326.55
327.421
327.172
327.193
327.592
326.502
327.642
311.725
315.479
311.481
310.884
316.299
311.611
311.014
272.614
266.653
272.921
273.056
268.505
273.027
272.502
214.314
213.013
213.992
213.698
211.058
214.118
214.211
242.17
242.208
243.464
245.241
243.547
241.805
241.643
291.571
291.172
290.675
290.523
290.356
290.725
291.097
345.175
345.069
344.882
344.633
344.675
344.693
344.616
361.458
361.435
361.394
361.373
361.355
361.372
361.37
345.099
345.004
344.909
344.837
344.88
345.036
345.121
291.265
291.114
290.738
290.578
290.798
291.155
291.407
240.854
241.611
242.912
244.732
243.23
241.764
241.573
243.136
244.942
256.428
268.559
258.378
245.756
243.348
292.4
291.366
291.176
292.394
291.192
291.639
292.959
340.724
340.376
340.034
339.596
339.724
339.946
339.95
360.794
360.815
360.857
360.75
360.836
360.842
360.666
341.304
340.508
340.188
340.039
339.963
340.366
340.739
292.69
292.345
291.763
292.321
291.79
291.814
292.328
241.991
244.547
255.445
266.877
256.884
244.683
242.229
246.492
256.965
292.162
315.295
297.911
259.471
247.572
288.843
287.25
290.127
294.892
290.826
288.09
289.431
337.1
336.227
336.129
335.647
335.697
335.717
336.189
360.538
360.479
360.484
360.54
360.395
360.08
360.297
337.719
336.653
336.501
336.306
336.205
336.476
337.22
289.269
288.642
290.608
294.08
290.686
288.017
288.755
246.389
255.639
290.198
309.907
292.909
257.501
245.103
256.042
279.014
322.08
338.888
327.47
282.381
256.598
288.942
288.579
297.075
304.844
297.601
289.427
289.014
333.28
332.65
333.277
333.35
332.799
331.881
332.168
359.389
359.059
359.266
359.66
359.336
358.945
359.071
333.379
332.592
333.553
334.006
332.849
332.752
333.661
288.884
289.639
296.205
302.315
296.922
289.245
288.648
255.13
277.109
317.629
329.999
319.453
280.905
254.538
269.906
305.169
332.153
337.951
332.038
312.033
272.849
292.784
295.688
306.59
320.345
305.585
296.756
292.379
330.563
330.524
332.291
333.11
332.041
330.168
329.476
358.425
358.264
358.184
358.608
358.297
358.41
358.61
331.048
331.041
332.79
333.563
332.121
331.088
330.498
292.274
296.295
304.731
316.68
305.017
297.042
292.267
270.065
302.726
325.182
329.92
325.474
311.608
272.044
283.369
314.289
332.753
334.026
330.293
320.905
287.354
299.657
304.575
318.646
339.783
316.509
304.416
297.738
330.857
330.714
332.471
334.599
332.758
330.535
329.332
356.886
356.46
356.321
356.357
356.89
357.092
357.375
330.321
331.073
332.408
334.443
332.051
331.541
330.101
297.8
303.342
316.181
335.087
314.84
304.436
298.242
279.946
309.747
328.342
328.476
325.237
318.338
286.247
288.75
315.078
333.155
333.399
330.931
320.431
294.515
299.653
306.403
333.321
346.55
336.407
309.424
297.995
328.527
328.93
332.341
335.328
333.188
329.291
327.764
354.242
354.525
355.427
356.621
356.288
355.65
353.983
327.048
329.245
331.178
334.153
331.617
330.253
327.452
297.666
307.027
327.942
341.264
331.139
308.743
298.032
285.743
309.269
330.562
327.842
325.943
318.524
292.639
274.125
314.127
331.401
332.741
329.099
316.82
283.113
285.951
300.561
331.684
346.113
338.616
301.793
282.302
323.077
323.204
326.524
334.657
328.881
324.746
324.588
353.115
349.165
352.588
354.319
354.031
351.725
352.846
321.625
321.6
325.912
333.31
331.043
325.803
326.893
283.125
297.534
327.089
338.415
335.416
305.878
284.593
267.885
313.345
325.013
323.838
324.163
315.717
284.151
270.71
312.328
326.963
330.453
326.325
302.775
273.207
282.987
306.012
330.556
345.115
338.971
308.653
279.901
317.157
316.282
320.262
329.089
321.593
317.918
319.779
348.765
344.828
346.726
350.28
349.557
348.127
349.234
315.185
316.446
320.169
328.124
323.626
318.93
323.448
280.495
304.305
327.171
337.11
334.965
310.403
282.004
267.486
321.287
321.163
321.663
322.513
306.485
274.137
272.645
311.751
325.136
329.266
324.314
299.219
266.314
283.976
312.603
333.999
345.443
338.355
313.125
282.881
315.273
316.045
323.059
332.003
323.404
317.224
318.912
344.873
340.786
344.336
348.978
346.781
345.373
347.032
312.212
316.051
320.461
328.963
322.985
317.997
322.824
280.055
314.433
334.186
338.536
334.995
315.319
282.734
273.989
324.082
320.638
319.594
322.044
297.735
266.749
269.603
310.113
324.371
327.815
319.325
299.305
263.977
289.417
322.129
339.367
343.705
337.242
319.963
293.239
318.677
323.434
336.289
343.378
337.155
324.259
321.692
342.582
339.343
341.857
345.964
343.532
344.39
346.669
313.662
321.018
331.577
338.537
335.345
324.033
323.619
284.54
326.041
340.518
339.233
335.482
317.729
291.304
291.823
324.706
322.078
316.827
319.229
294.633
264.764
263.195
298.643
320.872
325.192
312.253
297.752
263.484
298.072
329.294
342.273
338.628
333.948
328.095
298.736
322.842
332.58
340.733
347.604
343.453
335.804
326.73
342.488
340.335
342.473
345.986
344.311
345.215
347.525
320.259
332.34
337.734
342.261
342.999
335.393
329.374
299.768
337.49
341.545
334.864
334.749
325.638
297.015
303.713
325.822
326.285
313.292
308.441
296.651
264.352
262.903
289.226
316.522
326.335
312.215
289.394
263.854
300.75
329.35
343.478
337.457
330.698
328.818
301.408
328.5
338.346
342.313
348.117
344.966
344.528
336.753
344.953
345.614
346.101
348.344
347.329
348.341
349.117
325.186
339.999
341.585
345.233
345.33
344.214
337.388
317.578
342.877
339.318
334.117
332.156
329.308
302.651
302.137
327.023
329.185
317.18
311.16
299.584
266.277
295.228
307.849
322.845
334.283
318.717
296.81
290.063
310.302
324.626
343.475
342.128
334.088
326.87
307.893
330.535
341.306
345.334
348.13
346.2
344.876
336.385
346.783
348.261
346.841
347.901
346.414
347.923
349.03
326.132
342.255
345.382
345.879
345.413
346.404
340.888
314.78
343.942
339.963
337.461
336.195
334.768
326.97
283.845
314.13
333.253
328.941
324.689
321.025
311.415
297.419
311.469
332.481
333.169
330.665
318.384
302.566
302.086
305.605
332.552
345.916
338.68
309.623
299.711
329.273
329.396
332.483
335.488
333.323
329.645
328.615
354.377
352.294
354.317
356.583
355.57
353.972
354.097
327.631
329.503
331.301
334.187
331.762
330.661
328.303
300.826
306.416
328.373
339.397
335.457
313.11
300.066
289.188
305.274
328.032
326.46
325.835
316.463
300.443
287.743
311.619
332.316
333.209
330.478
318.121
295.529
302.385
303.635
332.274
346.046
338.697
306.049
300.222
329.757
330.221
332.693
335.647
333.466
330.432
329.002
354.49
352.19
354.132
356.547
355.486
353.77
354.233
328.526
330.162
331.539
334.387
331.948
331.212
329.323
300.235
302.341
327.651
339.306
335.445
311.853
300.99
281.402
305.647
327.56
326.153
325.374
316.161
295.069
281.082
311.719
332.19
333.198
330.326
317.666
292.133
301.02
301.88
332.069
346.083
338.693
303.629
298.431
331.398
330.793
333.154
336.286
333.796
331.382
329.762
354.533
351.944
353.866
356.47
355.359
353.587
354.348
329.592
331.081
332.265
335.061
332.31
332.406
330.41
298.142
300.253
327.472
339.287
335.498
309.967
300.656
276.465
306.275
327.357
325.829
325.212
315.958
291.979
277.446
311.833
332.082
333.257
330.191
317.071
290.939
297.763
301.701
332.012
346.138
338.718
303.062
297.358
332.64
332.666
334.297
336.935
334.411
332.027
332.01
354.521
351.785
353.537
356.344
355.061
353.48
354.406
330.761
332.001
333.592
335.772
333.069
332.813
331.588
295.04
299.772
327.372
339.245
335.538
308.249
299.672
276.413
306.993
326.803
325.69
325.152
315.51
291.298
277.96
311.92
332.115
333.55
330.068
316.56
293.398
296.745
301.321
331.979
346.177
338.729
302.702
295.465
333.155
333.638
335.464
337.473
335.912
333.811
332.635
354.502
351.897
353.342
356.053
354.663
353.501
354.47
331.735
332.695
334.69
336.238
334.39
334.302
332.453
293.055
299.252
327.345
339.15
335.552
307.351
298.689
282.93
308
326.405
325.673
325.203
315.351
295.128
287.003
312.231
332.129
333.617
330.038
316.499
295.804
297.1
301.198
331.956
346.24
338.709
302.533
295.416
334.704
334.451
336.114
338.655
336.667
334.371
333.33
354.495
352.235
353.308
355.536
354.428
353.646
354.629
332.33
333.718
335.869
337.389
335.224
335.08
333.347
293.269
299.26
327.354
339.073
335.592
307.231
297.483
284.725
310.17
326.216
325.569
325.047
315.642
297.56
291.777
313.152
331.746
333.266
329.926
316.656
294.952
298.837
301.443
331.874
346.254
338.7
301.976
295.872
335.363
335.226
337.552
339.855
338.375
335.865
334.368
354.537
352.707
353.478
355.272
354.439
353.876
354.688
334.011
334.174
337.335
338.395
337.401
335.491
334.528
296.526
299.474
327.251
338.889
335.588
307.047
297.558
282.875
310.962
325.632
324.973
324.533
315.847
297.305
318.744
325.876
332.998
356.409
326.127
321.173
315.876
339.499
341.857
344.974
356.603
341.777
339.399
338.352
334.023
343.583
347.378
349.819
346.324
341.627
337.753
346.718
346.639
341.875
342.401
337.446
338.185
348.531
326.522
340.199
345.887
346.153
347.003
352.981
356.044
333.679
335.467
345.375
345.515
340.439
341.259
336.197
313.652
314.298
319.087
324.964
350.739
348.128
323.454
326.79
334.645
337.726
353.442
336.872
330.726
325.841
342.94
345.104
347.762
357.826
345.477
343.189
341.954
337.094
342.184
347.455
350.392
347.563
344.819
339.632
346.477
339.286
335.982
336.277
339.324
338.958
348.111
326.873
339.473
344.314
346.914
347.478
353.852
355.602
338.713
335.387
338.535
341.205
345.629
345.775
343.551
322.432
322.287
322.804
327.49
331.087
344.518
337.088
335.922
340.663
342.52
352.822
340.161
337.71
332.058
345.617
346.464
349.002
355.379
348.112
346.838
345.77
337.628
342.867
347.979
351.067
348.114
347.8
342.407
345.46
337.053
338.05
339.334
342.493
340.335
347.008
328.535
339.28
345.331
347.84
346.8
352.607
355.558
343.24
339.644
339.013
341.298
347.23
349.422
347.373
332.813
330.79
331.806
333.725
337.317
340.271
355.593
341.257
342.639
344.976
352.414
341.736
338.852
336.671
345.376
345.945
349.151
353.762
346.507
344.713
344.849
339.018
347.318
348.732
352.556
349.157
348.119
342.134
344.289
337.455
339.342
344.241
343.745
342.605
346.199
329.771
340.454
346.112
347.954
347.708
349.516
354.743
342.849
343.773
343.007
344.316
348.608
349.321
350.989
336.978
336.069
335.992
338.16
339.709
341.062
348.072
341.365
343.329
346.656
350.607
344.024
340.223
337.654
344.254
344.665
350.15
352.87
346.265
343.016
342.685
340.01
347.29
348.877
352.513
349.585
348.913
342.25
343.441
338.879
340.576
346.139
347.05
343.864
345.525
331.395
345.013
346.66
348.145
349.239
349.391
352.242
341.646
343.142
343.921
346.508
348.894
348.95
349.006
336.472
337.807
339.012
340.143
339.292
341.556
346.712
340.745
343.394
349.004
349.715
347.151
340.777
336.56
343.624
345.89
350.462
352.718
346.702
344.672
342.784
341.397
346.041
348.591
352.28
350.685
350.94
343.743
340.847
340.199
343.763
348.686
348.277
345.681
344.277
333.231
344.058
345.818
348.783
350.578
351.032
351.086
338.783
342.312
343.157
346.066
347.951
347.717
347.24
335.688
336.35
338.07
339.631
337.901
340.724
346.387
340.5
345.006
351.386
349.725
347.008
341.529
336.269
344.31
346.204
350.808
352.314
348.693
345.026
342.79
344.726
347.868
350.006
352.648
351.142
351.352
347.942
341.248
344.52
347.623
351.451
350.585
348.423
345.247
337.87
347.479
348.77
350.269
350.275
350.043
348.859
340.767
344.314
344.905
346.299
345.425
344.129
342.449
334.021
335.682
337.815
339.095
337.987
339.329
343.302
316.072
316.733
316.471
318.196
321.114
328.274
342.81
338.392
337.433
336.953
337.217
338.356
342.023
345.568
355.262
354.057
353.294
353.148
353.294
353.924
354.462
350.687
354.176
355.945
356.098
355.818
355.629
355.407
354.292
352.277
351.874
351.631
351.888
352.815
354.51
335.268
335.322
336.29
338.437
340.713
346.177
349.184
323.002
323.826
323.981
326.192
329.831
335.84
345.838
325.182
324.87
323.653
324.536
329.652
335.952
341.009
340.659
340.087
339.388
340.627
341.933
343.573
348.292
354.212
353.099
352.269
352.222
352.463
353.142
353.837
349.981
352.951
354.657
355.246
355.349
355.132
354.66
352.523
351.695
351.842
352.838
353.205
353.724
354.324
343.215
342.514
343.045
345.132
346.556
348.883
352.185
340.174
338.188
336.247
336.839
337.471
341.44
348.615
331.46
330.641
330.311
330.513
332.294
334.953
339.391
344.055
342.895
342.566
343.145
344.103
345.437
349.077
354.536
353.318
352.507
352.447
352.442
352.674
352.995
348.78
350.012
351.202
352.961
352.871
352.696
352.741
353.107
352.36
352.336
353.861
354.513
355.634
356.009
345.538
346.207
346.628
349.56
350.976
352.835
355.922
349.156
350.354
348.918
349.223
349.904
347.667
350.942
335.518
335.354
335.04
335.591
337.926
339.016
337.325
344.259
343.583
343.228
343.044
343.386
344.543
348.234
353.361
353.245
351.366
350.959
350.864
351.523
352.308
348.072
348.592
348.502
348.598
348.898
349.517
350.579
353.687
350.702
346.948
349.727
353.653
355.607
356.869
349.18
345.963
343.609
346.147
350.951
354.146
356.705
354.596
353.749
351.067
352.594
356.66
355.843
353.927
337.327
337.013
336.642
335.858
336.475
337.174
337.937
342.876
342.414
341.623
340.926
341.177
341.618
342.837
345.254
350.212
350.142
349.987
349.476
349.721
349.533
346.779
346.831
346.812
346.759
346.517
345.94
345.426
351.297
350.1
349.934
349.753
350.09
351.185
351.68
347.708
347.019
347.504
348.529
350.26
352.017
354.029
348.788
349.886
353.618
357.304
358.686
357.328
355.61
336.73
336.344
336.183
336.51
337.759
337.94
339.379
342.322
341.891
341.16
341.106
341.606
342.771
343.338
343.484
343.573
343.727
343.821
343.945
344.209
345.09
343.812
343.378
342.896
341.948
341.645
340.751
340.676
349.358
348.389
347.947
347.89
347.95
347.979
348.405
344.503
342.784
342.803
343.928
347.043
348.283
351.147
347.229
348.642
349.857
354.563
355.689
356.716
356.579
336.546
336.327
336.647
337.563
338.083
338.503
338.601
342.572
342.438
342.499
342.83
343.351
343.581
344.301
346.623
345.012
344.522
344.003
343.321
342.069
340.719
344.955
343.838
343.29
342.059
340.041
337.652
334.624
347.332
347.18
347.202
347.139
347.015
346.272
344.755
341.175
339.668
339.962
341.945
343.221
346.803
347.821
342.875
343.06
344.733
346.815
347.991
350.948
353.931
338.075
332.293
320.209
317.938
318.173
319.981
319.491
344.847
343.386
340.385
339.537
338.693
338.535
338.608
354.838
353.854
353.698
353.67
353.91
355.183
356.458
353.168
353.576
354.27
354.654
354.662
352.887
348.199
353.925
353.662
353.656
354.166
354.394
355.374
339.309
344.981
339.239
336.232
335.027
335.246
336.198
337.222
337.375
329.973
323.44
314.272
313.175
313.402
314.056
340.673
336.472
327.638
325.169
324.344
325.614
325.536
345.124
344.014
342.893
341.959
340.836
340.926
341.139
354.41
354.156
353.892
354.034
354.417
355.23
355.96
351.167
351.952
352.666
352.787
352.678
350.401
347.751
353.049
352.925
352.849
353.125
353.464
353.999
340.303
344.851
341.878
339.013
338.116
338.044
338.867
339.597
343.026
329.627
326.149
322.343
323.16
323.016
325.403
343.749
338.072
334.792
334.251
333.66
333.828
334.983
347.896
346.87
344.882
344.479
344.152
344.388
344.682
353.342
353.308
353.04
353.067
353.356
354.693
355.923
349.493
349.621
350.446
350.643
350.456
348.56
346.912
352.206
352.24
352.363
352.625
353.243
353.582
339.532
346.536
343.981
342.654
342.365
342.972
342.997
343.623
334.609
331.45
330.752
331.328
333.366
333.806
334.372
342.681
341.809
341.972
341.073
339.508
339.129
339.632
348.308
346.028
344.966
344.569
343.648
344.141
344.847
352.798
352.33
351.392
350.918
351.62
354.348
352.2
346.972
346.593
346.443
346.57
346.557
346.266
345.402
351.948
351.461
351.072
350.974
352.226
349.436
336.692
347.317
343.506
343.462
343.299
343.071
342.911
342.882
333.468
334.673
334.775
334.888
335.781
336.044
336.912
343.163
343.795
341.215
340.261
339.409
339.542
339.942
345.257
343.444
343.321
343.332
343.133
343.687
344.243
349.922
349.716
349.545
349.843
349.841
347.901
342.861
343.198
343.107
343.621
343.957
344.24
344.432
344.14
349.242
349.869
349.652
349.471
347.623
343.78
334.274
339.114
339.184
341.744
342.191
342.194
341.499
341.103
336.902
335.928
334.446
333.917
335.848
336.462
336.763
345.751
342.122
342.547
341.806
340.585
340.033
340.115
344.489
343.304
342.475
341.738
341.528
341.928
342.529
344.447
344.158
343.978
344.01
343.812
342.699
341.537
337.001
337.55
338.294
338.951
339.851
340.64
340.789
343.987
341.23
340.137
338.214
337.402
335.235
333.581
340.736
339.983
338.886
338.363
337.86
337.601
337.666
337.624
336.529
335.753
335.828
336.285
336.22
335.943
344.99
340.493
341.193
340.212
338.795
338.096
338.176
342.331
341.152
340.675
340.31
340.236
340.664
342.061
339.694
340.492
341.047
341.737
342.33
342.566
343.049
330.324
333.501
334.727
337.501
338.491
339.343
340.432
334.307
335.465
335.461
335.282
335.498
335.591
335.81
339.721
339.589
339.36
339.113
338.971
339.288
339.743
337.295
335.999
335.462
334.782
334.754
334.431
334.07
363.016
361.989
363.798
362.535
355.89
353.187
345.925
361.141
358.162
358.606
357.708
354.948
353.096
350.451
358.56
358.233
358.117
357.651
356.807
356.459
355.535
356.363
355.702
354.005
353.495
352.52
352.346
352.44
354.832
355.839
355.539
354.641
354.171
353.92
353.96
357.445
357.764
355.618
353.968
353.108
349.961
346.732
367.971
366.595
363.059
361.855
357.769
353.13
349.031
360.931
358.817
360.342
357.392
355.157
353.045
345.265
359.936
351.903
350.034
350.261
350.122
349.597
348.317
358.145
356.793
356.117
354.88
354.717
354.294
354.399
356.402
355.065
352.86
351.748
350.646
350.365
350.435
353.863
355.051
354.906
354.401
353.973
353.3
353.294
351.373
355.016
354.372
354.04
353.308
350.712
349.378
363.271
367.201
363.775
362.108
358.603
353.236
348.408
355.216
355.837
357.534
354.689
350.462
349.851
345.633
349.254
344.682
345.365
348.103
349.844
350.097
349.235
355.989
354.984
353.418
353.189
353.443
353.556
353.572
355.246
352.807
350.599
349.439
348.92
349.062
349.308
352.974
352.274
352.889
352.755
352.464
352.39
352.41
346.885
347.65
347.582
349.645
350.376
350.385
348.631
354.174
359.218
352.79
350.949
346.668
341.979
337.276
355.026
350.77
350.4
344.231
347.679
348.326
341.205
343.057
340.543
344.534
349.132
352.907
352.505
351.392
352.572
351.796
350.854
351.458
352.226
353.398
353.516
354.486
352.172
348.962
347.614
347.072
346.824
346.849
350.054
349.441
348.904
349.966
350.794
351.144
352.001
336.727
341.121
343.08
348.831
351.389
351.648
350.229
341.561
350.631
343.888
340.101
339.79
336.534
334.66
353.47
342.635
347.876
340.4
340.127
343.451
337.422
337.458
338.644
345.072
349.603
353.823
350.876
348.336
349.455
349.24
350.04
351.163
352.934
353.014
351.137
352.687
350.304
348.125
346.498
345.355
343.918
343.509
347.897
347.718
348.064
349.434
350.864
351.566
351.113
333.537
334.682
340.932
349.261
351.213
351.826
347.002
340.082
340.97
340.817
337.045
331.032
329.378
328.717
345.856
339.795
346.513
333.52
333.979
340.718
333.148
332.18
334.791
342.208
347.303
354.153
349.251
346.891
346.826
346.457
346.882
348.368
350.235
349.173
345.244
350.897
347.718
343.795
341.936
341.344
337.958
337.221
347.097
344.996
345.051
347.862
348.715
347.7
346.066
331.316
332.019
338.817
348.052
348.317
344.072
342.248
339.884
339.953
337.073
332.505
328.058
322.878
326.685
342.375
335.17
343.435
326.871
328.921
334.738
332.56
329.527
332.537
339.3
340.855
354.49
348.849
346.515
343.991
343.761
344.486
345.024
343.722
339.774
337.849
347.31
342.201
337.78
335.088
331.226
328.796
328.041
344.525
342.514
344.244
346.137
342.495
337.257
334.592
330.271
330.874
337.139
345.809
346.477
341.647
340.008
342.396
340.488
335.225
330.084
324.512
321.086
324.946
335.34
331.544
327.576
322.288
320.616
315.511
330.376
324.084
328.184
328.067
331.848
333.668
332.671
329.103
335.397
335.135
333.045
334.048
333.383
331.177
324.107
334.824
332.655
332.502
333.145
330.53
328.262
321.254
338.293
334.949
333.626
333.77
333.418
333.459
325.757
321.045
326.704
329.118
330.573
332.331
331.067
332.558
340.667
337.087
332.515
326.047
322.09
319.401
321.374
303.189
301.917
301.416
302.566
301.335
302.784
300.567
315.402
315.3
315.86
315.566
317.101
318.231
317.772
329.891
330.003
328.764
327.323
326.495
326.951
323.213
328.562
325.926
325.876
324.946
323.788
323.2
319.973
328.491
329.104
328.882
328.236
328.051
329.11
327.355
315.042
316.16
318.522
319.624
320.033
319.351
320.443
307.142
303.442
306.706
305.9
305.06
306.104
304.91
286.895
286.457
286.377
285.973
287.182
288.265
287.23
306.249
307.729
308.147
307.595
307.823
308.468
308.6
317.631
324.6
325.261
324.25
323.899
324.88
321.799
321.787
318.812
319.036
318.95
318.232
318.459
315.62
325.064
325.123
325.734
325.404
324.207
325.862
324.464
304.562
306.96
307.782
307.241
307.552
306.949
308.691
287.498
287.312
287.952
288.269
287.915
288.248
288.644
278.979
278.627
279.249
279.535
279.942
279.591
279.926
303.914
302.297
302.46
303.628
304.064
304.635
304.464
314.012
315.245
317.034
318.903
320.374
319.796
319.471
304.457
306.277
306.64
307.53
308.145
309.103
308.591
317.42
316.837
317.867
319.232
319.054
318.419
317.205
301.513
301.999
302.821
303.665
304.062
303.229
304.396
279.648
278.814
278.076
279.61
278.428
279.202
279.876
277.499
277.217
277.16
277.38
277.575
276.902
277.563
301.118
300.881
300.94
302.582
302.754
301.785
302.966
313.826
314.409
315.143
314.555
316.255
318.619
318.355
299.844
300.267
301.501
302.655
304.158
306.3
308.265
315.083
314.799
315.546
315.301
315.479
315.865
316.483
300.27
300.729
301.079
302.074
302.606
300.66
302.344
276.781
277.604
276.591
276.735
277.242
276.613
277.678
277.729
277.685
277.95
278.614
278.307
278.029
278.707
301.841
301.919
301.977
302.823
302.896
301.826
302.835
315.51
314.952
315.344
314.195
315.495
318.916
318.745
296.526
298.17
299.773
301.118
302.667
305.12
307.393
315.557
315.196
316.134
315.272
315.364
315.902
317.968
301.34
301.553
301.583
302.439
302.506
301.577
302.353
277.495
278.246
277.434
277.717
278.555
277.886
278.616
292.565
292.559
292.39
292.097
292.263
292.12
292.119
305.161
305.169
305.148
305.183
305.249
305.033
305.252
309.824
308.247
308.413
307.963
308.368
310.129
312.234
281.9
285.594
287.715
289.604
291.229
293.177
295.929
309.008
308.849
309.716
309.56
309.548
308.798
312.132
305.023
304.88
304.964
304.956
305.004
304.9
305.036
292.583
292.104
292.576
292.1
292.076
292.068
292.063
347.635
353.794
360.998
364.739
368.29
367.594
367.621
349.52
354.641
356.358
359.318
361.432
360.461
363.128
355.593
356.471
357.665
358.489
359.195
359.349
360.077
354.908
354.609
354.702
355.332
356.078
357.804
358.048
355.187
355.88
357.1
358.121
358.571
359.158
359.916
351.848
354.312
358.225
359.632
360.887
360.972
363.62
351.737
355.452
361.92
364.689
367.208
367.923
367.877
348.665
352.643
357.774
360.572
362.581
359.928
364.816
350.207
351.899
352.864
353.059
353.433
353.603
362.383
354.411
354.791
355.692
356.038
356.573
357.485
359.598
354.458
354.056
353.819
354.103
354.735
356.649
357.384
355.24
355.667
356.021
356.416
356.656
357.559
359.529
353.363
355.49
356.364
356.64
355.782
355.966
362.445
352.373
357.307
359.437
362.473
365.556
366.095
365.977
340.027
346.344
349.095
348.115
354.025
353.085
358.077
351.13
351.835
351.833
350.28
348.386
347.949
350.415
353.644
353.748
354.004
354.013
354.191
355.023
355.665
352.582
352.501
352.698
352.856
353.356
355.159
355.79
356.141
356.225
356.081
355.313
355.008
355.396
355.811
357.369
357.905
358.069
355.948
353.335
351.09
350.906
351.452
353.88
355.269
354.681
359.844
361.211
358.855
333.126
333.561
340.118
342.423
347.074
344.005
355.382
351.083
353.27
353.302
350.35
346.509
341.704
343.912
353.231
353.167
352.757
352.582
352.5
353.043
353.692
350.851
351.049
351.623
352.24
352.622
353.939
354.792
357.076
357.065
356.286
354.64
353.978
353.629
354.126
358.93
359.464
360.163
357.384
354.693
349.143
347.779
347.903
351.546
348.796
347.929
355.828
353.797
358.256
328.859
328.081
333.824
333
340.479
338.133
349.234
346.363
352.644
353.987
348.081
345.779
338.974
339.927
350.318
353.11
352.948
351.851
351.336
350.522
350.992
345.612
346.005
347.057
349.298
350.965
352.018
353.937
353.888
356.402
357.243
354.88
353.215
351.908
352.412
357.351
358.662
360.517
356.653
357.12
348.775
344.75
337.002
346.466
344.602
338.866
348.117
348.277
356.404
329.555
327.127
332.359
331.566
338.269
336.225
344.447
345.071
349.715
354.272
346.921
341.807
333.688
334.757
345.721
348.653
350.428
349.334
347.902
347.502
347.488
340.737
341.967
342.528
343.603
346.599
350.182
351.505
347.915
352.277
354.905
353.439
351.406
350.362
348.164
353.564
356.775
360.115
353.981
357.422
346.896
336.679
332.895
336.082
336.531
333.605
343.239
336.826
347.077
331.601
327.377
331.776
331.247
335.993
333.975
339.167
345.369
351.069
353.819
344.356
338.362
329.012
329.785
339.177
340.63
344.593
345.813
345.538
344.98
344.917
333.004
333.585
337.06
339.354
340.269
343.686
347.812
343.633
343.744
347.381
349.398
350.287
346.411
345.434
349.692
353.994
359.427
348.915
353.579
342.676
333.055
330.869
331.119
332.482
331.625
338.68
331.906
339.44
328.836
325.99
329.82
329.368
332.236
331.471
334.065
333.02
329.853
333.127
330.723
327.516
325.62
324.341
326.153
331.397
333.741
334.07
333.883
336.337
338.06
324.683
329.901
334.045
335.216
335.864
336.781
334.988
332.49
337.08
338.322
337.231
335.635
336.692
335.845
333.857
338.048
339.866
332.423
330.354
329.164
327.089
330.844
324.598
328.597
330.538
335.543
324.755
335.506
301.153
303.208
301.078
301.311
296.211
294.48
303.183
318.016
319.587
319.527
318.283
316.783
316.086
316.123
326.179
326.99
326.718
328.342
330.562
331.031
327.924
320.634
326.054
325.396
326.366
326.469
326.514
327.303
327.074
329.993
328.983
329.032
331.394
330.431
328.893
320.505
319.404
318.89
318.292
317.946
316.415
316.283
305.425
306.455
305.824
305.942
306.155
307.393
307.877
288.838
288.355
289.14
287.57
287.928
288.158
288.902
309.891
308.777
308.843
308.264
307.037
307.422
306.748
323.028
325.149
323.487
325.496
322.9
323.187
324.135
317.501
318.438
320.693
321.612
320.412
319.5
321.809
323.481
325.452
325.77
326.458
323.526
326.348
325.339
315.392
311.692
310.232
308.905
308.715
309.709
310.653
290.46
290.991
289.627
288.909
290.304
291.323
290.463
280.766
280.685
279.805
280.604
280.556
279.836
281.177
305.002
305.118
304.74
304.448
302.944
301.785
303.712
319.265
320.659
321.976
319.821
319.056
318.485
315.589
309.075
310.484
310.499
309.274
306.7
306.834
306.663
321.018
322.048
321.693
321.922
320.593
316.173
315.897
305.731
304.721
305.421
305.246
303.94
303.57
303.427
282.136
281.89
281.884
281.909
281.247
280.174
281.033
278.146
277.709
277.777
277.98
278.229
277.79
278.4
303.127
301.931
302.894
303.024
301.306
300.283
301.586
317.488
318.178
317.117
314.078
316.038
316.748
315.143
307.722
307.957
307.549
304.909
302.619
301.344
303.539
318.185
318.419
316.587
315.95
317.14
314.555
315.034
303.471
302.33
303.248
303.238
301.776
301.643
301.384
278.803
278.122
278.632
278.687
278.202
278.212
278.626
279.62
278.416
278.183
279.131
279.069
278.389
278.475
302.824
301.98
302.914
302.895
301.933
301.747
301.971
318.431
317.92
315.637
313.585
316.053
316.545
316.774
307.299
306.462
305.251
302.126
300.808
300.089
295.908
318.508
318.385
315.685
314.978
316.815
315.068
316.385
302.92
302.579
302.948
302.964
302.123
302.154
301.846