/*--------------------------------*- C++ -*----------------------------------*\
  =========                 |
  \\      /  F ield         | OpenFOAM: The Open Source CFD Toolbox
   \\    /   O peration     | Website:  https://openfoam.org
    \\  /    A nd           | Version:  6
     \\/     M anipulation  |
\*---------------------------------------------------------------------------*/
FoamFile
{
    version     2.0;
    format      ascii;
    class       volVectorField;
    location    "0.005";
    object      U;
}
// * * * * * * * * * * * * * * * * * * * * * * * * * * * * * * * * * * * * * //

dimensions      [0 1 -1 0 0 0 0];

internalField   nonuniform List<vector> 
3773
(
(31.6901 -0.0661261 0.231895)
(31.2269 0.00840535 0.206533)
(31.2223 0.0415534 0.190714)
(31.2848 0.0374444 0.197278)
(31.2946 0.0480965 0.207825)
(31.335 0.0402234 0.219993)
(31.8481 0.0616872 0.24201)
(10.1738 0.0157194 0.010935)
(10.1425 -0.0459788 0.0196008)
(10.1479 -0.0375289 0.0322396)
(10.142 0.00688235 0.0310602)
(10.1354 0.0123003 0.0292312)
(10.1434 0.0248054 0.0448876)
(10.1729 -0.0050574 0.0505017)
(4.11397 0.0337356 0.0374993)
(4.10889 -0.0145299 0.0433443)
(4.10955 -0.0324633 0.0527854)
(4.10901 0.0122071 0.050932)
(4.1087 0.0265097 0.0526198)
(4.10932 0.0156511 0.0696671)
(4.1141 -0.0139639 0.05825)
(-0.000161402 0.00748345 0.0473898)
(-9.44619e-05 0.0211767 0.0460894)
(-6.52603e-05 0.0221162 0.0483821)
(1.47719e-05 -0.00963698 0.0478763)
(8.61246e-05 -0.0342905 0.0456588)
(0.000110776 -0.0366393 0.0352253)
(0.000210844 -0.019574 0.0384695)
(-4.1155 0.0291226 0.040628)
(-4.11105 -0.0155623 0.0432773)
(-4.11089 -0.0333146 0.0481214)
(-4.11007 0.00545859 0.0479293)
(-4.1097 0.0189713 0.0486523)
(-4.11028 0.0131185 0.0622617)
(-4.11516 -0.0110425 0.0532673)
(-10.1815 0.00995973 -0.00301)
(-10.1767 -0.0440152 0.00994633)
(-10.1603 -0.02763 0.0308833)
(-10.1484 0.00670785 0.025731)
(-10.1467 0.0144687 0.0285079)
(-10.1536 0.0332159 0.045434)
(-10.1815 -0.000818948 0.0504551)
(-31.8577 -0.0522552 0.252536)
(-31.3879 -0.0194558 0.231261)
(-31.39 -0.015687 0.216604)
(-31.4233 -0.017996 0.220911)
(-31.3457 -0.015177 0.209772)
(-31.3221 -0.00605167 0.216989)
(-31.8885 0.0398023 0.25043)
(27.0937 -0.0808816 0.521406)
(26.8117 -0.00982881 0.4784)
(26.7751 0.0292453 0.458221)
(26.7888 0.0441324 0.465654)
(26.8338 0.0615745 0.485939)
(26.9133 0.0516156 0.514234)
(27.058 0.0733709 0.539454)
(9.02091 0.0129278 -0.0287796)
(9.15122 -0.0515138 -0.00582506)
(9.16369 -0.0474879 0.0217239)
(9.15815 0.0106845 0.0158307)
(9.14978 0.0306209 0.00361162)
(9.16427 0.0421011 0.0211761)
(9.05121 0.00338765 0.0125157)
(3.8327 0.0386831 0.0474334)
(3.8056 -0.009957 0.0476967)
(3.80977 -0.0330808 0.0701784)
(3.80948 0.0139405 0.0641536)
(3.81149 0.0394519 0.0635751)
(3.80968 0.0235526 0.0884627)
(3.83382 -0.0179429 0.0677447)
(-0.000168174 0.00632676 0.0448137)
(-9.9789e-05 0.0252422 0.0384252)
(-7.22271e-05 0.0274345 0.0383241)
(6.86543e-06 -0.0125979 0.0376348)
(7.72051e-05 -0.04235 0.0347332)
(0.000112636 -0.0411917 0.0196546)
(0.000185419 -0.0191118 0.0272058)
(-3.83635 0.032633 0.0468405)
(-3.82908 -0.0164973 0.0466718)
(-3.81532 -0.0366995 0.0599385)
(-3.81381 0.00678171 0.0588749)
(-3.81137 0.0298059 0.0571902)
(-3.81283 0.0192477 0.076624)
(-3.83679 -0.0146105 0.0614965)
(-9.04137 0.0139822 -0.0480265)
(-9.01772 -0.0461365 -0.0256377)
(-9.15583 -0.0406769 0.0147743)
(-9.15569 0.00764388 -0.00233655)
(-9.15074 0.0306881 0.00407998)
(-9.16997 0.0470796 0.0277962)
(-9.04475 0.0047549 0.0117642)
(-27.1307 -0.058368 0.558652)
(-26.8922 -0.0373089 0.532285)
(-26.8891 -0.0355091 0.502745)
(-26.9248 -0.0216843 0.50618)
(-26.8383 -0.013991 0.489429)
(-26.8608 0.000978348 0.507264)
(-27.0761 0.0492346 0.548415)
(26.0855 -0.0996632 0.493592)
(26.0756 -0.0339106 0.433889)
(25.9373 0.0261118 0.407714)
(25.9425 0.0549744 0.413784)
(26.0143 0.0803426 0.457151)
(26.0946 0.0713466 0.517558)
(26.0793 0.086413 0.539627)
(8.86509 0.0134647 0.0251337)
(8.99629 -0.0392062 0.0454953)
(8.9594 -0.0410473 0.0735479)
(8.93966 0.00358745 0.0645813)
(8.93732 0.0248492 0.0332527)
(8.98488 0.0360392 0.0325753)
(8.86863 0.00318262 0.00565224)
(3.82374 0.036396 0.084997)
(3.79167 -0.0091548 0.0689229)
(3.81575 -0.0305423 0.0954734)
(3.81587 0.0108854 0.0864635)
(3.81139 0.0418171 0.0834684)
(3.78435 0.0254437 0.0932531)
(3.82099 -0.0213578 0.0757871)
(-0.000169216 0.00599101 0.043076)
(-0.000115042 0.0220554 0.0390415)
(-9.05251e-05 0.0249357 0.0215039)
(-4.86882e-06 -0.0130816 0.0188528)
(7.25504e-05 -0.045026 0.0164867)
(0.0001273 -0.0412025 0.0187972)
(0.000214615 -0.0182578 0.0323265)
(-3.82294 0.031339 0.0783577)
(-3.79316 -0.0159771 0.0666777)
(-3.79813 -0.0357503 0.0849674)
(-3.8079 0.00513892 0.0818685)
(-3.81401 0.0312924 0.0757934)
(-3.80076 0.0202488 0.0870872)
(-3.82139 -0.0170094 0.0736969)
(-8.87112 0.00909303 0.0177552)
(-8.957 -0.0357533 0.0218651)
(-8.98431 -0.0350634 0.0531237)
(-8.8879 0.000517452 0.0467098)
(-8.95886 0.0312179 0.0388636)
(-8.99635 0.0396576 0.0377023)
(-8.87166 0.00135627 0.00539461)
(-26.0839 -0.0731279 0.544998)
(-26.0812 -0.0590367 0.520973)
(-25.9895 -0.0417095 0.467841)
(-25.8821 -0.0277716 0.481526)
(-25.9662 -0.0195585 0.450582)
(-26.1215 0.0221727 0.481781)
(-26.0827 0.0688096 0.543717)
(25.9243 -0.109992 0.335775)
(26.1582 -0.0397198 0.339946)
(26.0936 0.026815 0.314165)
(26.0985 0.0629119 0.31434)
(26.0161 0.0899613 0.354373)
(25.9798 0.0766854 0.357753)
(25.9298 0.0922063 0.366097)
(8.86979 0.0166796 0.0334121)
(9.06768 -0.0257949 0.0285871)
(9.03046 -0.0363833 0.0687781)
(9.0124 -0.00733576 0.0578514)
(8.94952 0.0150044 0.0263217)
(8.98211 0.028127 0.0314717)
(8.87022 -0.00111073 0.0080546)
(3.82353 0.0328745 0.0829364)
(3.78725 -0.00628893 0.0660818)
(3.79817 -0.0267422 0.100404)
(3.80112 0.00882818 0.0904817)
(3.80988 0.0432219 0.0885993)
(3.7795 0.0231784 0.0873151)
(3.82164 -0.0237446 0.0759785)
(-0.000176678 0.00840062 0.0470278)
(-0.000120544 0.0179302 0.0446909)
(-0.000106957 0.0171164 0.0141531)
(-1.67434e-05 -0.0143049 0.00975761)
(6.92114e-05 -0.0423597 0.0102242)
(0.000136499 -0.0356362 0.0305095)
(0.000229094 -0.0160919 0.0471201)
(-3.82338 0.0284581 0.0779717)
(-3.77897 -0.0132891 0.0632986)
(-3.80917 -0.0310978 0.0881301)
(-3.82391 0.00357685 0.0834161)
(-3.81291 0.0334973 0.0780102)
(-3.78268 0.0208536 0.0884508)
(-3.82147 -0.0200689 0.0732503)
(-8.87219 0.00830912 0.0246733)
(-8.99115 -0.0269808 0.0224872)
(-8.96818 -0.0281665 0.0419377)
(-8.87241 -0.00147477 0.0496408)
(-8.97826 0.0303412 0.0357661)
(-9.04625 0.0303603 0.031411)
(-8.87278 -0.00498588 0.00883721)
(-25.9192 -0.0828855 0.372166)
(-25.9904 -0.0640861 0.370241)
(-26.0465 -0.0453495 0.36001)
(-25.7614 -0.0334214 0.312034)
(-26.0629 -0.0162218 0.33989)
(-26.1032 0.0296244 0.352524)
(-25.9299 0.0801743 0.373582)
(25.9077 -0.0990353 0.232254)
(26.0995 -0.0374449 0.293165)
(26.0577 0.0209791 0.268716)
(26.0441 0.0643067 0.260008)
(25.9775 0.0935367 0.248978)
(25.9427 0.0752141 0.242319)
(25.9064 0.0923247 0.240656)
(8.87232 0.0156108 0.0478382)
(9.05574 -0.0199506 0.0237297)
(9.03214 -0.0306031 0.0540671)
(9.03827 -0.0154075 0.0497925)
(9.00693 0.0122424 0.0420694)
(9.014 0.025001 0.0498669)
(8.88012 -0.00678702 0.0327752)
(3.82442 0.0295398 0.0804776)
(3.78609 -0.00198876 0.0673396)
(3.78286 -0.022352 0.0998332)
(3.79428 0.00636319 0.0875905)
(3.78778 0.0431547 0.08552)
(3.76619 0.0202751 0.0828253)
(3.8247 -0.0250746 0.077157)
(-0.000179452 0.00696316 0.0526667)
(-0.000122311 0.0102014 0.0416674)
(-0.000117468 0.00929064 0.0174387)
(-2.17148e-05 -0.0139403 0.0128937)
(6.86347e-05 -0.0347545 0.0192036)
(0.000145544 -0.0264402 0.0406954)
(0.000234787 -0.0115117 0.0520496)
(-3.82431 0.0250026 0.0776103)
(-3.77806 -0.0110666 0.0670318)
(-3.79474 -0.0276436 0.090643)
(-3.80725 0.00160543 0.0846174)
(-3.80227 0.0343464 0.0764632)
(-3.77538 0.0189837 0.0830595)
(-3.82406 -0.0229679 0.0729474)
(-8.88015 0.00934255 0.0395671)
(-9.0227 -0.0223311 0.0275019)
(-8.99995 -0.0228748 0.0546849)
(-8.95948 -0.00101198 0.0545901)
(-8.99332 0.0250805 0.0437151)
(-9.02938 0.0247445 0.0492753)
(-8.88099 -0.0105791 0.0323679)
(-25.9129 -0.0794799 0.24566)
(-25.9812 -0.0598407 0.258068)
(-25.9885 -0.0535821 0.26817)
(-25.8739 -0.0359045 0.226091)
(-26.0316 -0.00957525 0.255405)
(-25.9894 0.0333493 0.256678)
(-25.9091 0.0808172 0.252536)
(25.9393 -0.0843887 0.119996)
(26.0724 -0.024818 0.183463)
(25.8207 0.016924 0.181824)
(26.0945 0.0564523 0.177899)
(26.0741 0.0807737 0.141764)
(26.0019 0.0717309 0.131794)
(25.9314 0.0914461 0.116707)
(8.91432 0.011703 0.0727667)
(9.05932 -0.0209327 0.0596153)
(9.11578 -0.0248967 0.0815304)
(9.07772 -0.0132662 0.084232)
(9.06705 0.0092671 0.0904981)
(9.0568 0.0216633 0.100001)
(8.90992 -0.0103371 0.0863952)
(3.8289 0.0269031 0.0920066)
(3.78292 0.00230993 0.0781789)
(3.78067 -0.0184095 0.100675)
(3.77326 0.00306825 0.0949312)
(3.77146 0.0404016 0.0934407)
(3.77053 0.01891 0.0926215)
(3.8269 -0.0260656 0.089989)
(-0.000178149 0.00273346 0.047323)
(-0.000121585 0.00252424 0.0409404)
(-0.000120855 0.00509513 0.0303076)
(-2.54313e-05 -0.0128782 0.0252646)
(6.75502e-05 -0.0299663 0.0316899)
(0.00014773 -0.0223237 0.037749)
(0.000238292 -0.00927378 0.0442361)
(-3.82812 0.0234452 0.0860666)
(-3.78651 -0.0077749 0.0736733)
(-3.77614 -0.0243488 0.0974957)
(-3.78017 -0.00204283 0.0931059)
(-3.77615 0.0318054 0.0895174)
(-3.78618 0.0167869 0.0924638)
(-3.82721 -0.0242489 0.0894807)
(-8.92006 0.00614517 0.0673731)
(-9.08747 -0.0164821 0.0618225)
(-9.06594 -0.0160518 0.0944709)
(-9.11699 -0.0038537 0.0884262)
(-9.08402 0.026514 0.0813395)
(-9.03108 0.0225775 0.0955725)
(-8.91348 -0.0137895 0.0776082)
(-25.9468 -0.0752722 0.128923)
(-25.8789 -0.0531933 0.163427)
(-26.0133 -0.0553622 0.151041)
(-25.8274 -0.0343889 0.153073)
(-26.1635 -0.00959115 0.171784)
(-26.0072 0.0259647 0.139556)
(-25.9365 0.080061 0.126153)
(25.825 -0.0809968 0.154504)
(25.4957 -0.0136406 0.180318)
(25.7675 0.0189927 0.188168)
(25.7987 0.0503351 0.184266)
(25.8016 0.0726968 0.167384)
(25.8196 0.0700862 0.16909)
(25.8318 0.0920956 0.155119)
(8.99253 0.0102457 0.0203464)
(9.05782 -0.0172574 0.0202923)
(9.01115 -0.0195496 0.0387897)
(8.99897 -0.0116849 0.0365211)
(9.00014 0.0153168 0.0390685)
(9.01197 0.0268581 0.051699)
(8.99158 -0.0116713 0.0423415)
(3.79066 0.0262457 0.0379125)
(3.7948 0.00298097 0.0262485)
(3.78081 -0.0155623 0.0362839)
(3.7864 0.00418253 0.0377227)
(3.77802 0.0441634 0.03707)
(3.78626 0.0201235 0.0371893)
(3.78167 -0.0295274 0.0359361)
(-0.000177039 0.0032284 0.00134391)
(-0.000123987 0.00170761 0.00270331)
(-0.000120547 0.00374618 -0.00134714)
(-2.68558e-05 -0.013702 -0.00381055)
(6.49849e-05 -0.0328009 -0.00102778)
(0.000147944 -0.0242258 -0.00329464)
(0.000242937 -0.0102098 -0.000401099)
(-3.79114 0.0217454 0.0318104)
(-3.83688 -0.0078299 0.0182706)
(-3.78813 -0.021558 0.03547)
(-3.78088 -0.00202573 0.0336175)
(-3.84677 0.037019 0.0349862)
(-3.78956 0.0205713 0.03859)
(-3.78218 -0.0270988 0.0384103)
(-8.99952 0.00626655 0.0180905)
(-8.80284 -0.0153569 0.0284827)
(-9.01 -0.0119027 0.0397176)
(-9.01482 -0.00717895 0.0383106)
(-8.86454 0.0284901 0.0338163)
(-9.01351 0.0236776 0.0437168)
(-8.99611 -0.0174229 0.0306458)
(-25.8559 -0.072319 0.162258)
(-25.6997 -0.0537455 0.189099)
(-25.817 -0.0573636 0.174211)
(-25.7827 -0.0307498 0.179137)
(-25.4631 -0.0181818 0.186942)
(-25.8337 0.0154451 0.166817)
(-25.8456 0.0825389 0.158198)
(28.8474 -1.2821 -4.55251)
(28.8479 -3.35737 -5.43822)
(28.9574 -3.57601 -8.01744)
(29.1463 -0.458821 -9.76798)
(28.9868 3.05271 -8.35979)
(28.8501 3.23315 -5.81175)
(28.8635 1.23124 -4.85265)
(9.42987 -0.516719 -0.755516)
(9.414 -1.28418 -1.03954)
(9.38976 -1.25621 -1.57294)
(9.38348 -0.19723 -1.9133)
(9.39816 1.00708 -1.66831)
(9.43842 1.20428 -1.1849)
(9.46782 0.491562 -0.952197)
(4.07031 -0.0939949 1.95947)
(4.07018 -0.244923 1.9361)
(4.07138 -0.220651 1.92834)
(4.07678 -0.0177134 1.92126)
(4.09207 0.206735 1.91301)
(4.10789 0.276402 1.88459)
(4.11654 0.121838 1.86551)
(-0.0408849 0.0172531 2.79376)
(-0.0359978 0.0698841 2.82743)
(-0.0258876 0.109266 2.8697)
(-0.0138659 0.0930303 2.87474)
(-0.00349088 0.0705625 2.81635)
(0.00214358 0.0620259 2.72075)
(0.00479588 0.0277543 2.65803)
(-4.14965 -0.065331 2.27362)
(-4.13896 -0.146327 2.25777)
(-4.12135 -0.0692865 2.22675)
(-4.10643 0.14446 2.16047)
(-4.10247 0.336208 2.06447)
(-4.10756 0.338543 1.98219)
(-4.11188 0.135376 1.93711)
(-9.49357 -0.438209 -0.140847)
(-9.47242 -1.13916 -0.43308)
(-9.43382 -1.0448 -0.967497)
(-9.4098 0.0947516 -1.40389)
(-9.42236 1.21404 -1.324)
(-9.44762 1.28334 -0.977944)
(-9.46533 0.509763 -0.781646)
(-28.7878 -1.15765 -3.60205)
(-28.8492 -3.18051 -4.55877)
(-28.9422 -3.35885 -7.13232)
(-29.1179 -0.0647471 -9.08623)
(-28.9673 3.39016 -7.81903)
(-28.8408 3.3709 -5.47997)
(-28.8334 1.27744 -4.59999)
(28.931 -2.96248 -11.7659)
(29.1297 -8.56923 -14.5648)
(30.3415 -9.59105 -24.407)
(31.7013 -0.956944 -32.5868)
(30.584 8.55013 -25.6653)
(29.2265 8.40428 -15.6484)
(28.972 2.90822 -12.6797)
(9.46496 -0.972093 -1.62309)
(9.41318 -2.54676 -2.39043)
(9.36858 -2.63202 -4.05169)
(9.39318 -0.341935 -5.21789)
(9.37718 2.17406 -4.25844)
(9.42732 2.3235 -2.74232)
(9.49277 0.881975 -2.07385)
(4.03431 -0.130475 5.96633)
(4.02371 -0.294336 5.93281)
(4.00936 -0.247129 5.92651)
(4.00231 -0.0390086 5.91002)
(4.01491 0.159145 5.90595)
(4.03178 0.210583 5.85682)
(4.04163 0.0953928 5.82632)
(-0.020088 0.0671636 8.33089)
(-0.0200946 0.183455 8.40646)
(-0.0206261 0.180303 8.50882)
(-0.0181791 0.0125713 8.52524)
(-0.0111937 -0.160767 8.41756)
(-0.00623844 -0.17588 8.22391)
(-0.0044819 -0.0664511 8.08691)
(-4.07977 -0.0927421 6.69975)
(-4.06572 -0.223269 6.65834)
(-4.05542 -0.220478 6.63576)
(-4.04903 -0.0984992 6.53599)
(-4.04509 0.0740634 6.3329)
(-4.05446 0.153081 6.12486)
(-4.06496 0.070702 6.02504)
(-9.5107 -0.902791 -0.148226)
(-9.48525 -2.42608 -0.875379)
(-9.43632 -2.56256 -2.40934)
(-9.44109 -0.445741 -3.70084)
(-9.43202 1.92008 -3.18414)
(-9.45784 2.12769 -2.06964)
(-9.49371 0.831323 -1.55463)
(-28.8549 -2.86221 -9.64059)
(-29.1398 -8.46856 -12.3297)
(-30.3001 -9.46529 -21.8249)
(-31.587 -1.14896 -30.7987)
(-30.4696 8.0801 -23.8756)
(-29.1454 8.09746 -14.5124)
(-28.8713 2.85068 -11.8713)
(29.3447 -5.81814 -13.14)
(30.5448 -16.8838 -19.7181)
(34.4642 -14.9156 -56.6811)
(37.0286 -0.684689 -85.7289)
(35.0992 12.9152 -62.8953)
(30.8041 16.0815 -22.6856)
(29.4393 5.7842 -14.811)
(9.36169 -1.61648 -0.225211)
(9.29264 -4.46061 -1.55272)
(9.3589 -4.50792 -5.73308)
(9.50547 -0.37009 -9.50089)
(9.38986 3.73963 -6.30071)
(9.30129 3.96207 -2.21552)
(9.36847 1.48562 -0.83354)
(4.00332 -0.123695 10.4071)
(3.98989 -0.278355 10.3882)
(3.98727 -0.23972 10.4097)
(3.98037 -0.0410265 10.3527)
(3.98368 0.111418 10.4224)
(3.97644 0.139174 10.3927)
(3.98816 0.0704987 10.4014)
(-0.01385 0.130777 13.6865)
(-0.0133445 0.3311 13.755)
(-0.016136 0.283851 13.8466)
(-0.0192983 -0.0474309 13.8932)
(-0.0193442 -0.38512 13.8245)
(-0.015268 -0.42664 13.7113)
(-0.0153063 -0.172165 13.625)
(-4.0374 -0.0849432 11.1208)
(-4.0246 -0.196435 11.0956)
(-4.03026 -0.241393 11.1117)
(-4.03277 -0.298529 11.0034)
(-4.02899 -0.280223 10.8982)
(-4.02213 -0.146413 10.71)
(-4.03008 -0.0339924 10.6311)
(-9.39912 -1.45389 1.3024)
(-9.37486 -4.07371 0.104453)
(-9.42974 -4.18056 -3.73739)
(-9.53989 -0.94265 -7.45903)
(-9.43047 2.60757 -4.87623)
(-9.34709 3.19703 -1.28076)
(-9.37667 1.24563 -0.182863)
(-29.372 -5.44632 -10.8014)
(-30.4609 -16.0998 -17.1577)
(-34.3416 -13.8743 -53.7264)
(-36.5268 -1.97088 -83.7698)
(-34.6169 10.1699 -60.4571)
(-30.6564 14.6316 -20.9101)
(-29.198 5.37674 -13.8828)
(30.5612 -7.19564 -10.349)
(33.2808 -18.9962 -29.6888)
(38.1888 -8.56751 -112.802)
(39.9604 -0.268581 -143.362)
(38.542 7.52738 -112.346)
(33.5669 17.6085 -37.0935)
(30.5763 7.61112 -13.4261)
(9.39004 -1.67747 2.81011)
(9.38446 -5.08426 0.0392096)
(9.66458 -4.69238 -10.0415)
(9.90613 -0.141624 -17.1628)
(9.67315 3.56301 -10.2904)
(9.38211 4.26005 -1.4283)
(9.37103 1.57372 1.95934)
(3.97074 -0.0232079 15.0227)
(3.96453 -0.0812619 14.9587)
(3.97848 -0.086529 14.7765)
(3.97803 0.025463 14.5068)
(3.97488 0.045002 14.8235)
(3.94307 -0.028967 15.0246)
(3.94263 -0.0287922 15.0838)
(-0.0172927 0.174165 18.8151)
(-0.0205082 0.418337 18.8585)
(-0.020419 0.37148 18.9714)
(-0.0195162 -0.0189464 19.1052)
(-0.0195402 -0.395789 19.0619)
(-0.021461 -0.456871 19.029)
(-0.0235075 -0.20718 18.9924)
(-4.00757 0.00475854 15.3605)
(-4.00446 -0.0297841 15.2873)
(-4.02167 -0.155236 15.1284)
(-4.02484 -0.351513 14.9024)
(-4.01452 -0.500157 14.9826)
(-3.99582 -0.430087 15.1202)
(-3.99918 -0.162898 15.1904)
(-9.42837 -1.49013 3.85916)
(-9.46458 -4.5676 1.26388)
(-9.68671 -4.2906 -7.56593)
(-9.88154 -1.06858 -13.3571)
(-9.69904 1.9842 -8.98676)
(-9.41895 3.11653 -0.803346)
(-9.38509 1.15699 2.30178)
(-30.524 -6.74013 -8.42929)
(-33.1472 -17.7431 -27.1085)
(-37.848 -8.00029 -101.009)
(-39.245 -1.60372 -125.078)
(-37.6869 3.86256 -106.575)
(-33.4627 15.3489 -35.7992)
(-30.3613 6.6338 -12.6358)
(32.2965 -6.33917 -8.42127)
(36.5207 -16.9011 -44.4663)
(39.7592 -0.498926 -127.664)
(40.3146 -1.25105 -155.592)
(39.5287 6.51885 -119.737)
(37.0402 17.5537 -59.4243)
(32.5335 7.33735 -12.8688)
(9.54594 -1.63254 5.07736)
(9.65581 -5.89274 0.32697)
(10.0044 -5.92246 -11.2337)
(10.4159 0.367302 -27.5986)
(9.95136 5.24063 -11.73)
(9.65225 5.20172 -2.12884)
(9.48274 1.54449 3.83491)
(3.95011 0.0590268 19.0685)
(3.95481 -0.0803431 18.9439)
(3.96646 -0.205256 18.7303)
(3.96557 0.137975 18.3628)
(3.94949 0.340536 18.7532)
(3.93163 0.0764555 19.0136)
(3.90848 -0.0708649 19.1071)
(-0.0148738 0.211483 23.1829)
(-0.01292 0.538402 23.3502)
(-0.0108006 0.572597 23.6307)
(-0.015771 0.102491 23.9446)
(-0.0200321 -0.405621 23.829)
(-0.0224527 -0.474455 23.7036)
(-0.0244502 -0.22015 23.6942)
(-3.98623 0.0565438 18.8608)
(-3.98676 -0.114076 18.7132)
(-3.99505 -0.362594 18.4955)
(-4.00084 -0.321124 18.3035)
(-3.99047 -0.25929 18.5026)
(-3.98431 -0.318113 18.7998)
(-3.97174 -0.200193 18.9601)
(-9.5652 -1.55356 5.60076)
(-9.71355 -5.55299 1.23267)
(-9.98077 -5.95703 -9.16178)
(-10.3389 -0.849029 -21.7417)
(-9.96884 3.60425 -10.5886)
(-9.7022 4.05176 -1.88641)
(-9.53447 1.1959 3.85787)
(-32.3763 -5.90375 -6.88853)
(-36.3708 -15.4205 -40.147)
(-39.1321 -1.10992 -110.146)
(-39.6447 0.773493 -130.798)
(-38.7442 2.91235 -112.802)
(-37.1134 15.3635 -58.3867)
(-32.5248 6.61943 -12.255)
(33.9113 -6.77449 -7.58756)
(37.4936 -23.8759 -57.5576)
(39.5181 7.75236 -130.578)
(39.5054 -2.55938 -159.154)
(39.6499 13.9048 -121.681)
(38.3079 21.6855 -67.6154)
(34.354 9.07667 -11.5523)
(9.77605 -1.99924 6.84058)
(9.96137 -7.71078 1.00856)
(10.3828 -6.10793 -30.599)
(11.0001 1.72012 -73.0517)
(10.311 7.42943 -30.9061)
(9.93592 7.63122 -1.60533)
(9.69105 2.12393 5.41778)
(3.97236 0.17625 22.6966)
(3.96765 0.275802 23.3213)
(3.98079 0.423196 22.6795)
(3.99925 0.239887 21.9826)
(3.96055 -0.0567407 22.6394)
(3.9378 -0.192239 23.2997)
(3.92544 -0.252466 22.9743)
(-0.000886243 0.369534 27.7286)
(0.000154369 1.00746 28.0682)
(-0.000497716 1.13065 28.8798)
(-0.00912322 0.265824 29.3264)
(-0.0182314 -0.640379 29.1246)
(-0.0241639 -0.688655 28.4651)
(-0.0266793 -0.259085 28.0997)
(-3.97071 0.153365 22.2416)
(-3.97953 0.0120035 22.7825)
(-3.98448 0.0882104 22.0199)
(-4.01575 0.0479461 21.8904)
(-3.9874 -0.295445 22.3681)
(-4.00073 -0.31448 23.0252)
(-3.98296 -0.235694 22.8321)
(-9.75334 -1.96082 6.49844)
(-9.95931 -7.8788 1.19047)
(-10.3435 -6.29313 -28.6491)
(-10.902 0.515793 -63.8279)
(-10.2874 6.66211 -28.6382)
(-9.96872 6.80847 -1.83022)
(-9.75313 1.90427 5.42876)
(-33.5955 -5.17628 -6.47807)
(-37.3077 -19.1906 -47.5969)
(-39.5394 8.81575 -111.425)
(-39.4813 7.70933 -131.432)
(-39.0493 9.64115 -114.291)
(-38.0618 20.5245 -67.5246)
(-34.2783 7.8401 -11.6982)
(34.5236 -11.4986 -4.97606)
(37.3671 -28.6681 -61.685)
(38.9743 10.4095 -135.834)
(38.9005 -4.06394 -161.026)
(39.4343 20.1396 -117.266)
(38.3981 23.3714 -66.3558)
(35.3018 14.0315 -7.36291)
(9.78004 -2.88917 6.10572)
(10.0386 -12.1556 -10.1322)
(10.842 1.33806 -62.2863)
(11.1817 1.57215 -89.0963)
(10.9833 2.0762 -60.6551)
(10.1469 12.8033 -11.6919)
(9.73401 3.71724 4.55959)
(3.95385 0.604266 23.4592)
(3.98467 0.741241 22.6585)
(4.0351 1.06749 20.9836)
(4.04477 0.262664 21.3091)
(4.02517 -0.396604 21.3395)
(3.95967 -0.254249 22.7999)
(3.9224 -0.432515 23.3013)
(0.00732838 0.652664 30.5085)
(0.00624336 2.15042 30.3551)
(-0.00330123 2.6589 31.2183)
(-0.00624088 0.588144 32.4237)
(-0.0131105 -1.79462 31.8893)
(-0.0177221 -1.65793 31.3143)
(-0.0234727 -0.52566 31.3962)
(-3.9363 0.663679 21.8989)
(-3.99221 0.650784 21.4419)
(-4.03418 0.899759 19.8186)
(-4.04565 0.337844 21.2994)
(-4.02359 -0.421769 21.7026)
(-3.99819 -0.35494 23.07)
(-3.95883 -0.390571 23.9371)
(-9.7455 -2.12048 4.05321)
(-10.1005 -11.9258 -11.0005)
(-10.7224 6.5483 -63.752)
(-11.0633 1.14835 -79.2648)
(-10.8089 3.4383 -57.4791)
(-10.1414 12.2813 -11.3021)
(-9.77041 3.57313 5.49776)
(-34.2838 -8.10074 -5.99683)
(-37.0458 -26.2152 -50.6452)
(-39.1557 23.402 -124.631)
(-38.7968 15.944 -127.699)
(-38.7743 19.4643 -107.956)
(-38.1559 28.6303 -64.5769)
(-35.1067 13.0484 -7.15874)
(32.8531 -13.8462 9.29637)
(37.4066 -20.4449 -54.358)
(39.1885 11.8001 -131.393)
(39.6732 -16.3449 -152.605)
(39.3113 12.7093 -91.4225)
(38.3104 13.1078 -43.7687)
(34.0931 15.7082 16.2697)
(9.35939 -5.08904 11.9987)
(9.84923 -9.316 -13.5532)
(10.892 8.70264 -63.7029)
(11.3954 3.74841 -95.0304)
(11.0402 -0.474265 -69.1287)
(9.93133 11.8932 -13.272)
(9.27801 7.08089 12.7653)
(3.90423 0.0370121 19.4599)
(3.92138 -0.124562 17.1793)
(3.95634 -0.567906 13.3191)
(4.03678 0.107615 10.9502)
(3.97991 1.04615 14.3944)
(3.92558 0.946338 17.3602)
(3.90913 0.499675 19.504)
(0.0135843 0.59934 23.0097)
(0.00523286 2.20136 22.8927)
(-0.0057039 3.12657 23.0497)
(-0.0105301 1.08131 23.1434)
(-0.0058452 -1.56728 23.3475)
(-0.0181444 -1.21021 23.8179)
(-0.0201068 -0.207547 24.1862)
(-3.86956 0.506957 16.4574)
(-3.88807 0.624076 15.4654)
(-3.96155 1.24082 12.0345)
(-4.04409 1.65791 13.2386)
(-4.01894 1.27199 16.2734)
(-3.9743 1.30595 18.9542)
(-3.98059 0.636715 21.1415)
(-9.26796 -3.31096 5.08322)
(-9.73076 -7.1305 -16.7311)
(-10.7197 28.3965 -62.6119)
(-11.094 12.6986 -74.3777)
(-10.9905 4.72318 -62.5976)
(-10.1075 13.8291 -12.8388)
(-9.40481 7.83318 15.1563)
(-32.1222 -9.52012 -0.988258)
(-37.3496 -6.51016 -69.6395)
(-38.8241 32.0727 -133.104)
(-39.2349 10.0618 -107.649)
(-39.3126 6.458 -79.9887)
(-38.2553 15.1855 -37.3801)
(-34.3107 17.0413 22.0811)
(32.4478 -9.89039 10.6326)
(37.2431 -23.0677 -61.347)
(38.5863 5.38993 -137.595)
(38.937 -16.9438 -161.656)
(39.0776 11.5392 -71.6839)
(36.5077 6.41184 -30.6546)
(32.9178 9.8473 18.5093)
(9.27909 -3.81481 14.4493)
(10.0579 -8.19186 -13.2994)
(10.8079 8.56341 -44.2683)
(11.3199 7.00662 -98.2779)
(11.0851 0.194601 -65.1412)
(10.18 11.4449 -12.624)
(9.21386 5.77932 15.3174)
(3.83643 -0.260586 19.8426)
(3.84268 -1.22347 16.3143)
(3.87394 -1.64212 11.6964)
(3.9688 -0.394797 10.1568)
(3.89267 1.78861 12.9497)
(3.85009 2.17144 16.8602)
(3.8606 0.841941 20.0903)
(0.0213505 0.506479 21.7619)
(0.00815592 1.59631 21.2268)
(-0.00767816 2.77632 20.8603)
(-0.0152793 1.14922 20.8689)
(-0.0141516 -0.952977 21.4121)
(-0.0168621 -0.0916464 22.651)
(-0.0181406 0.172116 23.5382)
(-3.76512 0.939035 15.3725)
(-3.81656 1.77655 13.8925)
(-3.87646 2.14544 11.442)
(-3.99048 2.53775 12.4905)
(-3.94814 2.7011 15.2689)
(-3.89778 2.55619 19.1005)
(-3.94266 1.0011 22.1786)
(-9.14141 -0.44342 3.25867)
(-9.94062 -3.03426 -24.0083)
(-10.6994 27.6519 -50.8727)
(-11.0046 18.9506 -65.8147)
(-11.0818 9.76483 -50.5111)
(-10.2919 11.6522 -10.0096)
(-9.32972 6.2156 18.8544)
(-31.9921 -4.94314 -12.3112)
(-37.8786 3.06693 -106.7)
(-38.6363 10.7063 -143.8)
(-38.8384 -4.94478 -108.67)
(-39.0715 -0.0907068 -55.0223)
(-37.1072 6.68031 -19.1385)
(-33.1292 9.62866 24.4178)
(32.8009 -10.5483 14.6985)
(37.3824 -24.6614 -65.3662)
(39.0173 3.2079 -132.98)
(39.2262 -20.364 -162.536)
(38.807 12.3124 -63.6715)
(36.0695 10.6322 -12.7951)
(32.083 6.685 20.6585)
(9.36494 -4.55619 19.4985)
(10.3173 -15.8756 -10.0776)
(10.9589 12.698 -45.1592)
(11.3201 2.60943 -117.491)
(11.1128 1.06935 -64.0587)
(10.3389 13.1934 -9.10308)
(9.32664 5.71279 19.3912)
(3.83645 -1.38799 22.9764)
(3.83239 -4.06689 18.3763)
(3.86322 -6.86151 10.2474)
(3.98165 0.765623 5.21162)
(3.92465 7.12748 12.7643)
(3.85094 4.52527 19.8078)
(3.8657 1.95063 23.3944)
(0.0339924 0.126724 23.6413)
(0.0145387 1.5517 22.5514)
(-0.0174994 2.26748 22.8822)
(-0.0267244 1.37411 23.762)
(-0.0205355 0.401795 23.7755)
(-0.0138449 0.817497 24.4528)
(-0.0149874 0.85804 26.2337)
(-3.69606 0.925172 16.3466)
(-3.76906 2.27509 15.3671)
(-3.85888 1.21876 11.2191)
(-3.99321 6.01853 9.71868)
(-3.94225 8.41691 15.6319)
(-3.88578 4.83726 22.2147)
(-3.94343 2.11386 25.8827)
(-9.05766 0.00253022 -0.742241)
(-10.2235 -4.15214 -33.3491)
(-10.938 30.8275 -63.0488)
(-11.0683 20.6667 -67.5305)
(-11.067 11.2093 -41.5182)
(-10.4432 11.541 -2.94)
(-9.354 5.91312 23.9198)
(-32.5232 -3.143 -26.3169)
(-38.3228 4.21819 -117.666)
(-38.6051 -15.7995 -124.376)
(-38.5187 -22.2175 -87.3548)
(-38.7748 0.304328 -27.4862)
(-35.9335 5.469 0.874686)
(-32.1925 5.33033 27.6176)
(32.5553 -10.4556 21.3066)
(37.448 -21.8874 -51.6892)
(39.2009 18.3144 -123.464)
(39.3769 -20.0975 -167.358)
(38.3611 5.60473 -61.9592)
(36.0834 14.5524 -0.643636)
(31.8404 4.9327 21.7743)
(9.58171 -5.42937 22.1547)
(10.6724 -21.9932 0.284378)
(11.1141 29.9223 -67.2792)
(11.2517 -16.5336 -133.518)
(11.1575 -6.77478 -57.4526)
(10.571 12.7668 5.25245)
(9.67799 4.03027 21.8109)
(3.90659 -1.75823 27.4649)
(3.9401 -11.0255 20.4931)
(4.00753 -9.16385 -19.3665)
(4.10681 4.20865 -34.5977)
(4.09564 11.4603 -17.0356)
(3.93845 11.0697 22.3661)
(3.89889 1.66995 28.3653)
(0.0665081 0.589415 26.5864)
(0.0375607 1.22901 27.1038)
(-0.0181732 1.49781 26.2164)
(-0.0359199 2.42492 25.5009)
(-0.0215382 3.35145 27.4623)
(-0.010296 2.39225 30.1844)
(-0.0151213 1.27116 29.5465)
(-3.67209 1.84298 17.8478)
(-3.77433 1.72895 17.494)
(-3.98493 7.2301 -1.93832)
(-4.13576 14.4203 -20.0146)
(-4.10724 15.6224 -9.53783)
(-3.95671 12.4905 23.6874)
(-3.95604 2.02353 30.5256)
(-9.14163 -1.51854 -4.79341)
(-10.5196 -0.754966 -43.5413)
(-11.1395 22.2737 -81.4621)
(-11.232 2.8307 -69.576)
(-11.1486 2.38541 -27.2145)
(-10.5298 10.112 14.6703)
(-9.63985 3.62225 26.4798)
(-34.333 -4.00995 -42.0651)
(-38.7051 -14.2768 -118.897)
(-38.669 -30.7401 -115.754)
(-38.2392 -29.5851 -83.7074)
(-38.4484 2.40436 -16.852)
(-35.5688 5.67135 9.67479)
(-31.9423 3.58734 28.595)
(31.7637 -2.35566 27.3016)
(36.0029 -17.824 -21.7912)
(38.8193 48.5652 -119.517)
(39.0227 -11.289 -174.994)
(37.2463 -19.1952 -67.9157)
(35.7872 16.3201 6.42559)
(31.7604 2.14533 24.4577)
(9.83635 -5.4757 26.7685)
(10.9062 -24.5735 -2.31608)
(11.1348 39.7702 -97.8134)
(11.0712 -36.7594 -135.527)
(10.9623 -18.4023 -46.6049)
(10.7809 12.3449 6.98761)
(9.84878 3.59814 26.6362)
(3.95928 -4.77248 30.5377)
(4.069 -12.4944 5.74369)
(4.09558 1.29745 -43.8788)
(4.1722 4.85835 -55.3562)
(4.16597 5.3951 -41.6668)
(4.07156 11.7429 3.81413)
(3.93787 4.6631 29.1187)
(0.110173 1.54919 33.1182)
(0.0794291 1.77621 31.9588)
(0.0169243 2.761 27.4351)
(-0.0366667 3.85482 28.4155)
(-0.013793 4.29615 28.5239)
(-0.00895023 3.93955 33.355)
(-0.0210402 0.67158 35.0442)
(-3.65127 2.02334 21.2981)
(-3.84759 2.40755 12.077)
(-4.05759 22.2279 -19.1291)
(-4.22389 18.2362 -36.7955)
(-4.21687 7.95277 -32.9402)
(-4.08729 12.0927 6.40157)
(-4.00915 3.8666 30.9261)
(-9.54668 -4.05099 -6.41652)
(-10.7988 -2.9199 -63.1359)
(-11.1683 -23.6519 -84.1164)
(-11.123 -34.0223 -63.9057)
(-11.1085 -4.71773 -17.6907)
(-10.741 5.31896 14.6834)
(-9.81687 3.01479 30.7008)
(-35.877 -11.6553 -44.7672)
(-38.6155 -34.8089 -104.011)
(-38.7504 -43.3012 -113.134)
(-37.3802 -56.6778 -94.1437)
(-37.1381 -7.4489 -13.54)
(-35.6757 0.597329 18.2758)
(-31.8345 1.38049 29.6493)
(31.6586 2.15306 26.5229)
(34.7827 -21.1576 -18.4737)
(37.913 63.7952 -112.734)
(38.7037 10.981 -166.01)
(37.0853 -57.0089 -99.9447)
(34.7376 26.5022 -8.13891)
(31.7127 -0.733223 27.0499)
(9.88053 -2.31834 26.4015)
(10.8796 -22.7557 -5.6609)
(11.172 38.4218 -107.674)
(10.9136 -44.6912 -130.276)
(10.7807 -30.8458 -45.234)
(10.7878 11.6883 3.73312)
(9.9079 1.04883 27.6713)
(4.00028 -5.22571 30.7729)
(4.14946 -10.1248 -8.25142)
(4.14454 13.5623 -45.2863)
(4.14121 -0.868314 -61.443)
(4.15456 -11.8334 -34.782)
(4.16585 5.42487 -2.68944)
(4.03861 4.03205 29.7087)
(0.13877 1.06071 38.0964)
(0.102887 -1.38105 33.6322)
(0.0249874 1.64793 27.2998)
(-0.0389745 3.52043 28.2985)
(-0.0332201 3.9954 26.1767)
(-0.0303684 3.64621 30.0916)
(-0.0276064 1.13673 34.0725)
(-3.5889 -3.62911 29.2912)
(-3.88934 0.672412 1.28102)
(-4.11002 24.6601 -19.7221)
(-4.24405 4.89574 -37.5154)
(-4.24248 -15.2347 -24.581)
(-4.19512 1.27522 5.1038)
(-4.08564 2.02071 29.3547)
(-9.98197 -12.2007 -8.96461)
(-10.8083 -50.9807 -62.7456)
(-10.9767 -76.6801 -59.4791)
(-11.0044 -55.9466 -51.3826)
(-10.9286 -20.6654 -18.4524)
(-10.7889 2.72494 8.70306)
(-9.94632 -0.277207 33.5601)
(-36.1098 -12.8061 -14.5609)
(-38.9237 -37.1177 -81.7877)
(-39.0072 -59.6459 -108.161)
(-37.3691 -78.3481 -100.456)
(-36.9264 -77.1043 -72.8976)
(-35.66 4.29098 -6.71716)
(-31.9393 -1.96452 35.6974)
(35.2438 51.6743 5.48185)
(36.1908 45.3533 -22.4157)
(37.0146 109.824 -80.6599)
(37.9684 16.9461 -114.555)
(36.8393 -98.8893 -70.3415)
(35.1097 -30.2387 -13.0936)
(34.5944 -40.8483 13.2966)
(10.2194 2.73384 34.9482)
(10.5614 -9.18005 -10.5425)
(10.6917 86.7688 -79.8002)
(10.2981 -41.2734 -98.9126)
(10.508 -66.9708 -50.1208)
(10.6641 8.56086 0.775911)
(10.0923 -4.56423 37.7999)
(3.96845 -4.88446 34.9925)
(4.13204 -14.1871 -9.41698)
(3.9499 16.8211 -44.2317)
(3.77632 -14.467 -59.4497)
(4.02149 -15.8388 -24.6982)
(4.16452 10.6823 -0.417655)
(4.06165 1.2724 36.2344)
(0.00884968 -1.84982 50.2661)
(0.0425464 -6.9129 25.93)
(-0.0458004 -2.50688 18.7289)
(-0.116103 1.39725 18.7248)
(-0.0504463 0.350209 13.4795)
(-0.00469734 5.05182 14.7075)
(0.0238045 2.55021 40.2409)
(-3.69262 0.834236 47.2168)
(-3.98117 -10.5239 3.0058)
(-4.14865 -0.312339 -20.2428)