/*--------------------------------*- C++ -*----------------------------------*\
  =========                 |
  \\      /  F ield         | OpenFOAM: The Open Source CFD Toolbox
   \\    /   O peration     | Website:  https://openfoam.org
    \\  /    A nd           | Version:  6
     \\/     M anipulation  |
\*---------------------------------------------------------------------------*/
FoamFile
{
    version     2.0;
    format      ascii;
    class       volScalarField;
    location    "1.5";
    object      O2;
}
// * * * * * * * * * * * * * * * * * * * * * * * * * * * * * * * * * * * * * //

dimensions      [0 0 0 0 0 0 0];

internalField   nonuniform List<scalar> 
297
(
0
0
0
0
0
0
0
0
0
0
0
0
0
0
0
0
0
0
0
0
0
0
0
0
0
0
0
0.0855063
0.152327
0.0860789
0.18844
0.209295
0.184051
0.0847028
0.152098
0.0866414
0
0.0287456
0
0.0363617
0.148192
0.0352302
0
0.0286182
0
0
0.0303094
0
0.0237045
0.0367017
0.0235312
0
0.030213
0
0.00476774
0.0130546
0.00464181
0
0.0017767
0
0.00486132
0.012992
0.00472824
1.4833e-07
1.79806e-07
2.96962e-07
2.90952e-07
1.1798e-07
8.63691e-07
1.5057e-07
1.79443e-07
2.98631e-07
1.71687e-12
4.55771e-12
4.77279e-12
3.96271e-12
2.84663e-12
1.09024e-11
1.74565e-12
4.55931e-12
4.78996e-12
0
0.0302166
0
0
0.00177705
0
0
0.03012
0
0
0.0299804
0
0
0.00177672
0
0
0.0298841
0
0
0.0291123
0
0
0.0017767
0
0
0.0290182
0
3.23027e-17
2.34416e-16
1.19492e-16
6.50291e-17
6.28484e-17
1.79823e-16
4.52562e-17
2.16128e-16
1.26419e-16
3.71306e-21
6.27544e-20
1.88529e-20
4.17601e-21
1.25594e-20
8.18472e-21
3.77949e-21
5.59165e-20
1.972e-20
4.53009e-24
3.08654e-20
6.0254e-21
7.92423e-25
9.73724e-22
7.32154e-23
4.17645e-24
2.54514e-20
4.9201e-21
1.79715e-21
4.59203e-26
5.62646e-31
1.98659e-21
2.37213e-26
3.04121e-31
1.90891e-21
4.89736e-26
6.02571e-31
2.85565e-25
1.4811e-29
7.05526e-34
1.81686e-25
8.89991e-28
3.05837e-32
2.97143e-25
1.70123e-29
7.61245e-34
5.40651e-25
3.14657e-29
1.00863e-33
1.7024e-27
4.01207e-29
2.67456e-33
4.42019e-25
2.62499e-29
8.75035e-34
7.98407e-32
6.55755e-27
4.87173e-22
9.74475e-32
7.87951e-27
7.21199e-22
2.28289e-31
9.29796e-27
6.84256e-22
1.29609e-34
2.08531e-30
5.78237e-26
1.35593e-32
5.88677e-28
4.38854e-26
2.04617e-34
4.24724e-30
1.10885e-25
2.36737e-34
1.76484e-30
4.04018e-28
2.67054e-33
2.58159e-29
4.60496e-29
2.5694e-34
2.56699e-30
3.87915e-28
4.24114e-45
1.58828e-40
2.81822e-36
2.94074e-44
2.04137e-40
2.1295e-36
3.80222e-44
4.71221e-40
8.09368e-36
1.97191e-47
2.73515e-43
5.75275e-39
3.87021e-46
5.95361e-42
2.23778e-37
9.39116e-47
3.31507e-43
9.48355e-39
2.67117e-47
1.14783e-43
4.60531e-39
1.28494e-46
1.43568e-42
5.65224e-38
8.51261e-47
1.13749e-43
5.02769e-39
4.44396e-47
2.95871e-46
1.63727e-44
6.50169e-47
2.35998e-44
4.63836e-43
8.41327e-47
7.90859e-46
2.92627e-44
1.14205e-50
1.78281e-49
1.87447e-48
1.44529e-45
2.33718e-44
2.56683e-43
1.10633e-50
2.61615e-49
1.83349e-48
2.31873e-51
3.64529e-50
3.54148e-49
6.87137e-46
1.06026e-44
1.05763e-43
3.89967e-51
6.18609e-50
5.91961e-49
1.0669e-35
6.17284e-40
4.95461e-44
6.51163e-36
2.58182e-40
4.8659e-44
2.13527e-35
6.86458e-40
5.58374e-44
2.83352e-38
1.38037e-42
2.36231e-46
4.98918e-37
1.31765e-41
1.16529e-45
3.43211e-38
1.03864e-42
5.75055e-46
2.19788e-38
6.47794e-43
2.35121e-46
5.88471e-38
1.64852e-42
5.18274e-46
1.74114e-38
3.98426e-43
5.42833e-46
8.16526e-44
1.53157e-45
2.4027e-46
7.08953e-43
4.33737e-44
4.39205e-46
1.10247e-43
4.68126e-45
5.34342e-46
2.40592e-48
3.55576e-49
1.78166e-50
4.36765e-43
4.47433e-44
3.12512e-45
3.38036e-48
3.50833e-49
2.51627e-50
6.40463e-49
7.29404e-50
5.15778e-51
1.87804e-43
2.10142e-44
1.51286e-45
1.08186e-48
1.24572e-49
8.72311e-51
)
;

boundaryField
{
    fuel
    {
        type            fixedValue;
        value           uniform 0;
    }
    primary_air
    {
        type            fixedValue;
        value           uniform 0.23;
    }
    Secondary_air_RHS
    {
        type            fixedValue;
        value           uniform 0.23;
    }
    Secondary_air_LHS
    {
        type            fixedValue;
        value           uniform 0.23;
    }
    outlet
    {
        type            inletOutlet;
        inletValue      uniform 0;
        value           nonuniform List<scalar> 
18
(
0
1.87804e-43
0
0
2.10142e-44
0
0
1.51286e-45
0
0
6.87137e-46
0
0
1.06026e-44
0
0
1.05763e-43
0
)
;
    }
    stove_body
    {
        type            fixedValue;
        value           uniform 0;
    }
    frontAndBack
    {
        type            empty;
    }
}


// ************************************************************************* //
