/*--------------------------------*- C++ -*----------------------------------*\
  =========                 |
  \\      /  F ield         | OpenFOAM: The Open Source CFD Toolbox
   \\    /   O peration     | Website:  https://openfoam.org
    \\  /    A nd           | Version:  6
     \\/     M anipulation  |
\*---------------------------------------------------------------------------*/
FoamFile
{
    version     2.0;
    format      ascii;
    class       volScalarField;
    location    "1.5";
    object      p;
}
// * * * * * * * * * * * * * * * * * * * * * * * * * * * * * * * * * * * * * //

dimensions      [1 -1 -2 0 0 0 0];

internalField   nonuniform List<scalar> 
297
(
121019
121020
121019
201650
201651
201650
121019
121020
121019
121019
121020
121019
201650
201651
201650
121020
121020
121019
121020
121020
121020
201650
201651
201650
121020
121020
121020
97214.5
97155.4
97232.6
161622
161579
161631
97216.1
97156.5
97234.3
97308
96609.3
97342.8
160887
161039
160959
97320.5
96610
97336.9
94079.2
93892.1
94247.7
151944
157025
152254
94081.9
93892
94248.6
91603
94395.6
91324.9
156226
155691
156222
91594.2
94394.1
91330.7
96302.1
96510.6
96190.8
160628
159886
160590
96302.3
96510.5
96192.4
96363.5
96730.9
96334.3
160499
161073
160571
96363.2
96729.9
96334.9
74160.4
91616.6
74511.1
122051
152740
121488
74082.3
91615
74518.5
74065
91502.2
74273.3
120402
152776
119525
73981.6
91500.7
74280
76332.8
91811.7
76446.3
122731
153837
121640
76257.5
91809.8
76450.6
96936.3
97064.4
96932.1
161346
161639
161325
96935.3
97063.5
96932
97041.8
97065.1
97031.1
161581
161716
161553
97040.8
97064.6
97030.9
97048.5
97061.6
97041.1
161695
161733
161663
97047.7
97061.1
97040.8
97159
97344.1
97756.4
161506
161634
161878
97158.3
97342.9
97753.7
97075.1
97137
97397.9
161523
161553
161666
97074.6
97136.5
97396.5
96996
96890
96781
161609
161549
161521
96995.9
96890.2
96781.5
97756.1
97344.8
97161
161887
161648
161525
97754
97343.7
97159.8
97398.2
97137.1
97076.4
161676
161568
161544
97397.1
97136.3
97075.4
96783.5
96891.3
96998.1
161533
161564
161631
96783.3
96890.9
96997.3
98629.6
98470.9
98180.6
162650
162506
162236
98620.5
98463.8
98176.2
98401.6
98203.2
97876
162356
162232
161971
98394.4
98198
97873.3
98125.7
97910.3
97511.3
161984
161847
161651
98120.2
97906.7
97509.8
96663.6
96588.2
96445.5
160236
160162
160061
96664.7
96589.6
96447
91051
91078
91125.6
151015
151017
151017
91053.6
91080.1
91127.6
83566.1
83566.4
83568.7
134757
134758
134749
83567.7
83567.9
83570.1
98182.2
98473.5
98632.9
162231
162503
162648
98176.9
98465.5
98622.9
97876.9
98204.7
98403.8
161965
162228
162352
97873.4
98198.8
98395.9
97510.8
97910.4
98126.3
161644
161841
161979
97508.8
97906.2
98120.3
96439.2
96582.3
96657.7
160050
160151
160225
96441.1
96583.8
96659
91113.1
91065.4
91038.5
150997
150997
150995
91115.6
91068
91041.5
83553.6
83551.3
83551
134726
134734
134733
83555.4
83553.1
83552.8
)
;

boundaryField
{
    fuel
    {
        type            zeroGradient;
    }
    primary_air
    {
        type            zeroGradient;
    }
    Secondary_air_RHS
    {
        type            zeroGradient;
    }
    Secondary_air_LHS
    {
        type            zeroGradient;
    }
    outlet
    {
        type            totalPressure;
        rho             rho;
        psi             none;
        gamma           1;
        p0              uniform 100000;
        value           nonuniform List<scalar> 
18
(
87317.8
100000
87319.9
87286.3
100000
87288.5
87277.1
100000
87279.5
87290.9
100000
87293
87300.1
100000
87301.9
87331.6
100000
87333.3
)
;
    }
    stove_body
    {
        type            zeroGradient;
    }
    frontAndBack
    {
        type            empty;
    }
}


// ************************************************************************* //
