/*--------------------------------*- C++ -*----------------------------------*\
  =========                 |
  \\      /  F ield         | OpenFOAM: The Open Source CFD Toolbox
   \\    /   O peration     | Website:  https://openfoam.org
    \\  /    A nd           | Version:  6
     \\/     M anipulation  |
\*---------------------------------------------------------------------------*/
FoamFile
{
    version     2.0;
    format      ascii;
    class       volVectorField;
    location    "1.5";
    object      U;
}
// * * * * * * * * * * * * * * * * * * * * * * * * * * * * * * * * * * * * * //

dimensions      [0 1 -1 0 0 0 0];

internalField   nonuniform List<vector> 
297
(
(13.7254 -0.0222208 0.241777)
(13.7245 -0.000290554 0.270639)
(13.7254 0.0220999 0.241618)
(1.19808e-06 0.0265695 0.252887)
(8.35624e-07 0.000202267 0.241857)
(7.83615e-07 -0.0263561 0.252948)
(-13.7253 -0.0223469 0.241909)
(-13.7244 -0.000149519 0.27067)
(-13.7253 0.0221749 0.241799)
(13.7256 -0.0398657 0.273846)
(13.7244 -0.000351588 0.288975)
(13.7256 0.0392987 0.273854)
(1.0379e-06 0.0446308 0.209836)
(8.14455e-07 0.000121596 0.165094)
(8.98167e-07 -0.0443108 0.210536)
(-13.7255 -0.0391042 0.27393)
(-13.7243 -0.000108908 0.288841)
(-13.7255 0.0390473 0.273725)
(12.4606 -0.113736 0.394115)
(13.6564 -0.00180362 0.458172)
(12.57 0.112711 0.39524)
(7.04651e-07 0.106267 0.0973656)
(7.37107e-07 0.00208052 0.0359409)
(8.31742e-07 -0.108056 0.0961995)
(-12.5432 -0.112536 0.395507)
(-13.6643 -0.000144296 0.458475)
(-12.5442 0.112468 0.395117)
(48.8122 5.39664 16.5397)
(31.8024 -0.265004 22.8949)
(50.756 -3.58744 15.1421)
(7.81089e-05 1.67034 18.1531)
(3.93509e-05 -0.324496 10.8813)
(9.26885e-05 -2.12213 17.4025)
(-49.0526 5.41799 16.0291)
(-31.8907 0.201367 23.0136)
(-50.7673 -3.41833 15.4747)
(70.2376 -0.52055 34.6406)
(64.7986 -2.70815 110.325)
(73.4574 6.30265 34.2532)
(0.0017635 36.7239 188.102)
(5.40317e-05 -0.840058 132.994)
(-0.00087516 -31.0864 190.377)
(-70.2508 -0.473504 34.6503)
(-64.9598 -3.79691 110.081)
(-73.722 6.76644 34.1884)
(68.6418 -41.8124 -51.4251)
(57.7934 0.330601 153.135)
(71.7608 46.2858 -50.5713)
(0.000335286 -50.7077 251.746)
(-1.07131e-05 1.31894 -22.2904)
(0.000108822 51.0195 257.962)
(-68.6598 -42.8576 -51.5692)
(-57.8963 1.51462 153.38)
(-72.0155 45.6575 -50.652)
(44.9901 -49.209 -211.946)
(33.8132 -3.86832 -25.6538)
(46.915 54.3156 -212.91)
(-0.00159479 -55.4379 -19.6863)
(-9.4708e-05 1.98267 -116.313)
(0.00104247 58.7534 -27.3089)
(-45.0331 -49.2682 -212.284)
(-33.8324 -4.11255 -25.8523)
(-46.9234 54.2504 -213.103)
(21.6433 51.3777 -125.054)
(14.1638 -8.77586 -87.8301)
(24.2428 -43.4083 -128.101)
(1.81692e-05 13.454 -112.547)
(-5.63188e-06 6.66043 -98.347)
(0.000165861 -10.3056 -115.483)
(-21.6565 51.3237 -125.217)
(-14.1696 -8.63203 -87.8671)
(-24.235 -43.4385 -128.031)
(9.40274 30.2032 -25.4093)
(9.40833 -7.7261 -19.5597)
(9.40656 -27.6987 -25.7694)
(-6.1859e-06 25.4803 -23.6442)
(-2.13034e-05 7.24303 -24.9131)
(1.52804e-05 -21.2378 -22.3857)
(-9.41198 30.1425 -25.3941)
(-9.41306 -7.67543 -19.5657)
(-9.4136 -27.6646 -25.7626)
(60.3429 -33.5281 -485.058)
(56.3999 -4.59038 199.495)
(62.1967 41.1703 -487.208)
(-0.0129885 -49.9936 373.609)
(-9.14165e-05 4.80071 -144.178)
(0.00126445 52.6067 388.247)
(-60.2196 -34.2776 -485.479)
(-56.4987 -4.67143 199.565)
(-62.541 40.9278 -488.625)
(55.4179 -39.8984 -390.535)
(50.9799 -4.79342 195.14)
(53.4723 46.0783 -390.099)
(-0.0149248 -51.8285 420.304)
(-8.66879e-05 4.45064 -145.619)
(0.00130926 53.5027 440.96)
(-55.4423 -40.2085 -391.797)
(-51.07 -4.96338 195.206)
(-53.6169 45.9246 -390.875)
(49.9146 -38.6053 -343.157)
(51.3586 -4.63884 179.89)
(51.5798 45.088 -342.872)
(-0.0153115 -51.8409 466.647)
(-0.000119436 3.78061 -137.245)
(0.000901735 57.6803 484.943)
(-49.9789 -38.9969 -343.989)
(-51.4472 -4.97289 179.927)
(-51.7337 44.939 -343.452)
(9.34913 46.1563 -12.993)
(9.39761 2.77998 -12.7682)
(9.34789 -46.1115 -13.1085)
(-2.0996e-05 36.8199 -13.6249)
(-1.87488e-05 -4.31227 -13.7081)
(-2.95493e-06 -37.3938 -12.8904)
(-9.35848 46.0859 -12.9868)
(-9.40079 2.85052 -12.774)
(-9.35855 -46.0212 -13.1023)
(9.40925 22.5727 -5.15067)
(9.42597 -2.30468 -2.12379)
(9.40725 -21.4955 -5.12343)
(-2.27387e-05 25.7954 -5.56028)
(-1.10046e-05 -0.213135 -6.86213)
(-5.594e-06 -26.3464 -5.49703)
(-9.41246 22.5634 -5.18369)
(-9.43068 -2.21229 -2.15077)
(-9.41361 -21.4744 -5.13186)
(9.42897 -2.23568 -5.35451)
(9.42729 0.552076 1.15271)
(9.42315 4.01231 -5.01735)
(-1.84893e-05 14.2577 -3.17887)
(-1.11044e-05 -3.07868 -3.27726)
(-7.59487e-06 -15.3097 -2.60915)
(-9.43054 -2.04393 -5.31927)
(-9.43224 0.508452 1.06621)
(-9.42748 3.9957 -5.01017)
(9.33748 -49.9035 -5.71273)
(9.37287 -44.7106 -8.26905)
(9.35657 -38.4962 -11.2185)
(-1.56643e-05 -40.4267 -4.61891)
(-2.48615e-05 -37.422 -4.55772)
(-5.91122e-05 -31.8018 -4.93733)
(-9.34846 -49.8087 -5.69113)
(-9.38421 -44.6082 -8.24361)
(-9.36841 -38.4001 -11.1932)
(9.38438 -36.037 -2.94923)
(9.40273 -37.385 -9.32098)
(9.35477 -32.819 -17.699)
(-9.35908e-06 -33.5022 0.198413)
(-1.03079e-05 -33.1539 1.52346)
(-2.96824e-05 -27.8524 2.42218)
(-9.39129 -35.9872 -2.96425)
(-9.40981 -37.3279 -9.32496)
(-9.36247 -32.769 -17.699)
(9.42992 -3.41838 -3.79329)
(9.42392 -18.0584 -16.6688)
(9.37701 -27.6774 -25.2245)
(-3.22781e-06 -19.9207 2.6283)
(4.7374e-06 -20.7533 3.49184)
(1.06676e-05 -21.1702 3.37661)
(-9.43408 -3.40513 -3.75946)
(-9.42818 -18.0248 -16.6425)
(-9.3818 -27.6408 -25.1962)
(9.3571 38.4262 -11.2128)
(9.37269 44.6659 -8.25756)
(9.33773 49.8219 -5.68124)
(-4.42042e-05 31.6833 -4.93738)
(-2.54364e-05 37.2735 -4.53031)
(-2.58715e-05 40.2042 -4.62484)
(-9.36779 38.3336 -11.1872)
(-9.3838 44.5772 -8.22876)
(-9.34822 49.7499 -5.65497)
(9.35802 32.8005 -17.7188)
(9.40586 37.4212 -9.29466)
(9.38724 36.1085 -2.93282)
(-2.38237e-05 27.7184 2.41468)
(-1.70207e-05 32.9994 1.54551)
(-2.221e-05 33.2376 0.230121)
(-9.36203 32.7517 -17.7352)
(-9.4095 37.382 -9.30623)
(-9.39073 36.0782 -2.95488)
(9.37981 27.7033 -25.2161)
(9.42643 18.0889 -16.439)
(9.43265 4.06392 -3.45899)
(-3.58178e-06 21.0146 3.41778)
(-7.53246e-06 20.5362 3.55019)
(-1.74e-05 19.4967 2.68568)
(-9.38155 27.6731 -25.2093)
(-9.42799 18.0513 -16.4072)
(-9.43413 4.03674 -3.39663)
(9.32665 11.9769 -19.5541)
(9.32958 17.719 -13.824)
(9.34325 27.5272 -15.9961)
(-0.000196928 10.1997 -9.83864)
(-0.000155046 15.8624 -5.24821)
(-9.48781e-05 23.4785 -6.13904)
(-9.3466 11.9395 -19.4777)
(-9.34649 17.6711 -13.7561)
(-9.35533 27.4406 -15.9481)
(9.33549 5.16382 -29.3722)
(9.3484 15.5759 -21.9321)
(9.34276 27.4218 -26.9732)
(-0.000156488 7.62636 -7.23803)
(-0.000111372 12.5546 -2.32486)
(-5.99571e-05 21.5343 -2.18854)
(-9.3528 5.17333 -29.2678)
(-9.35774 15.5486 -21.864)
(-9.34818 27.3918 -26.9459)
(9.37861 4.20364 -35.9915)
(9.35576 17.5934 -32.8799)
(9.35711 16.334 -40.7895)
(-0.000119736 6.1174 -11.9661)
(-7.80237e-05 13.9013 -7.03349)
(-3.37795e-05 16.4934 -1.38456)
(-9.39579 4.21192 -35.8782)
(-9.36112 17.596 -32.8187)
(-9.35924 16.309 -40.7709)
(9.37546 -4.35551 -57.4287)
(9.38102 -3.46131 -54.7616)
(9.38721 -10.2752 -59.5169)
(2.42098e-05 -5.00317 10.6696)
(2.98074e-05 2.85914 19.075)
(3.46152e-05 -9.52738 16.1547)
(-9.38845 -4.30153 -57.3212)
(-9.38076 -3.42804 -54.7607)
(-9.38817 -10.2809 -59.4878)
(9.26006 1.82648 -123.71)
(9.2564 -1.08524 -125.052)
(9.2545 4.81745 -123.836)
(5.93448e-05 -1.78424 62.6871)
(4.90406e-05 0.919952 65.5628)
(4.65041e-05 -2.01653 60.5369)
(-9.25989 1.8043 -123.654)
(-9.25622 -1.07943 -125.027)
(-9.25434 4.82426 -123.808)
(8.86069 -0.0113618 -159.131)
(8.86163 -0.0408257 -159.066)
(8.86272 -0.056706 -158.839)
(3.84218e-05 -0.577586 176.724)
(3.72887e-05 0.417897 175.586)
(3.66448e-05 -0.568945 173.806)
(-8.86058 -0.0104512 -159.117)
(-8.86152 -0.0395568 -159.052)
(-8.86261 -0.0562351 -158.827)
(9.34231 -27.5565 -16.0246)
(9.33035 -17.7528 -13.8342)
(9.32652 -11.9924 -19.5875)
(-0.000114976 -23.5385 -6.16891)
(-0.000173602 -15.922 -5.24902)
(-0.000216196 -10.1959 -9.86719)
(-9.35607 -27.4679 -15.9803)
(-9.3473 -17.7035 -13.774)
(-9.34732 -11.956 -19.5121)
(9.33914 -27.4554 -26.995)
(9.3457 -15.5836 -21.9552)
(9.33265 -5.16324 -29.431)
(-7.78147e-05 -21.5742 -2.21112)
(-0.000128115 -12.6294 -2.32757)
(-0.00017252 -7.61918 -7.27617)
(-9.34857 -27.4196 -26.9633)
(-9.35842 -15.5525 -21.9002)
(-9.35333 -5.17336 -29.3241)
(9.35363 -16.3302 -40.8763)
(9.35406 -17.6156 -32.9159)
(9.37863 -4.20625 -36.0727)
(-4.31578e-05 -16.4609 -1.47084)
(-9.1232e-05 -14.0001 -7.01721)
(-0.000132462 -6.11593 -12.004)
(-9.35935 -16.3128 -40.8276)
(-9.36108 -17.6055 -32.8626)
(-9.39605 -4.21339 -35.9552)
(9.38394 10.2851 -59.6345)
(9.38057 3.45458 -54.8512)
(9.37562 4.36366 -57.5599)
(4.02123e-05 9.56689 16.088)
(3.44193e-05 -2.89262 19.0311)
(2.90298e-05 5.02758 10.5981)
(-9.38852 10.2915 -59.5867)
(-9.38112 3.42577 -54.8404)
(-9.38882 4.31084 -57.4415)
(9.25483 -4.82447 -123.946)
(9.25674 1.09139 -125.162)
(9.26036 -1.83291 -123.841)
(5.83571e-05 2.04459 60.5436)
(6.00881e-05 -0.939898 65.5839)
(6.97578e-05 1.79787 62.6906)
(-9.25464 -4.82902 -123.91)
(-9.25653 1.08524 -125.131)
(-9.26017 -1.80981 -123.779)
(8.86284 0.0569746 -158.938)
(8.86176 0.0414697 -159.165)
(8.86082 0.0118502 -159.231)
(4.38229e-05 0.576868 173.761)
(4.43518e-05 -0.423728 175.543)
(4.53821e-05 0.58235 176.678)
(-8.86271 0.0565799 -158.923)
(-8.86162 0.040381 -159.149)
(-8.86069 0.0110215 -159.213)
)
;

boundaryField
{
    fuel
    {
        type            fixedValue;
        value           uniform (0 0 0.25);
    }
    primary_air
    {
        type            fixedValue;
        value           uniform (0 0 2.5);
    }
    Secondary_air_RHS
    {
        type            fixedValue;
        value           uniform (0 125 0);
    }
    Secondary_air_LHS
    {
        type            fixedValue;
        value           uniform (0 -125 0);
    }
    outlet
    {
        type            pressureInletOutletVelocity;
        value           nonuniform List<vector> 
18
(
(0 0 -158.938)
(4.38229e-05 0.576868 173.761)
(0 0 -158.923)
(0 0 -159.165)
(4.43518e-05 -0.423728 175.543)
(0 0 -159.149)
(0 0 -159.231)
(4.53821e-05 0.58235 176.678)
(0 0 -159.213)
(0 0 -159.131)
(3.84218e-05 -0.577586 176.724)
(0 0 -159.117)
(0 0 -159.066)
(3.72887e-05 0.417897 175.586)
(0 0 -159.052)
(0 0 -158.839)
(3.66448e-05 -0.568945 173.806)
(0 0 -158.827)
)
;
    }
    stove_body
    {
        type            noSlip;
    }
    frontAndBack
    {
        type            empty;
    }
}


// ************************************************************************* //
