/*--------------------------------*- C++ -*----------------------------------*\
  =========                 |
  \\      /  F ield         | OpenFOAM: The Open Source CFD Toolbox
   \\    /   O peration     | Website:  https://openfoam.org
    \\  /    A nd           | Version:  6
     \\/     M anipulation  |
\*---------------------------------------------------------------------------*/
FoamFile
{
    version     2.0;
    format      ascii;
    class       volScalarField;
    location    "2.5";
    object      p;
}
// * * * * * * * * * * * * * * * * * * * * * * * * * * * * * * * * * * * * * //

dimensions      [1 -1 -2 0 0 0 0];

internalField   nonuniform List<scalar> 
297
(
116461
116460
116460
193832
193832
193833
116460
116460
116460
116461
116460
116460
193832
193832
193833
116460
116460
116460
116461
116460
116460
193832
193832
193833
116460
116460
116460
96790.9
96803.5
96796.3
160647
160705
160707
96790.8
96805.4
96796.7
97104.5
96563.7
96924
160557
160997
160518
97089.1
96559
96912.5
93499.4
93504.9
93847.3
150358
156082
150815
93520.7
93568.3
93868.2
90232.5
93453.9
89827.7
153985
153468
153477
90231.2
93365.6
89825.6
95791.7
96189.2
95616.3
159696
159181
159754
95821.6
96190.9
95640.9
95750.3
96200.9
95672.7
159101
159837
159450
95750.9
96196.3
95677.6
70228.2
91461.6
71183.4
115545
148750
115916
70221
91382
71172.4
68743.7
91319
69637.8
111587
148151
111829
68735.8
91232
69626
71062.9
91459
71776.5
114451
148474
114524
71054.2
91371.8
71763.8
96544.5
96713.7
96523.4
160185
160457
160229
96534.2
96698.6
96516.6
96670.8
96713.1
96646.4
160508
160591
160509
96658.5
96695.8
96637.2
96673.8
96700.9
96650.5
160658
160657
160639
96660.2
96682.5
96640.2
96810.4
97047.5
97621.4
160456
160583
160842
96805.2
97043.7
97616.7
96676.4
96749.9
97145.1
160507
160515
160588
96671.8
96747.5
97143.2
96551.9
96413.1
96333.5
160635
160549
160429
96547.5
96412.4
96335.8
97626.9
97064
96830.7
160872
160611
160472
97623.6
97059.8
96823.6
97158.9
96772.2
96700.3
160621
160547
160531
97157.5
96768.8
96693.5
96361.2
96440.9
96577.9
160464
160582
160664
96362.7
96438.4
96570.8
98870.8
98640.2
98225.7
161891
161702
161320
98859.1
98631.5
98220.4
98552.8
98280.4
97832.6
161522
161330
160965
98544
98274.7
97829.6
98147.8
97863
97333
161048
160814
160548
98141.2
97859
97331.7
96168.2
96072.9
95901.2
158827
158710
158601
96169.9
96075
95903.7
90188.6
90228.9
90283.2
149024
149023
149020
90193.7
90233.4
90287.5
82793
82794.1
82796.5
132622
132618
132606
82796.6
82797.6
82799.9
98232.3
98654.7
98890
161299
161689
161882
98224.3
98642.9
98874.8
97832
98288.1
98565.3
160937
161309
161506
97826.8
98279.7
98553.4
97322.1
97861.5
98151.6
160511
160782
161022
97319.5
97855.4
98142.4
95863.2
96036.8
96133.4
158530
158639
158759
95866.1
96039.2
96135.4
90218
90163.5
90122.3
148909
148912
148913
90223.2
90168.6
90128.1
82726.7
82724.3
82723.2
132501
132513
132519
82730.5
82728.1
82727.1
)
;

boundaryField
{
    fuel
    {
        type            zeroGradient;
    }
    primary_air
    {
        type            zeroGradient;
    }
    Secondary_air_RHS
    {
        type            zeroGradient;
    }
    Secondary_air_LHS
    {
        type            zeroGradient;
    }
    outlet
    {
        type            totalPressure;
        rho             rho;
        psi             none;
        gamma           1;
        p0              uniform 100000;
        value           nonuniform List<scalar> 
18
(
86320.7
100000
86325.7
86271.8
100000
86276.8
86257.2
100000
86262.8
86326.9
100000
86331.8
86340.7
100000
86345.2
86389.4
100000
86393.7
)
;
    }
    stove_body
    {
        type            zeroGradient;
    }
    frontAndBack
    {
        type            empty;
    }
}


// ************************************************************************* //
