/*--------------------------------*- C++ -*----------------------------------*\
  =========                 |
  \\      /  F ield         | OpenFOAM: The Open Source CFD Toolbox
   \\    /   O peration     | Website:  https://openfoam.org
    \\  /    A nd           | Version:  6
     \\/     M anipulation  |
\*---------------------------------------------------------------------------*/
FoamFile
{
    version     2.0;
    format      ascii;
    class       volScalarField;
    location    "2.5";
    object      Qdot;
}
// * * * * * * * * * * * * * * * * * * * * * * * * * * * * * * * * * * * * * //

dimensions      [1 -1 -3 0 0 0 0];

internalField   nonuniform List<scalar> 
297
(
0
-0.000130006
-7.83435e-05
-0.000260013
-0.000260013
-0.000156687
-0.000130006
-7.83435e-05
-7.83435e-05
-7.83435e-05
-5.16627e-05
-0.000130006
-0.000156687
-0.000260013
-0.000156687
-5.16627e-05
-5.16627e-05
-0.000130006
-7.83435e-05
-7.83435e-05
-0.000130006
0
-2.44824e-06
-5.20859e-05
-0.000130006
-7.83435e-05
-7.83435e-05
1.48095e-09
1.45323e-09
1.50867e-09
-1.10884e-10
1.39779e-09
-1.10884e-10
1.48095e-09
1.50867e-09
-2.7721e-11
1.50867e-09
0
1.50867e-09
3.01734e-09
0
0
0
1.50174e-09
1.50867e-09
0
1.50867e-09
0
-1.38605e-11
0
0
1.50867e-09
1.50174e-09
0
0
0
-1.73256e-12
0
-8.66281e-13
0
1.50867e-09
0
1.50867e-09
1.50867e-09
0
1.50867e-09
0
0
3.01734e-09
1.50867e-09
-1.32184e-17
1.50867e-09
0
1.50867e-09
0
0
0
0
0
1.50867e-09
1.50867e-09
0
0
1.50867e-09
0
-8.66281e-13
1.50867e-09
0
-6.93025e-12
1.50867e-09
7.54335e-10
0
0
0
1.5078e-09
1.50867e-09
0
-6.93025e-12
1.50867e-09
7.54335e-10
1.50867e-09
0
1.50867e-09
1.5078e-09
1.50867e-09
7.54335e-10
1.50867e-09
1.50867e-09
0
-1.53883e-27
0
0
-2.40441e-29
0
1.50867e-09
0
0
0
1.50867e-09
1.50867e-09
-5.87015e-33
3.01734e-09
3.01734e-09
1.50867e-09
1.50867e-09
1.50867e-09
1.50867e-09
1.50867e-09
1.50867e-09
3.01734e-09
0
0
1.50867e-09
0
1.50867e-09
1.50867e-09
1.50867e-09
0
0
-4.3736e-41
-1.33472e-45
0
0
-1.6684e-46
0
0
-6.67359e-46
0
-4.3736e-41
3.01734e-09
1.50867e-09
0
1.50867e-09
1.50867e-09
1.50867e-09
1.50867e-09
3.01734e-09
-1.0934e-41
0
1.50867e-09
-4.3736e-41
-1.33472e-45
0
1.50867e-09
1.50867e-09
-1.70844e-43
-1.11964e-38
0
-3.41688e-43
1.50867e-09
1.50867e-09
0
0
-1.43314e-36
3.01734e-09
-6.99777e-40
0
1.50867e-09
1.50867e-09
-3.58286e-37
1.50867e-09
-4.3736e-41
-1.43314e-36
-2.66944e-45
-2.1868e-41
3.01734e-09
1.50867e-09
1.50867e-09
1.50867e-09
1.50867e-09
-6.36443e-52
1.50867e-09
0
3.01734e-09
-5.21374e-48
-3.88454e-56
-6.36443e-52
0
0
-2.48611e-54
1.50867e-09
-1.21392e-57
-9.94442e-54
0
1.50867e-09
0
0
1.50867e-09
1.50867e-09
0
3.01734e-09
-1.24305e-54
0
1.50867e-09
0
1.50867e-09
0
1.50867e-09
1.50867e-09
1.50867e-09
3.01734e-09
1.50867e-09
1.50867e-09
-4.85568e-57
-1.55382e-55
0
0
1.50867e-09
1.50867e-09
-7.76908e-56
1.50867e-09
0
1.50867e-09
-2.37094e-60
-1.85229e-62
0
1.50867e-09
0
1.50867e-09
0
-1.85229e-62
-1.48183e-61
0
0
0
1.50867e-09
3.01734e-09
0
3.01734e-09
1.50867e-09
1.50867e-09
-6.06959e-58
1.50867e-09
-1.24305e-54
1.50867e-09
3.01734e-09
-1.24305e-54
3.01734e-09
0
-1.24305e-54
1.50867e-09
1.50867e-09
1.50867e-09
1.50867e-09
-2.03662e-50
3.01734e-09
0
0
0
1.50867e-09
1.50867e-09
1.50867e-09
0
1.50867e-09
1.50867e-09
1.50867e-09
0
1.50867e-09
0
0
0
1.50867e-09
1.50867e-09
0
1.50867e-09
0
-1.48183e-61
0
1.50867e-09
-7.40917e-62
-4.63073e-63
1.50867e-09
-1.94227e-56
-1.21392e-57
0
0
-9.26147e-63
)
;

boundaryField
{
    fuel
    {
        type            calculated;
        value           uniform 0;
    }
    primary_air
    {
        type            calculated;
        value           uniform 0;
    }
    Secondary_air_RHS
    {
        type            calculated;
        value           uniform 0;
    }
    Secondary_air_LHS
    {
        type            calculated;
        value           uniform 0;
    }
    outlet
    {
        type            calculated;
        value           uniform 0;
    }
    stove_body
    {
        type            calculated;
        value           uniform 0;
    }
    frontAndBack
    {
        type            empty;
    }
}


// ************************************************************************* //
