/*--------------------------------*- C++ -*----------------------------------*\
  =========                 |
  \\      /  F ield         | OpenFOAM: The Open Source CFD Toolbox
   \\    /   O peration     | Website:  https://openfoam.org
    \\  /    A nd           | Version:  6
     \\/     M anipulation  |
\*---------------------------------------------------------------------------*/
FoamFile
{
    version     2.0;
    format      ascii;
    class       volScalarField;
    location    "4.5";
    object      p;
}
// * * * * * * * * * * * * * * * * * * * * * * * * * * * * * * * * * * * * * //

dimensions      [1 -1 -2 0 0 0 0];

internalField   nonuniform List<scalar> 
297
(
119992
119992
119992
198880
198880
198880
119991
119991
119991
119991
119991
119991
198880
198880
198880
119991
119991
119991
119991
119991
119991
198880
198880
198880
119991
119991
119991
97407.8
97423.8
97416.1
161075
161111
161173
97403.8
97420.4
97413.5
97363.4
97323.1
97323.2
160697
160824
160791
97351.9
97308.7
97313.3
97243
97260.6
96973.5
158674
159920
158723
97242.3
97246.5
96955.9
96302.3
96666.4
96432
159839
159520
159619
96329
96696.6
96471.2
96805
96892.2
96735.7
160672
160413
160506
96821.7
96903.2
96777.7
96960.7
97116
96880
160721
160628
160568
96970.3
97116.5
96894.3
95284.1
97347.6
96032.5
152825
158429
155400
95210.8
97348.7
96038.5
95028.1
97313
95865.4
152255
158359
154878
94956.3
97315.8
95874.1
95023.8
97236.3
95746.7
152814
158464
154939
94960.2
97241.3
95758.2
97410.4
97532.7
97400.1
160746
160761
160829
97383.4
97539.5
97436.3
97488.7
97594.9
97497.5
160769
160844
160934
97496.3
97589.6
97495.3
97516.8
97586.3
97526.7
160792
160894
160986
97532.6
97584
97528.4
97408.6
97291.6
97137.8
160778
160731
160563
97676
97600.8
97807.3
97313.4
97101.8
96798.1
160753
160715
160511
97440.9
97337.6
97493
97302.3
97053.5
96689.3
160798
160690
160382
97378.8
97274.2
97238.8
97800.2
97573.1
97646.7
160533
160694
160723
97125.2
97266.8
97363.5
97459.1
97288
97403
160480
160674
160678
96787.4
97084.9
97299.1
97188.7
97227.3
97340.9
160353
160651
160699
96667.8
97031.7
97289.5
99165.9
98846.1
98334.1
160550
160437
160388
99304.9
98563.8
97538.5
98772.8
98401.3
97921.2
160064
159862
160029
98361.8
97463.7
96813.9
98205.5
97814.8
97428
159296
159098
159383
97233.4
96570.4
96222.2
95660.7
95642.7
95608.8
155005
154915
154749
92876.8
92813.9
92712.5
89871.4
89920.2
89962.9
146784
146766
146702
88714.7
88670.7
88579.8
83835.7
83835
83834.7
134626
134573
134498
86236.8
86395.2
86605.5
97554
98577.6
99308.8
160426
160479
160592
98312.9
98800.3
99107.5
96818.3
97471.1
98372.3
160082
159916
160119
97929.5
98384.9
98738.4
96223.3
96576.7
97257.6
159438
159173
159377
97467.3
97834
98202.7
92789.1
92891
92961.1
154880
155064
155160
95732.8
95761.7
95776
88709.2
88793.5
88835.8
146906
146975
146993
90118.9
90077.8
90031.2
86727.8
86509.7
86350.1
134695
134769
134820
83996.4
83996.4
83996.6
)
;

boundaryField
{
    fuel
    {
        type            zeroGradient;
    }
    primary_air
    {
        type            zeroGradient;
    }
    Secondary_air_RHS
    {
        type            zeroGradient;
    }
    Secondary_air_LHS
    {
        type            zeroGradient;
    }
    outlet
    {
        type            totalPressure;
        rho             rho;
        psi             none;
        gamma           1;
        p0              uniform 100000;
        value           nonuniform List<scalar> 
18
(
99991.9
100000
86483.1
93216.2
100000
86364.7
87736.5
100000
86322.5
86149
100000
87640.1
86190.4
100000
93220
86226.1
100000
99993.2
)
;
    }
    stove_body
    {
        type            zeroGradient;
    }
    frontAndBack
    {
        type            empty;
    }
}


// ************************************************************************* //
