/*--------------------------------*- C++ -*----------------------------------*\
  =========                 |
  \\      /  F ield         | OpenFOAM: The Open Source CFD Toolbox
   \\    /   O peration     | Website:  https://openfoam.org
    \\  /    A nd           | Version:  6
     \\/     M anipulation  |
\*---------------------------------------------------------------------------*/
FoamFile
{
    version     2.0;
    format      ascii;
    class       surfaceScalarField;
    location    "2.5";
    object      phi;
}
// * * * * * * * * * * * * * * * * * * * * * * * * * * * * * * * * * * * * * //

dimensions      [1 0 -1 0 0 0 0];

internalField   nonuniform List<scalar> 
675
(
1.07903e-05
-3.52615e-05
0.000142563
-1.08553e-05
5.36739e-06
0.00013437
-3.52271e-05
0.000142464
-1.85833e-05
3.52542e-05
0.000144917
1.87858e-05
-5.3705e-06
0.000170217
3.52225e-05
0.000145185
1.07932e-05
0.000142553
-1.08526e-05
0.000134367
0.000142462
6.65693e-06
-5.82654e-05
0.000194152
-6.7952e-06
4.70363e-06
0.000143099
-5.80063e-05
0.000193656
-3.06983e-05
5.82347e-05
5.91524e-05
3.10076e-05
-4.70673e-06
0.000117958
5.80057e-05
6.02179e-05
6.66522e-06
0.000194103
-6.79019e-06
0.000143096
0.000193658
3.61474e-06
7.2404e-05
-4.66874e-06
3.32509e-05
7.08538e-05
7.11744e-06
-7.23209e-05
-5.19543e-06
-3.32541e-05
-7.08842e-05
3.64861e-06
-4.64086e-06
0.00327411
0.00390093
-0.00396736
-0.00299202
0.00520987
0.00425924
0.00373726
-0.00352188
0.0053833
-0.00390013
0.00774759
-0.00523718
-0.00521036
0.0263642
-0.00372977
0.00755996
0.00329043
-0.00398283
-0.00296938
0.00425247
-0.00349175
0.00874476
0.00833814
-0.0210515
-0.00823314
-0.00483341
0.0260693
0.00798351
-0.0197396
0.00280753
-0.0083589
0.021635
-0.00358001
0.00483036
0.0230836
-0.00794809
0.0199095
0.00872092
-0.0210639
-0.00823251
0.026035
-0.0196734
0.000381906
0.0176314
-0.0390658
-0.000685858
-0.00713825
0.034274
0.0174951
-0.0379215
-0.0431845
-0.017634
0.100082
0.0432933
0.00713521
-0.0776729
-0.0174605
0.0981561
0.000413574
-0.0391124
-0.000658517
0.034241
-0.0377935
-0.0244709
-0.0223008
-0.0184924
0.0652624
0.0241229
0.00879075
-0.0316273
-0.0257597
-0.0231326
-0.0173619
0.0646161
-0.00226763
0.0223122
0.0178086
-0.0601559
0.0043436
-0.0087849
-0.0904277
0.101387
0.0231086
0.0179331
-0.0598323
-0.0244897
-0.0184879
0.0652882
0.0240725
-0.0316167
-0.0257329
-0.0173141
0.0644937
0.00541494
-0.00773723
-0.0161752
-0.00899794
0.0117766
-0.0289981
-0.0109599
-0.0154029
0.0179833
0.0077232
-0.0156384
-0.0109225
-0.0117841
-0.0379676
0.0109447
-0.014897
0.00541351
-0.0161828
-0.0090103
-0.0289848
-0.0153836
-0.00122582
0.00263841
-0.0176132
-0.0129748
0.000214747
-0.0174765
-0.0102353
-0.0181495
0.0183653
-0.00264875
-0.0287402
0.00947975
-0.000216017
-0.0286668
0.0102346
-0.025906
-0.00124196
-0.0176067
-0.0129818
-0.0174743
-0.018147
-0.00162318
-0.000416692
-0.0473007
0.00153035
-0.000123241
0.0312436
-0.000327365
-0.0463745
-0.00284957
0.000418088
0.0852718
0.00317275
0.00012353
-0.0839425
0.000329406
0.0839558
-0.00162763
-0.0473382
0.00152369
0.0312131
-0.0462504
-0.00150435
0.000208247
-0.0562716
0.00146576
-0.000523102
0.0287965
0.000310601
-0.0554962
-0.0031461
-0.000207231
0.0721742
0.00323616
0.000523335
-0.0913717
-0.000305822
0.0713123
-0.00150643
-0.0563029
0.00146124
0.0287686
-0.0553712
-0.00215622
0.000616303
0.00210666
-0.00122626
0.000705335
-0.00370166
-0.000615414
0.00386057
0.001226
-0.000705009
-0.00215831
0.0021033
0.00613185
-0.000734579
-0.00891969
-0.0140959
-0.00550631
-0.00069985
-0.00514034
-0.000808653
-0.00869599
-0.014151
0.00620185
0.000733793
-0.017531
-0.0188849
-0.00824234
0.000699587
-0.0156229
0.000810029
-0.0168351
-0.018934
0.00613105
-0.00891777
-0.0140896
-0.00550526
-0.00513942
-0.00869614
-0.0141469
0.00271255
0.000223635
-0.00222785
-0.00963323
-0.00333584
0.00047795
0.000428246
0.000133697
-0.00252182
-0.00964305
0.00442709
-0.000223533
-0.00712424
-0.0143909
-0.00428914
-0.000478698
-0.00595101
-0.000132322
-0.0063454
-0.0145122
0.00271668
-0.00222855
-0.00963305
-0.00333491
0.000432558
-0.00251876
-0.00964429
0.000316772
0.000176163
-0.00272606
-1.26056e-05
0.000755476
0.000232367
-0.00276596
0.00170215
-0.000176331
-0.00847722
-0.0027394
-0.000755495
-0.000231775
-0.00861742
0.00031569
-0.00272435
-8.47167e-06
-0.00275793
-0.0128977
-5.54384e-05
-0.00119669
-0.0132155
0.00158553
-0.0012662
0.00191454
-0.00469679
-0.0104323
-0.0179093
5.56366e-05
-0.00113464
-0.0159406
-0.00158634
0.00120469
-0.00191525
0.00188393
-0.0139944
-0.0128908
-0.0011998
-0.0132086
-0.00126767
-0.00469612
-0.0104275
-0.010051
-9.31881e-05
-0.00069465
-0.0101079
0.00104079
-0.00224869
0.000499088
-0.00530461
-0.00999827
-0.0155186
9.3979e-05
-0.000314472
-0.0131491
-0.00104111
0.000918622
-0.000497661
0.00280152
-0.013069
-0.0100535
-0.000696049
-0.010108
-0.00225348
-0.00530198
-0.00999895
-0.00334685
-0.000113102
-0.0050488
-0.000545546
-0.00112308
-0.00922954
-0.0091578
0.000113631
-0.00932967
0.000546336
0.00112294
-0.00877382
-0.00334002
-0.00504633
-0.00922498
0.0131384
0.00189171
-0.00465817
-0.0103738
0.0128347
0.00156437
-0.00126147
-5.90993e-05
-0.00120368
0.015853
-0.00189192
0.0018191
-0.0138902
0.0177998
-0.00156497
0.00118205
5.85702e-05
-0.00120401
0.0131323
-0.00465675
-0.0103689
0.0128279
-0.00126104
-0.00120424
0.0100389
0.000501673
-0.00529468
-0.00990591
0.00998585
0.00102493
-0.00223434
-9.30928e-05
-0.000759633
0.0130786
-0.000501633
0.00271033
-0.0129686
0.0154304
-0.00102564
0.000880165
9.29104e-05
-0.000351425
0.0100374
-0.00529251
-0.00990483
0.0099855
-0.00223549
-0.000760076
0.00506074
-0.00111518
-0.00924159
0.00336158
-0.000536187
-0.000125751
0.00927304
0.00111454
-0.00879468
0.00908047
0.000535794
0.000125331
0.00506072
-0.00923991
0.00336027
0.00448174
0.00169891
-0.00618163
0.00710444
0.00159752
-0.00422105
0.00164797
-0.00491867
0.0062751
-0.00169847
-0.00288017
0.010173
-0.00159698
-0.000705832
-0.00164742
-0.000424148
0.00447854
-0.00617807
0.00710092
-0.00422015
-0.00491666
0.00360646
0.00146886
-0.0112585
0.00684899
0.00141896
-0.00888362
0.0011385
-0.00911568
0.00464506
-0.00146825
-0.00459081
0.00919892
-0.00141861
-0.00242463
-0.00113821
-0.00191984
0.00360862
-0.0112565
0.00685007
-0.00888123
-0.0091111
0.00463014
0.00292824
-0.0188192
0.00519011
0.00179853
-0.0112442
0.00105002
-0.0142189
0.00510404
-0.00292781
-0.00384205
0.00871909
-0.0017963
-0.00244763
-0.00104814
0.000100129
0.0046322
-0.0188187
0.0051923
-0.0112397
-0.0142085
-0.00585048
0.0116711
-0.0246471
-0.00194487
0.0102544
-0.0254149
0.00949719
-0.0256719
0.00156276
-0.011672
0.0179245
-0.000315364
-0.0102551
0.0199261
-0.00949849
0.0187665
-0.00585442
-0.0246448
-0.00195046
-0.0254106
-0.0256695
0.000688647
0.00637546
-0.0317104
0.00109691
0.0063518
-0.0321742
0.0069001
-0.0314737
-0.00117876
-0.00637942
0.0318642
-0.00106391
-0.0063553
0.0325246
-0.0069036
0.0315125
0.000687735
-0.0317093
0.0010967
-0.0321722
-0.0314731
6.04839e-05
0.0191258
-0.000254665
0.0190317
0.0191113
-0.000353199
-0.0191261
-6.25461e-05
-0.019032
-0.0191115
6.03792e-05
-0.00025409
-0.00713434
0.00166721
-0.00496526
-0.00449124
0.00161842
-0.00426109
0.001715
-0.00620512
-0.0102678
-0.00166699
-0.000392748
-0.00634125
-0.0016184
-0.00069015
-0.001715
-0.00291081
-0.00713087
-0.00496377
-0.00448705
-0.00426208
-0.00620099
-0.0069297
0.00115761
-0.00919155
-0.00365887
0.0014633
-0.00899502
0.00148842
-0.0113518
-0.00934536
-0.00115662
-0.00180255
-0.00468262
-0.00146309
-0.00242708
-0.00148836
-0.00461655
-0.00693446
-0.00918562
-0.0036634
-0.00899657
-0.0113522
-0.0052733
0.00099345
-0.0141412
-0.00472267
0.00174408
-0.0112897
0.00294273
-0.0190172
-0.00877975
-0.000988389
0.000184134
-0.00519694
-0.00173895
-0.00252797
-0.00294497
-0.00392744
-0.00528024
-0.0141191
-0.00473435
-0.0112816
-0.0190322
0.0020303
0.00947727
-0.0256551
0.00594022
0.0102497
-0.0254537
0.0116908
-0.0247688
0.000415963
-0.00947873
0.0187206
-0.00150251
-0.0102506
0.0198873
-0.0116915
0.0179463
0.00203818
-0.0256416
0.00595451
-0.0254528
-0.024771
-0.00104541
0.00690361
-0.031513
-0.000630902
0.00634846
-0.0322175
0.00636657
-0.0317671
0.00107336
-0.00690455
0.0314537
0.00118002
-0.00634935
0.032477
-0.00636756
0.0318595
-0.00103621
-0.0315129
-0.000624807
-0.0322172
-0.0317663
0.00026098
0.0191071
-5.25751e-05
0.0190289
0.0191192
4.68029e-05
-0.0191084
0.000327655
-0.0190301
-0.0191205
0.000260788
-5.27783e-05
)
;

boundaryField
{
    fuel
    {
        type            calculated;
        value           nonuniform List<scalar> 
36
(
0.000118112
0.000196812
0.000118112
0.000118112
0.000196812
0.000118112
0.000118112
0.000196812
0.000118112
-0.000118112
-0.000196812
-0.000118112
-0.000118112
-0.000196812
-0.000118112
-0.000118112
-0.000196812
-0.000118112
0
0
0
0
0
0
0
0
0
0
0
0
0
0
0
0
0
0
)
;
    }
    primary_air
    {
        type            calculated;
        value           nonuniform List<scalar> 9(-0.00320956 -0.00533731 -0.00320958 -0.00320611 -0.00533516 -0.00320611 -0.00320923 -0.00533736 -0.0032092);
    }
    Secondary_air_RHS
    {
        type            calculated;
        value           nonuniform List<scalar> 9(0.0103107 0.0167163 0.01031 0.0102768 0.016496 0.0102762 0.0105211 0.0167509 0.0105206);
    }
    Secondary_air_LHS
    {
        type            calculated;
        value           nonuniform List<scalar> 9(0.0102748 0.0168254 0.0102715 0.010267 0.0166592 0.0102638 0.0105306 0.0169516 0.0105281);
    }
    outlet
    {
        type            calculated;
        value           nonuniform List<scalar> 
18
(
-0.0508752
0.0696266
-0.0508749
-0.0509269
0.0702594
-0.0509266
-0.050933
0.0704316
-0.0509327
-0.0508907
0.0704728
-0.0508902
-0.0508847
0.0703009
-0.0508842
-0.0508338
0.069676
-0.0508332
)
;
    }
    stove_body
    {
        type            calculated;
        value           uniform 0;
    }
    frontAndBack
    {
        type            empty;
        value           nonuniform 0();
    }
}


// ************************************************************************* //
