/*--------------------------------*- C++ -*----------------------------------*\
  =========                 |
  \\      /  F ield         | OpenFOAM: The Open Source CFD Toolbox
   \\    /   O peration     | Website:  https://openfoam.org
    \\  /    A nd           | Version:  6
     \\/     M anipulation  |
\*---------------------------------------------------------------------------*/
FoamFile
{
    version     2.0;
    format      ascii;
    class       volScalarField;
    location    "1.5";
    object      O2;
}
// * * * * * * * * * * * * * * * * * * * * * * * * * * * * * * * * * * * * * //

dimensions      [0 0 0 0 0 0 0];

internalField   nonuniform List<scalar> 
297
(
0
0
0
0
0
0
0
0
0
0
0
0
0
0
0
0
0
0
0
0
0
0
0
0
0
0
0
0.11959
0.175828
0.193295
0.206562
0.205387
0.222981
0.125224
0.170368
0.213492
0
0.00281588
0
0.0754918
0.201841
0.158034
0
0.00721869
0.00726474
0
0.00626079
0
0.0390306
0.0499371
0.0805603
0
0.00923626
0
0.000622217
0.00190942
0.000568617
0
0.000275961
0
0.00116483
0.00303821
0.000962502
1.46392e-07
4.67034e-08
1.35105e-08
3.25893e-07
1.28397e-08
6.80779e-10
1.96066e-07
8.52959e-08
1.92407e-08
6.62949e-12
1.89964e-12
2.97327e-13
1.58276e-11
2.23549e-12
1.38632e-13
1.0164e-11
4.19602e-12
9.68656e-13
0
0.00608236
0
0.00586232
0.000277365
0.0255569
0
0.0089711
0
0
0.00598202
0
0
0.000275823
0
0
0.00882234
0
0
0.00568003
0
0
0.00027596
0
0
0.00838364
0
2.71195e-16
1.02986e-16
1.15205e-17
3.921e-16
1.83491e-16
3.31549e-18
3.5294e-16
2.77876e-16
6.12508e-17
6.30705e-20
3.49413e-20
1.41104e-21
5.48031e-20
5.63237e-20
3.15376e-21
7.36201e-20
1.2974e-19
2.25366e-20
5.0363e-21
1.20555e-20
2.04782e-23
4.87211e-21
3.93796e-20
8.4117e-21
2.19091e-20
1.11938e-19
7.61414e-20
2.62158e-22
8.55925e-27
2.10509e-31
7.1045e-23
6.62802e-25
1.29998e-27
1.9935e-21
1.23178e-23
2.36636e-26
6.7117e-25
3.80585e-27
5.8831e-31
1.34883e-23
6.75697e-24
2.43994e-28
1.6555e-21
1.0977e-22
4.1115e-26
2.03584e-23
2.50382e-26
2.70161e-30
1.7102e-21
3.8079e-25
2.81229e-29
6.02743e-20
1.03616e-21
6.44027e-26
2.4018e-30
1.2549e-25
6.16384e-21
2.56918e-30
1.22016e-25
6.70795e-21
5.30527e-30
1.45805e-25
7.53457e-21
5.75595e-33
1.02111e-28
2.38574e-24
2.23205e-31
2.97882e-27
9.47194e-25
1.09215e-32
1.73617e-28
2.70325e-24
4.97535e-33
4.82933e-29
4.62379e-25
3.77323e-32
1.14186e-28
5.22002e-25
1.16102e-32
2.508e-28
2.40659e-24
9.40227e-39
1.50358e-38
1.45885e-34
2.20902e-38
2.24669e-38
9.51828e-35
2.97846e-38
3.21805e-38
3.04241e-34
4.88368e-40
1.39213e-41
2.76804e-37
1.75406e-38
8.3872e-40
9.35197e-36
3.52163e-39
3.84803e-41
6.13932e-37
1.77404e-42
1.75219e-42
1.00352e-37
9.54238e-39
9.74385e-41
1.83766e-36
6.17943e-42
5.40749e-42
2.56311e-37
2.05694e-43
5.14262e-44
4.0626e-43
4.16462e-39
3.63196e-42
1.77642e-41
4.80157e-43
1.4223e-43
1.83654e-42
2.67858e-44
6.76644e-45
1.18776e-45
2.17993e-39
3.43249e-40
3.94882e-41
2.06771e-44
6.58987e-45
7.49474e-46
3.56644e-45
7.13642e-46
8.58583e-47
1.02348e-39
2.00171e-40
2.47209e-41
6.35453e-45
1.29669e-45
1.53604e-46
1.53503e-35
1.38123e-38
5.22026e-39
3.38124e-31
4.0788e-34
3.53509e-34
4.95879e-30
1.25384e-33
9.10437e-34
4.04993e-35
5.0542e-39
6.59794e-40
8.18493e-32
1.27921e-34
1.64091e-34
2.11536e-30
2.66763e-34
4.99477e-34
7.52313e-35
2.02872e-39
3.38031e-41
1.86279e-31
2.6837e-35
4.91674e-36
1.60436e-30
9.17006e-35
1.9294e-35
1.09314e-39
8.90299e-41
1.4494e-41
7.74658e-36
5.71356e-37
1.7685e-37
1.28135e-35
2.18871e-39
2.11396e-40
2.37267e-41
2.78787e-42
1.07859e-42
3.45977e-36
2.22816e-37
1.25081e-37
5.54989e-41
2.10555e-42
1.47653e-42
4.53524e-42
3.44963e-43
2.19168e-43
1.36171e-36
9.72829e-38
6.02392e-38
8.07481e-42
6.31582e-43
4.18042e-43
)
;

boundaryField
{
    fuel
    {
        type            fixedValue;
        value           uniform 0;
    }
    primary_air
    {
        type            fixedValue;
        value           uniform 0.23;
    }
    Secondary_air_RHS
    {
        type            fixedValue;
        value           uniform 0.23;
    }
    Secondary_air_LHS
    {
        type            fixedValue;
        value           uniform 0.23;
    }
    outlet
    {
        type            inletOutlet;
        inletValue      uniform 0;
        value           nonuniform List<scalar> 
18
(
0
1.36171e-36
0
0
9.72829e-38
0
0
6.02392e-38
0
0
1.02348e-39
0
0
2.00171e-40
0
0
2.47209e-41
0
)
;
    }
    stove_body
    {
        type            fixedValue;
        value           uniform 0;
    }
    frontAndBack
    {
        type            empty;
    }
}


// ************************************************************************* //
