/*--------------------------------*- C++ -*----------------------------------*\
  =========                 |
  \\      /  F ield         | OpenFOAM: The Open Source CFD Toolbox
   \\    /   O peration     | Website:  https://openfoam.org
    \\  /    A nd           | Version:  6
     \\/     M anipulation  |
\*---------------------------------------------------------------------------*/
FoamFile
{
    version     2.0;
    format      ascii;
    class       volScalarField;
    location    "1.5";
    object      p;
}
// * * * * * * * * * * * * * * * * * * * * * * * * * * * * * * * * * * * * * //

dimensions      [1 -1 -2 0 0 0 0];

internalField   nonuniform List<scalar> 
297
(
117967
117967
117967
196525
196525
196525
117967
117967
117967
117967
117967
117967
196525
196525
196525
117967
117967
117967
117967
117967
117967
196525
196525
196525
117967
117967
117967
97901.4
97852.1
97838.3
162745
162725
162810
97881.4
97827.7
97816.2
98214
97717.1
97794.7
162403
162512
162331
98196.8
97694.3
97741.9
97532.1
96823.3
96942
158665
160785
158678
97571.7
96825.6
96921.3
95343.7
96679.9
95625.2
160158
159712
160276
95306.9
96650.6
95726.7
97613.1
97551.7
97369.2
162617
161974
162272
97600.5
97545.8
97457.7
97533.2
97699.5
97560.8
162448
162611
162542
97476.9
97669.2
97672.8
87998.4
96136.2
90667.4
144463
157815
148418
87832.1
96119
91036.3
87625.1
96147.7
90479
143346
157749
147846
87440.8
96125.6
90913.9
88297.2
96246.8
91021.5
144109
158149
148606
88117
96220.3
91509
97776
97833.6
97756.2
162698
162768
162701
97705.6
97775.3
97732.4
97821.1
97833.6
97792.6
162792
162794
162765
97771.4
97775.7
97725.4
97828.2
97825.6
97792.8
162816
162803
162794
97780.5
97769.5
97724.8
97844.7
97907.3
98055.7
162764
162806
162854
97783.9
97871.9
98051
97792.2
97805.7
97910.5
162766
162768
162784
97734.6
97782.7
97900.2
97734.3
97676.1
97681.3
162792
162769
162742
97729.9
97726.3
97715.2
98220.8
97994.2
97888.3
162960
162854
162798
98226.2
97969.3
97850.7
97995.9
97871.5
97835.6
162823
162788
162798
97978.6
97832
97792.6
97717.9
97744.5
97796.5
162743
162789
162821
97675.4
97698.5
97748.4
98417.4
98449.4
98412.9
163239
163245
163142
98449.7
98483.5
98437.5
98365.1
98372.7
98232.5
163071
163073
162973
98395.4
98402.7
98243.1
98290.4
98310.8
98102.2
162819
162870
162784
98317.7
98340
98101.5
97507.9
97474.3
97437.6
161669
161688
161610
97491
97453.7
97415
93287.9
93250.5
93258.9
154378
154370
154365
93260.6
93222.7
93233.3
86457.4
86451.6
86453.2
139158
139145
139130
86431.2
86425
86426.1
98251.6
98393.8
98455.6
162921
162971
163007
98108
98030.3
97984.5
98123.4
98282.6
98359.6
162851
162907
162942
98008.3
97984.7
97956.7
97993.7
98178.3
98268.5
162766
162809
162829
97934.3
97984.4
97956.5
97536.7
97612.1
97656.2
162052
162097
162094
97710.7
97756.3
97776.9
93590.2
93560.8
93551.6
155211
155215
155212
93892.6
93894.1
93917.2
86970.9
86970.5
86971.3
140021
140029
140027
87127.4
87128.3
87133.8
)
;

boundaryField
{
    fuel
    {
        type            zeroGradient;
    }
    primary_air
    {
        type            zeroGradient;
    }
    Secondary_air_RHS
    {
        type            zeroGradient;
    }
    Secondary_air_LHS
    {
        type            zeroGradient;
    }
    outlet
    {
        type            totalPressure;
        rho             rho;
        psi             none;
        gamma           1;
        p0              uniform 100000;
        value           nonuniform List<scalar> 
18
(
90268.1
100000
90496.1
90248.4
100000
90492.9
90248.1
100000
90513.7
89849.6
100000
89822.9
89819.6
100000
89792.2
89834.3
100000
89807.2
)
;
    }
    stove_body
    {
        type            zeroGradient;
    }
    frontAndBack
    {
        type            empty;
    }
}


// ************************************************************************* //
