/*--------------------------------*- C++ -*----------------------------------*\
  =========                 |
  \\      /  F ield         | OpenFOAM: The Open Source CFD Toolbox
   \\    /   O peration     | Website:  https://openfoam.org
    \\  /    A nd           | Version:  6
     \\/     M anipulation  |
\*---------------------------------------------------------------------------*/
FoamFile
{
    version     2.0;
    format      ascii;
    class       volVectorField;
    location    "1.5";
    object      U;
}
// * * * * * * * * * * * * * * * * * * * * * * * * * * * * * * * * * * * * * //

dimensions      [0 1 -1 0 0 0 0];

internalField   nonuniform List<vector> 
297
(
(19.0678 0.0117813 0.28275)
(19.0694 -0.00114099 0.251427)
(19.0679 -0.0129836 0.282821)
(-1.76146e-08 -0.0155524 0.264893)
(-4.8223e-08 0.00105984 0.251772)
(-7.39464e-08 0.0165042 0.26438)
(-19.0678 0.0117779 0.282746)
(-19.0694 -0.00114286 0.251426)
(-19.0679 -0.0129846 0.282822)
(19.0678 0.00611275 0.295797)
(19.0698 -0.000869607 0.269196)
(19.0678 -0.00717595 0.296678)
(-1.81293e-08 -0.0466594 -0.0553757)
(-4.8952e-08 0.000430272 0.175658)
(-7.47361e-08 0.0469991 -0.0553911)
(-19.0678 0.00611273 0.29579)
(-19.0698 -0.000868251 0.269195)
(-19.0678 -0.00717609 0.296678)
(19.0575 -0.0232473 0.498449)
(19.0557 -0.000681577 0.44716)
(19.0576 0.0225445 0.49875)
(-1.30666e-08 -0.032795 0.338041)
(-4.85588e-08 0.00118191 0.134884)
(-5.25838e-08 0.0327534 0.336514)
(-19.0575 -0.0232478 0.498442)
(-19.0557 -0.00070046 0.447161)
(-19.0576 0.022541 0.498755)
(77.243 -1.67799 -5.78695)
(48.5332 8.46066 7.15138)
(29.6513 2.74114 11.2976)
(-0.00127572 -0.128168 8.84862)
(-0.00160355 0.236411 5.94253)
(-0.000838446 2.59727 11.3081)
(-77.6015 -1.25783 -5.98319)
(-52.4286 8.08794 6.44092)
(-25.1633 5.78514 10.076)
(140.609 -17.5327 43.2826)
(107.964 1.29029 48.9612)
(88.2919 -18.507 36.3331)
(-0.00410689 16.6913 153.728)
(-0.00169921 3.57905 67.7744)
(-0.00594781 -25.4795 100.175)
(-147.767 -19.5013 48.7466)
(-106.26 0.551325 50.5703)
(-82.2209 -18.3949 44.2758)
(137.948 -80.2892 12.1659)
(103.967 27.5291 126.88)
(86.8846 1.37248 -21.8785)
(0.00815421 -45.8526 191.591)
(0.000214415 -10.5121 -3.86628)
(-0.00267498 18.7347 138.155)
(-144.845 -86.4475 21.3134)
(-103.33 29.238 128.524)
(-82.8555 -1.60481 -20.6335)
(85.3557 -44.2664 -165.452)
(51.6991 0.176538 -32.7083)
(55.2577 18.2973 -110.089)
(-0.010591 -79.1348 23.6161)
(-0.00302978 3.31647 -88.3394)
(0.0212029 -0.262257 17.8991)
(-88.9034 -46.229 -168.793)
(-55.9273 -0.726476 -30.6256)
(-52.2846 20.1657 -96.7435)
(76.3812 12.4261 -121.109)
(25.8256 9.19333 -63.2686)
(24.0241 -27.9721 -69.9576)
(-0.00346903 -42.7002 -78.4887)
(-0.000496071 -9.71638 -63.4687)
(0.0109872 -16.7556 -64.2535)
(-82.1167 3.04127 -121.322)
(-30.0148 14.9836 -66.7666)
(-16.3225 -14.2858 -55.7999)
(12.9447 21.4288 -16.6393)
(12.9345 6.91056 -12.9915)
(12.9327 -15.7014 -16.7374)
(-0.00168622 12.2588 -14.2388)
(-0.000906363 0.306336 -15.4399)
(0.00334275 -10.8648 -14.4938)
(-12.9521 19.7278 -15.6865)
(-12.9379 14.5824 -13.0056)
(-12.9251 -3.03854 -13.6755)
(123.75 -86.544 -343.728)
(90.3001 18.8794 121.841)
(79.844 -0.267967 -228.69)
(-0.0409575 -63.5544 278.084)
(-0.00165756 -15.1588 -104.344)
(0.0606308 12.1276 200.652)
(-129.433 -93.8359 -352.258)
(-89.7693 19.3362 123.759)
(-76.2228 -2.84628 -216.197)
(109.333 -57.848 -293.394)
(93.048 13.3434 116.438)
(66.1049 10.0175 -189.857)
(-0.0510297 -59.2958 310.011)
(-0.00218219 -10.2821 -106.881)
(0.0823277 14.2065 226.086)
(-114.128 -61.9912 -301.493)
(-92.611 12.9036 118.599)
(-62.5548 9.30921 -176.687)
(96.0236 -63.7725 -258.886)
(91.77 -1.30158 99.2307)
(62.6239 8.07939 -168.574)
(-0.0531727 -83.8918 350.491)
(-0.00279391 -6.19872 -101.858)
(0.100632 5.27299 243.409)
(-100.212 -67.8398 -265.478)
(-91.2025 -4.55768 102.047)
(-59.6055 7.61811 -155.114)
(12.8805 30.9571 -9.93464)
(12.8973 -9.28543 -8.06119)
(12.8655 -30.4193 -7.20637)
(-0.00209637 20.378 -8.96039)
(-0.00173485 -0.953777 -6.73066)
(-0.000705723 -17.1753 -7.17337)
(-12.8818 32.446 -10.4206)
(-12.9137 12.1139 -7.45104)
(-12.8776 -24.2239 -5.35856)
(12.9347 19.9084 -0.468526)
(12.9254 -7.61773 0.394928)
(12.9087 -21.5191 -2.29829)
(-0.00148334 8.40205 -2.61594)
(-0.00172426 -2.73785 -3.44322)
(-0.00200212 -8.88436 -2.19339)
(-12.9355 19.5904 -1.17166)
(-12.9198 -7.03898 0.158808)
(-12.9144 -18.2762 -0.345758)
(12.9269 -4.86891 -3.71118)
(12.9261 -1.97422 0.329729)
(12.9256 -1.66833 -4.27367)
(-0.00142271 0.864663 -5.38616)
(-0.00167437 0.141849 -1.19676)
(-0.00202632 -2.86847 -4.1405)
(-12.9488 -1.39075 -5.16948)
(-12.9293 -2.72342 1.7466)
(-12.9343 1.58298 1.63375)
(12.8609 -31.8419 -3.49385)
(12.9095 -29.2062 -5.8171)
(12.8953 -26.2786 -7.6623)
(-0.00180683 -20.1445 -4.22574)
(-0.00105404 -18.4853 -4.43146)
(-0.000141817 -14.2367 -4.40654)
(-12.8719 -24.4501 -5.08496)
(-12.9029 -19.527 -8.14636)
(-12.8761 -12.7058 -10.1441)
(12.8856 -25.7327 -0.84417)
(12.9219 -26.139 -6.49963)
(12.8867 -23.5949 -11.1092)
(-0.00171058 -15.7362 1.63525)
(-0.000681889 -15.9852 1.83304)
(-0.000305933 -13.4685 2.33725)
(-12.9093 -19.193 -2.43906)
(-12.9154 -18.6194 -6.03641)
(-12.8506 -14.9038 -13.314)
(12.9324 -11.3612 -4.2212)
(12.9249 -16.2895 -11.6238)
(12.8659 -20.0764 -15.511)
(-0.000131037 -8.24285 0.212957)
(0.00149592 -9.14812 0.965158)
(0.00100783 -10.9213 -0.2211)
(-12.9293 3.60903 5.84835)
(-12.9199 -2.96263 -2.85565)
(-12.8578 -13.5107 -16.0644)
(12.8887 22.8156 -12.3732)
(12.9191 28.2418 -9.13659)
(12.8779 32.7081 -6.36433)
(0.000159597 17.5685 -6.30991)
(-0.000743569 22.9642 -6.24109)
(-0.00112067 24.8455 -5.58156)
(-12.8886 23.932 -12.9635)
(-12.9256 29.9671 -9.90595)
(-12.8775 34.7763 -6.89922)
(12.8785 21.7694 -11.5845)
(12.9377 25.4584 -5.31618)
(12.9211 24.6161 -0.346591)
(-0.000515068 15.0097 1.61781)
(-0.00117775 18.6124 1.94036)
(-0.00128189 18.1904 2.02309)
(-12.8788 22.9917 -12.4063)
(-12.9461 27.0322 -5.7804)
(-12.9137 26.2641 -0.0893411)
(12.8759 18.7674 -17.4152)
(12.9435 13.3582 -13.1404)
(12.952 1.80457 -4.49499)
(-0.00126857 9.20783 0.503234)
(-0.00137404 6.79281 1.17796)
(-0.00143833 4.21323 -0.838422)
(-12.8811 19.7953 -18.3411)
(-12.9522 13.7485 -12.6187)
(-12.9615 3.95538 -3.79265)
(12.9059 -4.0939 -6.87086)
(12.9083 2.21587 -16.9832)
(12.8771 13.3106 -20.8341)
(0.000959863 -3.14638 0.425601)
(0.00101338 3.49271 -7.958)
(0.000730567 11.1679 -8.55909)
(-12.9141 -4.05734 -7.43242)
(-12.9083 2.77079 -17.7357)
(-12.8817 13.9544 -21.8474)
(12.9038 0.816137 5.03413)
(12.9053 4.30892 -19.9585)
(12.875 15.0465 -22.1782)
(0.000903222 -1.39541 10.1955)
(0.000891132 4.49199 -6.09921)
(0.000318633 10.713 -4.99575)
(-12.9043 1.37901 5.25994)
(-12.9046 4.48725 -20.9844)
(-12.8809 15.7084 -23.4624)
(12.8908 1.84243 -0.365411)
(12.9927 3.46422 -22.7833)
(12.9228 11.111 -27.9575)
(0.000811793 -1.51195 13.9108)
(0.00086681 4.2736 -9.50572)
(-2.1182e-05 6.66935 -6.54145)
(-12.8893 2.1208 -1.05284)
(-12.9967 3.74248 -23.7542)
(-12.9222 11.3066 -29.2278)
(12.8909 3.73445 -3.37572)
(12.9186 2.82482 -31.8076)
(12.9112 -9.96904 -47.5673)
(-0.000507565 1.37214 46.8157)
(-0.000618095 2.37957 26.221)
(-0.00067867 -11.8589 16.3582)
(-12.8951 4.05643 -3.77682)
(-12.923 2.49335 -32.962)
(-12.9148 -9.93594 -47.8181)
(12.756 0.570235 -99.9739)
(12.7477 -0.00958802 -105.928)
(12.7596 5.8857 -100.408)
(-0.000851673 1.34359 72.0581)
(-0.000865473 1.85659 62.5019)
(-0.00080257 0.389313 55.2723)
(-12.7573 0.424691 -100.487)
(-12.7509 0.108545 -106.508)
(-12.7612 5.85649 -101.501)
(12.2505 0.110886 -140.174)
(12.2439 0.0808286 -140.404)
(12.2436 -0.0585842 -140.291)
(-0.000868357 0.819413 183.233)
(-0.000878354 1.19545 186.851)
(-0.000898558 0.378057 186.594)
(-12.2532 0.117968 -140.379)
(-12.2468 0.0987426 -140.614)
(-12.2465 -0.0476483 -140.499)
(12.8798 -18.2891 -10.6845)
(12.8646 -11.8834 -9.46165)
(12.8661 -8.42039 -12.8074)
(-0.00427408 -10.8317 -5.0794)
(-0.0108204 -5.0898 -3.37307)
(-0.0140184 -1.64775 -4.01787)
(-12.8712 -7.12132 -14.4313)
(-12.8873 -1.76511 -9.30235)
(-12.898 8.21742 -3.47754)
(12.8712 -18.2278 -17.8619)
(12.8677 -10.46 -15.1474)
(12.872 -5.48209 -19.5242)
(-0.00342341 -11.5674 -0.566668)
(-0.0088676 -5.73358 1.73376)
(-0.0119897 -0.761612 1.65821)
(-12.8538 -10.3304 -19.3486)
(-12.8708 -8.23485 -10.8526)
(-12.8956 7.92462 0.779319)
(12.9063 -13.5424 -23.2074)
(12.9107 -9.28867 -20.297)
(12.9291 -4.26854 -22.7548)
(-0.0017685 -10.1692 -2.40081)
(-0.00577405 -7.77433 -2.15235)
(-0.00929143 -1.36896 -0.544766)
(-12.9094 -6.79953 -24.9772)
(-12.9082 -9.18495 -14.4522)
(-12.8906 1.82269 5.69335)
(12.9064 8.57579 -36.5413)
(12.9024 2.49806 -34.0724)
(12.9001 1.83398 -33.916)
(0.00519901 7.58769 23.4558)
(0.0043105 -1.65378 27.1986)
(0.00359553 -1.45899 30.9537)
(-12.8816 5.2679 -28.5201)
(-12.8713 -2.68187 -19.6836)
(-12.8588 -2.96527 -2.07216)
(12.7633 -3.44485 -97.6598)
(12.7658 0.122064 -98.6247)
(12.7661 0.15608 -97.4365)
(0.00940615 0.898783 57.8201)
(0.0103597 -0.918308 60.6714)
(0.0113455 -0.555534 62.3639)
(-12.7302 -2.96275 -94.3421)
(-12.7211 -0.0813856 -96.9392)
(-12.726 -0.147092 -91.8094)
(12.2434 0.0263231 -136.935)
(12.2436 -0.00100541 -137.088)
(12.2453 -0.0134343 -137.091)
(0.00513643 0.22328 185.648)
(0.00517962 -0.488539 185.879)
(0.0053349 -0.217709 184.725)
(-12.2261 -0.00611178 -135.151)
(-12.2259 -0.128273 -135.176)
(-12.2276 -0.109639 -135.012)
)
;

boundaryField
{
    fuel
    {
        type            fixedValue;
        value           uniform (0 0 0.25);
    }
    primary_air
    {
        type            fixedValue;
        value           uniform (0 0 2.5);
    }
    Secondary_air_RHS
    {
        type            fixedValue;
        value           uniform (0 66.6667 0);
    }
    Secondary_air_LHS
    {
        type            fixedValue;
        value           uniform (0 -66.6667 0);
    }
    outlet
    {
        type            pressureInletOutletVelocity;
        value           nonuniform List<vector> 
18
(
(0 0 -136.935)
(0.00513643 0.22328 185.648)
(0 0 -135.151)
(0 0 -137.088)
(0.00517962 -0.488539 185.879)
(0 0 -135.176)
(0 0 -137.091)
(0.0053349 -0.217709 184.725)
(0 0 -135.012)
(0 0 -140.174)
(-0.000868357 0.819413 183.233)
(0 0 -140.379)
(0 0 -140.404)
(-0.000878354 1.19545 186.851)
(0 0 -140.614)
(0 0 -140.291)
(-0.000898558 0.378057 186.594)
(0 0 -140.499)
)
;
    }
    stove_body
    {
        type            noSlip;
    }
    frontAndBack
    {
        type            empty;
    }
}


// ************************************************************************* //
