/*--------------------------------*- C++ -*----------------------------------*\
  =========                 |
  \\      /  F ield         | OpenFOAM: The Open Source CFD Toolbox
   \\    /   O peration     | Website:  https://openfoam.org
    \\  /    A nd           | Version:  6
     \\/     M anipulation  |
\*---------------------------------------------------------------------------*/
FoamFile
{
    version     2.0;
    format      ascii;
    class       volScalarField;
    location    "1.5";
    object      Qdot;
}
// * * * * * * * * * * * * * * * * * * * * * * * * * * * * * * * * * * * * * //

dimensions      [1 -1 -3 0 0 0 0];

internalField   nonuniform List<scalar> 
297
(
-0.000130389
-0.000328117
-0.000130389
-0.000395455
0
-0.000260778
-0.000328117
0
-0.000130389
-0.000197728
-0.000328117
0
-0.000395455
0
-0.000395455
-0.000197728
-0.000328117
-0.000130389
-6.51945e-05
2.97474e-11
-6.51945e-05
0
-0.000262922
0
0
-0.000130389
9.51916e-10
-3.49819e-11
0
0
0
1.90383e-09
1.90383e-09
4.75958e-10
0
4.75958e-10
4.75958e-10
4.75958e-10
0
9.51916e-10
9.51916e-10
0
4.75958e-10
0
0
4.75958e-10
0
0
-8.74547e-12
0
-8.74547e-12
4.75958e-10
0
0
4.73771e-10
0
-1.09318e-12
0
0
4.75958e-10
4.75958e-10
0
-1.09318e-12
1.90383e-09
0
0
9.51915e-10
1.90383e-09
0
1.90383e-09
1.90383e-09
9.51916e-10
0
0
-8.14485e-21
0
0
-3.25794e-20
0
-8.14485e-21
0
0
0
0
9.51916e-10
0
9.51916e-10
0
0
0
0
4.75958e-10
4.75958e-10
4.75958e-10
1.90383e-09
4.75958e-10
4.75958e-10
4.75958e-10
0
0
4.75958e-10
0
0
1.90383e-09
4.75958e-10
4.75958e-10
4.75958e-10
0
0
0
0
0
0
7.61532e-09
-6.21403e-26
3.80766e-09
3.80766e-09
0
3.80766e-09
-3.03419e-29
7.61532e-09
-3.03419e-29
0
-7.58548e-30
0
0
0
3.80766e-09
-7.58548e-30
-1.85192e-33
-3.79274e-30
0
-7.4077e-33
0
0
3.80766e-09
0
0
0
0
7.61532e-09
3.80766e-09
-1.15745e-34
0
0
-2.82581e-38
-8.62369e-43
0
-1.80852e-36
0
-4.62981e-34
0
3.80766e-09
0
-5.65162e-38
-1.72474e-42
-3.61704e-36
7.61532e-09
0
-9.25962e-34
-5.65162e-38
0
-1.10383e-40
0
3.80766e-09
-2.20767e-40
0
0
3.80766e-09
3.80766e-09
3.80766e-09
-2.15592e-43
0
3.80766e-09
0
0
0
0
0
3.80766e-09
3.80766e-09
3.80766e-09
-9.0426e-37
-6.89896e-42
0
0
-4.31185e-43
-3.53227e-39
3.80766e-09
0
0
0
0
0
0
-5.01965e-53
3.80766e-09
0
0
0
3.80766e-09
-7.8432e-55
-1.28503e-50
-8.42158e-46
0
0
3.80766e-09
0
0
-6.57936e-48
0
-3.21258e-51
0
0
3.80766e-09
0
0
3.80766e-09
-2.50983e-53
0
0
0
0
3.80766e-09
0
0
0
0
0
0
0
0
0
3.80766e-09
-2.99195e-60
-4.78711e-59
-3.82969e-58
3.80766e-09
0
3.80766e-09
0
0
0
3.80766e-09
0
-1.00393e-52
0
-8.2242e-49
7.61532e-09
0
3.80766e-09
0
0
3.80766e-09
3.80766e-09
7.61532e-09
0
0
-5.26349e-47
-1.60629e-51
-7.8432e-55
0
0
3.80766e-09
0
0
0
-2.63174e-47
0
0
0
-3.13728e-54
3.80766e-09
0
-1.00393e-52
0
3.80766e-09
0
3.80766e-09
-3.06375e-57
0
-2.39356e-59
0
3.80766e-09
0
3.80766e-09
3.80766e-09
0
0
3.80766e-09
-5.98389e-60
3.80766e-09
0
3.80766e-09
0
0
-1.19678e-59
)
;

boundaryField
{
    fuel
    {
        type            calculated;
        value           uniform 0;
    }
    primary_air
    {
        type            calculated;
        value           uniform 0;
    }
    Secondary_air_RHS
    {
        type            calculated;
        value           uniform 0;
    }
    Secondary_air_LHS
    {
        type            calculated;
        value           uniform 0;
    }
    outlet
    {
        type            calculated;
        value           uniform 0;
    }
    stove_body
    {
        type            calculated;
        value           uniform 0;
    }
    frontAndBack
    {
        type            empty;
    }
}


// ************************************************************************* //
