/*--------------------------------*- C++ -*----------------------------------*\
  =========                 |
  \\      /  F ield         | OpenFOAM: The Open Source CFD Toolbox
   \\    /   O peration     | Website:  https://openfoam.org
    \\  /    A nd           | Version:  6
     \\/     M anipulation  |
\*---------------------------------------------------------------------------*/
FoamFile
{
    version     2.0;
    format      ascii;
    class       volScalarField;
    location    "1.5";
    object      T;
}
// * * * * * * * * * * * * * * * * * * * * * * * * * * * * * * * * * * * * * //

dimensions      [0 0 0 1 0 0 0];

internalField   nonuniform List<scalar> 
297
(
292.867
292.866
292.867
292.925
292.921
292.925
292.866
292.865
292.866
292.875
292.865
292.874
293.385
293.176
293.389
292.874
292.864
292.874
291.998
292.601
292.07
355.977
327.128
356.732
292.051
292.604
292.053
1592.99
1045.77
1656.79
706.87
515.804
770.067
1600.73
1048.65
1657.27
2276.88
2092.18
2381.32
1974.25
1079.95
2076.04
2277.55
2097.37
2389.79
2279.37
1856.25
2383.06
1602.7
889.553
1647.13
2280.04
1859.54
2391.6
1435.42
1109.13
1493.94
2459.26
818.724
2476.01
1436.69
1109.74
1494.27
697.4
458.678
781.152
1512.59
774.126
1470.96
697.826
458.865
780.904
302.925
303.252
303.024
303.412
303.327
303.458
303.222
303.403
303.251
2197.8
1850.75
2293.24
1786.07
817.455
1835.79
2192.27
1854.08
2307.76
1853.37
1842.27
1806.09
1913.15
817.059
2097.16
1853.94
1845.55
1811.94
1616.64
1819.53
1679.95
2403.7
817.858
2473.9
1617.77
1822.7
1685.09
302.575
303.579
302.541
303.234
303.829
303.225
302.875
303.68
302.884
303.366
303.483
303.314
303.59
303.979
303.663
303.469
303.634
303.518
303.566
303.391
303.417
304.078
304.164
304.167
303.617
303.549
303.555
302.375
302.439
302.615
302.948
302.979
303.136
302.726
302.803
302.991
303.166
303.041
303.061
303.48
303.483
303.626
303.387
303.268
303.309
303.578
303.467
303.272
304.169
304.144
304.149
303.712
303.604
303.427
302.619
302.417
302.365
303.187
303.049
303.018
302.96
302.773
302.701
303.148
303.121
303.247
303.559
303.445
303.448
303.279
303.237
303.359
303.344
303.526
303.655
304.036
304.036
304.072
303.398
303.574
303.701
302.911
302.982
302.785
303.792
303.679
303.396
303.539
303.516
303.169
302.93
303.163
303.006
304.157
303.991
303.793
303.477
303.455
303.18
302.79
303.051
302.994
304.467
304.219
304.171
303.337
303.215
303.057
302.728
302.99
302.882
305.086
304.279
304.515
303.15
302.982
302.915
299.663
299.642
299.667
302.042
301.651
303.438
299.663
299.64
299.666
292.474
292.508
292.552
290.9
290.981
291.272
292.474
292.507
292.552
302.766
303.017
302.917
303.37
303.64
303.79
303.202
303.551
303.571
302.906
303.084
302.848
303.892
304.104
304.298
303.206
303.484
303.502
302.887
303.004
302.797
304.295
304.318
304.516
303.065
303.22
303.35
302.777
302.977
302.734
304.639
304.324
305.107
302.928
302.996
303.163
299.678
299.653
299.673
303.54
301.691
302.068
299.677
299.652
299.673
292.556
292.512
292.479
291.321
291.014
290.925
292.556
292.511
292.478
)
;

boundaryField
{
    fuel
    {
        type            fixedValue;
        value           uniform 293;
    }
    primary_air
    {
        type            fixedValue;
        value           uniform 293;
    }
    Secondary_air_RHS
    {
        type            fixedValue;
        value           uniform 293;
    }
    Secondary_air_LHS
    {
        type            fixedValue;
        value           uniform 293;
    }
    outlet
    {
        type            inletOutlet;
        inletValue      uniform 293;
        value           nonuniform List<scalar> 
18
(
293
291.321
293
293
291.014
293
293
290.925
293
293
290.9
293
293
290.981
293
293
291.272
293
)
;
    }
    stove_body
    {
        type            fixedValue;
        value           uniform 293;
    }
    frontAndBack
    {
        type            empty;
    }
}


// ************************************************************************* //
