/*--------------------------------*- C++ -*----------------------------------*\
  =========                 |
  \\      /  F ield         | OpenFOAM: The Open Source CFD Toolbox
   \\    /   O peration     | Website:  https://openfoam.org
    \\  /    A nd           | Version:  6
     \\/     M anipulation  |
\*---------------------------------------------------------------------------*/
FoamFile
{
    version     2.0;
    format      ascii;
    class       volScalarField;
    location    "1";
    object      O2;
}
// * * * * * * * * * * * * * * * * * * * * * * * * * * * * * * * * * * * * * //

dimensions      [0 0 0 0 0 0 0];

internalField   nonuniform List<scalar> 
297
(
0
0
0
0
0
0
0
0
0
0
0
0
0
0
0
0
0
0
0
0
0
0
0
0
0
0
0
0.12702
0.0487683
0.126216
0.186939
0.171473
0.185281
0.127211
0.0486672
0.126687
0.0320562
0.000348446
0.0322197
0.113183
0.116085
0.112871
0.0320818
0.000302227
0.0320801
0
0
0
0.0757098
0.0195345
0.0753959
0
0
0
0
4.98255e-11
0
0
0
0
0
0
0
0
4.18159e-15
0
7.55978e-19
2.94549e-14
5.30698e-19
2.36391e-15
4.89818e-15
2.40957e-15
2.69871e-15
2.14695e-15
2.79297e-15
6.09821e-15
1.97485e-14
6.2245e-15
2.7247e-15
1.97196e-15
2.77832e-15
0
0
0
0.0296629
2.22631e-07
0.0293371
0
0
0
0
0
0
0.0126298
0
0.0121813
0
0
0
0
0
0
0
0
0
0
0
0
1.96871e-15
1.3875e-15
2.00452e-15
5.89619e-15
1.07233e-15
5.98396e-15
1.98585e-15
1.4045e-15
2.00094e-15
1.05432e-15
9.77386e-16
1.06529e-15
5.31431e-15
1.07387e-15
5.48239e-15
1.02305e-15
1.02525e-15
1.06537e-15
8.76361e-16
8.91664e-16
9.06778e-16
1.44801e-15
1.09745e-15
1.35474e-15
8.5506e-16
8.94204e-16
9.20908e-16
1.15469e-15
6.56946e-16
2.3674e-16
5.98387e-15
5.98832e-15
5.9947e-15
1.15571e-15
6.57015e-16
2.3666e-16
1.08047e-15
2.93912e-16
1.71269e-16
4.53056e-15
4.5832e-15
5.39676e-15
1.07417e-15
2.9328e-16
1.70738e-16
8.91023e-16
2.77736e-16
1.95861e-16
1.28073e-15
1.16566e-15
3.21441e-15
9.05946e-16
2.77594e-16
1.95517e-16
3.4186e-16
5.46276e-16
1.13969e-15
5.9064e-15
5.90266e-15
5.89792e-15
2.51939e-16
4.61164e-16
1.16008e-15
1.80637e-16
2.91441e-16
1.05364e-15
5.28609e-15
4.46804e-15
4.41936e-15
1.56442e-16
2.77592e-16
1.05674e-15
2.29891e-16
2.91233e-16
8.50099e-16
2.99943e-15
1.15055e-15
1.34818e-15
1.79974e-16
2.56055e-16
8.11819e-16
1.31485e-18
2.10876e-17
2.14588e-17
3.42278e-18
3.42461e-18
2.04288e-15
1.44183e-18
2.50966e-17
2.5312e-17
3.77669e-18
5.56465e-17
6.94855e-17
3.91196e-18
4.57279e-18
3.28779e-15
4.14093e-18
6.68748e-17
7.67939e-17
3.77633e-18
1.01275e-16
2.1233e-16
4.09359e-18
1.3812e-15
3.24153e-15
4.13981e-18
1.2192e-16
1.74267e-16
3.77492e-18
1.85249e-17
1.08879e-16
4.08098e-18
6.1103e-16
2.04481e-15
4.13778e-18
1.2989e-17
8.79615e-17
4.30264e-18
1.9952e-17
4.31479e-17
3.6946e-17
4.99142e-16
1.36357e-15
4.45309e-18
1.38197e-17
3.48067e-17
2.93917e-22
2.1392e-21
4.16799e-21
3.79325e-17
2.44959e-16
5.51246e-16
5.39751e-22
2.12278e-21
4.14547e-21
2.25423e-17
2.22789e-17
4.27725e-18
2.10118e-15
4.59671e-18
4.50059e-18
2.24225e-17
2.22225e-17
4.55499e-18
7.15504e-17
5.81268e-17
4.27938e-18
3.36918e-15
5.02349e-18
4.52643e-18
7.10354e-17
5.7625e-17
4.55464e-18
2.03808e-16
1.05027e-16
4.27849e-18
3.28838e-15
1.39682e-15
4.53981e-18
2.05942e-16
1.04118e-16
4.5526e-18
1.02468e-16
1.59546e-17
4.2763e-18
1.83929e-15
4.4463e-16
4.51075e-18
1.0422e-16
1.59206e-17
4.5497e-18
4.04792e-17
1.81363e-17
4.28786e-18
1.41674e-15
4.40642e-16
3.61212e-17
4.12544e-17
1.80976e-17
4.53703e-18
4.43676e-21
2.12876e-21
2.90499e-22
5.91313e-16
2.38387e-16
3.7151e-17
4.43921e-21
2.12901e-21
5.34922e-22
)
;

boundaryField
{
    fuel
    {
        type            fixedValue;
        value           uniform 0;
    }
    primary_air
    {
        type            fixedValue;
        value           uniform 0.23;
    }
    Secondary_air_RHS
    {
        type            fixedValue;
        value           uniform 0.23;
    }
    Secondary_air_LHS
    {
        type            fixedValue;
        value           uniform 0.23;
    }
    outlet
    {
        type            inletOutlet;
        inletValue      uniform 0;
        value           nonuniform List<scalar> 
18
(
0
5.91313e-16
0
0
2.38387e-16
0
0
3.7151e-17
0
0
3.79325e-17
0
0
2.44959e-16
0
0
5.51246e-16
0
)
;
    }
    stove_body
    {
        type            fixedValue;
        value           uniform 0;
    }
    frontAndBack
    {
        type            empty;
    }
}


// ************************************************************************* //
