/*--------------------------------*- C++ -*----------------------------------*\
  =========                 |
  \\      /  F ield         | OpenFOAM: The Open Source CFD Toolbox
   \\    /   O peration     | Website:  https://openfoam.org
    \\  /    A nd           | Version:  6
     \\/     M anipulation  |
\*---------------------------------------------------------------------------*/
FoamFile
{
    version     2.0;
    format      ascii;
    class       surfaceScalarField;
    location    "1";
    object      phi;
}
// * * * * * * * * * * * * * * * * * * * * * * * * * * * * * * * * * * * * * //

dimensions      [1 0 -1 0 0 0 0];

internalField   nonuniform List<scalar> 
675
(
-7.16386e-07
-0.000203721
0.000322974
7.56963e-07
-0.000209809
0.000326787
-0.000203559
0.000322866
7.33933e-06
0.000203721
-0.000220789
-7.88052e-06
0.00020981
-0.000210655
0.00020356
-0.000221035
-7.15824e-07
0.000322957
7.6119e-07
0.000326779
0.000322849
-1.42945e-06
1.6128e-05
0.000308285
1.49413e-06
1.09585e-05
0.000312834
1.61677e-05
0.000308198
2.88321e-06
-1.61267e-05
-0.000190901
-2.94455e-06
-1.09563e-05
-0.00018338
-1.61649e-05
-0.000191148
-1.42741e-06
0.000308267
1.49689e-06
0.000312825
0.000308179
-5.10666e-06
0.000195022
5.28395e-06
0.000183889
0.000195106
5.2216e-06
-0.000195024
-5.17349e-06
-0.00018389
-0.000195107
-5.10303e-06
5.28518e-06
-0.00617805
0.00600951
0.00336925
0.00623258
0.00276754
-0.0119769
0.00601067
0.00342188
0.000829395
-0.00600557
0.0164429
-0.000827241
-0.0027371
0.0124175
-0.00600575
0.0164453
-0.00621208
0.00340697
0.00624977
-0.0119987
0.00344388
-0.000169999
0.00851843
-0.00498113
-0.000172509
0.00435564
-0.0163705
0.00853038
-0.00528215
-0.00169242
-0.00853017
0.0351842
0.00143452
-0.00446857
0.0181146
-0.00853033
0.0349421
-0.000117348
-0.00500399
-0.000152545
-0.0163904
-0.00523682
0.00422969
0.0168982
-0.0261142
-0.00366776
0.00843207
-0.0169773
0.017072
-0.0260272
-0.0364769
-0.016946
0.105503
0.0364329
-0.00851553
-0.0378507
-0.0170205
0.105466
0.00412726
-0.0260746
-0.00382189
-0.0168881
-0.026077
-0.00411256
-0.00895439
-0.0210945
0.0341636
0.00422915
0.00800661
-0.0307759
0.0144152
-0.00894036
-0.0208849
0.0340533
0.0193061
0.00894121
0.0429703
-0.08017
-0.0193952
-0.00801201
0.00279454
0.0519261
0.0089401
0.042932
-0.0802097
-0.00415217
-0.0210249
0.0341185
0.00421254
-0.0307671
0.0144016
-0.0209522
0.0341031
0.0015362
-0.00578359
-0.0168445
-0.00147244
-0.00276975
-0.0249965
-0.00573876
-0.0166191
0.00882073
0.00575821
0.022608
-0.00883089
0.00275645
0.0149199
0.00574706
0.0226141
0.00151695
-0.0167858
-0.00148564
-0.025009
-0.0166898
0.00245122
-0.00288512
-0.0164125
-0.00293845
-0.0010062
-0.0186029
-0.00309208
-0.0164671
-0.0101133
0.00294075
0.0268927
0.01042
0.00100007
-0.00761769
0.00303121
0.0269159
0.0025948
-0.0164411
-0.00279646
-0.0186116
-0.016445
0.000698597
-0.00245188
-0.0286049
-0.000662549
-0.00183202
-0.0137833
-0.00241526
-0.0285185
-0.00327692
0.0024437
0.0970663
0.00327269
0.00174888
-0.0479814
0.00242485
0.0970798
0.000694187
-0.0285661
-0.000673324
-0.0137703
-0.0285665
0.000193284
-0.00128136
-0.0317575
-0.000166689
-0.00107698
-0.0123394
-0.00126371
-0.0316621
-0.00151211
0.00127849
0.089213
0.00150742
0.00104312
-0.053118
0.00126696
0.0892511
0.000190236
-0.0317166
-0.000174078
-0.0123685
-0.0317124
9.67555e-05
-0.0019288
-7.58122e-05
0.00225187
-0.00192272
-0.00162931
0.00192614
0.00162344
-0.00219541
0.00192485
8.97377e-05
-7.73166e-05
0.0045267
-0.00352738
-0.00479758
-0.0126141
-0.00462593
-0.000946033
-0.00850462
-0.00358286
-0.0048621
-0.0126474
-0.00128866
0.00354264
0.0094619
0.0116494
0.00133673
0.000945959
-0.0121339
0.00357109
0.00937361
0.011727
0.0045536
-0.00481788
-0.0126338
-0.00460039
-0.0085096
-0.00484126
-0.0126315
0.00436813
0.000167627
0.0010203
-0.0103547
-0.00449841
0.0016431
-0.00128133
0.000151039
0.000882143
-0.0103926
-0.000827914
-0.000166739
0.000743255
0.00988104
0.000855723
-0.00164337
-0.0105296
-0.000152294
0.000598489
0.00993615
0.00439105
0.00099805
-0.0103732
-0.00447896
-0.00128067
0.000909106
-0.01038
0.00227059
0.00242821
-0.00367843
-0.00213398
0.00312304
0.00244146
-0.00369207
0.00219247
-0.00243389
0.0034132
-0.00208696
-0.00312562
-0.00243825
0.00339337
0.00224445
-0.00367965
-0.00215943
-0.00368684
-0.0122836
-0.00189967
0.0015372
-0.0131239
-0.000737195
0.00158035
-0.000786043
0.00141484
-0.0137491
0.00799906
0.00190024
-7.16744e-05
0.00650965
0.000738919
1.3175e-05
0.000788603
0.00345253
0.00148207
-0.0122709
0.00153837
-0.0131155
0.00158087
0.00141445
-0.0137449
-0.0100671
-0.00187844
0.00309143
-0.0103042
-0.000446067
0.00226625
-0.000162729
0.000828753
-0.00955176
0.00900997
0.00187955
-0.00290328
0.00749597
0.000447177
0.000633883
0.000164397
0.0062006
0.00442018
-0.0100571
0.00309354
-0.0102988
0.00226698
0.000829694
-0.00955335
-0.000920462
0.000320887
0.000513431
0.000834746
0.000482054
0.000863363
0.00112929
-0.00031825
0.00342938
-0.000831975
-0.000476872
0.0105883
-0.000912866
0.000519587
0.000869184
0.0130977
-0.000789755
0.00141082
-0.0137188
0.0122586
-0.000733038
0.00157217
-0.00189301
0.00153748
-0.00644772
0.000786178
0.00341418
0.00145744
-0.00790424
0.000731797
-8.48056e-06
0.00189748
-4.5458e-05
0.0131221
0.00140534
-0.0137415
0.0122788
0.00157487
0.00154239
0.0102833
-0.000163023
0.000828996
-0.00953842
0.0100405
-0.000443098
0.00225803
-0.00187401
0.00309727
-0.00745447
0.000157074
0.00616442
0.00438396
-0.00895671
0.000441858
0.000608697
0.00187855
-0.00287375
0.0102959
0.000815416
-0.00954926
0.0100543
0.00225831
0.00310177
-0.000529805
0.000475296
0.000883514
0.000898607
0.000829617
0.000317424
-0.00344326
-0.000480041
0.0105628
-0.00117517
-0.000829909
-0.000318325
-0.000532002
0.000867098
0.000896229
0.00845427
0.000574769
-0.00902903
0.0138067
-0.000765414
-0.00458698
0.000189568
-0.000101652
0.00603856
-0.000575744
-0.00488821
0.00238221
0.000758452
0.0021323
-0.000190162
0.00421923
0.0084619
-0.00903784
0.0138227
-0.0046026
-0.000109181
0.00607288
0.000446744
-0.0155487
0.00927074
-0.000413774
-0.00737109
0.000527368
-0.000896699
0.00493959
-0.000451604
-0.00892966
3.22429e-05
0.000413745
0.00621191
-0.000528342
0.009691
0.00607091
-0.0155606
0.00927317
-0.00739136
-0.000913864
0.00550815
0.00275878
-0.0238157
0.00494067
-0.00100889
-0.00579477
-8.84534e-05
0.00501591
0.00186915
-0.00276745
-0.00527281
-0.00598215
0.00101951
0.0120346
8.31628e-05
0.0140999
0.00550253
-0.0238307
0.00496238
-0.00583192
0.00499857
0.00242068
0.00776106
-0.0339985
0.00571385
0.00343864
-0.0125277
0.00290896
0.00781977
0.0102114
-0.00777489
5.03144e-05
0.0106202
-0.00344578
0.0185088
-0.00292262
0.0305504
0.00240347
-0.0340099
0.00573323
-0.0126083
0.0078084
-0.0141775
0.00994807
-0.0297695
-0.0132263
0.00658123
-0.0200606
0.00648504
-0.0118921
-0.00140736
-0.00995352
0.0213585
-0.00480969
-0.00656921
0.0350608
-0.00647814
0.0387033
-0.0141706
-0.0297933
-0.0132415
-0.0201071
-0.0119117
-0.00750977
0.0218094
-0.00672385
0.0209667
0.0223252
-0.0080945
-0.0217997
-0.00823467
-0.0209377
-0.0223105
-0.00750135
-0.00672884
-0.0138324
0.000191281
-0.000104933
-0.00846763
-0.000755482
-0.00460641
0.000578209
-0.0090432
-0.00236924
-0.000188405
0.00423059
-0.00604195
0.000760885
0.00215529
-0.0005761
-0.00488918
-0.0138313
-0.000105476
-0.00846827
-0.004606
-0.00904864
-0.00927713
0.000530117
-0.000906755
-0.00606935
-0.000411816
-0.00740016
0.000452212
-0.0155652
-2.8515e-05
-0.000528402
0.00973709
-0.00494944
0.000413207
0.00624973
-0.000451481
-0.00893663
-0.0092839
-0.000906574
-0.00607679
-0.00740342
-0.0155808
-0.00496955
-8.23045e-05
0.0050104
-0.00549883
-0.00102128
-0.00584953
0.00276886
-0.0238436
0.00598416
8.63414e-05
0.0141716
-0.00187959
0.00101714
0.0120737
-0.00276804
-0.0052806
-0.00496555
0.00501241
-0.00551057
-0.00584305
-0.0238582
-0.0057437
0.00294985
0.00781765
-0.00240184
0.00343723
-0.0126227
0.00778143
-0.0340574
-0.0106025
-0.00295415
0.0306761
-0.0102178
-0.00344594
0.018586
-0.0077858
6.61117e-05
-0.00575217
0.00781981
-0.00244336
-0.0125918
-0.0340517
0.0132325
0.00648292
-0.0119277
0.0141313
0.00658639
-0.0201276
0.00992854
-0.0298224
0.00491326
-0.00648267
0.0387336
0.00152066
-0.00658511
0.0350752
-0.00990549
0.0214351
0.0132634
-0.011925
0.0141952
-0.0201062
-0.0297923
0.00674654
0.0222895
0.00752753
0.0209316
0.0217778
0.00823735
-0.0222979
0.00814589
-0.0209478
-0.0217807
0.00674302
0.0075288
)
;

boundaryField
{
    fuel
    {
        type            calculated;
        value           nonuniform List<scalar> 
36
(
0.00011851
0.000194377
0.00011851
0.000118509
0.000194376
0.000118509
0.00011851
0.000194377
0.00011851
-0.00011851
-0.000194376
-0.00011851
-0.00011851
-0.000194375
-0.00011851
-0.00011851
-0.000194376
-0.00011851
0
0
0
0
0
0
0
0
0
0
0
0
0
0
0
0
0
0
)
;
    }
    primary_air
    {
        type            calculated;
        value           nonuniform List<scalar> 9(-0.00319838 -0.00525338 -0.0031984 -0.00319906 -0.00525291 -0.00319907 -0.00319841 -0.00525338 -0.00319842);
    }
    Secondary_air_RHS
    {
        type            calculated;
        value           nonuniform List<scalar> 9(0.00424236 0.00681829 0.00424238 0.00423948 0.00680533 0.00423952 0.00423797 0.00681721 0.00423802);
    }
    Secondary_air_LHS
    {
        type            calculated;
        value           nonuniform List<scalar> 9(0.00424244 0.00681847 0.00424242 0.00423962 0.00680553 0.0042396 0.00423814 0.00681743 0.00423813);
    }
    outlet
    {
        type            calculated;
        value           nonuniform List<scalar> 
18
(
-0.0409691
0.0750865
-0.0409628
-0.0418449
0.0770326
-0.0418368
-0.044077
0.0731474
-0.0440417
-0.0440689
0.0730625
-0.0440914
-0.041813
0.0771057
-0.041817
-0.0409409
0.0751047
-0.0409508
)
;
    }
    stove_body
    {
        type            calculated;
        value           uniform 0;
    }
    frontAndBack
    {
        type            empty;
        value           nonuniform 0();
    }
}


// ************************************************************************* //
