/*--------------------------------*- C++ -*----------------------------------*\
  =========                 |
  \\      /  F ield         | OpenFOAM: The Open Source CFD Toolbox
   \\    /   O peration     | Website:  https://openfoam.org
    \\  /    A nd           | Version:  6
     \\/     M anipulation  |
\*---------------------------------------------------------------------------*/
FoamFile
{
    version     2.0;
    format      ascii;
    class       volScalarField;
    location    "1";
    object      T;
}
// * * * * * * * * * * * * * * * * * * * * * * * * * * * * * * * * * * * * * //

dimensions      [0 0 0 1 0 0 0];

internalField   nonuniform List<scalar> 
297
(
294.808
296.674
294.797
302.379
305.659
302.362
294.808
296.674
294.797
294.917
296.768
294.907
317.052
327.933
316.999
294.917
296.768
294.907
299.084
302.035
299.07
319.028
330.464
318.974
299.084
302.035
299.07
295.58
301.121
295.582
294.389
296.937
294.39
295.64
301.276
295.641
305.911
303.922
306.198
301.059
299.689
301.232
306.011
304.117
306.214
309.574
303.906
309.812
304.371
306.663
304.496
309.625
304.111
309.793
302.822
299.565
302.955
310.902
308.554
311.064
302.855
299.575
302.954
301.604
299.441
301.768
310.897
310.657
311.06
301.642
299.446
301.742
299.575
298.051
299.729
309.654
307.114
309.742
299.655
298.056
299.726
309.838
301.479
310.072
307.309
307.985
307.452
309.89
301.904
310.059
307.463
299.793
306.756
307.89
308
308.036
307.509
300.129
306.752
305.689
299.331
305.847
309.863
308.095
310.021
305.727
299.688
305.845
298.422
297.9
298.493
309.228
300.166
309.25
298.489
297.901
298.512
296.771
296.88
296.823
308.12
300.172
308.307
296.724
297.013
296.827
296.635
296.699
296.738
300.853
300.221
300.712
296.591
296.707
296.767
297.033
295.825
294.745
309.207
309.26
309.261
297.077
295.869
294.793
296.994
295.309
294.91
306.481
306.585
308.136
296.984
295.3
294.896
296.689
295.471
295.193
300.549
300.316
303.927
296.712
295.467
295.188
294.953
295.521
296.966
309.238
309.239
309.188
294.727
295.368
297.065
294.877
295.251
296.912
308.037
306.465
306.365
294.799
295.222
296.918
295.244
295.432
296.567
303.649
300.256
300.642
295.09
295.374
296.525
294.847
294.994
294.396
298.432
298.472
302.163
294.938
295.053
294.455
294.717
294.99
294.731
298.53
298.584
304.331
294.802
295.011
294.746
294.178
295.114
295.159
298.519
300.79
303.978
294.264
295.084
295.091
293.965
294.433
292.858
298.786
298.718
300.261
294.051
294.265
292.737
292.837
293.794
294.198
298.592
296.965
297.46
292.911
293.602
294.151
288.89
288.383
288.389
285.538
283.525
284.528
288.892
288.387
288.392
294.472
295.07
294.951
302.274
298.557
298.53
294.523
295.124
295.048
294.799
295.063
294.826
304.439
298.636
298.602
294.777
295.039
294.75
295.185
295.185
294.346
303.977
300.813
298.585
295.191
295.174
294.293
292.851
294.4
293.976
299.045
298.994
298.821
292.879
294.436
294.113
294.207
293.805
292.639
296.96
295.962
298.371
294.196
293.791
292.402
288.394
288.389
288.889
284.634
283.813
285.404
288.395
288.39
288.889
)
;

boundaryField
{
    fuel
    {
        type            fixedValue;
        value           uniform 293;
    }
    primary_air
    {
        type            fixedValue;
        value           uniform 293;
    }
    Secondary_air_RHS
    {
        type            fixedValue;
        value           uniform 293;
    }
    Secondary_air_LHS
    {
        type            fixedValue;
        value           uniform 293;
    }
    outlet
    {
        type            inletOutlet;
        inletValue      uniform 293;
        value           nonuniform List<scalar> 
18
(
293
284.635
293
293
283.818
293
293
285.404
293
293
285.538
293
293
283.525
293
293
284.528
293
)
;
    }
    stove_body
    {
        type            fixedValue;
        value           uniform 293;
    }
    frontAndBack
    {
        type            empty;
    }
}


// ************************************************************************* //
