/*--------------------------------*- C++ -*----------------------------------*\
  =========                 |
  \\      /  F ield         | OpenFOAM: The Open Source CFD Toolbox
   \\    /   O peration     | Website:  https://openfoam.org
    \\  /    A nd           | Version:  6
     \\/     M anipulation  |
\*---------------------------------------------------------------------------*/
FoamFile
{
    version     2.0;
    format      ascii;
    class       volVectorField;
    location    "1";
    object      U;
}
// * * * * * * * * * * * * * * * * * * * * * * * * * * * * * * * * * * * * * //

dimensions      [0 1 -1 0 0 0 0];

internalField   nonuniform List<vector> 
297
(
(119.257 0.00662262 0.272773)
(119.319 -0.000404037 0.274227)
(119.256 -0.00579256 0.272793)
(-3.2563e-06 0.0947585 -0.48844)
(-2.06249e-06 -0.00169294 -0.486187)
(-3.49816e-06 -0.0938331 -0.48814)
(-119.257 0.0066241 0.272757)
(-119.319 -0.000391558 0.274219)
(-119.256 -0.00578156 0.272776)
(119.161 -0.0145059 0.587893)
(119.266 -0.000238101 0.598138)
(119.159 0.0154902 0.587676)
(-8.1496e-07 -0.00752095 -0.317121)
(-4.69982e-07 -0.0011202 -0.318402)
(-9.49503e-07 0.0106363 -0.317239)
(-119.161 -0.0145003 0.587856)
(-119.266 -0.000225439 0.598119)
(-119.159 0.0154973 0.587638)
(112.512 -0.0554121 0.912083)
(113.077 -0.000121704 0.924858)
(112.505 0.0571592 0.911756)
(1.4291e-06 -0.0250396 0.539625)
(1.01264e-06 -0.000935449 0.558515)
(1.48042e-06 0.0278522 0.539049)
(-112.512 -0.0554023 0.912068)
(-113.077 -0.000109297 0.92485)
(-112.504 0.0571616 0.911738)
(79.5022 -3.05186 -5.42225)
(81.5903 0.0260215 -8.93945)
(79.5093 3.10931 -5.46976)
(9.48382e-05 -1.50893 2.96736)
(8.48008e-05 -0.0105231 3.11575)
(2.22791e-05 1.53923 2.99003)
(-79.5156 -3.07592 -5.51199)
(-81.6295 0.0140208 -8.97552)
(-79.5202 3.12093 -5.52386)
(83.3263 3.85379 12.0536)
(82.9761 0.114776 -14.9821)
(83.4013 -4.40268 11.8005)
(5.87993e-05 2.33872 29.311)
(-0.000259076 0.0694964 16.8038)
(-7.10112e-05 -2.68177 29.2534)
(-83.3537 3.92886 12.0688)
(-82.8233 0.0685161 -15.0274)
(-83.4078 -4.33763 11.9049)
(83.6849 15.4567 -7.23186)
(82.448 0.241989 -15.9358)
(83.7542 -15.2224 -6.95722)
(0.000315798 -1.48886 36.1039)
(-0.00043957 0.030732 0.350624)
(-0.00025044 1.43683 36.0946)
(-83.6991 15.3884 -7.14854)
(-82.3307 0.147404 -15.9677)
(-83.7472 -15.2963 -7.10205)
(82.0013 5.36358 -27.9355)
(81.6161 -0.16175 -18.9668)
(82.041 -4.98237 -27.8481)
(-0.00014029 3.03933 -1.22439)
(0.00011419 -0.0431735 -10.0509)
(0.000242776 -3.08072 -1.19477)
(-82.0118 5.25404 -27.8984)
(-81.6064 -0.0681673 -18.9697)
(-82.0385 -5.08359 -27.8927)
(82.0335 11.4592 -18.597)
(81.3377 -0.21949 -24.754)
(82.0879 -11.0634 -18.4253)
(5.70106e-05 3.12576 2.5347)
(0.000219732 0.00902335 1.16519)
(0.000515451 -3.20482 2.53563)
(-82.0461 11.3559 -18.5499)
(-81.3388 -0.0930438 -24.765)
(-82.0769 -11.1801 -18.4833)
(81.572 18.0873 -26.5907)
(80.9294 -0.419158 -26.3078)
(81.609 -17.8738 -26.5098)
(5.00451e-05 0.325916 11.2762)
(0.000178491 0.0957864 3.047)
(0.000152494 -0.300338 11.2685)
(-81.5913 18.0478 -26.5885)
(-80.9297 -0.184257 -26.322)
(-81.6093 -17.9351 -26.5401)
(76.3973 18.932 -22.7259)
(78.021 0.0703026 -12.7891)
(76.5098 -18.5123 -22.6747)
(-0.00011531 -0.484257 45.6633)
(-0.000121298 0.00595007 -24.8253)
(0.000106218 0.435028 45.6897)
(-76.42 18.8139 -22.7044)
(-75.6869 0.0619988 -12.7479)
(-76.486 -18.6127 -22.7045)
(74.2722 11.3483 -27.4969)
(79.0671 -0.0117438 -10.3282)
(74.1728 -10.9064 -27.389)
(-8.57225e-05 0.228317 49.2916)
(0.000222955 0.00150259 -23.6857)
(0.000135715 -0.276942 49.3347)
(-74.2926 11.2298 -27.4635)
(-77.8949 0.0242966 -10.3696)
(-74.1528 -11.0146 -27.4353)
(69.6217 9.08446 -27.3136)
(80.5727 -0.0391615 -11.7816)
(69.6931 -8.68628 -27.219)
(-7.82585e-06 0.78878 47.9726)
(0.000904241 -0.00260718 -19.8657)
(0.000180645 -0.83722 48.0207)
(-69.6349 8.97075 -27.2798)
(-82.3423 0.00668546 -11.7993)
(-69.6629 -8.78781 -27.261)
(79.3234 29.9251 -6.7018)
(79.9671 -0.271161 -9.08511)
(79.3276 -29.9884 -6.7805)
(0.000230858 -7.81378 11.3306)
(-3.64403e-05 0.021249 -6.64174)
(-0.000692111 7.96548 11.3221)
(-79.3348 29.9764 -6.73273)
(-79.9663 -0.147195 -9.09042)
(-79.3386 -29.9642 -6.75343)
(80.0085 25.3788 -1.71562)
(80.3407 -0.351605 -4.25559)
(80.0164 -25.4695 -1.74926)
(0.000361596 -9.43014 3.046)
(-8.66197e-05 0.00142854 -5.16509)
(-0.000890695 9.5719 3.007)
(-79.9932 25.4199 -1.71788)
(-80.3761 -0.261205 -4.25738)
(-80.0205 -25.4456 -1.74284)
(80.5701 5.90916 2.53771)
(80.7391 0.227499 -1.26278)
(80.5977 -5.66598 2.43625)
(0.00036784 -1.69644 -1.70149)
(-0.000118515 0.259125 -1.29357)
(-0.00098172 1.56925 -1.84977)
(-80.5573 5.84403 2.52023)
(-80.7413 0.133634 -1.26402)
(-80.6079 -5.71024 2.46187)
(77.7382 -31.8206 -1.32256)
(78.9478 -39.2959 -5.23058)
(79.0503 -41.6435 -7.37965)
(-0.00138274 17.906 9.06024)
(-0.00118053 15.0525 7.93645)
(-0.000524245 12.687 10.344)
(-77.7592 -31.7864 -1.31306)
(-78.9599 -39.2751 -5.21923)
(-79.0587 -41.6343 -7.36797)
(78.0191 -26.3766 4.44029)
(79.3772 -32.0713 3.5935)
(79.9674 -33.3688 0.727197)
(-0.00136275 16.4341 -3.88981)
(-0.00115353 15.2374 -4.75621)
(-0.000461743 15.7773 2.85308)
(-78.0275 -26.3457 4.44023)
(-79.3749 -32.0501 3.59112)
(-79.9564 -33.3605 0.722024)
(80.146 -7.88038 8.59592)
(80.4695 -4.28702 9.3416)
(80.4323 6.82727 10.6829)
(-0.00138231 2.39255 -4.34604)
(-0.0011616 2.19698 3.37)
(-0.000363103 16.6557 6.9533)
(-80.1574 -7.85344 8.59675)
(-80.4725 -4.26501 9.33609)
(-80.4318 6.80298 10.6765)
(79.1083 41.5505 -7.33721)
(78.8789 39.2093 -5.21108)
(77.7377 31.7359 -1.30962)
(0.000284118 -12.614 10.3244)
(0.000429405 -14.8919 7.94524)
(0.00050529 -17.7813 9.10168)
(-79.048 41.607 -7.37885)
(-78.8356 39.2671 -5.24449)
(-77.7555 31.7865 -1.32225)
(79.9564 33.2981 0.714677)
(79.3679 31.9945 3.57514)
(78.0136 26.2906 4.43593)
(0.000166298 -15.7021 2.81373)
(0.000211062 -15.1535 -4.76628)
(0.000373866 -16.3492 -3.84502)
(-79.9405 33.3423 0.691568)
(-79.3611 32.0434 3.57443)
(-78.0081 26.3333 4.44566)
(80.4446 -6.78316 10.6439)
(80.4624 4.20484 9.29569)
(80.1197 7.79148 8.59379)
(0.000216708 -16.6083 6.88012)
(0.00018958 -2.24789 3.30316)
(0.000315494 -2.44603 -4.27252)
(-80.405 -6.85612 10.6698)
(-80.4458 4.22803 9.32841)
(-80.107 7.80532 8.61622)
(77.7113 18.2555 -22.1705)
(76.8133 23.2207 -15.7922)
(79.1259 37.8281 -12.7496)
(0.000710087 9.3995 -7.51614)
(0.000642904 7.69767 -0.478869)
(0.000420641 5.64901 6.25603)
(-77.7314 18.2842 -22.205)
(-76.8322 23.2521 -15.8344)
(-79.1394 37.8624 -12.7891)
(78.2041 5.32905 -36.6085)
(78.0702 14.0702 -21.7712)
(80.1285 27.4278 -3.33438)
(0.000783615 4.06076 -11.5336)
(0.000647941 6.12812 3.58442)
(0.000362822 1.10802 12.752)
(-78.2273 5.35244 -36.6186)
(-78.0706 14.041 -21.8113)
(-80.131 27.436 -3.34616)
(81.3577 2.30699 -46.0691)
(77.6353 7.7638 -15.9348)
(79.6093 13.686 4.38315)
(0.000791283 3.45178 -15.4906)
(0.000571948 -4.5503 17.0348)
(0.000348841 -14.3447 17.449)
(-81.3857 2.32505 -46.0741)
(-77.6069 7.71929 -16.02)
(-79.5961 13.8394 4.32672)
(80.5244 -8.35925 -60.9818)
(79.9755 -0.601214 -5.49633)
(79.4241 10.5306 63.5563)
(0.000366489 -7.58467 9.74515)
(0.000306834 7.30382 35.8092)
(0.000302548 -2.63328 58.8995)
(-80.5478 -8.36682 -60.9933)
(-79.9282 -0.634308 -5.72125)
(-79.3911 10.5919 63.5328)
(78.7718 -1.59527 -83.6532)
(78.1999 -9.28039 -38.8619)
(78.1448 0.0251888 -0.446396)
(-0.00051393 -0.8491 29.64)
(-0.000495166 -1.18127 66.5734)
(-0.000442911 -1.17049 86.5076)
(-78.7968 -1.58457 -83.7216)
(-78.1493 -9.2815 -39.0902)
(-78.1339 0.0338874 -0.547788)
(74.3958 -1.78274 -124.442)
(73.9371 -2.89364 -116.523)
(74.1715 -1.51592 -113.545)
(-0.000956673 -1.98083 177.401)
(-0.000964145 -2.92704 186.356)
(-0.000956657 -1.73025 181.915)
(-74.3996 -1.78414 -124.52)
(-73.9361 -2.89298 -116.534)
(-74.174 -1.5173 -113.576)
(79.1413 -37.8882 -12.7942)
(76.8375 -23.2697 -15.844)
(77.7346 -18.3043 -22.2165)
(0.000270291 -5.61361 6.25228)
(0.000947636 -7.71804 -0.429098)
(0.00137779 -9.41932 -7.5072)
(-79.1574 -37.8941 -12.7845)
(-76.843 -23.2741 -15.837)
(-77.757 -18.3023 -22.217)
(80.1449 -27.4551 -3.32916)
(78.0854 -14.0296 -21.8348)
(78.2368 -5.36554 -36.6495)
(0.000399668 -1.0673 12.8204)
(0.000904105 -6.15931 3.62569)
(0.00110594 -4.08358 -11.5431)
(-80.1396 -27.4661 -3.34194)
(-78.0769 -14.0601 -21.8421)
(-78.2068 -5.35977 -36.6837)
(79.6207 -13.8788 4.34242)
(77.6271 -7.70236 -16.0701)
(81.4123 -2.34176 -46.1212)
(0.000685493 14.3879 17.5339)
(0.00109514 4.53135 17.1032)
(0.000930711 -3.4806 -15.5209)
(-79.6186 -13.8129 4.34939)
(-77.6299 -7.74733 -16.0594)
(-81.3845 -2.33797 -46.1761)
(79.4232 -10.6266 63.5694)
(79.9688 0.645321 -5.83127)
(80.533 8.37356 -61.1107)
(0.00323573 2.64155 58.9607)
(0.00319949 -7.31988 35.8512)
(0.00312406 7.59123 9.72172)
(-79.4221 -10.5971 63.5796)
(-79.9679 0.617688 -5.73725)
(-80.5573 8.36438 -61.1381)
(78.145 -0.0627322 -0.534506)
(78.1989 9.28511 -39.1082)
(78.7044 1.58139 -83.8761)
(-0.00467953 1.18294 86.4859)
(-0.00465359 1.21218 66.6017)
(-0.0045408 0.869056 29.7059)
(-78.1518 -0.0461741 -0.524417)
(-78.2059 9.30937 -39.0293)
(-78.6533 1.59789 -83.8577)
(74.1762 1.52124 -113.635)
(73.9447 2.90026 -116.627)
(74.3965 1.78898 -124.465)
(0.000564331 1.73271 181.936)
(0.000574846 2.94086 186.363)
(0.00054003 1.99316 177.532)
(-74.1747 1.51979 -113.62)
(-73.9451 2.90085 -116.606)
(-74.3936 1.78873 -124.344)
)
;

boundaryField
{
    fuel
    {
        type            fixedValue;
        value           uniform (0 0 0.25);
    }
    primary_air
    {
        type            fixedValue;
        value           uniform (0 0 2.5);
    }
    Secondary_air_RHS
    {
        type            fixedValue;
        value           uniform (0 33.3333 0);
    }
    Secondary_air_LHS
    {
        type            fixedValue;
        value           uniform (0 -33.3333 0);
    }
    outlet
    {
        type            pressureInletOutletVelocity;
        value           nonuniform List<vector> 
18
(
(0 0 -113.635)
(0.000564331 1.73271 181.936)
(0 0 -113.62)
(0 0 -116.627)
(0.000574846 2.94086 186.363)
(0 0 -116.606)
(0 0 -124.465)
(0.00054003 1.99316 177.532)
(0 0 -124.344)
(0 0 -124.442)
(-0.000956673 -1.98083 177.401)
(0 0 -124.52)
(0 0 -116.523)
(-0.000964145 -2.92704 186.356)
(0 0 -116.534)
(0 0 -113.545)
(-0.000956657 -1.73025 181.915)
(0 0 -113.576)
)
;
    }
    stove_body
    {
        type            noSlip;
    }
    frontAndBack
    {
        type            empty;
    }
}


// ************************************************************************* //
