/*--------------------------------*- C++ -*----------------------------------*\
  =========                 |
  \\      /  F ield         | OpenFOAM: The Open Source CFD Toolbox
   \\    /   O peration     | Website:  https://openfoam.org
    \\  /    A nd           | Version:  6
     \\/     M anipulation  |
\*---------------------------------------------------------------------------*/
FoamFile
{
    version     2.0;
    format      ascii;
    class       volScalarField;
    location    "5";
    object      O2;
}
// * * * * * * * * * * * * * * * * * * * * * * * * * * * * * * * * * * * * * //

dimensions      [0 0 0 0 0 0 0];

internalField   nonuniform List<scalar> 
297
(
0
0
0
0
0
0
0
0
0
0
0
0
0
0
0
0
0
0
0
0
0
0
0
0
0
0
0
0.102933
0.176805
0.109744
0.195348
0.218518
0.197902
0.102712
0.176882
0.110235
0
0.0491585
0
0.039975
0.165515
0.0430545
0
0.0491811
0
0
0.0466018
0
0.0260058
0.0403486
0.0264752
0
0.0466136
0
0.00713698
0.019327
0.00709701
0
0.00314683
0
0.00724852
0.019322
0.0072133
4.20257e-07
3.84522e-07
7.72613e-07
1.09641e-06
3.09402e-07
2.1776e-06
4.23383e-07
3.85547e-07
7.7703e-07
7.116e-12
1.54465e-11
1.91094e-11
1.98973e-11
1.27361e-11
4.0727e-11
7.16917e-12
1.55012e-11
1.91844e-11
0
0.045729
0
0
0.00314772
0
0
0.045738
0
0
0.0453042
0
0
0.00314715
0
0
0.0453124
0
0
0.0439043
0
0
0.00314695
0
0
0.0439119
0
2.09748e-16
9.72774e-16
5.98083e-16
3.9765e-16
3.80393e-16
8.29687e-16
2.32302e-16
9.45379e-16
6.10591e-16
2.84276e-20
2.74383e-19
1.01569e-19
3.52681e-20
6.20306e-20
4.58076e-20
2.31829e-20
2.50391e-19
8.63825e-20
2.43984e-23
9.80386e-20
1.04411e-22
9.70325e-24
2.39344e-20
1.15051e-23
2.05257e-23
9.02799e-20
1.03469e-22
1.12411e-20
3.59701e-25
5.50867e-30
1.15349e-20
1.75314e-25
2.84919e-30
1.14799e-20
3.67361e-25
5.62878e-30
1.78528e-24
7.627e-29
2.99568e-33
1.28856e-24
6.49921e-27
2.78404e-31
1.50747e-24
7.83088e-29
3.46834e-33
8.72868e-27
1.8474e-29
2.26732e-33
7.54735e-28
2.93632e-28
2.47077e-32
8.63284e-27
1.8446e-29
2.26278e-33
1.02751e-30
6.70375e-26
3.95862e-21
1.1679e-30
7.62319e-26
5.54628e-21
2.29081e-30
7.45884e-26
4.38431e-21
1.14203e-33
2.02143e-29
5.29796e-25
1.21792e-31
2.93938e-27
8.24522e-25
1.70939e-33
3.41246e-29
8.14123e-25
1.55656e-33
4.43645e-30
2.06788e-27
2.02067e-32
7.01452e-29
4.96164e-28
1.63303e-33
7.04168e-30
1.83543e-27
1.08636e-43
1.67667e-39
4.5141e-35
6.32215e-43
3.44124e-39
3.10394e-35
7.26931e-43
7.15576e-39
1.00665e-34
3.68084e-46
2.48046e-42
5.71368e-38
8.6684e-45
8.18746e-41
2.50017e-36
2.35623e-45
3.31691e-42
7.7887e-38
3.50619e-46
7.90313e-43
3.45838e-38
4.61371e-45
1.98332e-41
5.47779e-37
2.32634e-45
1.04059e-42
3.94706e-38
4.43449e-46
5.52188e-45
1.52911e-43
5.74987e-45
2.04006e-41
1.56024e-39
2.38983e-45
1.59967e-44
3.01231e-43
8.1298e-48
2.2303e-46
2.59598e-45
9.44404e-43
2.46591e-41
4.09431e-40
8.42219e-48
3.7187e-46
2.74771e-45
1.64084e-48
4.62169e-47
4.69647e-46
4.71255e-43
1.2437e-41
1.40667e-40
2.91689e-48
8.68766e-47
8.63622e-46
1.29674e-34
9.21532e-39
9.17394e-43
7.679e-35
3.82742e-39
8.9782e-43
2.46722e-34
9.65491e-39
9.64146e-43
1.19772e-37
5.1756e-42
7.78447e-46
5.60648e-36
1.83722e-40
1.6923e-44
1.38556e-37
4.93318e-42
5.41932e-45
5.51336e-38
1.26984e-42
6.50303e-46
6.59815e-37
2.60497e-41
6.86891e-45
5.35952e-38
1.44299e-42
5.06034e-45
2.50618e-43
6.34706e-45
7.64012e-46
1.45825e-39
4.22783e-41
8.2634e-45
4.38129e-43
2.77008e-44
4.87596e-45
5.69643e-45
3.06154e-46
6.47194e-48
1.06574e-39
4.43016e-41
1.20606e-42
7.71146e-45
3.0947e-46
9.008e-48
1.43761e-45
6.20956e-47
1.74812e-48
4.37039e-40
1.82306e-41
5.35713e-43
2.37567e-45
1.06408e-46
2.97258e-48
)
;

boundaryField
{
    fuel
    {
        type            fixedValue;
        value           uniform 0;
    }
    primary_air
    {
        type            fixedValue;
        value           uniform 0.23;
    }
    Secondary_air_RHS
    {
        type            fixedValue;
        value           uniform 0.23;
    }
    Secondary_air_LHS
    {
        type            fixedValue;
        value           uniform 0.23;
    }
    outlet
    {
        type            inletOutlet;
        inletValue      uniform 0;
        value           nonuniform List<scalar> 
18
(
0
4.37039e-40
0
0
1.82306e-41
0
0
5.35713e-43
0
0
4.71255e-43
0
0
1.2437e-41
0
0
1.40667e-40
0
)
;
    }
    stove_body
    {
        type            fixedValue;
        value           uniform 0;
    }
    frontAndBack
    {
        type            empty;
    }
}


// ************************************************************************* //
