/*--------------------------------*- C++ -*----------------------------------*\
  =========                 |
  \\      /  F ield         | OpenFOAM: The Open Source CFD Toolbox
   \\    /   O peration     | Website:  https://openfoam.org
    \\  /    A nd           | Version:  6
     \\/     M anipulation  |
\*---------------------------------------------------------------------------*/
FoamFile
{
    version     2.0;
    format      ascii;
    class       volScalarField;
    location    "5";
    object      p;
}
// * * * * * * * * * * * * * * * * * * * * * * * * * * * * * * * * * * * * * //

dimensions      [1 -1 -2 0 0 0 0];

internalField   nonuniform List<scalar> 
297
(
111537
111537
111537
185858
185858
185858
111537
111537
111537
111537
111537
111537
185858
185858
185858
111537
111537
111537
111537
111537
111537
185858
185858
185858
111537
111537
111537
97608.5
97503.2
97598.3
162317
162251
162318
97609.2
97503.3
97597.4
97832.4
97013.7
97862.5
161726
161678
161751
97834.5
97014.2
97861.8
95219.8
94660.3
95488
154089
158249
154405
95222.8
94660
95485.8
92829.9
95108.5
92573
157871
156847
157765
92826.2
95108.2
92578.5
96928.8
97014
96852.9
161649
160801
161649
96926.3
97012.3
96852.6
97029.8
97251.9
96999.8
161593
161971
161676
97024.2
97249.2
96999.6
78119.6
92567.4
78393.1
127923
154097
127095
78094.4
92566
78387.5
78061.1
92477.1
78135.6
126660
154136
125421
78036.2
92475.7
78130.7
80066
92755
79993.2
128885
155104
127359
80046.5
92753.5
79989
97398.3
97483.7
97390.6
162150
162331
162149
97394.8
97483.6
97394.3
97467.5
97485.1
97458.1
162310
162387
162295
97464.7
97485.8
97462.3
97469.3
97480.9
97460.7
162387
162406
162365
97466.9
97482.1
97465
97523.2
97626.4
97880.7
162255
162322
162463
97529.3
97632.7
97885.6
97467.7
97489.7
97650.5
162265
162271
162331
97473.4
97495.9
97655.8
97407.7
97328.4
97259.7
162322
162273
162242
97413
97334.2
97265.6
97887.2
97649.3
97542.9
162494
162359
162282
97886.4
97647.9
97540.5
97665.6
97514.4
97486.6
162364
162308
162296
97665
97513
97484.5
97294.8
97358.8
97429.5
162283
162313
162355
97294.6
97357.7
97427.6
98436.2
98339.9
98149.7
162948
162862
162698
98436
98339.6
98149.1
98295.6
98170.4
97952.8
162764
162692
162535
98295.5
98170.3
97952.4
98132.6
97992
97732.2
162515
162440
162328
98132.6
97991.8
97731.9
97182.8
97124.6
97020.7
161270
161223
161135
97183.5
97125.3
97021.4
92226.7
92241.4
92279.9
152965
152971
152972
92226.8
92241.4
92279.9
85028.9
85028.5
85031.3
137107
137111
137105
85029
85028.6
85031.4
98151.2
98334.9
98432.4
162681
162841
162918
98154.8
98337.6
98434.4
97954.2
98169.1
98296.5
162516
162670
162738
97957.5
98171.4
98298.3
97733.6
98001.6
98140
162305
162417
162495
97736.2
98003.2
98141.7
97033.6
97141.8
97191.8
161109
161192
161234
97029.4
97138.8
97190
92234
92198.1
92185.4
152892
152893
152889
92236.2
92199.3
92185.6
84982.6
84979.5
84979.8
137028
137034
137031
84980.2
84977.3
84977.8
)
;

boundaryField
{
    fuel
    {
        type            zeroGradient;
    }
    primary_air
    {
        type            zeroGradient;
    }
    Secondary_air_RHS
    {
        type            zeroGradient;
    }
    Secondary_air_LHS
    {
        type            zeroGradient;
    }
    outlet
    {
        type            totalPressure;
        rho             rho;
        psi             none;
        gamma           1;
        p0              uniform 100000;
        value           nonuniform List<scalar> 
18
(
88601.4
100000
88600.7
88575.4
100000
88574.7
88572.7
100000
88572
88621
100000
88621.2
88624
100000
88624.2
88650.9
100000
88651.1
)
;
    }
    stove_body
    {
        type            zeroGradient;
    }
    frontAndBack
    {
        type            empty;
    }
}


// ************************************************************************* //
