/*--------------------------------*- C++ -*----------------------------------*\
  =========                 |
  \\      /  F ield         | OpenFOAM: The Open Source CFD Toolbox
   \\    /   O peration     | Website:  https://openfoam.org
    \\  /    A nd           | Version:  6
     \\/     M anipulation  |
\*---------------------------------------------------------------------------*/
FoamFile
{
    version     2.0;
    format      ascii;
    class       surfaceScalarField;
    location    "5";
    object      phi;
}
// * * * * * * * * * * * * * * * * * * * * * * * * * * * * * * * * * * * * * //

dimensions      [1 0 -1 0 0 0 0];

internalField   nonuniform List<scalar> 
675
(
1.07798e-05
-3.52494e-05
0.000142571
-1.08547e-05
5.38729e-06
0.000134349
-3.52153e-05
0.000142463
-1.66108e-05
3.52419e-05
0.000142951
1.66646e-05
-5.3904e-06
0.000174333
3.52108e-05
0.000143069
1.07831e-05
0.000142561
-1.08517e-05
0.000134346
0.000142461
6.6571e-06
-5.83636e-05
0.000194268
-6.78111e-06
4.79235e-06
0.000142985
-5.81155e-05
0.000193787
-2.82494e-05
5.83329e-05
5.45221e-05
2.84067e-05
-4.7954e-06
0.000127282
5.81148e-05
5.52642e-05
6.66486e-06
0.000194219
-6.77677e-06
0.000142983
0.000193789
3.71655e-06
7.2429e-05
-4.78648e-06
3.3367e-05
7.08785e-05
2.51068e-06
-7.23457e-05
-2.65072e-07
-3.33702e-05
-7.0909e-05
3.7506e-06
-4.75816e-06
0.00327615
0.00390241
-0.00397232
-0.00299131
0.00521146
0.00425538
0.00373789
-0.00352328
0.00538684
-0.00390201
0.00774054
-0.00523705
-0.0052123
0.0263562
-0.00373071
0.00755429
0.00329261
-0.00398813
-0.00296864
0.00424867
-0.00349332
0.00874642
0.00833927
-0.0210597
-0.00823251
-0.00483345
0.026066
0.00798415
-0.0197416
0.0028093
-0.00836005
0.0216277
-0.00357811
0.00483038
0.0230726
-0.00794857
0.019906
0.00872292
-0.0210726
-0.00823191
0.0260321
-0.0196753
0.000382407
0.0176323
-0.0390751
-0.000687292
-0.00713629
0.0342712
0.0174969
-0.0379265
-0.0431883
-0.0176337
0.10008
0.0432959
0.00713356
-0.0776848
-0.0174614
0.0981579
0.000413965
-0.0391209
-0.000659571
0.0342384
-0.0377972
-0.0244741
-0.0223027
-0.0184967
0.0652738
0.0241232
0.00879171
-0.0316331
-0.0257559
-0.0231349
-0.0173646
0.0646228
-0.00226387
0.0223155
0.0177968
-0.0601509
0.00434538
-0.00878476
-0.0904318
0.1014
0.0231118
0.0179304
-0.0598317
-0.0244927
-0.0184897
0.0652984
0.0240721
-0.0316198
-0.0257295
-0.0173149
0.0644988
0.00540744
-0.00773275
-0.0161694
-0.00900073
0.0117807
-0.029003
-0.0109566
-0.0154078
0.0179931
0.00771967
-0.0156462
-0.0109051
-0.0117855
-0.0379645
0.0109437
-0.0148744
0.00540638
-0.0161733
-0.00901334
-0.0289843
-0.0153847
-0.00121383
0.00262659
-0.0175826
-0.012955
0.000212085
-0.0174746
-0.0102135
-0.0181452
0.0184058
-0.0026363
-0.0287501
0.00951909
-0.000205728
-0.0286464
0.0102192
-0.0257939
-0.00122386
-0.0175714
-0.0129599
-0.0174696
-0.0181475
-0.00162318
-0.00041666
-0.0473108
0.00153047
-0.000123178
0.0312406
-0.00032742
-0.0463801
-0.0028494
0.000418103
0.085268
0.00317296
0.000123499
-0.0839541
0.000329477
0.0839566
-0.00162765
-0.0473474
0.00152383
0.0312104
-0.0462547
-0.00150452
0.000208185
-0.0562823
0.00146594
-0.000523099
0.0287932
0.000310537
-0.0555024
-0.00314576
-0.0002071
0.072169
0.00323641
0.000523363
-0.0913829
-0.000305727
0.0713121
-0.00150661
-0.0563125
0.0014614
0.0287657
-0.055376
-0.00215671
0.000616641
0.00210698
-0.00122645
0.000705385
-0.00370237
-0.000615688
0.00386139
0.00122624
-0.00070501
-0.00215881
0.00210357
0.00615404
-0.000740333
-0.00889877
-0.0140972
-0.00548448
-0.000701008
-0.00513386
-0.000804545
-0.00867865
-0.0141458
0.00619557
0.000740837
-0.0175393
-0.0188814
-0.00825025
0.000703696
-0.0156053
0.000806428
-0.0167573
-0.0189044
0.00615769
-0.00889371
-0.0140936
-0.00547778
-0.00513428
-0.00868264
-0.0141394
0.00272252
0.000221964
-0.00218501
-0.00965769
-0.00329011
0.000475643
0.000403993
0.0001473
-0.00254634
-0.00956881
0.00439449
-0.000220908
-0.00711561
-0.0143693
-0.00431353
-0.000473535
-0.00594901
-0.000143856
-0.00629223
-0.0144954
0.00272871
-0.0021833
-0.00965933
-0.00328797
0.000405828
-0.00255005
-0.00956723
0.000313789
0.000173979
-0.00267216
-3.75444e-05
0.000755593
0.000243115
-0.00282568
0.001681
-0.000172975
-0.00844375
-0.00276109
-0.000752846
-0.000240461
-0.00857877
0.000315453
-0.0026711
-3.37946e-05
-0.00282675
-0.012916
-6.35249e-05
-0.00116587
-0.0132397
0.00156734
-0.00124319
0.00191643
-0.00473532
-0.0104211
-0.0179072
6.31465e-05
-0.00112834
-0.0159353
-0.00156715
0.00115775
-0.00191418
0.00183621
-0.0139464
-0.012909
-0.00116715
-0.0132312
-0.00124464
-0.00472196
-0.0104241
-0.00997322
-8.72696e-05
-0.000673598
-0.0100849
0.0010304
-0.00216151
0.000506322
-0.00541031
-0.0099161
-0.0154964
8.74424e-05
-0.000306835
-0.013114
-0.00103099
0.000831538
-0.000508794
0.00269829
-0.0129669
-0.00996986
-0.000676943
-0.0100785
-0.00216713
-0.00539503
-0.00991501
-0.00338395
-0.000114438
-0.00501464
-0.000530253
-0.00112156
-0.00930191
-0.00911862
0.000113914
-0.0093526
0.00052991
0.00112008
-0.00890188
-0.00338933
-0.00502706
-0.00930232
0.013138
0.00190692
-0.00468228
-0.0103629
0.0128224
0.0015795
-0.00126442
-5.67416e-05
-0.00121864
0.0158176
-0.00190759
0.00188957
-0.0138933
0.0177786
-0.00157996
0.00119818
5.66337e-05
-0.00121561
0.0131329
-0.00468207
-0.0103575
0.0128178
-0.00126469
-0.00121911
0.0100756
0.000488486
-0.0052988
-0.00994769
0.0100265
0.00103189
-0.00224753
-9.45529e-05
-0.00075566
0.0130484
-0.000487921
0.002797
-0.0129795
0.01541
-0.00103232
0.000901054
9.4688e-05
-0.000363113
0.0100757
-0.00529776
-0.00994696
0.0100279
-0.00224863
-0.000755653
0.00500491
-0.0011229
-0.00918095
0.00329955
-0.000542213
-0.000128445
0.00924488
0.00112249
-0.00869283
0.00906229
0.000542121
0.000128458
0.00500338
-0.00917762
0.0032978
0.00445411
0.00170757
-0.00616195
0.0070835
0.00161278
-0.00424252
0.00165951
-0.00493912
0.00630738
-0.00170747
-0.00289378
0.0102057
-0.00161268
-0.000674096
-0.00165948
-0.00036922
0.00445037
-0.00615726
0.00707885
-0.00424065
-0.00493759
0.00364423
0.00148691
-0.0112935
0.0069001
0.00146303
-0.00896163
0.00114998
-0.00913673
0.00465611
-0.00148694
-0.00457738
0.00930202
-0.0014626
-0.00239555
-0.00114909
-0.00174832
0.00364451
-0.0112884
0.00689994
-0.00895816
-0.00913296
0.00473659
0.002936
-0.0189668
0.00526828
0.00172937
-0.0112229
0.000978292
-0.0140278
0.00517206
-0.00293662
-0.00387822
0.00872308
-0.00172458
-0.00249355
-0.000974534
0.000234277
0.00473601
-0.018961
0.00527
-0.0112164
-0.0140146
-0.00592824
0.0116646
-0.0247052
-0.00202668
0.0102258
-0.0253528
0.00946309
-0.0255202
0.0014532
-0.0116665
0.017994
-0.000466287
-0.0102293
0.0198782
-0.00946768
0.0186958
-0.00592852
-0.0247024
-0.00202999
-0.0253481
-0.0255165
0.000600729
0.00638085
-0.0316874
0.0010116
0.00635882
-0.0321238
0.0069108
-0.0314204
-0.00114047
-0.00638385
0.0318988
-0.00104163
-0.00636119
0.0324977
-0.00691316
0.031475
0.000599961
-0.031687
0.00101121
-0.0321221
-0.0314197
4.4984e-05
0.0191376
-0.00026463
0.0190503
0.0191278
-0.000312314
-0.0191383
-3.67275e-05
-0.0190511
-0.0191285
4.44224e-05
-0.000264469
-0.00706507
0.00167495
-0.00503091
-0.00449487
0.00160709
-0.00417685
0.00169454
-0.00618936
-0.0101601
-0.00167365
-0.000442514
-0.0062701
-0.0016062
-0.000681214
-0.00169409
-0.00288635
-0.00707684
-0.00502123
-0.00450186
-0.00418138
-0.00619692
-0.00670357
0.0011228
-0.00936677
-0.00342419
0.00142563
-0.00888211
0.00147876
-0.0110925
-0.00903371
-0.00112466
-0.00213283
-0.0045907
-0.00142272
-0.00228032
-0.00147723
-0.00452583
-0.00670975
-0.00935174
-0.00343383
-0.00888031
-0.0111083
-0.00502617
0.00110501
-0.0147483
-0.00441081
0.00185203
-0.0113505
0.00294031
-0.0184437
-0.00850028
-0.00111104
-0.000323055
-0.00489948
-0.00185695
-0.00217661
-0.00293966
-0.00354983
-0.00502582
-0.0147402
-0.00441846
-0.0113453
-0.0184665
0.00113143
0.00988454
-0.0257694
0.00518143
0.0101495
-0.0255511
0.0114275
-0.0246866
0.000856287
-0.0098642
0.0185421
-0.00115194
-0.0101394
0.0200942
-0.0114267
0.0181297
0.00116873
-0.0257821
0.00522958
-0.0255602
-0.0246843
-0.0011224
0.00690318
-0.0315473
-0.000743679
0.00635195
-0.0322794
0.00637958
-0.0318084
0.000842693
-0.0068974
0.0314879
0.00103407
-0.00634584
0.032586
-0.00637286
0.0318991
-0.001127
-0.0315551
-0.000749903
-0.0322849
-0.0318088
0.000262717
0.0190941
-6.11785e-05
0.0189987
0.0190898
-8.43355e-06
-0.0190919
0.000319085
-0.0189965
-0.0190882
0.000259572
-6.51255e-05
)
;

boundaryField
{
    fuel
    {
        type            calculated;
        value           nonuniform List<scalar> 
36
(
0.000118112
0.000196813
0.000118112
0.000118112
0.000196813
0.000118112
0.000118112
0.000196813
0.000118112
-0.000118112
-0.000196813
-0.000118112
-0.000118112
-0.000196813
-0.000118112
-0.000118112
-0.000196813
-0.000118112
0
0
0
0
0
0
0
0
0
0
0
0
0
0
0
0
0
0
)
;
    }
    primary_air
    {
        type            calculated;
        value           nonuniform List<scalar> 9(-0.00320975 -0.00533761 -0.00320977 -0.00320629 -0.00533545 -0.00320629 -0.00320942 -0.00533766 -0.00320939);
    }
    Secondary_air_RHS
    {
        type            calculated;
        value           nonuniform List<scalar> 9(0.0103115 0.0167175 0.0103108 0.0102776 0.0164973 0.010277 0.010522 0.0167523 0.0105214);
    }
    Secondary_air_LHS
    {
        type            calculated;
        value           nonuniform List<scalar> 9(0.0102755 0.0168264 0.0102722 0.0102678 0.0166603 0.0102645 0.0105315 0.0169529 0.010529);
    }
    outlet
    {
        type            calculated;
        value           nonuniform List<scalar> 
18
(
-0.0509052
0.0696911
-0.0509066
-0.0509551
0.0702624
-0.0509564
-0.0509602
0.0704051
-0.0509615
-0.0508664
0.0704918
-0.0508659
-0.0508608
0.0703281
-0.0508604
-0.0508091
0.0696992
-0.0508086
)
;
    }
    stove_body
    {
        type            calculated;
        value           uniform 0;
    }
    frontAndBack
    {
        type            empty;
        value           nonuniform 0();
    }
}


// ************************************************************************* //
