/*--------------------------------*- C++ -*----------------------------------*\
  =========                 |
  \\      /  F ield         | OpenFOAM: The Open Source CFD Toolbox
   \\    /   O peration     | Website:  https://openfoam.org
    \\  /    A nd           | Version:  6
     \\/     M anipulation  |
\*---------------------------------------------------------------------------*/
FoamFile
{
    version     2.0;
    format      ascii;
    class       volScalarField;
    location    "5";
    object      Qdot;
}
// * * * * * * * * * * * * * * * * * * * * * * * * * * * * * * * * * * * * * //

dimensions      [1 -1 -3 0 0 0 0];

internalField   nonuniform List<scalar> 
297
(
0
0
-0.000363109
0
0
0
-0.000144295
0
-0.000363109
0
-0.000144295
0
0
0
0
-0.000144295
0
0
-7.21473e-05
-0.000218814
-7.21473e-05
0
0
0
0
0
-7.21473e-05
0
-7.74251e-11
0
2.10687e-09
0
0
0
-7.74251e-11
0
2.63358e-10
0
0
5.26717e-10
1.05343e-09
0
2.63358e-10
0
0
0
0
0
0
0
0
2.63358e-10
0
2.63358e-10
0
0
0
0
0
5.26717e-10
0
0
0
-2.95353e-16
2.10687e-09
0
0
-2.95353e-16
0
0
-2.95353e-16
0
0
4.21374e-09
-3.60539e-20
0
0
0
0
0
0
2.63358e-10
0
0
5.26717e-10
-2.41953e-12
0
0
0
0
0
0
2.63358e-10
0
-2.41953e-12
5.26717e-10
0
0
0
0
0
0
0
0
0
0
0
0
0
4.21374e-09
0
-1.10028e-24
0
0
4.21374e-09
0
4.21374e-09
0
0
4.21374e-09
0
0
0
-3.35778e-29
0
0
0
0
0
0
0
-3.27908e-32
-3.27908e-32
0
0
0
0
-7.81794e-39
-3.35778e-29
-5.12356e-34
0
0
0
4.21374e-09
4.21374e-09
4.21374e-09
4.21374e-09
-4.09885e-33
0
-9.77242e-40
-2.04943e-33
0
0
0
0
4.21374e-09
0
0
-6.10776e-41
0
0
4.21374e-09
0
0
0
0
-2.56178e-34
-1.67889e-29
4.21374e-09
0
0
0
4.21374e-09
0
0
-8.00557e-36
0
0
0
0
0
4.21374e-09
-4.00278e-36
-6.10776e-41
0
0
0
4.21374e-09
0
0
4.21374e-09
0
-1.77759e-51
0
0
0
0
0
0
0
-1.16496e-46
0
-2.27532e-49
-7.45577e-45
0
0
0
0
0
0
0
0
-1.86394e-45
-3.47186e-54
0
-5.82482e-47
0
0
-2.22199e-52
0
0
0
0
0
-4.44398e-52
0
0
0
4.21374e-09
0
0
-1.3562e-56
0
0
0
0
0
0
0
4.21374e-09
0
0
0
4.21374e-09
4.21374e-09
4.21374e-09
-2.38585e-43
0
0
4.21374e-09
-1.4562e-47
0
0
4.21374e-09
0
0
0
0
4.21374e-09
4.21374e-09
0
-1.16496e-46
0
4.21374e-09
-1.86394e-45
0
0
4.21374e-09
0
-6.94372e-54
0
0
0
-3.64051e-48
0
0
0
0
0
0
0
0
4.21374e-09
4.21374e-09
4.21374e-09
0
-4.33983e-55
0
0
0
0
0
4.21374e-09
0
-3.47186e-54
0
0
)
;

boundaryField
{
    fuel
    {
        type            calculated;
        value           uniform 0;
    }
    primary_air
    {
        type            calculated;
        value           uniform 0;
    }
    Secondary_air_RHS
    {
        type            calculated;
        value           uniform 0;
    }
    Secondary_air_LHS
    {
        type            calculated;
        value           uniform 0;
    }
    outlet
    {
        type            calculated;
        value           uniform 0;
    }
    stove_body
    {
        type            calculated;
        value           uniform 0;
    }
    frontAndBack
    {
        type            empty;
    }
}


// ************************************************************************* //
