/*--------------------------------*- C++ -*----------------------------------*\
  =========                 |
  \\      /  F ield         | OpenFOAM: The Open Source CFD Toolbox
   \\    /   O peration     | Website:  https://openfoam.org
    \\  /    A nd           | Version:  6
     \\/     M anipulation  |
\*---------------------------------------------------------------------------*/
FoamFile
{
    version     2.0;
    format      ascii;
    class       volScalarField;
    location    "5";
    object      O2;
}
// * * * * * * * * * * * * * * * * * * * * * * * * * * * * * * * * * * * * * //

dimensions      [0 0 0 0 0 0 0];

internalField   nonuniform List<scalar> 
297
(
0
0
0
0
0
0
0
0
0
0
0
0
0
0
0
0
0
0
0
0
0
0
0
0
0
0
0
0.0290162
0.0754223
0.0457536
0.0906484
0.136398
0.112368
0.0290465
0.0754985
0.0457864
0
0.012898
0
0.0160994
0.0644603
0.0307521
0
0.0129192
0
0
0.00990063
0
0.0101391
0.0157405
0.0122416
0
0.00992302
0
0.00200745
0.00599642
0.00201076
0
0.000797602
0
0.00201225
0.0060081
0.00201606
0
1.97611e-08
0
0
0
0
0
1.97957e-08
0
2.23442e-14
7.49917e-14
0
0
1.18465e-14
0
7.76606e-15
7.52482e-14
0
0
0.00990073
0
0
0.000821106
0
0
0.00992002
0
0
0.0098505
0
0
0.000798799
0
0
0.00989032
0
0
0.00976846
0
0
0.00079879
0
0
0.00979127
0
4.86718e-19
2.30795e-18
0
0
2.25979e-19
0
1.22105e-19
2.25517e-18
0
6.5165e-23
4.50614e-22
2.50491e-24
5.90131e-24
2.2037e-22
4.11407e-24
1.78529e-23
4.29082e-22
1.67522e-23
2.39582e-23
4.4866e-22
2.20804e-23
5.84639e-24
2.60291e-22
3.99132e-24
2.09832e-23
4.25915e-22
1.95777e-23
0
3.44702e-34
8.0724e-38
0
3.52526e-32
9.45873e-37
0
0
2.25235e-37
5.49941e-29
1.03092e-32
7.4653e-37
6.9133e-29
3.24406e-32
8.40412e-37
1.80251e-28
1.42227e-32
7.35846e-37
1.42566e-27
5.98531e-32
1.34405e-36
1.21472e-28
7.7052e-33
6.97821e-37
1.26734e-27
5.3422e-32
1.21242e-36
7.57946e-34
7.2395e-29
6.22225e-24
1.28135e-34
7.48961e-30
0
3.88458e-34
1.83814e-29
1.57009e-24
1.61512e-36
4.66688e-32
1.49823e-27
1.54082e-35
4.71465e-31
6.31883e-29
1.44141e-36
2.86357e-32
4.48544e-28
1.71965e-36
6.80144e-32
1.58906e-27
2.8186e-36
1.83378e-32
1.75201e-28
2.28982e-36
9.45018e-32
1.39317e-27
3.1439e-47
1.1512e-42
2.284e-38
4.37405e-47
3.71954e-43
3.64935e-39
4.28266e-47
6.00627e-43
1.18021e-38
1.7389e-49
2.52432e-45
4.93391e-41
8.58239e-49
5.54753e-45
2.36628e-40
6.66015e-49
2.54364e-45
6.35136e-41
2.37529e-49
8.85371e-46
3.46349e-41
6.69969e-49
1.35249e-45
5.94045e-41
7.73518e-49
9.16096e-46
4.4296e-41
3.53161e-49
2.14402e-48
1.21471e-46
6.33446e-49
8.3093e-47
8.28827e-46
7.51491e-49
7.06287e-48
2.62225e-46
6.99546e-53
6.92253e-52
4.49503e-51
8.15418e-48
8.14817e-47
5.26011e-46
5.99749e-53
9.14388e-52
4.06755e-51
2.19895e-53
2.15024e-52
1.26136e-51
3.91891e-48
3.76704e-47
2.26109e-46
2.19837e-53
2.14999e-52
1.26153e-51
7.67446e-42
1.0393e-45
4.21756e-49
2.93937e-41
1.7099e-45
1.09875e-48
2.02903e-41
9.65089e-46
7.49487e-49
3.3455e-41
1.8681e-45
4.52542e-49
2.35218e-41
1.08638e-45
6.06209e-49
3.26986e-41
1.65753e-45
6.39304e-49
2.72984e-41
7.12183e-46
3.90567e-49
1.78664e-41
4.73825e-46
5.3858e-49
2.35078e-41
4.84132e-46
5.95951e-49
1.22808e-46
2.16717e-48
3.56706e-49
3.48093e-46
3.74294e-47
5.16248e-49
1.38831e-46
5.56361e-48
5.86368e-49
1.44021e-51
3.14381e-52
1.89783e-53
2.1878e-46
3.68731e-47
2.83856e-48
1.7253e-51
2.72222e-52
2.23385e-53
5.206e-52
9.68596e-53
8.19651e-54
9.35451e-47
1.70566e-47
1.4314e-48
5.20684e-52
9.69317e-53
8.1087e-54
)
;

boundaryField
{
    fuel
    {
        type            fixedValue;
        value           uniform 0;
    }
    primary_air
    {
        type            fixedValue;
        value           uniform 0.23;
    }
    Secondary_air_RHS
    {
        type            fixedValue;
        value           uniform 0.23;
    }
    Secondary_air_LHS
    {
        type            fixedValue;
        value           uniform 0.23;
    }
    outlet
    {
        type            inletOutlet;
        inletValue      uniform 0;
        value           nonuniform List<scalar> 
18
(
0
9.35451e-47
0
0
1.70566e-47
0
0
1.4314e-48
0
0
3.91891e-48
0
0
3.76704e-47
0
0
2.26109e-46
0
)
;
    }
    stove_body
    {
        type            fixedValue;
        value           uniform 0;
    }
    frontAndBack
    {
        type            empty;
    }
}


// ************************************************************************* //
