/*--------------------------------*- C++ -*----------------------------------*\
  =========                 |
  \\      /  F ield         | OpenFOAM: The Open Source CFD Toolbox
   \\    /   O peration     | Website:  https://openfoam.org
    \\  /    A nd           | Version:  6
     \\/     M anipulation  |
\*---------------------------------------------------------------------------*/
FoamFile
{
    version     2.0;
    format      ascii;
    class       volScalarField;
    location    "5";
    object      p;
}
// * * * * * * * * * * * * * * * * * * * * * * * * * * * * * * * * * * * * * //

dimensions      [1 -1 -2 0 0 0 0];

internalField   nonuniform List<scalar> 
297
(
115650
115650
115650
192462
192462
192462
115650
115650
115650
115650
115650
115650
192462
192462
192462
115650
115650
115650
115650
115650
115650
192463
192463
192463
115650
115650
115650
96776.1
96794.6
96779.2
160623
160687
160682
96774.9
96796.6
96778.9
97101.4
96585.3
96932.1
160529
160952
160477
97098.3
96586
96929.9
93486.3
93554.4
93829.1
150338
155936
150771
93504.5
93553.5
93846.1
90190.7
93398.6
89784.8
153890
153529
153396
90198
93379.9
89792.4
95783.2
96186.3
95608.6
159700
159208
159740
95785.1
96180.2
95612
95740.9
96189.1
95658.9
159065
159794
159424
95744.2
96188
95664.3
70227.2
91438.2
71061.6
115536
148604
116145
70209.7
91374.4
71040.2
68729.5
91292.1
69549.6
111469
148024
112020
68709.2
91213.9
69525
71052.1
91428.8
71734.2
114245
148371
114685
71028.1
91339.4
71706.3
96541.6
96711.7
96520.2
160144
160409
160188
96537
96703.7
96516.7
96669.1
96712.6
96644.4
160468
160545
160468
96662.8
96703.4
96639
96672.2
96700.4
96648.4
160618
160613
160597
96665.1
96690.5
96642.1
96806.1
97042.6
97618.6
160416
160541
160798
96801.1
97037.9
97612.2
96670.7
96742.5
97141.7
160468
160476
160546
96666.1
96739.3
97138.2
96544.1
96403
96330
160597
160513
160390
96539.9
96401.3
96330.5
97623.9
97059.6
96827
160827
160569
160433
97618.5
97055
96821.7
97155.3
96765.6
96695.3
160578
160508
160493
97152.1
96761.9
96690.2
96357.5
96431.2
96570.6
160424
160547
160627
96357.3
96428.7
96565.8
98870.7
98640.2
98224.8
161845
161656
161274
98855.6
98628.2
98216.6
98553.2
98281.2
97832.4
161478
161284
160919
98541.5
98272.7
97827
98148.3
97863.9
97332.9
161005
160770
160504
98139.6
97857.9
97329.8
96170.4
96075
95903.4
158794
158676
158567
96172.9
96077.9
95906.8
90207.1
90247.5
90301.8
149010
149009
149006
90211.9
90251.7
90305.8
82829.8
82830.7
82833
132610
132606
132595
82833.5
82834.3
82836.6
98232.2
98655.8
98890.9
161255
161646
161839
98222
98641.5
98873.4
97832.4
98289.8
98566.6
160893
161266
161465
97825.5
98279.4
98552.9
97322.7
97863.3
98152.9
160469
160740
160982
97318.5
97855.6
98142.3
95865.3
96038.9
96135.6
158496
158605
158726
95868.9
96041.8
96138.1
90237
90182.4
90141.1
148896
148899
148901
90241.9
90187.4
90146.8
82763.5
82761.1
82760.1
132491
132502
132508
82767.7
82765.5
82764.5
)
;

boundaryField
{
    fuel
    {
        type            zeroGradient;
    }
    primary_air
    {
        type            zeroGradient;
    }
    Secondary_air_RHS
    {
        type            zeroGradient;
    }
    Secondary_air_LHS
    {
        type            zeroGradient;
    }
    outlet
    {
        type            totalPressure;
        rho             rho;
        psi             none;
        gamma           1;
        p0              uniform 100000;
        value           nonuniform List<scalar> 
18
(
86333.4
100000
86338.7
86283.1
100000
86288.4
86268.9
100000
86274.9
86338.6
100000
86343.7
86351.9
100000
86356.4
86401.9
100000
86406.2
)
;
    }
    stove_body
    {
        type            zeroGradient;
    }
    frontAndBack
    {
        type            empty;
    }
}


// ************************************************************************* //
