/*--------------------------------*- C++ -*----------------------------------*\
  =========                 |
  \\      /  F ield         | OpenFOAM: The Open Source CFD Toolbox
   \\    /   O peration     | Website:  https://openfoam.org
    \\  /    A nd           | Version:  6
     \\/     M anipulation  |
\*---------------------------------------------------------------------------*/
FoamFile
{
    version     2.0;
    format      ascii;
    class       volVectorField;
    location    "5";
    object      U;
}
// * * * * * * * * * * * * * * * * * * * * * * * * * * * * * * * * * * * * * //

dimensions      [0 1 -1 0 0 0 0];

internalField   nonuniform List<vector> 
297
(
(36.1368 -0.0202052 0.289678)
(36.1366 -0.00185003 0.298861)
(36.1369 0.0207183 0.290101)
(2.56855e-09 0.016709 0.299189)
(2.31686e-09 0.00101067 0.317194)
(2.08666e-09 -0.0163694 0.301665)
(-36.1368 -0.0202047 0.289676)
(-36.1366 -0.00184879 0.298861)
(-36.1369 0.0207188 0.290102)
(36.1449 -0.00163032 0.306334)
(36.1396 0.000400662 0.311653)
(36.1465 -9.37703e-05 0.305695)
(2.52263e-09 0.0815531 -0.240591)
(2.24269e-09 0.00879259 -0.325278)
(2.00797e-09 -0.0851992 -0.242719)
(-36.1448 -0.00162851 0.306335)
(-36.1396 0.000403627 0.311653)
(-36.1466 -9.22854e-05 0.305695)
(36.1792 -0.00443501 0.551585)
(36.1548 -0.00064118 0.563107)
(36.1848 -0.000804822 0.550253)
(1.77294e-09 0.0319068 0.451914)
(1.4832e-09 0.00457021 0.498914)
(1.42143e-09 -0.0498528 0.457665)
(-36.1792 -0.00442994 0.551584)
(-36.1548 -0.000633623 0.563107)
(-36.1848 -0.000800769 0.550254)
(21.5593 9.0836 1.20897)
(21.9406 5.34295 6.82508)
(21.4074 -9.14991 8.31387)
(-6.38975e-05 5.46327 1.9552)
(0.000101952 2.70912 1.49705)
(-1.58429e-05 -5.90529 4.51961)
(-21.5695 9.0817 1.23282)
(-21.9487 5.33682 6.83525)
(-21.4135 -9.15017 8.33161)
(21.2642 10.9633 8.96585)
(21.3055 2.60014 37.2159)
(20.919 -12.187 15.8811)
(-0.000152797 22.8631 70.8163)
(3.18336e-05 -0.0359278 67.3405)
(-0.00010614 -25.8603 74.4355)
(-21.276 10.9561 8.98148)
(-21.3122 2.59309 37.2199)
(-20.9264 -12.185 15.8834)
(20.7318 -0.588549 -17.3885)
(21.3057 3.67835 56.5723)
(20.3702 -1.28479 -0.847158)
(0.000958106 -20.1326 109.266)
(-4.68173e-05 0.582113 -8.68478)
(0.000882942 17.713 113.038)
(-20.742 -0.640559 -17.3435)
(-21.3141 3.67431 56.6872)
(-20.3764 -1.2361 -0.822818)
(21.5808 -16.3629 -118.852)
(21.8696 -3.76472 -8.07605)
(21.3978 18.8066 -109.865)
(0.000369529 -3.62699 2.37254)
(-0.00103542 3.97114 -76.523)
(0.000383435 1.40144 14.5912)
(-21.5899 -16.3348 -118.885)
(-21.8888 -3.74582 -8.10791)
(-21.4042 18.7748 -109.892)
(23.0504 36.4844 -80.9893)
(23.6144 -13.3288 -72.3547)
(22.3034 -28.1782 -72.4555)
(9.46882e-05 16.7686 -43.9457)
(-0.00032615 0.975715 -57.3057)
(0.00017075 -10.8408 -28.6143)
(-23.0689 36.4746 -80.9972)
(-23.6392 -13.2834 -72.4002)
(-22.3123 -28.1973 -72.4637)
(24.7741 27.9087 -26.5922)
(24.7388 -17.231 -22.8881)
(24.8259 -33.0676 -26.2805)
(0.000192647 28.5385 -27.7933)
(-6.54696e-05 12.481 -28.8128)
(0.000316213 -16.8821 -30.8934)
(-24.8149 27.8883 -26.5732)
(-24.7736 -17.1551 -22.8673)
(-24.8502 -33.0002 -26.2608)
(15.3398 2.75739 -171.818)
(20.5018 -0.454332 77.0194)
(15.3489 -2.37634 -161.444)
(-0.00117349 -11.7186 153.562)
(-0.00310704 2.77216 -94.9321)
(-0.00141408 9.21295 156.458)
(-15.3533 2.84213 -171.685)
(-20.4889 -0.463716 77.2331)
(-15.3591 -2.46256 -161.298)
(16.301 -2.4668 -175.371)
(18.3639 -0.817517 76.4738)
(16.3975 3.48543 -165.27)
(-0.00113356 -6.12979 170.987)
(-0.00377198 2.9111 -97.8563)
(-0.00133754 3.4796 173.537)
(-16.3158 -2.38437 -175.273)
(-18.3719 -0.81886 76.6609)
(-16.4094 3.39947 -165.155)
(20.3357 -8.24583 -159.425)
(18.5292 -1.14214 74.0384)
(20.0885 10.0173 -149.778)
(-0.00122188 -0.79221 167.228)
(-0.00493632 3.0415 -98.2298)
(-0.00138111 -1.84821 170.058)
(-20.3518 -8.17823 -159.385)
(-18.5634 -1.13977 74.1141)
(-20.099 9.94425 -149.72)
(24.3818 55.9088 -14.3013)
(24.5678 1.43587 -15.7079)
(24.3886 -56.2679 -14.6234)
(-0.000263056 39.3763 -16.3476)
(-0.000462412 -4.22049 -16.3992)
(-0.000205288 -40.25 -13.9543)
(-24.426 55.8118 -14.3011)
(-24.6119 1.43552 -15.7084)
(-24.4362 -56.1493 -14.6056)
(24.7018 35.8099 -4.39909)
(24.8041 -2.94919 -1.30669)
(24.7247 -36.1188 -4.4503)
(-0.000363099 20.7001 -8.4664)
(-0.000540511 0.90747 -7.1846)
(-0.00031608 -21.8523 -8.06328)
(-24.7391 35.7551 -4.42479)
(-24.8415 -2.95108 -1.33578)
(-24.761 -36.0521 -4.48079)
(24.8536 -3.97398 -4.99804)
(24.8569 -0.681058 3.42869)
(24.8488 4.42272 -5.26259)
(-0.000414365 5.79886 -5.66524)
(-0.00057985 -1.67156 -1.89971)
(-0.000364807 -6.07001 -4.64628)
(-24.8796 -3.89754 -5.00769)
(-24.8934 -0.680262 3.39786)
(-24.8827 4.35279 -5.25099)
(24.3516 -58.9314 -5.94522)
(24.658 -53.4352 -9.34501)
(24.5652 -45.6792 -12.7051)
(-0.000288435 -45.6566 -5.5409)
(-0.000271946 -43.717 -5.09342)
(-0.000370268 -36.5111 -5.21747)
(-24.4092 -58.8094 -5.91056)
(-24.7223 -53.3011 -9.30223)
(-24.6327 -45.5495 -12.6605)
(24.5814 -44.0478 -2.70333)
(24.7875 -45.5276 -10.9974)
(24.4533 -38.4828 -20.4773)
(-0.000264711 -37.0167 -0.44817)
(-0.000188079 -37.3991 1.4917)
(-0.000201132 -31.381 3.6986)
(-24.6216 -43.9971 -2.72581)
(-24.8284 -45.4441 -11.0038)
(-24.4919 -38.4145 -20.4759)
(24.8873 -8.72374 -5.15051)
(24.8912 -24.276 -18.4644)
(24.4824 -33.0796 -29.1392)
(-0.0002431 -19.3057 1.98493)
(-9.88711e-05 -20.4878 4.44289)
(2.51352e-05 -22.6678 4.37096)
(-24.921 -8.75664 -5.10176)
(-24.9252 -24.2423 -18.4001)
(-24.5174 -33.0269 -29.1004)
(24.5686 45.2894 -12.6023)
(24.6596 52.944 -9.26598)
(24.3526 58.4429 -5.92639)
(-0.000307895 36.3872 -5.22339)
(-0.000271664 43.2125 -5.02946)
(-0.000310098 45.7544 -5.59873)
(-24.6295 45.1799 -12.5761)
(-24.719 52.8364 -9.23435)
(-24.4087 58.3514 -5.89963)
(24.4487 38.1298 -20.2911)
(24.7795 45.2311 -10.9364)
(24.5746 43.5504 -2.76785)
(-0.000185938 31.1574 3.60325)
(-0.000216795 37.1686 1.57565)
(-0.000293905 36.9389 -0.666844)
(-24.4894 38.0752 -20.3011)
(-24.8202 45.1695 -10.9425)
(-24.6129 43.5258 -2.78383)
(24.4887 32.8013 -28.8622)
(24.894 24.1933 -18.5546)
(24.8891 8.10422 -5.18614)
(-1.62802e-05 22.5075 4.3142)
(-0.000148655 20.4305 4.34305)
(-0.000279581 19.2417 1.88973)
(-24.5149 32.7642 -28.8431)
(-24.9198 24.1731 -18.4979)
(-24.9144 8.14911 -5.14596)
(24.3756 14.1611 -22.1285)
(24.3882 21.0812 -15.1907)
(24.4853 32.8224 -17.7832)
(-0.000868537 13.6236 -11.1514)
(-0.000691896 18.3093 -6.14943)
(-0.000474978 27.7923 -6.43117)
(-24.4812 14.1161 -22.0203)
(-24.472 21.0268 -15.1069)
(-24.5545 32.7147 -17.7287)
(24.447 5.55234 -33.9987)
(24.4787 18.2889 -24.1031)
(24.3904 31.6342 -30.5144)
(-0.000672733 9.24223 -10.4046)
(-0.000487573 14.3815 -5.17042)
(-0.000314733 25.3948 -3.18462)
(-24.5309 5.56914 -33.8491)
(-24.537 18.2689 -24.0476)
(-24.4387 31.5783 -30.4839)
(24.8076 4.67508 -42.5155)
(24.5478 20.2085 -37.7319)
(24.4402 18.4195 -46.9555)
(-0.000503591 7.47915 -16.4741)
(-0.000343139 15.0756 -11.559)
(-0.000180417 20.7065 -0.578281)
(-24.8802 4.68899 -42.3554)
(-24.5795 20.1837 -37.6882)
(-24.4715 18.3927 -46.8948)
(24.7039 -5.69661 -67.8854)
(24.7034 -4.43499 -63.1616)
(24.7154 -10.1768 -67.378)
(0.000146902 -6.33183 4.58442)
(0.000169371 1.57431 17.7464)
(0.000196313 -7.72852 14.725)
(-24.7557 -5.62708 -67.731)
(-24.7055 -4.40046 -63.1543)
(-24.7442 -10.1797 -67.2727)
(24.2776 2.47409 -132.48)
(24.2657 -1.14579 -132.968)
(24.2571 4.5962 -131.693)
(0.000299781 -1.98383 64.302)
(0.000260841 0.135815 66.7202)
(0.000254644 -1.80613 61.0201)
(-24.2765 2.43864 -132.377)
(-24.2647 -1.13328 -132.918)
(-24.2561 4.59443 -131.633)
(23.0804 -0.101908 -165.893)
(23.083 -0.0159607 -165.8)
(23.0853 -0.18364 -165.448)
(0.000246169 -0.589557 171.859)
(0.000242405 0.316905 170.474)
(0.000240131 -0.505482 168.372)
(-23.0798 -0.0993072 -165.857)
(-23.0823 -0.0148149 -165.768)
(-23.0846 -0.182599 -165.417)
(24.4847 -33.1176 -17.9296)
(24.3931 -21.2808 -15.31)
(24.3876 -14.2823 -22.3389)
(-0.00058822 -28.1713 -6.47482)
(-0.00082728 -18.4867 -6.20563)
(-0.00100706 -13.7918 -11.2495)
(-24.5578 -32.9925 -17.8532)
(-24.4755 -21.2101 -15.2078)
(-24.4863 -14.2273 -22.2018)
(24.3939 -31.831 -30.7689)
(24.4973 -18.4945 -24.2634)
(24.4584 -5.5836 -34.3394)
(-0.000404911 -25.6235 -3.22315)
(-0.000597799 -14.5031 -5.22654)
(-0.000790217 -9.3216 -10.5428)
(-24.4398 -31.7621 -30.7307)
(-24.5381 -18.4513 -24.2089)
(-24.5304 -5.59612 -34.1572)
(24.4295 -18.5416 -47.3689)
(24.5579 -20.3396 -38.0687)
(24.8236 -4.7119 -42.9532)
(-0.000245692 -20.9575 -0.574406)
(-0.000446152 -15.152 -11.7383)
(-0.000613729 -7.56524 -16.6734)
(-24.4718 -18.5112 -47.2852)
(-24.5832 -20.3015 -38.0339)
(-24.8851 -4.71953 -42.7651)
(24.6987 10.187 -67.9137)
(24.7017 4.47528 -63.639)
(24.6754 5.77946 -68.5784)
(0.000208748 7.65805 14.6995)
(0.000176565 -1.53779 17.6426)
(0.000148882 6.38901 3.95511)
(-24.7482 10.1913 -67.7845)
(-24.7095 4.4514 -63.6686)
(-24.7606 5.707 -68.3935)
(24.2592 -4.58578 -132.253)
(24.268 1.16207 -133.52)
(24.2799 -2.51801 -133.149)
(0.000312392 1.80658 61.0909)
(0.000313433 -0.0768579 66.7855)
(0.000355636 2.01082 64.6979)
(-24.258 -4.57955 -132.183)
(-24.2668 1.14059 -133.467)
(-24.2786 -2.47967 -133.021)
(23.0866 0.185447 -165.93)
(23.0844 0.0174148 -166.283)
(23.0822 0.105933 -166.383)
(0.000288067 0.494841 168.186)
(0.000290923 -0.327677 170.315)
(0.000296218 0.582528 171.611)
(-23.0858 0.184048 -165.893)
(-23.0836 0.0160126 -166.246)
(-23.0814 0.102688 -166.34)
)
;

boundaryField
{
    fuel
    {
        type            fixedValue;
        value           uniform (0 0 0.25);
    }
    primary_air
    {
        type            fixedValue;
        value           uniform (0 0 2.5);
    }
    Secondary_air_RHS
    {
        type            fixedValue;
        value           uniform (0 150 0);
    }
    Secondary_air_LHS
    {
        type            fixedValue;
        value           uniform (0 -150 0);
    }
    outlet
    {
        type            pressureInletOutletVelocity;
        value           nonuniform List<vector> 
18
(
(0 0 -165.93)
(0.000288067 0.494841 168.186)
(0 0 -165.893)
(0 0 -166.283)
(0.000290923 -0.327677 170.315)
(0 0 -166.246)
(0 0 -166.383)
(0.000296218 0.582528 171.611)
(0 0 -166.34)
(0 0 -165.893)
(0.000246169 -0.589557 171.859)
(0 0 -165.857)
(0 0 -165.8)
(0.000242405 0.316905 170.474)
(0 0 -165.768)
(0 0 -165.448)
(0.000240131 -0.505482 168.372)
(0 0 -165.417)
)
;
    }
    stove_body
    {
        type            noSlip;
    }
    frontAndBack
    {
        type            empty;
    }
}


// ************************************************************************* //
