/*--------------------------------*- C++ -*----------------------------------*\
  =========                 |
  \\      /  F ield         | OpenFOAM: The Open Source CFD Toolbox
   \\    /   O peration     | Website:  https://openfoam.org
    \\  /    A nd           | Version:  6
     \\/     M anipulation  |
\*---------------------------------------------------------------------------*/
FoamFile
{
    version     2.0;
    format      ascii;
    class       volScalarField;
    location    "3.5";
    object      p;
}
// * * * * * * * * * * * * * * * * * * * * * * * * * * * * * * * * * * * * * //

dimensions      [1 -1 -2 0 0 0 0];

internalField   nonuniform List<scalar> 
297
(
121037
121036
121036
201679
201676
201673
121039
121037
121034
121037
121036
121036
201679
201676
201673
121039
121037
121034
121037
121036
121036
201679
201676
201673
121039
121037
121034
97209.7
97151
97229.1
161614
161570
161622
97211.1
97152
97230.5
97309.8
96605.7
97335.3
160882
161033
160952
97321.1
96606.4
97329.7
94083
93889
94237.8
151946
157020
152237
94085.5
93888.7
94238.2
91589
94393.8
91332.4
156223
155683
156211
91580.7
94392.4
91338.5
96291.1
96504.7
96190.8
160615
159875
160580
96291.1
96504.5
96192.3
96358.3
96727
96333.8
160499
161067
160561
96358
96726
96334.5
74140.3
91615.6
74513.2
122023
152727
121447
74070.3
91613.8
74520.6
74045.4
91501.5
74273
120372
152764
119535
73971.6
91499.9
74279.7
76316
91811.1
76442.3
122703
153825
121610
76250.5
91809.2
76446.8
96934.1
97062.4
96930.8
161344
161637
161321
96933.1
97061.5
96930.6
97040.7
97063.8
97029.7
161580
161715
161550
97039.7
97063.3
97029.4
97047.6
97060
97039.9
161693
161731
161661
97046.8
97059.5
97039.6
97158.2
97343.6
97756.2
161504
161633
161877
97157.3
97342.2
97753
97074.4
97136.6
97397.6
161522
161553
161665
97073.8
97135.8
97395.9
96995.3
96889.5
96780.5
161608
161548
161520
96995
96889.5
96780.7
97755.7
97344.3
97160.2
161887
161647
161524
97753.6
97343.2
97159
97397.8
97136.7
97075.8
161676
161568
161543
97396.7
97135.9
97074.7
96783.1
96890.9
96997.5
161533
161564
161630
96783
96890.6
96996.7
98629.1
98470.3
98180.1
162649
162506
162236
98619.9
98463.1
98175.7
98401
98202.5
97875.7
162356
162232
161971
98393.8
98197.3
97872.9
98125
97909.6
97510.8
161983
161846
161651
98119.5
97906
97509.3
96661.7
96586.4
96443.7
160233
160159
160059
96662.9
96587.8
96445.3
91050.9
91077.8
91125.4
151015
151017
151016
91053.5
91079.9
91127.4
83567.1
83567.4
83569.7
134758
134758
134750
83568.6
83568.9
83571.1
98181.7
98472.6
98632
162230
162502
162647
98176.1
98464.5
98621.9
97876.6
98203.8
98402.9
161964
162227
162352
97872.6
98197.7
98394.8
97510.2
97909.6
98125.4
161643
161840
161978
97507.9
97905.2
98119.2
96437.5
96580.5
96655.9
160048
160149
160223
96439.3
96582.1
96657.2
91112.9
91065.3
91038.4
150996
150997
150995
91115.5
91068
91041.5
83554.6
83552.3
83552
134726
134735
134734
83556.4
83554.1
83553.9
)
;

boundaryField
{
    fuel
    {
        type            zeroGradient;
    }
    primary_air
    {
        type            zeroGradient;
    }
    Secondary_air_RHS
    {
        type            zeroGradient;
    }
    Secondary_air_LHS
    {
        type            zeroGradient;
    }
    outlet
    {
        type            totalPressure;
        rho             rho;
        psi             none;
        gamma           1;
        p0              uniform 100000;
        value           nonuniform List<scalar> 
18
(
87318.6
100000
87320.8
87287.1
100000
87289.3
87277.9
100000
87280.4
87291.7
100000
87293.8
87300.9
100000
87302.7
87332.4
100000
87334.1
)
;
    }
    stove_body
    {
        type            zeroGradient;
    }
    frontAndBack
    {
        type            empty;
    }
}


// ************************************************************************* //
