/*--------------------------------*- C++ -*----------------------------------*\
  =========                 |
  \\      /  F ield         | OpenFOAM: The Open Source CFD Toolbox
   \\    /   O peration     | Website:  https://openfoam.org
    \\  /    A nd           | Version:  6
     \\/     M anipulation  |
\*---------------------------------------------------------------------------*/
FoamFile
{
    version     2.0;
    format      ascii;
    class       volVectorField;
    location    "3.5";
    object      U;
}
// * * * * * * * * * * * * * * * * * * * * * * * * * * * * * * * * * * * * * //

dimensions      [0 1 -1 0 0 0 0];

internalField   nonuniform List<vector> 
297
(
(13.7457 -0.00421171 0.27038)
(13.7465 -0.00109499 0.271659)
(13.7457 0.00311758 0.270133)
(6.5976e-05 0.00167248 0.251356)
(2.28606e-06 -0.00604827 0.247917)
(-6.13572e-05 -0.00769452 0.250886)
(-13.7456 -0.00514344 0.270282)
(-13.7465 -0.00290087 0.271638)
(-13.7457 0.00224152 0.270134)
(13.7454 -0.0048263 0.294876)
(13.7464 -0.000931367 0.286137)
(13.7454 0.00383324 0.294673)
(6.60957e-05 0.00727548 0.0856483)
(2.03041e-06 -0.00556936 0.119245)
(-6.19902e-05 -0.0126826 0.0865766)
(-13.7453 -0.0057574 0.294783)
(-13.7464 -0.00286443 0.286139)
(-13.7454 0.00290744 0.294672)
(12.7969 -0.0220766 0.439624)
(13.7362 -0.00191211 0.459858)
(12.8942 0.020695 0.44069)
(5.31956e-05 -0.0354463 0.213755)
(1.59587e-06 -0.00480505 0.170185)
(-5.04295e-05 0.0314308 0.211668)
(-12.8673 -0.0228259 0.440533)
(-13.7362 -0.00332035 0.459826)
(-12.8699 0.0198807 0.440281)
(49.0155 5.29273 16.5927)
(31.9888 -0.307184 22.9349)
(50.8619 -3.62746 15.1323)
(6.87935e-05 1.66533 18.149)
(3.36709e-05 -0.371809 10.8764)
(7.68179e-05 -2.12178 17.3846)
(-49.2294 5.31401 16.1287)
(-32.0631 0.121449 23.0603)
(-50.8833 -3.47384 15.4549)
(70.6362 -0.661906 35.3886)
(64.9379 -3.45206 110.264)
(73.3254 6.31233 33.5939)
(0.00161281 36.664 188.604)
(5.15483e-05 -0.532455 133.068)
(-0.000833028 -31.1969 190.362)
(-70.6537 -0.617218 35.4107)
(-65.098 -4.46362 110.025)
(-73.5959 6.73551 33.5708)
(69.0465 -42.587 -51.114)
(57.9273 0.788834 153.236)
(71.6288 45.5333 -50.8309)
(0.00031007 -50.895 252.272)
(-1.52426e-05 1.28981 -22.5498)
(4.31659e-05 50.8247 257.836)
(-69.0675 -43.5424 -51.2395)
(-58.0305 1.88503 153.488)
(-71.8883 44.9514 -50.9261)
(45.2197 -49.5089 -212.193)
(33.8613 -3.42178 -25.7066)
(46.85 53.9799 -212.964)
(-0.00149074 -55.7801 -19.7768)
(-8.11457e-05 1.71649 -116.49)
(0.00111036 58.5526 -27.1104)
(-45.2622 -49.5694 -212.49)
(-33.884 -3.64675 -25.8938)
(-46.86 53.9167 -213.151)
(21.8393 50.9469 -125.271)
(14.1643 -7.5767 -87.8707)
(24.1757 -44.1978 -128.223)
(-5.20058e-06 13.2598 -112.597)
(-1.07574e-05 6.05644 -98.5652)
(0.000157929 -10.7058 -115.549)
(-21.8541 50.8906 -125.426)
(-14.1711 -7.44367 -87.9094)
(-24.1681 -44.2246 -128.151)
(9.41791 30.1738 -25.4933)
(9.42413 -6.72129 -19.5478)
(9.42125 -28.1026 -25.7923)
(-6.83049e-06 25.4398 -23.6412)
(-2.21475e-05 6.48533 -24.87)
(1.53061e-05 -21.9258 -22.4661)
(-9.42725 30.1092 -25.4803)
(-9.42897 -6.66187 -19.5521)
(-9.4287 -28.0685 -25.7866)
(60.6877 -34.2644 -486.284)
(56.5263 -4.47623 199.53)
(62.0692 40.5094 -486.449)
(-0.0116933 -50.3339 374.387)
(-9.96563e-05 4.49616 -144.349)
(0.00125726 52.292 387.922)
(-60.5688 -34.9373 -486.641)
(-56.6255 -4.52738 199.61)
(-62.4148 40.2792 -487.863)
(55.7233 -40.3567 -391.34)
(51.0869 -4.69436 195.168)
(53.3969 45.6335 -389.684)
(-0.0132647 -52.1209 421.194)
(-9.52001e-05 4.15725 -145.79)
(0.00131959 53.2576 440.733)
(-55.7555 -40.6396 -392.412)
(-51.1771 -4.82665 195.243)
(-53.5432 45.4872 -390.458)
(50.1837 -39.1249 -343.798)
(51.4682 -4.62082 179.89)
(51.4955 44.6015 -342.598)
(-0.0133738 -52.3629 467.624)
(-0.000122065 3.4913 -137.418)
(0.000948924 57.2539 484.238)
(-50.2465 -39.4781 -344.521)
(-51.557 -4.89731 179.934)
(-51.651 44.4611 -343.175)
(9.36402 46.1389 -13.0247)
(9.41327 2.86421 -12.6403)
(9.3622 -46.0981 -13.0921)
(-2.08338e-05 36.8102 -13.5939)
(-1.82524e-05 -4.25044 -13.5507)
(-3.58102e-06 -37.3633 -12.9362)
(-9.37351 46.067 -13.019)
(-9.41645 2.92313 -12.6457)
(-9.37359 -46.0075 -13.0876)
(9.4242 22.5389 -5.12598)
(9.44021 -2.52624 -2.3091)
(9.42166 -21.4114 -5.0898)
(-2.25443e-05 25.8171 -5.53013)
(-1.0653e-05 -0.12315 -6.90384)
(-5.14196e-06 -26.316 -5.49913)
(-9.42745 22.5303 -5.15769)
(-9.44509 -2.45111 -2.34051)
(-9.42874 -21.3831 -5.09577)
(9.44347 -2.13223 -5.38133)
(9.44202 0.532902 1.14344)
(9.43746 4.03367 -5.01746)
(-1.85853e-05 14.2436 -3.18106)
(-1.07659e-05 -3.07511 -3.28042)
(-7.4294e-06 -15.349 -2.64238)
(-9.44504 -1.9516 -5.34542)
(-9.4468 0.503058 1.06267)
(-9.44196 4.00829 -5.0222)
(9.35191 -49.9059 -5.70984)
(9.38745 -44.7095 -8.26415)
(9.3711 -38.4894 -11.22)
(-1.88288e-05 -40.4386 -4.62127)
(-3.17504e-05 -37.423 -4.55431)
(-6.8476e-05 -31.8045 -4.94027)
(-9.36385 -49.8136 -5.6898)
(-9.39981 -44.6138 -8.24012)
(-9.38398 -38.4 -11.1969)
(9.3987 -36.039 -2.94267)
(9.41702 -37.3803 -9.32242)
(9.36871 -32.8192 -17.703)
(-1.16597e-05 -33.5065 0.201165)
(-1.67421e-05 -33.1553 1.53136)
(-3.87173e-05 -27.8514 2.42406)
(-9.40676 -35.9951 -2.95308)
(-9.4254 -37.3294 -9.3228)
(-9.37783 -32.7756 -17.7003)
(9.44435 -3.35814 -3.81076)
(9.43827 -18.0623 -16.6941)
(9.3908 -27.6719 -25.2329)
(-6.62835e-06 -19.9254 2.62627)
(-7.57936e-07 -20.7642 3.48208)
(5.18857e-06 -21.1736 3.36535)
(-9.44926 -3.37264 -3.7898)
(-9.44369 -18.0438 -16.6632)
(-9.39702 -27.6418 -25.202)
(9.37319 38.4314 -11.2169)
(9.38878 44.6758 -8.25383)
(9.35347 49.8361 -5.6807)
(-4.51292e-05 31.6819 -4.93954)
(-2.57546e-05 37.2828 -4.52836)
(-2.6141e-05 40.1999 -4.62451)
(-9.38395 38.3371 -11.191)
(-9.39991 44.5851 -8.22497)
(-9.36394 49.7622 -5.65447)
(9.3737 32.8072 -17.7193)
(9.42172 37.43 -9.29332)
(9.40286 36.1195 -2.92513)
(-2.40936e-05 27.7146 2.41693)
(-1.68284e-05 33.0016 1.54801)
(-2.21934e-05 33.234 0.238933)
(-9.3778 32.7572 -17.7353)
(-9.42546 37.389 -9.30509)
(-9.40643 36.0873 -2.94761)
(9.39516 27.7059 -25.2232)
(9.44212 18.1128 -16.4605)
(9.44788 4.02594 -3.47545)
(-2.75973e-06 21.0163 3.41014)
(-6.91534e-06 20.5401 3.54593)
(-1.71557e-05 19.4947 2.68518)
(-9.39693 27.6745 -25.2154)
(-9.44373 18.0737 -16.4294)
(-9.44943 3.9957 -3.41362)
(9.34258 11.9766 -19.555)
(9.34565 17.7224 -13.8201)
(9.35932 27.5275 -15.9965)
(-0.00019985 10.2071 -9.83793)
(-0.00015744 15.8638 -5.24671)
(-9.66094e-05 23.4816 -6.13913)
(-9.36263 11.9385 -19.4778)
(-9.36268 17.6738 -13.7515)
(-9.37149 27.4395 -15.9479)
(9.35071 5.16389 -29.3692)
(9.36385 15.5771 -21.9203)
(9.35823 27.4287 -26.9699)
(-0.00015869 7.63267 -7.23761)
(-0.000112993 12.552 -2.32357)
(-6.09806e-05 21.5324 -2.19789)
(-9.3682 5.17336 -29.2634)
(-9.3734 15.5489 -21.8511)
(-9.36376 27.3978 -26.9416)
(9.39344 4.20399 -35.9868)
(9.37062 17.6001 -32.8652)
(9.37182 16.3335 -40.7914)
(-0.000121302 6.11351 -11.9711)
(-7.89059e-05 13.9084 -7.02569)
(-3.39465e-05 16.4764 -1.39032)
(-9.41063 4.2123 -35.8721)
(-9.37588 17.6021 -32.803)
(-9.37394 16.3082 -40.7717)
(9.38991 -4.3536 -57.4258)
(9.39562 -3.45767 -54.756)
(9.40182 -10.2717 -59.5112)
(2.52228e-05 -5.01722 10.6721)
(3.08628e-05 2.8635 19.0752)
(3.5803e-05 -9.52829 16.1395)
(-9.40301 -4.29892 -57.317)
(-9.39534 -3.42367 -54.7543)
(-9.40278 -10.2777 -59.4821)
(9.27462 1.82814 -123.718)
(9.27099 -1.08767 -125.051)
(9.26909 4.81626 -123.835)
(6.02516e-05 -1.79135 62.675)
(4.98181e-05 0.921765 65.5533)
(4.72557e-05 -2.0129 60.5156)
(-9.27444 1.80571 -123.661)
(-9.27081 -1.08196 -125.025)
(-9.26893 4.82338 -123.807)
(8.8744 -0.0115885 -159.126)
(8.87535 -0.0410641 -159.06)
(8.87644 -0.0568513 -158.834)
(3.88479e-05 -0.579538 176.721)
(3.77022e-05 0.418653 175.584)
(3.70525e-05 -0.567795 173.803)
(-8.87429 -0.0106735 -159.111)
(-8.87523 -0.0397919 -159.047)
(-8.87633 -0.0563806 -158.821)
(9.35693 -27.547 -16.0215)
(9.34528 -17.7511 -13.8241)
(9.3415 -11.9871 -19.5851)
(-0.000122448 -23.5339 -6.16854)
(-0.000177375 -15.9289 -5.2479)
(-0.00021857 -10.1849 -9.87044)
(-9.3716 -27.4649 -15.981)
(-9.36285 -17.7048 -13.7695)
(-9.36278 -11.9537 -19.5122)
(9.35292 -27.4574 -26.9902)
(9.36021 -15.5826 -21.9339)
(9.34732 -5.16283 -29.4246)
(-8.7071e-05 -21.5678 -2.21724)
(-0.000133216 -12.6314 -2.32442)
(-0.00017545 -7.62025 -7.27698)
(-9.36379 -27.4238 -26.9623)
(-9.37384 -15.5533 -21.8899)
(-9.36851 -5.1733 -29.3208)
(9.36691 -16.3222 -40.8882)
(9.36856 -17.6237 -32.8931)
(9.39333 -4.20675 -36.0643)
(-5.11483e-05 -16.4386 -1.48167)
(-9.61848e-05 -14.0107 -7.00492)
(-0.000135013 -6.11064 -12.0075)
(-9.37417 -16.311 -40.8313)
(-9.37574 -17.6108 -32.85)
(-9.41093 -4.21338 -35.9498)
(9.39667 10.2831 -59.6357)
(9.39486 3.4447 -54.8418)
(9.39009 4.35694 -57.5539)
(4.00558e-05 9.57256 16.0714)
(3.40125e-05 -2.89962 19.0301)
(2.89714e-05 5.03875 10.6033)
(-9.40321 10.2879 -59.5786)
(-9.39579 3.42233 -54.8342)
(-9.40347 4.30789 -57.4362)
(9.26934 -4.82604 -123.945)
(9.27126 1.09482 -125.16)
(9.27485 -1.83301 -123.847)
(6.05065e-05 2.043 60.5255)
(6.18058e-05 -0.943631 65.574)
(7.07089e-05 1.80392 62.6775)
(-9.26914 -4.82754 -123.908)
(-9.27103 1.08743 -125.128)
(-9.27464 -1.81066 -123.785)
(8.87656 0.0570817 -158.933)
(8.87547 0.0416169 -159.159)
(8.87453 0.0120266 -159.225)
(4.55189e-05 0.576285 173.762)
(4.5978e-05 -0.425033 175.54)
(4.69442e-05 0.584092 176.672)
(-8.87642 0.0567122 -158.917)
(-8.87533 0.0406056 -159.143)
(-8.87439 0.0112358 -159.207)
)
;

boundaryField
{
    fuel
    {
        type            fixedValue;
        value           uniform (0 0 0.25);
    }
    primary_air
    {
        type            fixedValue;
        value           uniform (0 0 2.5);
    }
    Secondary_air_RHS
    {
        type            fixedValue;
        value           uniform (0 125 0);
    }
    Secondary_air_LHS
    {
        type            fixedValue;
        value           uniform (0 -125 0);
    }
    outlet
    {
        type            pressureInletOutletVelocity;
        value           nonuniform List<vector> 
18
(
(0 0 -158.933)
(4.55189e-05 0.576285 173.762)
(0 0 -158.917)
(0 0 -159.159)
(4.5978e-05 -0.425033 175.54)
(0 0 -159.143)
(0 0 -159.225)
(4.69442e-05 0.584092 176.672)
(0 0 -159.207)
(0 0 -159.126)
(3.88479e-05 -0.579538 176.721)
(0 0 -159.111)
(0 0 -159.06)
(3.77022e-05 0.418653 175.584)
(0 0 -159.047)
(0 0 -158.834)
(3.70525e-05 -0.567795 173.803)
(0 0 -158.821)
)
;
    }
    stove_body
    {
        type            noSlip;
    }
    frontAndBack
    {
        type            empty;
    }
}


// ************************************************************************* //
