/*--------------------------------*- C++ -*----------------------------------*\
  =========                 |
  \\      /  F ield         | OpenFOAM: The Open Source CFD Toolbox
   \\    /   O peration     | Website:  https://openfoam.org
    \\  /    A nd           | Version:  6
     \\/     M anipulation  |
\*---------------------------------------------------------------------------*/
FoamFile
{
    version     2.0;
    format      ascii;
    class       volScalarField;
    location    "4";
    object      Qdot;
}
// * * * * * * * * * * * * * * * * * * * * * * * * * * * * * * * * * * * * * //

dimensions      [1 -1 -3 0 0 0 0];

internalField   nonuniform List<scalar> 
297
(
5.03209e-05
7.63087e-05
5.03209e-05
0
0.000253259
0
0
7.63087e-05
0
0
0
5.03209e-05
0
0.000100642
0
7.63087e-05
7.63087e-05
5.03209e-05
7.63087e-05
0
0.00012663
1.25788e-05
9.53565e-06
5.07331e-05
0
7.63087e-05
5.03209e-05
0
-1.46949e-09
-1.44249e-09
0
0
0
0
0
-1.44249e-09
-1.46949e-09
0
0
-2.91197e-09
0
0
-1.46949e-09
1.35005e-11
-1.46949e-09
-1.46949e-09
0
0
0
0
0
-1.46949e-09
-1.46274e-09
-1.46949e-09
1.68756e-12
3.37513e-12
-1.46949e-09
0
-2.93813e-09
0
0
3.37513e-12
-1.4678e-09
0
1.28751e-17
0
-2.93897e-09
0
-2.93897e-09
0
1.28751e-17
0
0
0
0
0
0
-2.93897e-09
-1.46949e-09
4.91146e-23
0
0
6.75025e-12
0
0
0
-1.46949e-09
0
-1.46274e-09
-1.46949e-09
-1.46949e-09
-1.46274e-09
0
-1.46949e-09
-2.93813e-09
-1.46949e-09
0
6.75025e-12
0
0
-1.46949e-09
0
0
8.43782e-13
-1.46949e-09
-1.46949e-09
0
0
-1.46949e-09
1.49886e-27
-1.46949e-09
-2.93897e-09
0
0
9.36786e-29
0
0
-1.46949e-09
0
0
5.71769e-33
0
-2.93897e-09
1.14354e-32
-1.46949e-09
1.14354e-32
0
-1.46949e-09
0
5.71769e-33
-2.93897e-09
-2.93897e-09
1.14354e-32
0
1.14354e-32
-1.46949e-09
0
-1.46949e-09
0
-2.93897e-09
0
0
-1.46949e-09
-1.46949e-09
0
0
0
8.7245e-38
-2.93897e-09
0
1.7449e-37
-1.46949e-09
-1.46949e-09
0
0
-1.46949e-09
0
0
0
-1.46949e-09
-1.46949e-09
-1.46949e-09
-1.46949e-09
-1.46949e-09
0
-2.93897e-09
0
0
0
-1.46949e-09
0
-1.46949e-09
4.26001e-41
0
-2.93897e-09
6.81601e-40
-2.93897e-09
1.30005e-45
0
0
0
0
0
2.6001e-45
-2.93897e-09
1.7449e-37
0
-1.46949e-09
0
1.89182e-56
-1.46949e-09
0
0
0
0
3.78365e-56
-1.46949e-09
0
1.47799e-58
2.42153e-54
0
0
0
0
0
0
-1.46949e-09
-1.46949e-09
0
-1.46949e-09
5.91195e-58
0
0
5.91195e-58
0
-1.46949e-09
0
-1.46949e-09
7.56729e-56
5.91195e-58
-1.46949e-09
-1.46949e-09
0
4.72956e-57
0
-1.46949e-09
0
2.30936e-60
-1.46949e-09
7.56729e-56
-1.46949e-09
0
5.77339e-61
2.30936e-60
1.80418e-62
1.44335e-61
5.77339e-61
-1.46949e-09
-1.46949e-09
-1.46949e-09
0
-1.46949e-09
-1.46949e-09
-1.46949e-09
-1.46949e-09
-1.46949e-09
-2.93897e-09
4.84307e-54
0
-1.46949e-09
6.05384e-55
5.91195e-58
-1.46949e-09
1.21077e-54
2.95597e-58
0
0
0
1.98372e-50
1.21077e-54
-1.46949e-09
1.98372e-50
0
-1.46949e-09
0
6.05384e-55
5.91195e-58
1.98372e-50
3.02692e-55
0
7.56729e-56
-1.46949e-09
-1.46949e-09
3.02692e-55
3.78365e-56
0
-1.46949e-09
-1.46949e-09
0
-1.46949e-09
-1.46949e-09
-1.46949e-09
0
0
0
1.15468e-60
-1.46949e-09
0
2.88669e-61
0
4.51046e-63
7.56729e-56
0
1.18239e-57
2.88669e-61
7.21673e-62
4.51046e-63
)
;

boundaryField
{
    fuel
    {
        type            calculated;
        value           uniform 0;
    }
    primary_air
    {
        type            calculated;
        value           uniform 0;
    }
    Secondary_air_RHS
    {
        type            calculated;
        value           uniform 0;
    }
    Secondary_air_LHS
    {
        type            calculated;
        value           uniform 0;
    }
    outlet
    {
        type            calculated;
        value           uniform 0;
    }
    stove_body
    {
        type            calculated;
        value           uniform 0;
    }
    frontAndBack
    {
        type            empty;
    }
}


// ************************************************************************* //
