/*--------------------------------*- C++ -*----------------------------------*\
  =========                 |
  \\      /  F ield         | OpenFOAM: The Open Source CFD Toolbox
   \\    /   O peration     | Website:  https://openfoam.org
    \\  /    A nd           | Version:  6
     \\/     M anipulation  |
\*---------------------------------------------------------------------------*/
FoamFile
{
    version     2.0;
    format      ascii;
    class       volScalarField;
    location    "4";
    object      T;
}
// * * * * * * * * * * * * * * * * * * * * * * * * * * * * * * * * * * * * * //

dimensions      [0 0 0 1 0 0 0];

internalField   nonuniform List<scalar> 
297
(
292.703
292.7
292.703
293.025
293.022
293.026
292.703
292.7
292.703
292.837
292.785
292.85
293.737
293.318
293.803
292.836
292.784
292.851
293.149
292.924
293.198
294.724
290.623
296.117
293.149
292.924
293.198
272.833
277.237
271.364
281.117
287.98
282.862
272.961
277.341
271.441
269.939
269.155
265.946
268.363
273.288
265.684
270.096
269.278
266.051
270.239
267.915
266.575
267.111
281.303
264.339
270.409
267.938
266.69
267.493
279.939
265.588
266.675
280.55
265.999
267.611
280.11
265.677
285.739
293.512
278.345
275.707
282.723
267.936
285.977
293.807
278.461
303.828
303.91
304.006
304.654
304.463
304.753
304.341
304.343
304.32
256.673
267.202
254.448
260.861
279.879
257.857
256.796
266.912
254.508
258.098
267.031
258.092
257.862
279.79
253.339
258.231
267.304
258.181
262.246
267.065
260.6
254.982
279.727
251.743
262.386
267.608
260.695
303.048
304.345
303.076
304.6
305.052
304.685
303.584
304.882
303.658
303.826
304.262
304.079
305.293
305.139
305.277
304.275
304.703
304.513
304.315
304.24
304.261
305.582
305.077
305.581
304.624
304.672
304.662
302.767
302.83
303.096
304.243
304.261
304.502
303.45
303.573
303.856
303.969
303.749
303.829
305.088
305.009
305.199
304.428
304.21
304.3
304.437
304.31
304.036
305.781
305.792
305.742
304.837
304.712
304.458
303.051
302.813
302.747
304.384
304.146
304.116
303.788
303.531
303.428
303.737
303.625
303.848
305.187
304.986
305.072
304.238
304.117
304.31
304.085
304.346
304.471
305.813
305.857
305.837
304.402
304.649
304.774
303.352
303.59
303.257
305.469
305.219
304.751
304.621
304.598
304.097
303.497
303.809
303.509
305.996
305.816
305.53
304.506
304.508
304.105
303.404
303.785
303.515
306.238
305.979
305.91
304.282
304.145
303.89
303.343
303.766
303.337
307.075
306.029
306.444
303.986
303.795
303.704
300.039
300.118
300.115
303.601
303.479
305.221
300.038
300.113
300.113
292.636
292.669
292.716
292.764
292.817
293.147
292.635
292.669
292.715
303.366
303.741
303.567
304.88
305.355
305.55
304.175
304.692
304.742
303.579
304.062
303.693
305.532
305.832
306.092
304.173
304.568
304.549
303.463
303.946
303.609
305.823
305.956
306.294
303.96
304.225
304.35
303.16
303.757
302.997
306.785
306.199
307.07
303.771
303.863
304.057
300.157
300.161
300.075
305.508
303.593
303.592
300.153
300.155
300.073
292.733
292.686
292.655
293.311
292.941
292.847
292.732
292.685
292.654
)
;

boundaryField
{
    fuel
    {
        type            fixedValue;
        value           uniform 293;
    }
    primary_air
    {
        type            fixedValue;
        value           uniform 293;
    }
    Secondary_air_RHS
    {
        type            fixedValue;
        value           uniform 293;
    }
    Secondary_air_LHS
    {
        type            fixedValue;
        value           uniform 293;
    }
    outlet
    {
        type            inletOutlet;
        inletValue      uniform 293;
        value           nonuniform List<scalar> 
18
(
293
293.311
293
293
292.941
293
293
292.847
293
293
292.764
293
293
292.817
293
293
293.147
293
)
;
    }
    stove_body
    {
        type            fixedValue;
        value           uniform 293;
    }
    frontAndBack
    {
        type            empty;
    }
}


// ************************************************************************* //
