/*--------------------------------*- C++ -*----------------------------------*\
  =========                 |
  \\      /  F ield         | OpenFOAM: The Open Source CFD Toolbox
   \\    /   O peration     | Website:  https://openfoam.org
    \\  /    A nd           | Version:  6
     \\/     M anipulation  |
\*---------------------------------------------------------------------------*/
FoamFile
{
    version     2.0;
    format      ascii;
    class       volScalarField;
    location    "4.5";
    object      p;
}
// * * * * * * * * * * * * * * * * * * * * * * * * * * * * * * * * * * * * * //

dimensions      [1 -1 -2 0 0 0 0];

internalField   nonuniform List<scalar> 
297
(
120498
120500
120502
199429
199428
199426
120492
120492
120492
120498
120500
120502
199429
199428
199426
120492
120492
120492
120498
120500
120501
199429
199428
199426
120492
120492
120492
97130
97133.2
97126
160550
160580
160628
97170.7
97194.6
97193
97107.8
97069
97059.6
160188
160307
160282
97139.1
97129.5
97136.5
97028.6
97044.5
96724.3
158212
159409
158269
97018.7
97049.1
96813.9
96094.6
96465.1
96201.8
159212
158940
158989
96214.7
96462
96227.6
96445.7
96639.6
96544.2
159980
159741
159781
96575.2
96565.4
96417.5
96462
96780.2
96712.7
159953
159928
159941
96787.4
96800.4
96536.9
95520.2
97141.8
95753.7
152667
157987
154859
95052.4
97026.2
95811.1
95306.9
97107.3
95598.4
152065
157929
154404
94777.1
96992.6
95663.6
95281.8
97029.5
95503.1
152537
158027
154535
94685.1
96931.7
95583.3
97002.2
97270.7
97197.5
159939
160023
160155
97105
97238.7
97103.3
97116.9
97338.4
97319.2
159958
160096
160251
97189.4
97289.7
97173.5
97204.3
97326.1
97348.9
159974
160137
160295
97215.8
97276.8
97219.1
97033.6
96907
96797.4
160078
160036
159909
97521.9
97755.7
98480.9
96977.3
96686.6
96384
160065
159946
159694
97173.8
97210.5
97752.2
96963.1
96615.4
96259.8
160082
159890
159584
97091.5
96971.4
96958.8
98380.4
97757
97554.5
159763
159847
159848
96694
96823.9
96936.4
97611.1
97185.2
97191.3
159512
159778
159837
96295.3
96609.8
96877.6
96782
96864
97061.4
159357
159702
159826
96182.5
96557.7
96871.3
98773.3
99051.8
98951.7
159495
159493
159579
99074
98258.7
97143.1
98351.6
98520.5
98303.5
159112
159056
159174
98078.4
97085.5
96361.6
97889
97967.7
97577.4
158509
158546
158641
96929.5
96174.8
95785.2
95499.2
95410.4
95322
154642
154630
154447
92653.5
92600.4
92519.3
90298.2
90229.3
90234.4
146904
146879
146827
88846.2
88816.6
88731.6
84180.9
84163.1
84143.7
134914
134816
134719
86653.4
86809.4
87003.6
97270.1
98384.5
99190.6
159826
159806
159821
99056.9
99189.1
99025.7
96495.7
97234.9
98222.9
159450
159394
159454
98451.2
98752.7
98652.2
95942.5
96358.7
97095
158963
158937
158854
97808.1
98259.9
98183.8
92597.8
92678.6
92724.8
154441
154651
154680
95315.2
95328.2
95404.2
88731.8
88827.3
88860.1
146794
146855
146885
90264.4
90262.5
90341.1
87020.6
86839.5
86688.2
134763
134860
134953
84240.9
84253.6
84267.7
)
;

boundaryField
{
    fuel
    {
        type            zeroGradient;
    }
    primary_air
    {
        type            zeroGradient;
    }
    Secondary_air_RHS
    {
        type            zeroGradient;
    }
    Secondary_air_LHS
    {
        type            zeroGradient;
    }
    outlet
    {
        type            totalPressure;
        rho             rho;
        psi             none;
        gamma           1;
        p0              uniform 100000;
        value           nonuniform List<scalar> 
18
(
99996.7
100000
86689.6
93541.4
100000
86532.9
87824.7
100000
86626.2
86460
100000
87795.1
86242.7
100000
93556
86391.6
100000
99997.7
)
;
    }
    stove_body
    {
        type            zeroGradient;
    }
    frontAndBack
    {
        type            empty;
    }
}


// ************************************************************************* //
