/*--------------------------------*- C++ -*----------------------------------*\
  =========                 |
  \\      /  F ield         | OpenFOAM: The Open Source CFD Toolbox
   \\    /   O peration     | Website:  https://openfoam.org
    \\  /    A nd           | Version:  6
     \\/     M anipulation  |
\*---------------------------------------------------------------------------*/
FoamFile
{
    version     2.0;
    format      ascii;
    class       volScalarField;
    location    "4.5";
    object      Qdot;
}
// * * * * * * * * * * * * * * * * * * * * * * * * * * * * * * * * * * * * * //

dimensions      [1 -1 -3 0 0 0 0];

internalField   nonuniform List<scalar> 
297
(
-5.76699e-05
-3.47526e-05
-5.76699e-05
-0.00011534
-4.58344e-05
0
-3.47526e-05
-3.47526e-05
-5.76699e-05
-5.76699e-05
-5.76699e-05
-5.76699e-05
-6.95053e-05
-0.00011534
-6.95053e-05
-3.47526e-05
-5.76699e-05
-5.76699e-05
-5.76699e-05
-3.47526e-05
0
-3.47526e-05
-5.76695e-05
-2.29169e-05
-5.76699e-05
-3.47526e-05
-2.29172e-05
0
3.10024e-10
3.34618e-10
0
5.70861e-10
6.69236e-10
3.22321e-10
3.34618e-10
2.8543e-10
3.34618e-10
3.34616e-10
3.34618e-10
6.44642e-10
6.20048e-10
6.69236e-10
3.34618e-10
3.34618e-10
3.31544e-10
3.34618e-10
3.34618e-10
3.34618e-10
-2.45937e-11
-1.22968e-11
0
3.34618e-10
3.34618e-10
3.34618e-10
0
0
3.34618e-10
6.69236e-10
0
0
6.69236e-10
0
3.34618e-10
3.34618e-10
6.69236e-10
6.69236e-10
0
6.69236e-10
6.69236e-10
6.69236e-10
0
0
6.69236e-10
0
6.69236e-10
6.69236e-10
6.69236e-10
6.69236e-10
0
0
3.34618e-10
3.34618e-10
0
3.34618e-10
0
6.69236e-10
6.56939e-10
3.34618e-10
6.69236e-10
3.34618e-10
3.34618e-10
0
3.34618e-10
6.69236e-10
6.69236e-10
-3.07421e-12
0
6.69236e-10
3.34618e-10
3.34618e-10
6.69236e-10
3.34618e-10
0
6.69236e-10
6.69236e-10
3.34618e-10
6.69236e-10
3.34618e-10
6.69236e-10
0
6.69236e-10
6.69236e-10
6.69236e-10
0
6.69236e-10
0
6.69236e-10
6.69236e-10
-6.82612e-28
6.69236e-10
6.69236e-10
0
6.69236e-10
6.69236e-10
6.69236e-10
6.69236e-10
6.69236e-10
-1.36522e-27
0
6.69236e-10
6.69236e-10
6.69236e-10
-8.53265e-29
6.69236e-10
0
6.69236e-10
0
6.69236e-10
6.69236e-10
-1.09218e-26
1.33847e-09
6.69236e-10
0
6.69236e-10
0
6.69236e-10
6.69236e-10
6.69236e-10
6.69236e-10
6.69236e-10
0
6.69236e-10
0
-1.09218e-26
6.69236e-10
-1.09218e-26
6.69236e-10
6.69236e-10
6.69236e-10
6.69236e-10
6.69236e-10
0
6.69236e-10
6.69236e-10
6.69236e-10
1.33847e-09
0
6.69236e-10
6.69236e-10
6.69236e-10
0
-3.33307e-31
0
6.69236e-10
1.33847e-09
6.69236e-10
6.69236e-10
-5.3329e-30
0
0
-6.66613e-31
6.69236e-10
6.69236e-10
6.69236e-10
1.33847e-09
-5.3329e-30
6.69236e-10
6.69236e-10
6.69236e-10
-4.06868e-35
6.69236e-10
-4.06868e-35
-2.66645e-30
1.33847e-09
1.33847e-09
6.69236e-10
0
0
6.69236e-10
-2.03434e-35
6.69236e-10
0
1.33847e-09
-2.66645e-30
-5.3329e-30
6.69236e-10
6.69236e-10
-8.13737e-35
6.69236e-10
6.69236e-10
1.33847e-09
6.69236e-10
6.69236e-10
6.69236e-10
-5.3329e-30
6.69236e-10
-2.03434e-35
-2.03434e-35
-8.13737e-35
-2.66645e-30
6.69236e-10
6.69236e-10
6.69236e-10
6.69236e-10
-4.26632e-29
-2.03434e-35
6.69236e-10
6.69236e-10
6.69236e-10
6.69236e-10
6.69236e-10
6.69236e-10
6.69236e-10
6.69236e-10
-1.01717e-35
-2.03434e-35
6.69236e-10
6.69236e-10
6.69236e-10
-2.13316e-29
6.69236e-10
6.69236e-10
6.69236e-10
6.69236e-10
0
-3.41306e-28
-8.53265e-29
-8.53265e-29
-1.70653e-28
6.69236e-10
-2.60396e-33
6.69236e-10
6.69236e-10
-3.41306e-28
6.69236e-10
0
-8.53265e-29
-1.70653e-28
-5.20791e-33
6.69236e-10
6.69236e-10
6.69236e-10
6.69236e-10
-3.41306e-28
6.69236e-10
6.69236e-10
6.69236e-10
6.69236e-10
-2.60396e-33
6.69236e-10
6.69236e-10
-3.41306e-28
0
6.69236e-10
6.69236e-10
1.33847e-09
6.69236e-10
6.69236e-10
-2.60396e-33
6.69236e-10
6.69236e-10
6.69236e-10
6.69236e-10
6.69236e-10
6.69236e-10
6.69236e-10
-2.60396e-33
6.69236e-10
6.69236e-10
6.69236e-10
-1.70653e-28
6.69236e-10
6.69236e-10
6.69236e-10
-5.20791e-33
-1.30198e-33
0
)
;

boundaryField
{
    fuel
    {
        type            calculated;
        value           uniform 0;
    }
    primary_air
    {
        type            calculated;
        value           uniform 0;
    }
    Secondary_air_RHS
    {
        type            calculated;
        value           uniform 0;
    }
    Secondary_air_LHS
    {
        type            calculated;
        value           uniform 0;
    }
    outlet
    {
        type            calculated;
        value           uniform 0;
    }
    stove_body
    {
        type            calculated;
        value           uniform 0;
    }
    frontAndBack
    {
        type            empty;
    }
}


// ************************************************************************* //
