/*--------------------------------*- C++ -*----------------------------------*\
  =========                 |
  \\      /  F ield         | OpenFOAM: The Open Source CFD Toolbox
   \\    /   O peration     | Website:  https://openfoam.org
    \\  /    A nd           | Version:  6
     \\/     M anipulation  |
\*---------------------------------------------------------------------------*/
FoamFile
{
    version     2.0;
    format      ascii;
    class       volScalarField;
    location    "4.5";
    object      T;
}
// * * * * * * * * * * * * * * * * * * * * * * * * * * * * * * * * * * * * * //

dimensions      [0 0 0 1 0 0 0];

internalField   nonuniform List<scalar> 
297
(
291.479
291.47
291.483
293.003
293.003
293.005
291.476
291.466
291.477
291.505
291.524
291.562
293.249
293.346
293.734
291.502
291.52
291.556
291.766
291.75
291.944
306.49
299.523
298.155
291.764
291.746
291.938
374.508
365.469
331.701
328.788
332.046
318.908
375.825
368.209
336.876
407.449
405.021
382.487
368.932
347.604
336.705
406.077
404.248
387.461
407.881
398.802
462.631
385.17
395.424
382.641
405.992
396.765
479.966
374.658
346.568
391.721
428.051
412.425
439
372.496
364.926
398.549
381.682
346.298
366.2
428.065
410.313
439.056
344.577
364.656
400.104
354.098
327.333
337.838
427.997
363.019
439.142
321.43
352.949
381.444
408.999
360.447
468.182
401.496
410.084
411.485
405.997
372.191
486.824
394.744
346.552
424.187
413.217
410.021
417.409
393.439
365.023
435.166
383.26
344.136
412.004
425.364
410.324
436.44
382.988
364.943
421.21
317.111
314.23
308.03
369.964
355.095
439.28
306.744
321.825
329.517
305.501
305.783
306.278
309.556
335.285
425.339
303.31
319.55
322.761
305.144
305.571
306.301
313.097
327.88
360.348
305.507
318.235
316.874
301.348
301.081
300.486
322.175
305.56
305.324
304.661
303.852
304.569
306.03
302.362
302.031
410.585
368.823
331.026
316.036
306.031
306.685
306.376
305.337
310.427
361
358.68
347.401
315.215
309.014
309.707
303.125
302.811
312.993
304.541
337.549
369.436
299.322
302.952
304.579
303.643
303.184
305.49
308.779
321.33
310.345
301.576
302.444
303.103
304.143
303.775
304.978
312.858
314.315
312.212
303.985
303.179
303.54
303.724
303.591
303.13
303.111
304.303
304.161
298.204
300.037
299.187
303.829
303.544
302.878
303.47
304.457
304.287
298.702
301.629
301.391
304.144
303.075
302.472
303.986
306.591
309.132
298.454
302.366
303.971
302.474
302.534
301.543
302.851
305.696
307.196
298.244
300.356
300.173
299.056
298.93
297.962
300.995
303.923
303.759
294.715
294.665
295.883
291.847
291.841
291.177
292.528
290.212
286.842
290.876
290.653
299.189
300.232
301.031
300.7
304.845
305
304.464
303.355
303.677
303.938
301.356
301.644
300.171
304.819
304.981
304.512
303
303.556
304.175
311.547
302.322
299.474
336.37
315.634
307.371
302.339
303.243
304.373
304.947
300.665
297.088
319.895
311.344
304.622
301.593
302.951
302.634
300.664
295.772
295.027
310.692
307.046
302.747
294.491
296.135
298.236
303.544
291.874
291.175
291.188
291.449
293.374
291.061
291.76
291.837
)
;

boundaryField
{
    fuel
    {
        type            fixedValue;
        value           uniform 293;
    }
    primary_air
    {
        type            fixedValue;
        value           uniform 293;
    }
    Secondary_air_RHS
    {
        type            fixedValue;
        value           uniform 293;
    }
    Secondary_air_LHS
    {
        type            fixedValue;
        value           uniform 293;
    }
    outlet
    {
        type            inletOutlet;
        inletValue      uniform 293;
        value           nonuniform List<scalar> 
18
(
293
291.187
293
293
291.446
293
293
293.37
293
293
292.512
293
293
290.21
293
293
286.841
293
)
;
    }
    stove_body
    {
        type            fixedValue;
        value           uniform 293;
    }
    frontAndBack
    {
        type            empty;
    }
}


// ************************************************************************* //
