/*--------------------------------*- C++ -*----------------------------------*\
  =========                 |
  \\      /  F ield         | OpenFOAM: The Open Source CFD Toolbox
   \\    /   O peration     | Website:  https://openfoam.org
    \\  /    A nd           | Version:  6
     \\/     M anipulation  |
\*---------------------------------------------------------------------------*/
FoamFile
{
    version     2.0;
    format      ascii;
    class       volScalarField;
    location    "0.0075";
    object      O2;
}
// * * * * * * * * * * * * * * * * * * * * * * * * * * * * * * * * * * * * * //

dimensions      [0 0 0 0 0 0 0];

internalField   nonuniform List<scalar> 
3773
(
0
0
0
0
0
0
0
0
0
0
0
0
0
0
0
0
0
0
0
0
0
0
0
0
0
0
0
0
0
0
0
0
0
0
0
0
0
0
0
0
0
0
0
0
0
0
0
0
0
0
0
0
0
0
0
0
0
0
0
0
0
0
0
0
0
0
0
0
0
0
0
0
0
0
0
0
0
0
0
0
0
0
0
0
0
0
0
0
0
0
0
0
0
0
0
0
0
0
0
0
0
0
0
0
0
0
0
0
0
0
0
0
0
0
0
0
0
0
0
0
0
0
0
0
0
0
0
0
0
0
0
0
0
0
0
0
0
0
0
0
0
0
0
0
0
0
0
0
0
0
0
0
0
0
0
0
0
0
0
0
0
0
0
0
0
0
0
0
0
0
0
0
0
0
0
0
0
0
0
0
0
0
0
0
0
0
0
0
0
0
0
0
0
0
0
0
0
0
0
0
0
0
0
0
0
0
0
0
0
0
0
0
0
0
0
0
0
0
0
0
0
0
0
0
0
0
0
0
0
0
0
0
0
0
0
0
0
0
0
0
0
0
0
0
0
0
0
0
0
0
0
0
0
0
0
0
0
0
0
0
0
0
0
0
0
0
0
0
0
0
0
0
0
0
0
0
0
0
0
0
0
0
0
0
0
0
0
0
0
0
0
0
0
0
0
0
0
0
0
0
0
0
0
0
0
0
0
0
0
0
0
0
0
0
0
0
0
0
0
0
0
0
0
0
0
0
0
0
0
0
0
0
0
0
0
0
0
0
0
0
0
0
0
0.00148582
0.000611572
0.000505397
0.000367324
0.000407153
0.000492846
0.00132817
0.00265962
0.0010505
0.000690068
0.000556436
0.000643803
0.000942782
0.00236795
0.00614318
0.00496879
0.00436642
0.00402508
0.00430945
0.00484591
0.00593208
0.00867445
0.00848629
0.00901471
0.00932647
0.00903737
0.00862758
0.00860798
0.00644734
0.00602247
0.00536535
0.00508692
0.005298
0.00593337
0.00613804
0.00406087
0.00188018
0.00115209
0.00100872
0.00116475
0.00175491
0.00392968
0.00178875
0.000621577
0.000544284
0.000576569
0.000589719
0.000630578
0.00178835
0.00109152
9.70266e-07
8.39445e-08
2.74676e-07
9.52909e-08
6.20234e-07
0.000899039
0.00222624
8.36551e-05
7.34896e-07
1.75034e-06
6.56483e-07
4.17486e-05
0.00199427
0.00372772
0.00285843
0.0020609
0.0016761
0.00196349
0.00268283
0.00370487
0.00441507
0.00413941
0.00417762
0.00404219
0.00420822
0.00426142
0.00443362
0.00362598
0.00247738
0.00218018
0.00186558
0.00197464
0.00220065
0.00341702
0.00221825
0.000165895
1.10641e-06
5.257e-07
2.27465e-06
7.94304e-05
0.00166392
0.00127996
5.34211e-06
5.54663e-07
6.97704e-08
2.53219e-08
3.46071e-08
0.000539356
0.00052214
3.91904e-06
1.53476e-07
3.8202e-07
1.2098e-07
2.04729e-06
0.000460293
0.00110178
3.36478e-05
5.10292e-07
2.73769e-06
8.39409e-07
2.68211e-05
0.00101808
0.001973
0.0010532
0.000937272
0.000702324
0.000852067
0.000967611
0.00185409
0.00225986
0.0020045
0.00173486
0.00178684
0.0017246
0.00182043
0.00209109
0.00143
0.000962409
0.000867016
0.00074475
0.000747089
0.000808944
0.00110781
0.00090632
5.45106e-06
1.79687e-07
2.82137e-07
9.83431e-07
4.31343e-05
0.000619722
0.00050972
1.89553e-05
1.56495e-06
1.58022e-07
1.94054e-08
9.02366e-09
4.94689e-05
0.000125917
8.79175e-06
2.77177e-07
3.81115e-07
1.33462e-07
3.75207e-06
0.000118807
0.000449124
7.11898e-05
2.38377e-06
2.45603e-06
1.37114e-06
4.83455e-05
0.000398836
0.000788006
0.000512141
0.000377897
0.000265939
0.000338205
0.000441732
0.00075169
0.00111053
0.00107189
0.000835327
0.00090068
0.000798281
0.000953817
0.00113352
0.000467635
0.000325159
0.000311444
0.000290362
0.000263716
0.00025406
0.000317335
0.000297948
2.09637e-05
2.14075e-07
3.64922e-07
1.14982e-07
1.45386e-06
5.88698e-05
0.000134533
2.15149e-05
2.08219e-06
2.09732e-07
2.59503e-08
7.88999e-09
3.90596e-09
1.23203e-06
1.05995e-07
3.90859e-08
1.95771e-07
1.31842e-07
3.81359e-07
6.44678e-06
9.65189e-05
1.28093e-05
1.07136e-06
1.16128e-06
6.76732e-07
8.93509e-06
8.70217e-05
0.000194292
0.000152831
0.000112842
0.000100108
0.000101215
0.00013968
0.000177101
0.000465953
0.000458152
0.000439501
0.000494394
0.000424662
0.000367864
0.0004502
0.000129095
9.71257e-05
0.000107267
0.000104296
8.84424e-05
7.13568e-05
8.43556e-05
2.76554e-05
3.23843e-06
5.01438e-07
6.33176e-07
1.89568e-07
3.83162e-08
7.18884e-07
2.06495e-09
8.53741e-10
4.48777e-08
4.04713e-08
2.07105e-08
9.50599e-09
2.54715e-10
0
2.03052e-08
6.25545e-08
1.63251e-07
1.73258e-07
5.37724e-08
0
1.64257e-06
1.45301e-07
1.70396e-07
7.36716e-07
7.28779e-07
2.00601e-07
2.20726e-06
4.64675e-05
4.16302e-05
3.6835e-05
3.12862e-05
3.32983e-05
3.54756e-05
4.27143e-05
0.000211312
0.000219468
0.000243983
0.000244016
0.000199424
0.000203741
0.000227104
3.82066e-05
3.25716e-05
3.62532e-05
3.50606e-05
2.74371e-05
1.96232e-05
2.16137e-05
0
3.03642e-09
1.17804e-07
6.58719e-07
3.43944e-07
9.94754e-08
3.66332e-09
0
3.06221e-10
2.47722e-08
5.11942e-08
3.37375e-08
2.10089e-08
2.09409e-10
0
4.70726e-08
8.78201e-08
1.89854e-07
1.93221e-07
9.18727e-08
0
0
1.20404e-07
3.83672e-07
1.50649e-06
1.16374e-06
2.22458e-07
0
1.71172e-05
9.76843e-06
1.10594e-05
1.27224e-05
9.36706e-06
9.20898e-06
1.51223e-05
0.0001352
0.000108343
8.76054e-05
9.19903e-05
6.43427e-05
8.02548e-05
9.56243e-05
1.30722e-05
9.06646e-06
1.04792e-05
1.18276e-05
1.0254e-05
7.5908e-06
1.01267e-05
0
2.20302e-09
1.04489e-07
2.98614e-07
3.19523e-07
2.67265e-07
0
0
0
1.62206e-08
3.88198e-08
5.28964e-08
5.73222e-08
1.25399e-10
0
6.43905e-10
1.53917e-09
8.59261e-10
1.02119e-10
3.82995e-11
0
0
8.72901e-09
4.56029e-08
1.70137e-07
7.30918e-08
5.26588e-09
5.58126e-10
0
1.19877e-06
1.73621e-06
2.87048e-06
1.69627e-06
1.12108e-06
0
0
2.09419e-05
2.21005e-05
1.91045e-05
1.73873e-05
1.28638e-05
0
0
8.49683e-07
1.54994e-06
2.02953e-06
1.73256e-06
2.28148e-06
0
0
1.97643e-09
4.21097e-08
6.0223e-08
3.73543e-08
2.92959e-08
0
0
9.88737e-11
5.05844e-10
1.24569e-09
4.53628e-10
3.20934e-09
0
1.45578e-10
1.33289e-09
2.77108e-09
1.23947e-09
4.16037e-11
3.51214e-12
1.19054e-12
9.65398e-10
8.71408e-09
2.84089e-08
2.63924e-08
3.78187e-09
7.43945e-11
3.31532e-11
2.57282e-11
1.76048e-07
3.51714e-07
5.85701e-07
2.95722e-07
1.64709e-07
7.08143e-12
3.05018e-11
2.92283e-06
4.56581e-06
4.68579e-06
3.38051e-06
3.85494e-06
3.3621e-10
8.70686e-13
1.10018e-07
3.80088e-07
4.16854e-07
3.80466e-07
5.7567e-07
4.44692e-11
1.50285e-12
2.89136e-09
2.81944e-08
2.24176e-08
1.63399e-08
1.3261e-08
1.07781e-09
7.78705e-12
1.92595e-10
1.36043e-09
2.54276e-09
1.44599e-09
3.18305e-10
1.73425e-11
8.84013e-11
6.3062e-10
3.2517e-10
8.57377e-11
8.02497e-12
1.86557e-12
1.92877e-13
4.52954e-10
4.0511e-09
5.97087e-09
2.58048e-09
4.06241e-11
9.82204e-12
8.51135e-13
1.29358e-09
3.73034e-08
6.9183e-08
8.52993e-08
7.8992e-08
3.16492e-08
5.72849e-12
8.55157e-11
8.06113e-07
1.57431e-06
1.58999e-06
1.15125e-06
1.57638e-06
4.14846e-10
4.04692e-13
5.36847e-09
5.31713e-08
1.37093e-07
1.2733e-07
2.10323e-07
4.52584e-11
4.27443e-12
2.67376e-10
4.24989e-09
1.40948e-08
9.46117e-09
8.52311e-09
5.29035e-10
8.24804e-12
7.7224e-11
3.98143e-10
1.7516e-09
1.19849e-09
5.28143e-10
1.11262e-11
3.30464e-11
7.46725e-11
2.41726e-11
9.65244e-12
6.71393e-12
3.89716e-12
5.75429e-13
1.41729e-10
7.65507e-10
5.65519e-10
6.06163e-10
1.21055e-10
2.4837e-11
4.1842e-12
1.30609e-09
7.22393e-09
8.82182e-09
1.45256e-08
1.95819e-08
5.04075e-09
5.77061e-12
1.32411e-10
1.86898e-07
3.55392e-07
5.27715e-07
3.93412e-07
5.35622e-07
4.0997e-10
1.19978e-12
1.31739e-10
4.21303e-09
2.7285e-08
2.92214e-08
3.55737e-08
1.85971e-09
9.90137e-13
1.89897e-11
2.74921e-10
1.85997e-09
1.71217e-09
2.21909e-09
2.13685e-10
8.08451e-13
5.13559e-12
3.03256e-11
1.45773e-10
1.74479e-10
2.57421e-10
6.15995e-12
1.36005e-11
2.00214e-12
5.66441e-12
1.33908e-11
1.3347e-11
9.47872e-12
2.62603e-12
6.28492e-11
8.85238e-11
2.08546e-10
2.81942e-10
1.73743e-10
4.92604e-11
1.53377e-11
3.76657e-10
2.32153e-10
1.36095e-09
7.19348e-09
7.42627e-09
3.20576e-09
5.92538e-12
6.19631e-11
3.65951e-08
7.63002e-08
1.48214e-07
8.54355e-08
9.85218e-08
2.66076e-10
4.48136e-13
1.19274e-09
7.3614e-10
3.22541e-09
4.06787e-09
8.37051e-09
1.64717e-09
9.05535e-13
6.14122e-12
4.65091e-11
1.81526e-10
3.49499e-10
8.20258e-10
1.69171e-10
2.44933e-13
8.22101e-13
2.34022e-12
5.80832e-12
2.23772e-11
8.79084e-11
8.81707e-12
4.2159e-12
1.37464e-12
4.14356e-13
5.97833e-12
1.5123e-11
9.92186e-12
2.73038e-12
1.8897e-11
6.21652e-12
1.98278e-11
5.60213e-11
7.20794e-11
3.82002e-11
1.63484e-11
1.13739e-10
1.74057e-11
2.04135e-10
1.75597e-09
3.17911e-09
1.51854e-09
4.70101e-12
1.73315e-11
5.87204e-09
1.4414e-08
2.97312e-08
2.32487e-08
3.18502e-08
1.32287e-10
4.08538e-13
1.99366e-10
8.24506e-11
4.49308e-10
7.07267e-10
1.12388e-09
4.58016e-10
1.26899e-12
3.46069e-12
9.46559e-12
3.26983e-11
4.91466e-11
1.07116e-10
7.0695e-11
2.34743e-13
5.66781e-13
1.65157e-12
3.04155e-12
3.41551e-12
5.63378e-12
6.71266e-12
1.3136e-12
5.35416e-13
3.5909e-13
1.29441e-12
3.8472e-13
1.16756e-12
1.08579e-12
6.97321e-12
2.86869e-12
4.90604e-12
1.86352e-11
5.42162e-11
2.44693e-11
6.21574e-12
2.60138e-11
6.94092e-12
1.35787e-10
3.40019e-10
4.65206e-10
4.95042e-10
6.27718e-11
2.79797e-11
1.66926e-09
4.56027e-09
9.98381e-09
8.80927e-09
1.09823e-08
6.95384e-10
3.18822e-12
1.0651e-11
3.76489e-11
7.18641e-11
1.14134e-10
6.32875e-11
7.89617e-11
1.6776e-12
3.6222e-12
7.41828e-12
9.8946e-12
1.06737e-11
1.15855e-11
2.2169e-11
1.2799e-13
4.37291e-13
9.05871e-13
8.89394e-13
8.21052e-13
1.37996e-12
3.01051e-12
0
5.91127e-08
7.05836e-08
1.11202e-07
1.0251e-07
9.82235e-08
0
0
3.77633e-07
7.38905e-07
1.13649e-06
1.03562e-06
7.0081e-07
0
0
8.67139e-06
9.78818e-06
9.68221e-06
8.42361e-06
7.02076e-06
0
7.6782e-06
0.000103425
5.79221e-05
5.55022e-05
5.86718e-05
5.59851e-05
4.62368e-05
0
5.35744e-06
8.15647e-06
7.86353e-06
4.76533e-06
6.15428e-06
0
0
1.51614e-08
3.12607e-07
4.26992e-07
5.85555e-07
7.38559e-07
0
0
0
1.87137e-08
3.25243e-08
1.02801e-07
1.9892e-07
0
0
3.56448e-08
4.03884e-08
7.01847e-08
6.45731e-08
6.03091e-08
0
0
2.16821e-07
5.31859e-07
9.32446e-07
7.71596e-07
4.27071e-07
0
0
7.86544e-06
9.20027e-06
8.8549e-06
8.07715e-06
6.29611e-06
0
0
0.000100594
5.4898e-05
5.12998e-05
5.6873e-05
5.00221e-05
4.06995e-07
0
5.59153e-06
7.47965e-06
7.13058e-06
4.51332e-06
5.61388e-06
0
0
0
2.42803e-07
3.35258e-07
3.99074e-07
4.74383e-07
0
0
0
9.43696e-09
2.1687e-08
6.4676e-08
1.09749e-07
0
0
2.93118e-08
3.243e-08
5.71739e-08
5.16512e-08
4.79737e-08
0
0
1.85081e-07
4.66527e-07
8.63638e-07
6.81586e-07
3.08965e-07
0
0
7.59653e-06
7.94859e-06
8.21327e-06
7.72197e-06
5.56055e-06
0
0
9.42049e-05
5.12714e-05
4.71893e-05
5.30274e-05
4.28098e-05
0
0
5.75289e-06
7.2569e-06
6.74316e-06
3.99257e-06
5.26572e-06
0
0
0
2.25122e-07
3.07259e-07
3.52809e-07
4.37088e-07
0
0
0
7.45789e-09
1.64724e-08
5.90466e-08
9.32827e-08
0
0
2.38626e-08
2.57792e-08
4.55409e-08
3.2633e-08
3.08028e-08
0
0
1.81479e-07
4.15017e-07
7.77756e-07
5.63512e-07
2.72743e-07
0
0
6.89499e-06
7.17009e-06
7.8757e-06
6.98407e-06
4.71118e-06
0
0
8.84356e-05
4.82495e-05
4.3811e-05
4.96313e-05
3.96025e-05
0
0
5.76322e-06
6.81861e-06
6.41641e-06
3.82936e-06
5.23161e-06
0
0
0
2.04411e-07
2.74452e-07
3.457e-07
4.68147e-07
0
0
0
7.73042e-09
1.40308e-08
5.85916e-08
1.14022e-07
0
0
2.37144e-08
1.99193e-08
4.06372e-08
2.45758e-08
2.27917e-08
0
0
2.03172e-07
3.19125e-07
6.39274e-07
4.60294e-07
2.67329e-07
0
0
6.37619e-06
6.56712e-06
6.79206e-06
6.30883e-06
4.29945e-06
0
0
8.10523e-05
4.59275e-05
4.0572e-05
4.67972e-05
3.31706e-05
0
0
5.8337e-06
5.94007e-06
6.02408e-06
3.85713e-06
5.10521e-06
0
0
0
1.61984e-07
2.3625e-07
3.51264e-07
4.56006e-07
0
0
0
7.22481e-09
1.3188e-08
6.33445e-08
1.26095e-07
0
0
1.00336e-08
5.55748e-09
2.46481e-08
1.33496e-08
1.19187e-08
0
0
2.08798e-07
2.08618e-07
5.15806e-07
3.3274e-07
2.50611e-07
0
0
6.02847e-06
6.38038e-06
6.52994e-06
5.60162e-06
3.5982e-06
0
0
7.71209e-05
4.39576e-05
3.67356e-05
4.30512e-05
3.10692e-05
0
0
6.00382e-06
5.72641e-06
5.90196e-06
3.88831e-06
4.98355e-06
0
0
1.68233e-08
1.10506e-07
2.04493e-07
2.67236e-07
3.07573e-07
0
0
0
2.57291e-09
9.74034e-09
4.46629e-08
1.04323e-07
0
0
4.19326e-09
1.55553e-09
7.2352e-09
3.21281e-09
3.19848e-09
0
0
1.12329e-07
1.17097e-07
4.19304e-07
2.4338e-07
1.31043e-07
0
0
5.27768e-06
6.07925e-06
6.38022e-06
5.13197e-06
3.22203e-06
0
0
7.28213e-05
4.32886e-05
3.486e-05
3.95267e-05
2.70713e-05
0
0
5.41039e-06
5.51698e-06
5.63166e-06
3.78235e-06
4.62434e-06
0
0
0
7.48566e-08
1.46236e-07
1.6612e-07
1.972e-07
0
0
2.38789e-09
6.40673e-10
4.26551e-09
2.44492e-08
7.30239e-08
0
2.01261e-14
2.77029e-13
7.12139e-13
7.9853e-13
2.54317e-13
2.85153e-13
4.08346e-14
9.13656e-16
3.08832e-13
1.42906e-12
1.57883e-11
2.2766e-11
5.92452e-12
6.8218e-13
1.02594e-15
1.7888e-11
2.30754e-10
6.4504e-10
3.01709e-10
1.53665e-10
4.82808e-11
2.34388e-11
1.08975e-09
3.10524e-09
5.62079e-09
2.77258e-09
3.88474e-09
5.72381e-10
1.45409e-11
6.39278e-11
1.8721e-10
1.20556e-10
1.0832e-10
1.16689e-10
2.36187e-14
2.49504e-13
6.01001e-13
2.91313e-12
8.47031e-12
3.89383e-12
1.40423e-12
2.10954e-15
1.32883e-14
6.36939e-14
2.65721e-13
2.09022e-13
9.90475e-14
7.2155e-14
4.71775e-15
1.11685e-13
5.54996e-13
7.66494e-13
8.79514e-13
6.79482e-13
2.62618e-13
5.62006e-14
6.16005e-15
1.52623e-12
5.91729e-12
9.95763e-12
1.17197e-11
4.1664e-12
8.58296e-13
6.39779e-15
2.49083e-11
1.97367e-10
3.46779e-10
1.7866e-10
1.13633e-10
4.24088e-11
2.54121e-11
7.5945e-10
2.19769e-09
3.41137e-09
1.5359e-09
2.18895e-09
5.08361e-10
2.54996e-11
7.63543e-11
1.54628e-10
1.08923e-10
7.57006e-11
1.21075e-10
1.29375e-13
2.51069e-13
6.79095e-13
1.4886e-12
5.87897e-12
5.92131e-12
1.67032e-12
7.44948e-15
1.51021e-14
3.72626e-14
1.7058e-13
1.59242e-13
1.30503e-13
8.88093e-14
2.07496e-14
2.30456e-13
5.91761e-13
8.70006e-13
9.43922e-13
7.53153e-13
3.32689e-13
1.05849e-13
7.7396e-14
2.13435e-12
4.8841e-12
7.7062e-12
9.32767e-12
3.52161e-12
1.71762e-12
1.06739e-12
4.83627e-11
1.78628e-10
2.2567e-10
1.18578e-10
7.07583e-11
3.71762e-11
3.51857e-11
5.63957e-10
1.46528e-09
1.76963e-09
9.36021e-10
1.18442e-09
3.62431e-10
3.20512e-11
7.78422e-11
1.54639e-10
1.15826e-10
5.60696e-11
1.16204e-10
2.71536e-11
8.51541e-13
1.5176e-12
2.89398e-12
4.8468e-12
3.01997e-12
1.2552e-12
5.53356e-13
4.67402e-14
9.14643e-14
2.66493e-13
2.46693e-13
2.15592e-13
1.4872e-13
8.63341e-14
3.36561e-13
5.59834e-13
6.44774e-13
5.72432e-13
4.82738e-13
3.35457e-13
3.47785e-13
2.72888e-13
1.78893e-12
2.92105e-12
3.92969e-12
3.48718e-12
3.06671e-12
2.66819e-12
3.42472e-12
2.91642e-11
1.02714e-10
8.15916e-11
3.61598e-11
2.78933e-11
2.60187e-11
3.39859e-11
3.17659e-10
8.04421e-10
9.82686e-10
3.70208e-10
5.31076e-10
2.69726e-10
2.77484e-11
4.64492e-11
1.15362e-10
8.15255e-11
1.95975e-11
4.26336e-11
2.23292e-11
1.53171e-12
1.60318e-12
2.83579e-12
2.48708e-12
1.61086e-12
8.01441e-13
4.31637e-13
1.53564e-13
1.92781e-13
3.23223e-13
2.6822e-13
2.37271e-13
1.74299e-13
1.2014e-13
3.29363e-13
4.00681e-13
3.18964e-13
2.49207e-13
1.92884e-13
2.0083e-13
2.2035e-13
3.03961e-13
9.13081e-13
9.43357e-13
9.69051e-13
1.02358e-12
1.46491e-12
2.76124e-12
5.07437e-12
1.40801e-11
4.06261e-11
1.58218e-11
6.68799e-12
5.30092e-12
1.27944e-11
3.12471e-11
1.82339e-10
4.25929e-10
2.83594e-10
1.17162e-10
1.35262e-10
1.26687e-10
1.41306e-11
1.79117e-11
4.88825e-11
2.23703e-11
7.48584e-12
8.55805e-12
1.18427e-11
1.13362e-12
1.12849e-12
1.66653e-12
1.61152e-12
9.96719e-13
4.65668e-13
2.81984e-13
1.53169e-13
1.5619e-13
2.64357e-13
2.38371e-13
1.99759e-13
1.46367e-13
1.10137e-13
2.37811e-13
1.96455e-13
1.17209e-13
8.78217e-14
7.29814e-14
7.23561e-14
1.47844e-13
2.35853e-13
4.95057e-13
4.25329e-13
3.67516e-13
2.67411e-13
2.33037e-13
1.24045e-12
3.16559e-12
4.61077e-12
9.37097e-12
1.20132e-12
5.5053e-13
2.41557e-13
4.84846e-12
2.3089e-11
5.90046e-11
1.36978e-10
4.94122e-11
3.09869e-11
1.96765e-11
4.3123e-11
4.34428e-12
4.94363e-12
1.39728e-11
4.50037e-12
2.36182e-12
1.15814e-12
2.67842e-12
4.82265e-13
5.4437e-13
7.01549e-13
5.91999e-13
2.66507e-13
1.10786e-13
5.72946e-14
4.31113e-14
6.33757e-14
1.25874e-13
1.19278e-13
8.10837e-14
6.26078e-14
5.44916e-14
1.4505e-13
9.54247e-14
6.32184e-14
4.46204e-14
3.13586e-14
2.79742e-14
2.45112e-14
1.1205e-13
1.65755e-13
1.7113e-13
1.50444e-13
1.05955e-13
6.87713e-14
1.98416e-13
6.33481e-13
6.35316e-13
1.09894e-12
2.64455e-13
9.7632e-14
2.90607e-14
8.55466e-13
6.11287e-12
9.0605e-12
2.37186e-11
7.44543e-12
4.80899e-12
9.43483e-13
8.95584e-12
1.15582e-12
1.27691e-12
2.94332e-12
1.03543e-12
4.36438e-13
5.51171e-14
8.79564e-13
9.29655e-14
1.07903e-13
1.60521e-13
9.79417e-14
2.8153e-14
3.13153e-15
3.36503e-15
7.30845e-15
1.8962e-14
2.72069e-14
1.98447e-14
5.62765e-15
9.83266e-15
1.13783e-14
3.30648e-15
1.06603e-15
1.12404e-15
1.20382e-15
1.24195e-15
1.19863e-15
9.84121e-16
8.35672e-14
3.65231e-16
3.86208e-16
3.86719e-16
3.98684e-16
3.77083e-16
3.07359e-16
2.63872e-11
5.61108e-13
2.94522e-15
2.2487e-15
2.24277e-15
2.36085e-15
2.66606e-15
2.8339e-10
7.44337e-12
8.52922e-13
2.17537e-13
5.96472e-14
1.68443e-14
1.78058e-14
1.37148e-15
8.0548e-16
8.60434e-16
4.72657e-16
5.19173e-16
6.70085e-16
7.72664e-16
6.65413e-16
5.36604e-16
2.87854e-16
2.18437e-16
1.40581e-16
7.06354e-17
4.8365e-17
8.82815e-16
9.10837e-16
9.42215e-16
7.32382e-16
5.90908e-16
3.303e-16
1.65211e-16
1.26511e-14
5.40646e-15
5.45925e-15
5.63683e-15
5.39978e-15
4.34326e-15
3.57275e-15
2.66292e-13
3.21875e-14
2.18539e-15
2.35833e-15
2.37762e-15
2.41017e-15
2.34233e-15
2.48396e-11
6.08436e-12
3.85862e-15
4.28083e-15
4.75159e-15
5.62903e-15
7.79934e-15
2.66166e-10
9.7787e-11
2.23268e-11
5.61885e-12
1.62885e-12
9.65252e-13
5.81385e-13
7.5045e-14
5.85266e-14
3.60825e-14
3.15535e-15
1.2212e-15
1.74473e-15
2.13686e-15
1.16839e-14
1.05448e-14
4.97197e-15
3.12482e-15
1.11581e-15
8.32719e-16
5.41765e-16
6.22327e-15
7.18054e-15
7.74312e-15
6.91338e-15
5.878e-15
3.7106e-15
9.8498e-16
4.18696e-14
1.81011e-14
1.74763e-14
1.75893e-14
1.54162e-14
9.55039e-15
8.25314e-15
5.39795e-13
1.14546e-13
1.39888e-14
1.50102e-14
1.68707e-14
1.72768e-14
1.70335e-14
1.77498e-11
8.19853e-12
7.57823e-14
6.22577e-15
9.46997e-15
1.18235e-14
1.56571e-14
2.28082e-10
1.01317e-10
4.32047e-11
1.81838e-11
7.94948e-12
3.35793e-12
1.98198e-12
6.63848e-12
2.47211e-12
7.44828e-13
5.91281e-14
1.85115e-15
2.33549e-15
2.85287e-15
2.34821e-13
1.41182e-13
7.88412e-14
2.49118e-14
4.31146e-15
3.4992e-15
3.28762e-15
5.46306e-14
4.59304e-14
3.21223e-14
2.38983e-14
1.94941e-14
1.18705e-14
5.79367e-15
1.15495e-13
4.76246e-14
3.46984e-14
4.02252e-14
3.69864e-14
2.72471e-14
1.334e-14
8.32871e-13
3.36937e-13
1.09436e-13
4.73311e-14
6.03042e-14
6.47982e-14
6.11078e-14
1.65094e-11
9.93776e-12
2.33272e-12
3.82446e-14
1.23201e-14
1.71581e-14
2.11961e-14
1.91389e-10
9.10334e-11
5.12157e-11
2.68035e-11
1.4444e-11
8.2327e-12
4.88176e-12
1.11759e-11
5.9254e-12
2.63126e-12
8.59441e-13
2.67271e-13
8.63335e-14
4.22387e-14
2.30165e-13
1.77259e-13
1.21707e-13
7.36029e-14
4.16635e-14
2.64944e-14
1.72359e-14
9.7754e-14
8.90112e-14
7.40379e-14
6.05686e-14
4.59341e-14
3.08891e-14
1.49786e-14
9.1938e-14
5.9956e-14
6.4743e-14
7.12375e-14
6.891e-14
4.32252e-14
2.81984e-14
2.05668e-12
1.36036e-12
7.79522e-13
3.72138e-13
3.06103e-13
2.95843e-13
2.18638e-13
1.21721e-11
8.99368e-12
5.57381e-12
2.00111e-12
3.81772e-13
6.57118e-14
3.7654e-14
1.09714e-10
6.91739e-11
4.61948e-11
3.04817e-11
1.9815e-11
1.24741e-11
6.82366e-12
1.26283e-11
8.22728e-12
3.5867e-12
1.83857e-12
9.30372e-13
5.03452e-13
2.03972e-13
1.94479e-13
1.57419e-13
1.14399e-13
8.0032e-14
5.21921e-14
3.50528e-14
2.15918e-14
9.6622e-14
8.78913e-14
7.27953e-14
5.75723e-14
4.19429e-14
3.24717e-14
1.78288e-14
1.50045e-13
1.33261e-13
1.31428e-13
1.2213e-13
1.01422e-13
5.88755e-14
3.7841e-14
1.48905e-12
1.39844e-12
1.18056e-12
8.60499e-13
7.32359e-13
6.39269e-13
5.09015e-13
5.23689e-12
4.96783e-12
4.31322e-12
3.00482e-12
1.78501e-12
1.01091e-12
5.43985e-13
4.32661e-11
3.55759e-11
2.18936e-11
1.51356e-11
1.12234e-11
7.52031e-12
5.82448e-12
4.76839e-12
2.94786e-12
1.6044e-12
1.0231e-12
6.32499e-13
5.10343e-13
3.65474e-13
5.54904e-14
5.39901e-14
4.93536e-14
3.99606e-14
3.10685e-14
2.30132e-14
1.67196e-14
4.95655e-14
4.30133e-14
3.87765e-14
3.2642e-14
2.50463e-14
1.87457e-14
1.48814e-14
3.24139e-14
6.16999e-14
6.22382e-14
5.42595e-14
4.8039e-14
4.26886e-14
4.1785e-14
3.81225e-13
4.56707e-13
4.82299e-13
4.67562e-13
4.14713e-13
3.53293e-13
3.11003e-13
1.79909e-12
2.1228e-12
2.08249e-12
1.90862e-12
1.62411e-12
1.20594e-12
9.30308e-13
8.50576e-12
8.78904e-12
7.07303e-12
5.41206e-12
3.61123e-12
2.89978e-12
2.60434e-12
2.65654e-13
2.68637e-13
1.09697e-13
1.2097e-13
1.13025e-13
1.28741e-13
1.54587e-13
8.47146e-15
1.14143e-14
1.29332e-14
1.20633e-14
1.15135e-14
9.90814e-15
9.05706e-15
1.01968e-14
9.50839e-15
1.10526e-14
1.13795e-14
1.07039e-14
9.54885e-15
9.24063e-15
1.33125e-16
2.83074e-16
6.06863e-16
8.40303e-16
8.56907e-16
8.22519e-16
7.91489e-16
3.87456e-17
8.04056e-17
1.09184e-16
2.00779e-16
2.29739e-16
2.45055e-16
2.52747e-16
9.20636e-17
9.15077e-17
1.04031e-16
1.41086e-16
1.46772e-16
1.87123e-16
2.14779e-16
5.16388e-15
4.80759e-15
6.0907e-15
7.84338e-15
2.81439e-14
8.33885e-13
1.09642e-11
4.17553e-16
3.21771e-16
2.60961e-16
2.38324e-16
6.19091e-16
5.23834e-12
1.09238e-11
4.82971e-17
6.13016e-17
6.63564e-17
6.42415e-17
6.71476e-17
2.28291e-14
6.23272e-14
2.75011e-16
3.37677e-16
3.11721e-16
2.863e-16
2.77583e-16
4.26985e-16
1.40907e-15
1.20761e-15
2.01682e-15
5.74703e-15
1.00078e-14
9.57382e-15
8.58506e-15
6.80435e-15
2.59543e-16
5.01119e-16
8.71444e-16
1.79622e-15
2.13719e-15
2.23148e-15
2.12002e-15
1.92648e-16
4.67538e-16
9.10071e-16
2.13868e-15
2.70059e-15
4.9478e-15
3.95221e-15
3.57442e-14
4.36339e-14
9.64401e-14
3.15636e-13
1.31421e-12
4.24022e-12
1.18582e-11
5.90427e-16
4.2649e-16
3.3006e-16
2.07476e-14
4.19769e-12
9.18116e-12
1.34925e-11
4.29572e-16
3.89703e-16
3.60343e-16
5.62003e-16
5.32244e-14
1.37847e-13
2.33944e-13
1.23359e-15
1.17361e-15
1.09725e-15
1.02187e-15
1.24565e-15
1.78887e-15
5.74955e-15
3.51209e-15
9.81684e-15
3.08297e-14
3.29573e-14
3.01584e-14
1.91353e-14
1.15734e-14
1.88253e-15
2.99281e-15
4.44011e-15
7.83239e-15
7.92596e-15
7.07451e-15
4.58516e-15
8.35142e-16
2.96496e-15
1.06771e-14
3.19118e-14
2.97363e-14
6.78337e-14
1.76342e-14
1.18271e-13
1.878e-13
5.26679e-13
1.38458e-12
3.26821e-12
7.40732e-12
1.52914e-11
8.23847e-16
6.15179e-16
5.48682e-16
2.37696e-12
7.46276e-12
1.22629e-11
1.75833e-11
2.69617e-15
2.12186e-15
1.80137e-15
4.04732e-14
2.68358e-13
4.42845e-13
6.46226e-13
3.09555e-15
3.09566e-15
2.9102e-15
2.85045e-15
5.44425e-15
1.25875e-14
3.017e-14
1.04987e-14
3.4558e-14
5.8758e-14
5.45603e-14
5.33098e-14
8.3129e-14
1.3417e-13
6.63704e-15
1.00546e-14
1.61981e-14
1.61263e-14
1.69594e-14
3.2771e-14
1.00305e-13
1.19025e-14
6.56565e-14
1.4785e-13
3.68256e-13
7.22187e-13
1.30545e-12
1.94065e-12
3.79991e-13
7.84196e-13
1.56127e-12
2.63848e-12
4.40314e-12
8.61399e-12
1.86146e-11
1.12651e-15
1.58205e-13
1.91648e-12
5.21856e-12
7.78733e-12
1.12016e-11
1.69737e-11
1.12826e-14
1.12654e-14
3.08787e-14
1.72814e-13
4.8949e-13
6.64256e-13
1.14087e-12
6.61453e-15
7.64986e-15
6.98933e-15
9.62883e-15
2.23308e-14
3.41102e-14
1.04809e-13
2.00815e-14
5.33768e-14
9.08499e-14
1.08916e-13
1.203e-13
1.60671e-13
2.09233e-13
1.95557e-14
3.29464e-14
3.82906e-14
3.91495e-14
3.93418e-14
5.07421e-14
8.36724e-14
7.24322e-14
1.31766e-13
1.96547e-13
3.10179e-13
6.38205e-13
1.01807e-12
2.51361e-12
8.11492e-13
1.32696e-12
1.93193e-12
3.14396e-12
4.95131e-12
9.17342e-12
1.77054e-11
5.08037e-13
1.81236e-12
3.6259e-12
5.33946e-12
7.18357e-12
9.71753e-12
1.26459e-11
3.06182e-14
1.60244e-13
3.89232e-13
6.46843e-13
1.0693e-12
1.11166e-12
1.33688e-12
1.5946e-14
1.44224e-14
2.10111e-14
2.2626e-14
1.58438e-14
4.60744e-14
1.72788e-13
2.30257e-14
5.82688e-14
9.56219e-14
1.29746e-13
1.58012e-13
1.79245e-13
2.08081e-13
4.57528e-14
5.4708e-14
6.72791e-14
7.55269e-14
9.74686e-14
1.12018e-13
1.56071e-13
8.3552e-14
1.26333e-13
1.55003e-13
2.58802e-13
4.00249e-13
7.30612e-13
1.00052e-12
1.13514e-12
1.44168e-12
1.77779e-12
2.42021e-12
3.78915e-12
5.39697e-12
1.04691e-11
1.25217e-12
2.57214e-12
3.11441e-12
3.80023e-12
4.04096e-12
4.13864e-12
3.90767e-12
2.00499e-13
4.35443e-13
5.3576e-13
6.09102e-13
5.89847e-13
4.93826e-13
4.73815e-13
2.29789e-14
3.95676e-14
4.79205e-14
6.26603e-14
5.36588e-14
3.99241e-14
1.96431e-14
1.6091e-14
3.66315e-14
6.36629e-14
9.10369e-14
1.03387e-13
1.23011e-13
1.39209e-13
4.08658e-14
4.43456e-14
6.26929e-14
7.00902e-14
7.76807e-14
8.87333e-14
1.01597e-13
7.62206e-14
9.95134e-14
1.21626e-13
2.07446e-13
2.8299e-13
3.90834e-13
4.93379e-13
6.59842e-13
6.71015e-13
7.81732e-13
1.12365e-12
1.44868e-12
2.18782e-12
2.80133e-12
1.05926e-12
1.15498e-12
1.00046e-12
9.74297e-13
9.14185e-13
9.36208e-13
9.64063e-13
9.64318e-14
1.14235e-13
1.24503e-13
1.23985e-13
9.53896e-14
9.39265e-14
9.57819e-14
9.11914e-15
4.04787e-15
6.77267e-15
9.34851e-15
1.45474e-14
1.56694e-14
1.09862e-14
2.86829e-20
6.36524e-20
2.83493e-19
8.10993e-19
2.22964e-18
4.47604e-18
1.49309e-17
2.91577e-20
8.27022e-20
3.61153e-19
3.68084e-18
6.06087e-18
1.32459e-17
1.96256e-17
4.74304e-16
5.58412e-16
4.73317e-16
3.30924e-16
1.72343e-16
1.33547e-16
1.1055e-16
2.27002e-15
2.82889e-15
3.14042e-15
3.5457e-15
3.72283e-15
4.2438e-15
4.62513e-15
7.191e-16
7.94832e-16
7.69102e-16
6.90786e-16
5.58058e-16
5.40097e-16
5.03045e-16
2.52953e-20
2.28563e-19
4.4161e-19
2.84026e-18
5.12669e-18
1.64549e-17
2.92815e-17
7.75652e-20
2.11585e-19
1.41021e-18
3.13606e-18
1.3296e-17
2.47792e-17
6.82244e-17
3.33759e-20
1.263e-19
5.86135e-19
3.14919e-18
4.43622e-18
2.52252e-17
4.69256e-17
1.86657e-20
1.74947e-19
5.97576e-19
2.31776e-17
3.85788e-17
9.85127e-17
1.29768e-16
6.07725e-16
8.72542e-16
8.47797e-16
5.11574e-16
2.67167e-16
1.96836e-16
1.77018e-16
3.15231e-15
6.22465e-15
8.59617e-15
1.23289e-14
1.43733e-14
2.08183e-14
2.88321e-14
9.21973e-16
1.25443e-15
1.28778e-15
1.1426e-15
9.95003e-16
9.03773e-16
7.10617e-16
1.06564e-19
9.35812e-19
3.31397e-18
1.83949e-17
4.01636e-17
2.99111e-16
3.67986e-16
1.28144e-19
7.52842e-19
2.90979e-18
1.22112e-17
3.33175e-17
9.0371e-17
3.37956e-16
1.46917e-20
1.51607e-19
7.71088e-19
4.33543e-18
9.91408e-18
5.52125e-17
1.59928e-16
4.07887e-20
5.13959e-19
1.50607e-18
5.55105e-17
1.40081e-16
3.31934e-16
6.48068e-16
8.04655e-16
1.39247e-15
2.10099e-15
8.446e-16
3.62903e-16
2.83165e-16
3.0191e-16
5.48182e-15
1.25999e-14
2.55556e-14
3.73462e-14
4.65995e-14
6.05627e-14
9.84247e-14
1.37054e-15
1.9479e-15
3.12886e-15
3.37233e-15
2.08707e-15
1.55895e-15
1.06575e-15
1.80432e-19
1.80726e-18
6.93943e-18
1.02631e-16
3.24457e-16
2.23341e-15
2.83134e-15
1.43514e-19
1.29663e-18
9.00768e-18
4.38574e-17
1.0617e-16
3.19258e-16
9.62561e-16
4.6879e-20
1.97456e-19
1.25254e-18
8.4977e-18
1.37151e-17
9.24692e-17
2.82749e-16
1.1329e-19
8.08212e-19
2.76706e-18
1.18438e-16
6.82637e-16
1.2884e-15
5.11766e-15
1.21982e-15
2.7831e-15
3.46948e-15
1.48221e-15
7.78437e-16
5.55559e-16
1.13829e-15
8.24261e-15
2.59246e-14
4.37327e-14
6.0366e-14
8.5905e-14
1.39088e-13
2.29229e-13
2.08077e-15
3.39512e-15
4.70643e-15
3.83028e-15
2.5079e-15
2.03995e-15
1.7421e-15
3.65614e-19
2.59127e-18
2.05112e-17
2.86257e-16
1.78496e-15
9.15917e-15
1.46073e-14
2.15696e-19
2.01235e-18
1.15698e-17
6.4676e-17
2.29818e-16
7.08853e-16
1.55538e-15
9.19953e-20
3.2961e-19
2.00014e-18
9.94848e-18
2.09942e-17
1.60565e-16
3.81498e-16
2.83281e-19
1.97756e-18
5.30724e-18
3.47895e-16
1.63192e-15
4.60787e-15
1.27013e-14
1.57426e-15
3.50974e-15
3.57518e-15
1.35067e-15
2.38331e-15
6.75567e-15
2.2368e-14
1.14831e-14
3.36915e-14
6.39091e-14
1.10875e-13
1.99422e-13
3.17691e-13
5.48192e-13
2.61423e-15
5.00329e-15
6.46025e-15
3.1904e-15
2.32089e-15
8.71721e-15
6.94567e-14
5.65034e-19
4.56673e-18
2.62054e-17
7.18298e-16
6.17215e-15
2.50032e-14
3.37329e-14
2.97343e-19
2.91052e-18
1.46822e-17
8.78221e-17
2.98909e-16
8.89988e-16
1.72509e-15
1.18677e-19
3.72271e-19
2.31296e-18
1.226e-17
2.72684e-17
1.82843e-16
4.19933e-16
4.91053e-19
3.37587e-18
7.36889e-18
6.62499e-16
6.91328e-15
1.91657e-14
3.04929e-14
2.16802e-15
4.55942e-15
4.14231e-15
1.71756e-15
6.56453e-15
3.37145e-14
5.01779e-14
1.41444e-14
5.531e-14
1.34035e-13
2.64782e-13
4.2405e-13
5.63173e-13
7.30214e-13
3.17299e-15
6.54415e-15
8.59151e-15
3.11519e-15
4.23845e-14
3.06228e-13
7.79498e-13
6.81616e-19
6.49087e-18
3.33202e-17
1.52526e-15
1.838e-14
7.85506e-14
1.42066e-13
4.32436e-19
3.6077e-18
1.9186e-17
1.19306e-16
3.92787e-16
1.012e-15
1.89566e-15
1.36315e-19
4.68006e-19
3.14567e-18
1.41488e-17
3.54725e-17
1.99156e-16
4.47114e-16
8.68746e-19
4.57e-18
7.90087e-18
9.18177e-16
1.64313e-14
2.52252e-14
3.1766e-14
3.321e-15
7.36529e-15
5.34237e-15
9.56692e-15
3.19534e-14
4.61595e-14
6.60731e-14
3.39555e-14
1.2777e-13
2.59969e-13
3.7613e-13
4.86742e-13
5.44598e-13
6.13248e-13
5.24452e-15
1.16988e-14
2.71051e-14
8.03199e-14
3.53503e-13
5.74738e-13
8.09789e-13
8.3947e-19
7.90638e-18
4.55695e-17
2.3312e-15
2.28242e-14
6.10842e-14
8.77917e-14
6.40793e-19
4.72913e-18
2.17134e-17
1.37091e-16
4.26009e-16
1.1468e-15
2.03833e-15
7.3021e-20
5.9252e-19
2.13339e-18
1.53558e-17
4.63465e-17
1.75718e-16
4.84815e-16
1.26543e-18
6.29169e-18
1.87744e-17
6.51253e-17
3.89783e-15
5.9778e-15
8.68564e-15
3.43759e-15
3.18868e-15
2.87498e-15
4.49663e-15
1.31483e-14
2.24945e-14
2.86569e-14
4.31089e-14
1.02013e-13
1.56914e-13
1.74889e-13
2.07143e-13
2.19282e-13
2.20573e-13
5.2251e-15
5.29707e-15
1.05379e-14
4.02268e-14
1.48273e-13
2.19027e-13
2.35556e-13
1.05882e-18
6.70372e-18
3.87404e-17
1.92631e-16
9.77175e-16
9.56145e-15
1.27117e-14
7.20015e-19
3.03616e-18
2.28543e-17
7.22766e-17
4.49739e-16
1.33879e-15
2.07391e-15
1.18858e-19
7.86662e-19
3.25489e-18
9.76103e-18
4.7858e-17
2.44048e-16
7.04235e-16
2.54942e-18
1.3464e-17
4.34419e-17
2.13569e-16
9.26813e-16
2.68725e-15
5.59817e-15
1.60081e-15
1.35084e-15
1.35886e-15
1.77074e-15
4.46025e-15
8.57255e-15
1.44144e-14
3.04542e-14
5.22359e-14
6.72873e-14
8.46125e-14
9.6467e-14
9.45442e-14
8.275e-14
3.00636e-15
2.55983e-15
3.76925e-15
1.16002e-14
3.44895e-14
5.95255e-14
6.55568e-14
4.87242e-19
8.43756e-19
1.82774e-18
3.61207e-18
2.24079e-17
3.76863e-17
6.19976e-17
1.96023e-20
1.72396e-20
4.2278e-20
6.45948e-20
3.30034e-19
3.47571e-19
7.68177e-19
1.98741e-22
5.57673e-23
1.9894e-22
1.23369e-21
3.87672e-21
2.83122e-20
3.70211e-19
1.19558e-20
1.18282e-20
1.33441e-20
3.20751e-20
1.42286e-19
1.11862e-18
1.63385e-17
6.00543e-16
5.81236e-16
6.41496e-16
8.37385e-16
2.59164e-15
4.42722e-15
7.60271e-15
2.10316e-14
3.5216e-14
4.02542e-14