/*--------------------------------*- C++ -*----------------------------------*\
  =========                 |
  \\      /  F ield         | OpenFOAM: The Open Source CFD Toolbox
   \\    /   O peration     | Website:  https://openfoam.org
    \\  /    A nd           | Version:  6
     \\/     M anipulation  |
\*---------------------------------------------------------------------------*/
FoamFile
{
    version     2.0;
    format      ascii;
    class       volScalarField;
    location    "0.0075";
    object      p;
}
// * * * * * * * * * * * * * * * * * * * * * * * * * * * * * * * * * * * * * //

dimensions      [1 -1 -2 0 0 0 0];

internalField   nonuniform List<scalar> 
3773
(
41683
41683.1
41683.3
41683.3
41683.5
41683.5
41683.5
100554
100554
100554
100554
100554
100554
100554
135831
135831
135831
135831
135831
135831
135831
147582
147582
147582
147583
147583
147583
147582
135829
135829
135829
135829
135829
135829
135829
100552
100552
100552
100552
100552
100552
100552
41681.6
41681.5
41681.5
41681.5
41681.5
41681.6
41681.7
41682.1
41682.2
41682.4
41682.5
41682.6
41682.7
41682.7
100552
100553
100553
100553
100553
100553
100553
135831
135831
135831
135831
135831
135831
135831
147582
147583
147583
147583
147583
147583
147583
135829
135829
135829
135829
135829
135829
135829
100551
100551
100551
100551
100551
100551
100551
41680.7
41680.6
41680.7
41680.6
41680.7
41680.8
41680.9
41681.2
41681.2
41681.4
41681.5
41681.6
41681.7
41681.7
100551
100551
100551
100551
100551
100551
100551
135830
135830
135830
135830
135831
135831
135830
147583
147583
147583
147583
147583
147583
147583
135828
135828
135829
135829
135829
135829
135829
100549
100549
100549
100549
100549
100549
100549
41679.8
41679.7
41679.7
41679.6
41679.7
41679.8
41680
41680.9
41680.9
41681
41681.1
41681.3
41681.4
41681.4
100548
100548
100548
100549
100548
100548
100549
135829
135829
135830
135830
135830
135830
135829
147584
147584
147584
147584
147584
147584
147584
135827
135828
135828
135828
135828
135828
135828
100546
100547
100546
100547
100546
100546
100546
41679.6
41679.4
41679.4
41679.3
41679.5
41679.7
41679.9
41681.5
41681.6
41681.6
41681.7
41681.9
41682
41682
100545
100545
100546
100546
100546
100546
100546
135828
135828
135829
135829
135829
135829
135828
147584
147584
147584
147584
147584
147584
147584
135826
135827
135827
135827
135827
135827
135827
100544
100544
100544
100544
100544
100543
100543
41680.2
41680.1
41680
41679.9
41680.2
41680.4
41680.6
41682.4
41682.5
41682.5
41682.6
41682.8
41683
41682.9
100543
100543
100543
100544
100543
100543
100543
135827
135828
135828
135828
135828
135828
135828
147585
147585
147585
147585
147585
147585
147585
135826
135826
135826
135826
135826
135826
135826
100541
100542
100541
100542
100541
100541
100541
41681.2
41681.1
41681
41680.9
41681.3
41681.4
41681.6
41683.1
41683.1
41683.1
41683.2
41683.5
41683.7
41683.6
100541
100542
100542
100542
100542
100542
100542
135827
135827
135827
135827
135827
135828
135827
147585
147585
147585
147585
147585
147585
147585
135825
135825
135826
135826
135826
135826
135826
100540
100540
100540
100540
100540
100540
100540
41681.9
41681.9
41681.7
41681.6
41682
41682.2
41682.3
62563.2
62675.4
63074.5
63482.2
63416.4
63142.7
62943.9
147073
146765
147083
147511
147250
146963
147173
195692
195445
195345
195317
195311
195344
195536
211488
211379
211292
211242
211248
211294
211386
194942
194838
194820
194831
194856
194910
195008
145699
145586
145764
145906
145876
145827
145907
61545.7
61639.5
61842.1
61963.5
61974.4
61893.8
61864.8
61358.2
61364.8
61664.9
61911.1
61886
61631.5
61571.7
145461
145238
145416
145499
145439
145219
145479
195095
194896
194792
194718
194719
194763
194958
211461
211373
211306
211279
211259
211286
211371
194838
194745
194691
194676
194725
194788
194877
144935
144844
145009
145133
145198
145142
145198
60696.6
60773.2
61109.1
61335.2
61356.2
61251
61231.1
60785.1
60702
60898.9
61091.5
60973.2
60822.8
60819.8
144958
144780
144784
144845
144829
144604
144794
194986
194878
194798
194758
194702
194661
194743
211557
211522
211512
211494
211428
211407
211410
194861
194807
194754
194737
194763
194831
194847
144696
144582
144611
144790
144923
144961
144981
60429.1
60370.1
60611.4
60861.4
60915.3
60866.4
60858.5
60869.2
60675.1
60722.8
60751.6
60655.9
60658.6
60715.7
145195
144938
144817
144930
144837
144648
144865
195143
195054
194976
194995
194924
194839
194883
211612
211624
211669
211682
211626
211588
211567
194869
194835
194816
194820
194858
194941
194977
144813
144601
144465
144574
144816
144989
145025
60745.7
60532.4
60461.7
60564.1
60674.6
60693.9
60681.7
61060.6
60834.6
60684.6
60533.8
60563.9
60765.2
60937.4
145405
145243
145079
145043
144970
145038
145185
195188
195148
195125
195168
195176
195163
195189
211575
211620
211716
211802
211821
211824
211836
194874
194899
194919
194918
194963
195075
195178
144978
144871
144695
144594
144791
145012
145078
60888.7
60658.6
60479.4
60395.6
60512.3
60606.9
60604.7
61033.8
60776.5
60551.2
60428.9
60460.8
60748.6
61111.9
145412
145337
145135
145009
145086
145278
145475
195208
195231
195227
195283
195377
195463
195516
211694
211716
211812
211900
211947
211989
212025
195092
195026
195011
194959
194931
195049
195171
145116
144955
144826
144679
144642
144849
145010
60720.4
60584.2
60410.5
60260.9
60332.6
60457.7
60492.3
60979.6
60829.6
60720.3
60680.2
60756.2
60931.1
61180.1
145488
145430
145171
145106
145320
145468
145656
195379
195398
195405
195475
195598
195684
195758
211933
211936
212011
212063
212052
212041
212088
195305
195148
195009
194944
194883
194867
194958
145381
145047
144625
144399
144361
144529
144728
60797.9
60638.4
60243.3
59981
60033.9
60233.6
60346.3
60599.4
60608
60938.5
61406.8
61732.2
61602.1
61387.9
145719
145616
145677
145991
146283
146312
146354
196029
196013
196099
196196
196317
196401
196454
212731
212697
212682
212646
212621
212630
212626
195789
195617
195438
195306
195279
195292
195312
145276
144665
144311
144233
144370
144552
144738
60983.8
60320.9
59775.9
59781.9
59887.7
60002.3
60100.7
60422
60251.7
60377.7
60738.8
61272.7
61608.4
61517.5
145470
145353
145417
145742
146201
146489
146601
196100
196093
196118
196259
196466
196635
196722
212893
212895
212898
212913
212907
212920
212943
195785
195654
195593
195583
195568
195541
195562
145178
144489
144376
144454
144565
144630
144745
60743.4
60056.6
59774.4
59837.5
59969.9
60019.8
60060.1
60439.4
60255.9
60245.9
60593.2
61190.8
61635.9
61721.1
145366
145273
145222
145340
145959
146698
147081
196132
196137
196067
196121
196331
196698
196963
212941
212956
212966
212984
212976
213008
213091
196015
195917
195880
195869
195779
195698
195697
145642
145025
144910
144955
144901
144827
144846
61198.3
60508.8
60194.8
60164.7
60149.3
60109.5
60108.9
60580.7
60483.2
60427.5
60716.6
61247.9
61766.8
62013.2
145416
145389
145214
145109
145615
146829
147736
196121
196144
195943
195852
196004
196437
196911
212814
212817
212840
212839
212797
212833
212908
196161
195949
195967
195978
195823
195716
195695
146332
145641
145415
145294
145070
144882
144817
62240.1
61360.2
60816.3
60514
60295
60127.2
60082.3
60600
60915.6
60972.7
60898.6
61209
61777.2
62120.1
145295
145289
145147
145176
145670
146820
147929
195745
195840
195725
195598
195688
196010
196556
212493
212496
212582
212583
212559
212540
212569
196342
195894
195886
195935
195872
195754
195685
147338
146368
145932
145525
145075
144814
144714
63258.1
62347.6
61614.9
60951.1
60378.1
60075.6
60020.8
60671.4
61169.8
61387.6
60562.7
60751.8
61323
61779.6
144826
144719
144805
145122
145550
146256
147167
195044
195122
195433
195412
195359
195535
195920
212188
212203
212339
212393
212324
212219
212144
196671
196206
196080
196040
195907
195697
195542
148522
147506
146661
145837
145081
144717
144546
63229.8
62656.3
62000.1
61490.2
60822.4
60188
59828.6
60295.6
62580.5
61383.2
60409.5
60553.9
61034.9
61432.2
144604
145512
145768
144787
144392
144937
146020
194927
195357
195900
195685
195259
194993
194882
211627
212142
212508
212686
212620
212211
211578
196365
196231
196151
196191
196293
195895
195079
148486
146968
145967
145603
145871
145429
144255
62820.6
61812
60755.5
60515.5
61303.9
61548.4
59866.3
61007.9
60991.7
61277.6
61657
61816.5
61621.2
61505.1
145702
145581
145497
145632
145928
145973
146073
195519
195490
195585
195727
195821
195931
196010
212024
212087
212141
212149
212122
212150
212179
195528
195398
195188
195071
194962
194981
194971
145915
145381
144616
144451
144476
144640
144760
61759.4
61271.2
60495.6
60037.5
60020.3
60190.8
60288.6
61000
60980.8
61322.6
61758.7
61936.9
61697.5
61526
145723
145579
145537
145693
146002
146031
146130
195551
195518
195614
195763
195852
195966
196034
212035
212108
212163
212165
212124
212166
212193
195550
195429
195213
195089
194935
194974
194976
145951
145418
144630
144457
144487
144648
144766
61884.7
61301.3
60520.5
60045.6
60017.8
60182.9
60282.4
60985.7
60963.9
61368.4
61840.8
62058.6
61777.2
61536.2
145727
145565
145571
145751
146065
146068
146178
195592
195554
195648
195798
195880
195998
196064
212071
212141
212203
212199
212143
212189
212225
195577
195461
195242
195105
194911
194968
194999
145938
145432
144655
144459
144486
144652
144771
61995
61330.3
60527.8
60043.6
60016.1
60175.2
60277.7
60964.7
60969.8
61441.2
61960.6
62205.1
61858.2
61537
145731
145559
145612
145821
146128
146107
146217
195628
195586
195681
195830
195905
196026
196097
212122
212181
212250
212241
212170
212218
212266
195597
195488
195267
195117
194919
194988
195029
145881
145422
144687
144462
144489
144660
144775
62014.5
61410
60515.1
60030.4
60011
60166.8
60274.7
60935.4
61000.5
61546.4
62123.6
62367.5
61957.4
61533.9
145740
145562
145656
145902
146193
146143
146253
195662
195611
195718
195864
195932
196050
196129
212180
212229
212297
212285
212203
212251
212306
195611
195512
195295
195132
194955
195016
195054
145802
145393
144715
144469
144500
144673
144778
61912.3
61553.1
60465.6
60004.1
60000.2
60155.5
60271.5
60899.7
61014.9
61610.9
62226.6
62456.6
62025.1
61524.8
145747
145576
145691
145961
146244
146174
146289
195697
195635
195759
195899
195964
196076
196162
212241
212280
212343
212326
212242
212288
212342
195632
195535
195326
195152
194995
195042
195077
145708
145354
144712
144475
144513
144683
144779
61751
61664.1
60375.8
59965.5
59984
60141.3
60265.5
60862.9
60970.3
61536.6
62156.7
62386.7
61987.4
61507.9
145748
145596
145700
145989
146268
146197
146310
195732
195671
195804
195934
196005
196112
196198
212303
212331
212385
212364
212284
212327
212374
195670
195559
195351
195172
195031
195067
195099
145613
145292
144672
144464
144509
144678
144776
61584.8
61601.4
60247.7
59927.8
59966.9
60124.9
60254.6
70252.4
68369.4
63471.9
61222.1
60989.4
60952
60944.6
152354
151089
147996
145868
144567
144410
144807
196468
196877
196546
195984
195461
195052
193774
210097
211941
212558
212726
212762
212501
210837
193425
195233
195666
196127
196864
197207
196666
145963
145776
145381
145154
146812
149411
150281
62418
60977.7
60341.4
60771.1
62777.4
65306.6
66765.6
71897.4
69047.4
63956.5
61513.9
60905
60349.8
60049.1
154176
152858
148243
145950
144688
144234
143932
196922
197443
196671
196065
195504
195120
193789
210250
212003
212604
212826
212871
212684
211165
192753
194726
195453
196088
196937
197563
197055
144093
145059
145058
145131
147149
150345
151693
60827.9
60483.9
60429.2
61065.9
63068.8
65838.3
68217.8
71278
68768.7
64050.4
61657.9
60565.6
59748.3
59256.5
154250
153317
148460
146055
144879
144080
143123
197192
197831
196847
196195
195599
195185
194006
210782
212268
212803
213055
213083
212953
211712
192404
194269
195390
196162
197029
197746
197224
142124
144053
145255
145861
147848
150271
151533
59126
59730.3
60775.2
61659.8
63509.2
65848.3
67756.1
69936.8
67729.9
63778.9
61573.3
60386.1
59509.9
58939.2
153585
152716
148336
146137
144977
143844
142710
197530
198107
197102
196350
195715
195200
194226
211340
212688
213175
213355
213331
213264
212257
192218
193978
195459
196421
197240
197838
197392
140851
143106
145812
147062
148640
150092
151050
58287.7
59232.1
61004.9
62469.2
64000.6
65610.5
66951.3
69159
66915.8
63573.8
61529
60381.8
59497.9
58994
153240
152070
148343
146233
145035
143837
142807
197986
198411
197377
196500
195798
195199
194387
211841
213137
213564
213625
213516
213480
212762
192135
193889
195659
196808
197534
197903
197548
140373
142764
146262
148353
149440
150097
150575
57987.8
59113.3
61295.4
63247.5
64435.7
65437.5
66544.8
69141.7
66614.5
63489.6
61520.7
60382
59494.1
59091.2
153455
151978
148550
146330
145013
143847
142897
198401
198737
197619
196605
195857
195193
194523
212245
213440
213810
213776
213638
213531
213179
192051
193938
195927
197183
197836
197982
197655
140187
142931
146716
149267
150124
150194
150281
57801.3
59126.5
61636.7
63804.1
64763.7
65391.1
66496.8
69617.1
66670.2
63567.2
61588.8
60412.1
59507.1
59193.9
153850
152260
148811
146460
145073
143868
142897
198748
198942
197792
196668
195923
195233
194626
212469
213544
213952
213855
213722
213544
213440
191988
194015
196192
197411
197981
198037
197770
140121
143187
147053
149634
150413
150329
150377
57748
59143.8
61837.8
64027.6
64814.4
65401.6
66564.9
61498.7
61016.6
60939.9
62108
65444
72032.3
80258.8
143868
143123
142987
143157
143896
146433
150897
190144
190489
190338
189515
188034
186375
185148
206741
207073
206535
205280
203378
200959
198501
196909
196932
196720
196168
195254
193967
192721
153573
154363
154806
155608
156680
158452
161318
69546.6
69663.6
69865.1
70838.2
73070
77183.4
83482.2
60234.7
60051.3
60065.2
60941.1
63377.4
68475.6
76210.4
142961
142523
142164
142131
142806
144766
148397
191441
190856
190452
189412
187909
186197
184676
208139
207252
206469
205208
203336
201035
198563
196573
196520
196483
196098
195039
193677
192427
152533
153320
154165
155231
156238
157149
159160
68562.7
68274.8
68790.3
70205.3
72494.9
75764.9
80685
59188.8
59182.3
59322.4
59833.4
61031.2
63848.6
69967.1
142235
141909
141511
141240
141438
142452
144724
192050
191273
190556
189386
187825
186027
184284
209222
207850
206744
205405
203480
201156
198566
196721
196628
196888
196509
195147
193442
192200
152320
152868
153989
155526
156395
156444
157411
68092.1
68049.1
68697.3
70230.3
72570.5
75280.1
78425.3
58866.6
58890.6
59027.3
59356.6
59925.8
61023.5
64411.5
141982
141599
141098
140603
140410
140727
141818
192446
191478
190586
189375
187767
185901
184032
210115
208616
207240
205704
203626
201092
198407
196863
196626
196618
196080
194654
193033
192115
152211
152889
153943
155274
156031
156323
157283
67889.7
68457.4
69295.2
70793
72998.3
75503.1
77776.6
58909.9
58909.8
58979.6
59223.8
59688.8
60332.5
61699.7
142218
141737
141104
140371
139937
140079
140789
192783
191744
190664
189395
187738
185738
183777
210881
209495
207887
206069
203793
200912
197861
197037
196668
196309
195600
194236
192702
191568
151861
152653
153627
154737
155657
156414
157298
67821.8
68702.3
69695.3
71219.6
73286.8
75564
77421.9
59010.1
58998.1
59030.8
59259.7
59784.6
60416.2
60955.2
142409
141916
141214
140410
139863
139871
140285
193173
192144
190940
189507
187646
185423
183267
211468
210243
208593
206549
203960
200407
196140
197199
196777
196174
195301
193982
192084
190020
151330
152154
153252
154369
155381
156159
156599
67974.5
68760.8
69793.9
71295.9
73224.4
75300
76861.7
59235.4
59196.7
59242.7
59502.4
59972.5
60437.8
60758.3
142515
142067
141370
140620
140014
139741
139591
193510
192488
191204
189712
187773
185330
181884
211844
210677
209051
206930
204132
200099
193645
197341
196923
196250
195316
193978
191786
188137
151287
152059
153217
154349
155380
156041
155828
67970.3
68737.8
69807.3
71269.7
73038.9
74980.1
76286.5
82963.1
76907.8
71750.2
68691.1
67442.1
68098.6
69862.5
158683
155255
152804
151301
150925
151672
152398
190382
191828
192963
193778
194289
195050
195750
196852
200072
202717
204638
205767
206153
205825
183877
186139
188424
189897
190337
189918
189393
149705
145698
143496
142923
142643
142791
143874
79347.2
70620.3
65157.7
62064.6
61564.8
62076.9
62745
80793.4
74893.7
70447
67214.5
65791.8
66385.7
68868.3
156842
154205
152138
150506
149586
149891
151117
190382
191849
192797
193356
193961
194703
195478
196953
200204
202724
204555
205667
206358
207257
183661
186103
188515
190101
190440
190102
190326
147531
144197
142682
142327
142043
141864
142421
75195.9
67380.2
62962.8
60950.8
60461.3
60498.2
60723
77819.9
73123.1
69588.4
66083.9
64447.7
64776.2
67180.7
154892
153187
151606
149756
148490
148692
150290
190586
191929
192608
193007
193733
194612
195483
197151
200404
202841
204655
205894
206975
208357
183383
186057
188465
190002
190379
190307
190798
143650
141666
141267
141310
141128
140827
140846
68389.7
62706.2
60290.6
59376.2
59306
59290.2
59124.2
75807.9
72835.5
69591.4
66072.2
64384.5
64697.4
66686.2
153505
153018
151647
149631
148306
148349
149911
190746
191941
192501
192981
193578
194428
195544
197138
200322
202806
204740
206203
207642
209192
183145
185893
188090
189463
190045
190316
190895
140297
139859
140200
140468
140372
140175
140132
63294.5
60093.8
59123.8
58782.9
58670.1
58575.9
58482.5
74917.4
73082.4
70364.1
67379.1
65744.4
65856.9
67337.7
152659
152645
151352
149667
148701
148942
150343
189713
191057
191994
192825
193666
194653
195862
196179
199754
202751
204968
206703
208323
209835
183093
185600
187673
189013
189727
190271
190890
139411
139346
139646
140016
140075
139990
139970
61069.3
59604
58932.9
58594.2
58356.3
58212.2
58102.3
74303.7
72968
70955.7
68858.2
67583
67612.9
68335.1
151445
151869
151032
149870
149373
149905
151324
187118
189408
191191
192545
193790
195023
196295
193815
198807
202670
205267
207259
208936
210307
182278
185216
187516
188890
189719
190303
190834
139260
139266
139480
139813
139961
139952
139889
60205.3
59480.8
58916
58496.7
58214.7
58048.3
57891.2
72831.6
72704.9
71393.7
69922.5
68988.2
69010.3
69286
149948
151414
151177
150515
150330
151056
152379
183954
188326
190746
192440
193921
195383
196818
190854
198283
202694
205529
207615
209269
210539
180349
185046
187547
189046
189902
190440
190811
138649
139073
139407
139762
139976
140006
139911
59832.7
59348.2
58923.6
58520.7
58244.4
58079.1
57948.1
101966
104272
104537
103101
100011
95092.6
89388.5
175267
176949
176773
174545
171239
167203
162991
190406
189756
188931
188233
188022
188331
189127
195945
194355
192300
190774
190555
191811
193872
185031
184069
182501
181390
181005
181459
182359
177859
174314
169734
166047
162775
158947
154462
108481
105840
102977
100214
97024
92877
87500.2
97991.6
99685.3
100881
99777.8
96147.6
91387.3
86614.1
172127
172375
172450
170687
167488
163655
160134
189153
188134
187424
187106
187261
187859
188899
195586
193921
191734
190163
190082
191494
193834
183397
182554
181408
180454
180149
180776
181909
172219
169196
165854
162820
159650
155924
151791
103637
102227
100193
97336.9
93823.8
89153.2
83054.8
96092.5
96232.9
96116.4
94701.1
91154.3
87175.4
83570.4
171016
169465
167589
165325
162538
159546
157109
187551
186429
185603
185589
186280
187420
188882
195079
193154
190760
189264
189266
190832
193684
180814
180281
179529
178882
178901
179770
181247
163308
161940
159752
157406
154549
150869
147091
95703.1
95664.7
94625.6
91950.8
88092.7
83102
76526.2
94661.3
93262.7
91541.2
89296.1
86211.6
83419.1
80355
169827
167020
163069
160210
157921
156315
155098
185656
184656
183801
184108
185410
187107
188896
194198
192304
189747
187982
187801
189772
193426
177739
177414
176952
176841
177493
178960
180786
154089
153864
152925
151338
148873
145571
142480
87137.4
87532.7
87186.6
85070.3
81298.4
76064.4
69933.3
91212.8
89505.5
87288.9
84744.2
82054.1
79987.5
77644
165892
162746
158597
155804
154079
153564
153136
183036
182310
181784
182445
184119
186189
188091
193073
191023
188165
185943
185646
188314
192336
174613
174229
173948
174400
175885
178106
180471
146792
147197
147341
146419
144172
141699
140200
80728.3
81036.9
81121.8
78886.4
75252.1
70111.2
65423.7
85978.8
85220.3
83449.9
81185
78231.5
76425.4
75415.4
159202
157112
154398
152726
151030
150462
150452
179590
178950
178851
179880
181785
183427
185044
190831
188631
185370
183178
183224
185325
188839
171130
170812
170846
171925
174040
176689
179343
142769
142866
143510
143368
142093
140212
139341
78998.3
78025.4
77120.3
74396.2
70896.5
67088.2
63530.7
79721
79922.8
78691.1
77050.2
73753.7
72130.9
72592
151764
150858
149332
149450
147527
145891
145658
175544
174964
175292
176707
177650
176891
177273
187946
185391
181701
178985
177812
177918
180739
167703
167602
167917
169658
171528
172117
173662
140368
139717
140475
140400
140761
139515
138189
78016.2
75453.8
74079.3
71255.8
68200.9
65542.1
62158.1
59083.9
58635.7
58315.3
57497.1
57164.7
56917.8
56777.1
130395
129376
127983
126571
124827
122747
121413
159420
158694
157480
155706
152611
148200
143697
169457
167397
164157
160432
156072
150757
144467
157119
156644
155759
154437
152062
148351
143814
128311
127512
126463
125830
125574
125109
124617
63064.2
61465.7
59057.8
57891.5
56938
56819.3
56777
50084.1
49857.7
49672.3
49501.5
49465
49306.1
49114.1
112975
112690
112199
111470
111059
111548
111988
139941
139750
139657
139794
139689
139530
139227
147549
147002
146245
145568
145046
144643
143872
136680
136485
136181
135908
135673
135423
134916
105729
105951
106003
106099
106211
106388
106544
44882.6
45170.2
45378.5
45707.1
46031
46382.5
46665.4
44638.6
44754.7
44947.7
45173.2
45487.6
45920.3
46292.5
100902
101213
101826
102679
103792
105071
105791
127941
128028
128402
129216
130311
131465
131949
134712
134723
134886
135257
135834
136524
136667
122597
122668
122938
123367
123904
124405
124464
91285.1
91336.6
91660.4
91860.2
92046.6
92139.4
92130.6
39281.6
39290.8
39317
39279.9
39223
39152.4
39114.3
40277.2
40347.5
40472
40626.6
40776.4
40935.7
41056.2
91210.8
91354
91612.8
91931.9
92368.5
92839.6
93141.4
119025
119057
119191
119470
119658
119851
119882
126902
126937
127040
127198
127376
127563
127575
115904
115921
116080
116291
116524
116733
116735
86852.4
86873.9
86931
87011.3
87087
87141.8
87203.9
37912.1
37885.2
37830
37838.5
37920.7
38007.4
38065.4
39064
39049.7
39067.6
39063
39043.4
39025.4
39006
87109.6
87133.5
87128.4
87120.7
87089.6
87053.7
87033.3
113628
113565
113497
113336
113234
113148
112989
122136
121981
121782
121608
121502
121507
121410
112895
112812
112774
112737
112756
112816
112734
85721.6
85712.7
85711
85726.6
85763.3
85787.9
85797.3
37447.2
37459.2
37476.8
37514.5
37499.1
37498
37501.2
39804.7
39763
39797
39857.6
39904.4
39933.4
39948
86960
86977.5
86976.5
87012.5
87037.5
87042.1
87047.2
110842
110785
110736
110654
110552
110521
110330
118238
118028
117828
117676
117625
117721
117490
111091
111005
111007
110986
110967
111016
110905
87028.7
87022.2
87016.4
87016.2
87021.5
87028.5
87029.5
38972.4
38998.2
39052.9
39121.7
39058.3
39009.5
38989.3
49197.2
49230.3
49236.8
49216.3
49189.8
49177.1
49165.1
86585
86597.5
86660.2
86771
86848.4
86908.6
86928.9
106555
106539
106617
106724
106793
106890
106819
112941
112815
112793
112786
112811
113068
112803
106484
106483
106592
106681
106685
106751
106690
86648.1
86670.2
86710
86749.6
86748
86740
86736.6
49491.7
49487.7
49476.6
49453.9
49470.5
49479.7
49482.3
87734.6
93560.4
98690.8
102591
104729
104566
101438
156342
161241
165899
169737
172054
172586
172148
184641
184537
184828
185513
186507
187507
188405
196615
195265
194434
194656
195843
197124
197783
191877
191336
191015
191017
191374
192025
192773
164597
167521
170290
172680
174362
174802
174664
89931.3
94532.3
98141.3
100583
101839
101906
99921.7
84038.1
89836.3
94691.4
98550.5
100182
99584
98416.3
153057
157461
161601
165228
167747
169045
170076
183782
183439
183545
184119
185081
186215
187317
196543
195015
194006
194047
195180
196696
197777
191518
190894
190408
190218
190492
191215
191985
162236
165210
167974
170158
171634
172676
173465
86931.5
91818.4
95583.3
98259.8
99275.8
98826.6
97790.1
77997.8
84012.9
88739.1
92278.4
94291.1
95431.8
96271.9
148242
151900
155600
159222
162615
165691
168254
183010
182212
181917
182206
183141
184535
185632
196366
194634
193429
193323
194394
196110
197635
191410
190708
190030
189579
189641
190253
191076
159979
162771
165234
167236
168843
170693
172654
83730.3
88548.7
92216.9
94771.1
95983.6
96446.6
96696.8
71073.3
77154.9
81587
85288
87928.9
90400
92411.3
143972
146740
149877
153247
156418
160176
163702
182511
181229
180248
180046
180698
181927
182837
196095
194008
192411
192037
193140
195208
197071
191610
190775
189812
189006
188609
188765
189243
159118
160940
162654
164233
165671
167581
170012
81609.8
85379.8
88560.7
90904.6
92436.5
93687.2
94843.9
66315.2
71599.6
76051.2
79686.8
82396.5
84859
86901.6
141866
143558
145851
148446
150698
153743
156885
182038
180308
178606
177675
177735
178484
179159
195154
192645
190734
190147
191238
193604
195766
190913
190049
188974
187861
187031
186700
186724
158095
158852
159889
161296
162621
164065
166047
79935.7
82308
84814.9
87126.1
89028.9
90575.5
91787.5
64428.1
68938.8
72708.7
76176.2
78507.8
79928
81026.8
140870
142261
143419
144744
145816
147600
149589
181199
179221
176833
174941
174268
174530
175294
192300
189647
188054
187679
188868
191475
193512
188531
187543
186620
185603
184532
184018
183929
156372
156447
157143
158641
159580
160357
161566
78002.5
78900.7
80918.7
83727.6
85750.5
87265.1
87825.1
62975.5
67059.3
70073.9
72966.2
74513.2
75196.8
74904.9
138874
140453
140486
141025
141154
142258
142880
176441
175661
174361
172110
170748
170590
171508
185275
183178
183353
184225
185985
188804
190895
183085
182112
182494
182548
181392
180804
181044
154332
154276
154555
155678
155743
156158
156739
75542.8
75328.2
77026.7
80231.5
81984.7
83334.6
82948.7
56018.2
55812.5
56046.6
56067.5
57076
57758
57654.3
123146
123558
123826
124189
124856
125533
125969
148370
151965
154707
156411
157366
157964
158440
153376
158822
163633
167683
170895
173445
175134
157055
160091
163572
166366
167795
168561
169174
140579
140481
139994
139782
140211
140742
141120
66759.6
66333.8
65490.1
65041.3
65202
65109.7
65258.3
46835.9
46481.3
46154.4
45729.4
45419.8
45230.4
45283.5
108038
108006
107956
107764
107527
107292
107128
139792
139991
139946
139825
139775
139812
139888
150523
151082
151407
151868
152413
152974
153412
145548
145652
145949
146437
146880
147193
147408
118475
118357
118211
118181
118755
119288
119224
53678
53487.7
53097.4
52665.5
52521.8
52552.3
52694.1
41033
41057.4
41057.4
41025.8
40946.3
40788.7
40676.5
96456.9
96345.1
96124.3
95801.8
95395.5
94987.5
94719.7
129076
128828
128254
127578
127069
126776
126656
141052
140840
140175
139480
138985
138768
138769
132956
132714
132305
131875
131454
131201
131129
101999
102158
102467
102758
102997
102914
102693
44423.3
44513.8
44691.4
44849.7
44915.8
44894.9
44862.8
39014.4
38997.8
39030.4
39081.3
39151.6
39218.5
39234.7
89841.1
89786.2
89733.9
89682.7
89647.8
89610.2
89611.8
119663
119677
119550
119382
119262
119216
119225
130274
130260
130017
129765
129600
129563
129601
121334
121263
121062
120752
120435
120286
120283
91729
91729
91788.3
91843.5
91825
91712
91615.6
40151.9
40158.4
40215.4
40277.1
40271.9
40235.4
40224.8
38744.2
38757.2
38716.4
38719.8
38676.9
38681.6
38722.9
87691.7
87692.9
87717.1
87730.3
87756
87765.3
87754.2
114420
114583
114664
114777
114912
115046
115143
122773
122954
123049
123203
123413
123639
123803
114274
114281
114270
114256
114201
114271
114356
87500.7
87489.4
87467.9
87438.1
87420.1
87415.9
87420.8
39233.2
39248
39256.4
39258.1
39258.9
39263.8
39266.4
40021.5
40046.3
39994.5
39957
39845.1
39803.7
39840.8
88422
88407.2
88406
88383.5
88382.9
88387.4
88382.9
112017
112147
112126
112154
112182
112251
112344
118251
118498
118509
118631
118810
119027
119224
111262
111253
111226
111236
111164
111236
111284
87594
87588.1
87572.3
87540
87501.9
87470.4
87450.8
40105
40104.9
40102.5
40097.1
40092.7
40087.5
40085.4
49267.7
49257.9
49272.2
49272.5
49289.6
49284.8
49268.9
87865.1
87839.1
87795.5
87722.8
87639.5
87593.8
87592.8
107932
107970
107852
107756
107624
107570
107614
113345
113606
113454
113493
113516
113579
113706
107098
107082
107019
106991
106875
106867
106849
86942.4
86930.7
86908.7
86870.5
86821.8
86776.7
86748.4
49022.4
49023.5
49026
49033.2
49042.8
49052.6
49059.8
)
;

boundaryField
{
    fuel
    {
        type            zeroGradient;
    }
    primary_air
    {
        type            zeroGradient;
    }
    Secondary_air_RHS
    {
        type            zeroGradient;
    }
    Secondary_air_LHS
    {
        type            zeroGradient;
    }
    outlet
    {
        type            totalPressure;
        rho             rho;
        psi             none;
        gamma           1;
        p0              uniform 100000;
        value           nonuniform List<scalar> 
98
(
45115
76459.1
100000
100000
100000
75557
44726.5
44862.5
76344.4
100000
100000
100000
75495
44700.3
45077
76433.7
100000
100000
100000
75533.9
44713.6
44830.7
76258.2
100000
100000
100000
75504.5
44671
45016.7
76339.9
100000
100000
100000
75432.9
44706.8
45012.9
76222.2
100000
100000
100000
75329.4
44687.5
44928.8
76089.2
100000
100000
100000
75200.1
44721.7
44628.7
75078.7
100000
100000
100000
75210.6
44606.7
44505.8
75307.7
100000
100000
100000
75267.8
44613.6
44442.5
75471.3
100000
100000
100000
75433.1
44611.1
44601
75665.4
100000
100000
100000
75289.1
44422.1
44613.2
75451.3
100000
100000
100000
75461.5
44621.7
44635.3
75708.1
100000
100000
100000
75414.2
44612.6
44658.5
75501.9
100000
100000
100000
75450.9
44627.7
)
;
    }
    stove_body
    {
        type            zeroGradient;
    }
    frontAndBack
    {
        type            empty;
    }
}


// ************************************************************************* //
