/*--------------------------------*- C++ -*----------------------------------*\
  =========                 |
  \\      /  F ield         | OpenFOAM: The Open Source CFD Toolbox
   \\    /   O peration     | Website:  https://openfoam.org
    \\  /    A nd           | Version:  6
     \\/     M anipulation  |
\*---------------------------------------------------------------------------*/
FoamFile
{
    version     2.0;
    format      ascii;
    class       surfaceScalarField;
    location    "0.0075";
    object      phi;
}
// * * * * * * * * * * * * * * * * * * * * * * * * * * * * * * * * * * * * * //

dimensions      [1 0 -1 0 0 0 0];

internalField   nonuniform List<scalar> 
10143
(
4.96504e-07
-3.67948e-05
4.87727e-05
4.90986e-08
-3.51868e-05
4.86726e-05
-1.12956e-08
-3.49983e-05
4.81088e-05
-7.39566e-08
-3.50628e-05
4.80335e-05
-3.5033e-07
-3.49229e-05
4.79317e-05
-5.33187e-07
-3.51462e-05
4.79906e-05
-3.68648e-05
4.85329e-05
-1.7244e-07
-1.15071e-05
-1.11309e-05
3.30486e-07
-1.09082e-05
-1.08452e-05
-7.74741e-07
-1.08343e-05
-8.94862e-06
-1.2719e-06
-1.09544e-05
-9.53907e-06
-5.30297e-07
-1.11405e-05
-1.0518e-05
-5.71175e-07
-1.12804e-05
-9.72934e-06
-1.16503e-05
-1.17813e-05
-1.18391e-07
-2.19705e-06
5.47765e-06
3.2381e-07
-2.20461e-06
5.3815e-06
2.20154e-07
-2.55743e-06
6.37842e-06
4.28473e-07
-2.5113e-06
5.88943e-06
8.23468e-07
-2.56338e-06
5.58493e-06
4.80467e-09
-2.88181e-06
7.00566e-06
-2.19751e-06
5.18985e-06
6.49556e-08
2.25096e-06
4.76236e-06
6.3568e-07
2.25758e-06
4.17927e-06
1.38033e-07
2.58332e-06
4.59071e-06
-4.41254e-07
2.53754e-06
4.79668e-06
-8.35032e-07
2.42742e-06
4.65817e-06
-6.16703e-07
2.59818e-06
3.48568e-06
2.1246e-06
4.33911e-06
-2.3989e-07
1.17723e-05
5.38952e-06
-1.94477e-07
1.17541e-05
5.08452e-06
-3.34293e-07
1.12727e-05
6.04531e-06
1.63713e-08
1.08514e-05
5.92149e-06
6.39625e-07
1.10681e-05
5.33985e-06
9.50087e-08
1.11801e-05
6.55986e-06
1.17543e-05
5.12184e-06
1.40113e-07
3.74913e-05
-1.19104e-05
6.62777e-07
3.66887e-05
-1.16155e-05
-9.48738e-08
3.59305e-05
-9.89073e-06
-5.67001e-07
3.55e-05
-1.01841e-05
1.33472e-07
3.54904e-05
-1.12562e-05
-1.53725e-07
3.5689e-05
-1.02322e-05
3.76557e-05
-1.21675e-05
3.78507e-07
4.92425e-05
3.39411e-07
4.94187e-05
1.84829e-07
4.87171e-05
-9.31145e-08
4.83201e-05
-3.56503e-07
4.84307e-05
-4.83339e-07
4.85063e-05
4.93106e-05
2.15476e-07
-4.51924e-06
6.41248e-05
3.08503e-07
-4.50118e-06
6.40217e-05
2.35865e-07
-4.22026e-06
6.33868e-05
3.64076e-07
-4.41598e-06
6.3275e-05
-1.29052e-09
-4.5452e-06
6.36607e-05
-2.78519e-07
-4.59562e-06
6.35979e-05
-4.95495e-06
6.43878e-05
-3.58574e-07
3.46386e-06
-1.6501e-05
-1.8048e-07
3.51828e-06
-1.69074e-05
-6.8202e-07
3.67325e-06
-1.42616e-05
-6.23027e-07
3.4448e-06
-1.54312e-05
6.80132e-08
2.90295e-06
-1.66948e-05
-1.3711e-07
3.24293e-06
-1.52875e-05
3.00292e-06
-1.7683e-05
1.33701e-07
3.3399e-06
4.91713e-06
6.63382e-08
3.99466e-06
4.6433e-06
3.27469e-07
1.83333e-06
7.7285e-06
9.69732e-07
1.98109e-06
6.45035e-06
1.24738e-06
2.30646e-06
5.66869e-06
2.83144e-07
3.27554e-06
7.88607e-06
3.4023e-06
4.54786e-06
6.52213e-08
-3.56962e-06
4.68228e-06
1.17744e-06
-3.75926e-06
3.74296e-06
1.49892e-07
-3.03602e-06
3.53998e-06
-8.37587e-07
-2.72577e-06
3.58362e-06
-1.37803e-06
-2.48214e-06
3.05819e-06
-8.26631e-07
-2.96112e-06
2.1172e-06
-3.65642e-06
3.63832e-06
-2.38927e-07
-2.9148e-06
4.49799e-06
-5.1381e-07
-2.89105e-06
3.92229e-06
-3.44604e-07
-3.21895e-06
5.91429e-06
4.37775e-07
-3.24564e-06
5.4625e-06
9.90714e-07
-2.74543e-06
4.86848e-06
4.10301e-07
-2.74643e-06
6.86348e-06
-2.82167e-06
4.21727e-06
-1.18132e-07
5.76233e-06
-1.82779e-05
1.80662e-07
4.47706e-06
-1.70879e-05
-1.58182e-07
5.38132e-06
-1.60839e-05
-1.46699e-07
5.37689e-06
-1.6999e-05
5.62352e-07
5.27054e-06
-1.80141e-05
2.37293e-07
5.44387e-06
-1.60907e-05
5.82296e-06
-1.84209e-05
4.3575e-07
6.58725e-05
7.62506e-08
6.53267e-05
1.51851e-07
6.51734e-05
-2.67499e-07
6.51873e-05
-4.91845e-07
6.5056e-05
-4.33377e-07
6.49183e-05
6.61343e-05
-4.17833e-07
1.1976e-05
5.76077e-05
1.80851e-07
1.00709e-05
5.72452e-05
3.72635e-07
1.07914e-05
5.64215e-05
9.95577e-07
1.05282e-05
5.61704e-05
5.92194e-07
1.15584e-05
5.68047e-05
1.94878e-07
1.11238e-05
5.73231e-05
1.20674e-05
5.77221e-05
-1.41519e-07
4.97365e-06
-9.03117e-06
-1.9603e-07
4.4262e-06
-1.04639e-05
-3.86017e-07
4.56315e-06
-7.25626e-06
-5.14577e-07
4.30597e-06
-8.42767e-06
-2.19437e-07
4.69966e-06
-9.63418e-06
-2.09976e-07
4.55934e-06
-8.60352e-06
4.88398e-06
-1.03613e-05
2.85813e-07
4.00221e-06
4.79824e-06
2.5602e-11
5.25702e-06
3.0784e-06
3.89712e-07
2.3379e-06
8.46785e-06
9.74714e-07
2.46103e-06
6.65222e-06
1.1163e-06
3.77013e-06
5.34811e-06
2.84378e-07
6.12668e-06
6.4579e-06
5.18935e-06
3.70626e-06
-1.23982e-07
-4.80236e-06
6.4537e-06
1.24801e-06
-6.0488e-06
6.26185e-06
6.59711e-08
-3.92086e-06
3.65632e-06
-9.56757e-07
-3.68924e-06
3.47521e-06
-1.4439e-06
-3.64363e-06
3.61278e-06
-7.21283e-07
-4.48262e-06
4.49476e-06
-5.39074e-06
6.32607e-06
-2.03855e-07
-4.87625e-06
4.00264e-06
-5.79125e-07
-4.98967e-06
2.40544e-06
-2.36089e-07
-4.97623e-06
5.58193e-06
4.86212e-07
-4.82755e-06
4.77922e-06
8.31302e-07
-4.572e-06
4.41214e-06
4.53573e-07
-3.98127e-06
5.83748e-06
-4.88943e-06
3.38258e-06
-1.42927e-07
-1.16998e-05
-1.09391e-05
9.45877e-08
-1.14303e-05
-1.07486e-05
-2.29353e-07
-1.11744e-05
-9.1382e-06
9.93421e-08
-1.20228e-05
-9.60567e-06
5.97758e-08
-1.11418e-05
-1.09089e-05
6.49862e-08
-1.06746e-05
-8.78443e-06
-1.16771e-05
-1.12122e-05
1.12988e-07
5.95773e-05
-4.91603e-07
5.91751e-05
-1.89095e-07
5.83482e-05
-4.08323e-07
5.83839e-05
-3.7966e-07
5.84069e-05
-6.91315e-08
5.83776e-05
5.98843e-05
-5.76219e-07
1.40128e-05
4.47335e-05
2.4584e-07
1.02367e-05
4.57889e-05
3.77519e-07
1.08689e-05
4.49806e-05
9.29857e-07
1.07712e-05
4.4435e-05
6.7549e-07
1.3234e-05
4.3752e-05
5.50155e-07
1.29962e-05
4.45984e-05
1.4324e-05
4.45501e-05
5.55416e-07
6.73634e-06
-3.00442e-06
-3.06773e-07
5.93873e-06
-5.64684e-06
-3.47506e-07
5.78805e-06
-2.57658e-06
-9.69232e-07
6.12527e-06
-3.63983e-06
-7.55592e-07
5.94404e-06
-3.33299e-06
-4.65675e-07
5.74186e-06
-2.32728e-06
6.62937e-06
-3.83758e-06
4.19498e-07
4.11843e-06
6.10887e-06
1.95852e-07
4.20101e-06
4.19843e-06
3.61674e-07
4.13456e-06
9.23929e-06
9.0173e-07
4.13872e-06
7.31885e-06
9.40264e-07
3.44719e-06
6.93551e-06
1.69656e-07
5.74305e-06
6.34318e-06
4.60717e-06
4.99742e-06
-8.33944e-08
-4.52093e-06
8.00144e-06
9.77355e-07
-4.87607e-06
6.96597e-06
-2.10672e-09
-1.79452e-06
3.27896e-06
-9.33779e-07
-1.9997e-06
3.33813e-06
-1.25201e-06
-4.19645e-06
4.3535e-06
-5.75222e-07
-5.18832e-06
7.38829e-06
-5.06458e-06
8.24461e-06
-1.2395e-07
-6.75308e-06
5.48857e-06
-5.62712e-07
-7.03815e-06
4.0947e-06
-1.63374e-07
-5.62061e-06
8.24097e-06
5.9977e-07
-6.10029e-06
7.26515e-06
7.04554e-07
-6.58876e-06
5.83952e-06
3.92971e-07
-5.86282e-06
6.03987e-06
-6.7521e-06
4.57461e-06
1.82588e-07
-1.41766e-05
-4.40901e-06
1.02177e-07
-1.32266e-05
-5.34904e-06
-1.74588e-07
-1.2842e-05
-2.36957e-06
3.62367e-07
-1.34849e-05
-3.61444e-06
-3.2172e-07
-1.2826e-05
-4.82625e-06
-2.9248e-07
-1.21555e-05
-3.17705e-06
-1.41318e-05
-4.84255e-06
-1.81307e-07
4.63216e-05
-4.77338e-07
4.64164e-05
-3.43069e-07
4.5352e-05
-4.04329e-07
4.51304e-05
-3.52397e-07
4.5414e-05
1.08414e-07
4.58253e-05
4.65763e-05
-5.97696e-07
1.40009e-05
3.00051e-05
3.2772e-07
1.14632e-05
3.19215e-05
2.14765e-07
1.16968e-05
3.17612e-05
8.52295e-07
1.1888e-05
3.02673e-05
8.32907e-07
1.29285e-05
2.91657e-05
7.48488e-07
1.31789e-05
2.98769e-05
1.42842e-05
2.97027e-05
9.07704e-07
6.33268e-06
2.66118e-06
-4.55194e-07
6.71908e-06
-5.00738e-07
-2.00392e-07
6.72314e-06
1.16651e-06
-1.04208e-06
6.66491e-06
1.34692e-06
-1.08666e-06
6.20351e-06
2.23614e-06
-6.67475e-07
6.11259e-06
3.10286e-06
6.5524e-06
2.0747e-06
6.14746e-07
3.4356e-06
7.58155e-06
3.46115e-07
4.06658e-06
6.26069e-06
3.62873e-07
5.66082e-06
9.41107e-06
9.15399e-07
4.62796e-06
7.97138e-06
6.50481e-07
4.56888e-06
8.05419e-06
1.77077e-07
4.13975e-06
8.08374e-06
3.78114e-06
7.1038e-06
-2.39389e-07
-4.22943e-06
8.73571e-06
4.63722e-07
-4.30385e-06
7.32867e-06
1.10281e-08
-3.41779e-06
5.49978e-06
-7.41178e-07
-3.60502e-06
5.07556e-06
-6.79778e-07
-4.36294e-06
5.94545e-06
-5.20249e-07
-4.0685e-06
7.92824e-06
-4.01564e-06
8.3649e-06
6.98736e-09
-6.56758e-06
7.01935e-06
-4.56631e-07
-6.81544e-06
6.23411e-06
-7.34662e-08
-6.07759e-06
9.8162e-06
5.07755e-07
-6.65432e-06
8.99041e-06
4.21542e-07
-6.40846e-06
7.19565e-06
3.34403e-07
-6.20826e-06
7.60667e-06
-6.49489e-06
6.57434e-06
3.99207e-07
-1.41568e-05
1.64823e-06
-1.53291e-08
-1.28132e-05
-1.65996e-07
8.4451e-08
-1.27739e-05
3.07667e-06
2.20986e-07
-1.24639e-05
8.51145e-07
-6.12399e-07
-1.28055e-05
1.21403e-06
-4.151e-07
-1.27819e-05
2.01179e-06
-1.41718e-05
1.27201e-06
-2.05196e-07
3.11012e-05
-6.54849e-07
3.24715e-05
-2.63854e-07
3.05508e-05
-4.38707e-07
3.11224e-05
-1.39495e-07
3.06465e-05
1.54988e-07
3.11773e-05
3.12842e-05
-5.27891e-07
1.09131e-05
1.7492e-05
5.90723e-07
9.35417e-06
1.90882e-05
-1.00251e-07
1.11662e-05
1.92095e-05
6.07345e-07
8.72605e-06
1.8374e-05
6.55774e-07
9.24974e-06
1.73422e-05
9.48516e-07
9.46016e-06
1.76684e-05
1.13438e-05
1.71886e-05
6.84116e-07
5.36956e-06
6.58426e-06
-7.44494e-07
5.60985e-06
4.25178e-06
1.13081e-07
5.22162e-06
4.9736e-06
-9.63331e-07
5.61391e-06
4.7554e-06
-1.47758e-06
6.05201e-06
5.03928e-06
-7.15561e-07
4.9612e-06
6.34481e-06
5.67498e-06
6.03646e-06
9.61328e-07
1.05066e-06
1.02635e-05
2.13289e-07
2.90461e-06
8.62013e-06
3.83488e-07
3.49814e-06
1.03397e-05
8.87946e-07
2.73499e-06
9.75779e-06
4.9718e-07
4.20673e-06
9.65329e-06
1.6164e-07
2.36851e-06
1.00786e-05
2.49929e-06
9.72223e-06
-5.55943e-07
-2.14735e-06
5.4013e-06
2.10162e-07
-3.7658e-06
5.97512e-06
-3.449e-08
-3.70643e-06
5.52371e-06
-6.36918e-07
-4.07611e-06
5.09588e-06
-3.88573e-07
-3.33927e-06
5.81234e-06
-6.20541e-07
-1.80683e-06
5.00403e-06
-2.29518e-06
5.44682e-06
3.68421e-07
-5.78883e-06
9.6202e-06
-4.47782e-07
-5.45677e-06
8.05675e-06
1.34507e-08
-5.38799e-06
1.05099e-05
2.31211e-07
-5.65182e-06
9.81951e-06
2.38596e-07
-5.72066e-06
9.05135e-06
2.3518e-07
-4.80794e-06
1.00422e-05
-5.68237e-06
9.51299e-06
2.45376e-07
-1.1075e-05
5.72728e-06
2.2583e-08
-1.06589e-05
4.02489e-06
2.88482e-07
-9.23661e-06
5.76953e-06
2.6499e-07
-1.04721e-05
4.47194e-06
-7.40944e-07
-8.40444e-06
4.14764e-06
-1.63814e-07
-1.02013e-05
5.81862e-06
-1.12334e-05
5.66368e-06
-1.04808e-07
1.80563e-05
-8.01456e-07
2.02192e-05
-1.44409e-07
1.82424e-05
-5.27626e-07
1.86428e-05
-7.71482e-08
1.92648e-05
1.58444e-07
1.83509e-05
1.81175e-05
-6.3391e-07
1.188e-05
7.78821e-07
1.16412e-05
-2.48203e-07
1.38914e-05
6.55874e-07
1.12546e-05
6.8056e-07
1.1095e-05
1.19046e-06
1.09311e-05
1.21158e-05
6.30712e-07
8.36258e-06
-7.55711e-07
7.8344e-06
6.06652e-07
7.75661e-06
-7.04484e-07
8.08059e-06
-1.50911e-06
7.71339e-06
-5.31001e-07
7.12736e-06
8.14255e-06
1.27725e-06
6.01082e-06
6.40223e-08
6.3304e-06
6.24875e-07
6.06094e-06
1.03727e-06
6.07206e-06
6.29175e-07
6.29842e-06
1.41165e-07
6.46878e-06
6.51871e-06
-5.57575e-07
-6.0856e-06
1.7992e-07
-6.29588e-06
-1.71683e-07
-5.96728e-06
-6.6197e-07
-6.22615e-06
-5.6943e-07
-5.78736e-06
-7.66751e-07
-6.40945e-06
-6.57376e-06
5.98223e-07
-8.34764e-06
-6.22275e-07
-8.06101e-06
1.90834e-07
-7.46103e-06
2.91552e-07
-7.91482e-06
4.81863e-07
-7.77413e-06
2.40279e-07
-7.26233e-06
-8.28768e-06
-1.43895e-07
-1.19227e-05
2.00799e-07
-1.50291e-05
4.36443e-07
-1.11927e-05
1.42934e-07
-1.27342e-05
-8.97999e-07
-1.29019e-05
4.47977e-08
-1.17933e-05
-1.20784e-05
-6.75741e-08
-1.07639e-06
-2.29266e-07
-6.00131e-07
-1.55344e-07
1.94223e-07
-0.00548119
0.0025775
0.00311187
-0.00591867
0.00365606
-0.00312947
-0.00457338
0.00385383
-0.00516075
0.0014145
0.00342937
-0.0093956
0.00476266
0.00503319
-0.00840084
0.00589496
0.00449866
-0.00565518
0.00331016
0.0027356
-0.0101125
0.00673055
0.00688511
-0.0112809
0.00570068
-0.000412161
-0.00658718
0.00604222
-0.00652872
0.00306384
0.00664136
-0.0126286
0.00941131
0.00672667
-0.00776274
0.00985955
0.00633805
-0.00195142
0.00712933
0.00689152
-0.00448855
0.00323639
0.00855632
-0.00538442
0.00233017
0.00485049
-0.00334977
0.00111489
0.00342204
0.00154032
-6.02806e-05
0.00230369
0.00453313
0.000927478
0.00327332
0.00433931
0.0022396
0.00480443
0.0032476
0.0087228
0.00116912
-0.00275709
0.00411621
0.0016639
-0.00220581
0.00363863
0.000971024
-0.00181983
0.00332434
-0.00071866
-0.00182938
0.00322181
-0.00145166
-0.00197395
0.00327186
-0.00105598
-0.00231912
0.00363635
-0.0028179
0.00412974
-0.0026971
-0.0055736
0.00572563
-0.003341
-0.00479456
0.00353334
-0.00221182
-0.00509087
0.00238698
9.71505e-05
-0.00555101
0.00166941
0.00178971
-0.00538274
0.00193054
0.00207882
-0.00533449
0.00296003
-0.00591288
0.00524032
-0.00840169
-0.0021895
0.00594999
-0.00852042
-0.00297695
-0.00122306
-0.00420809
-0.00345082
-0.00557325
0.00147579
-0.00362419
-0.00724213
0.00574593
-0.00388602
-0.00541862
0.00641983
-0.00331196
-0.00225206
-0.00318731
0.00457556
-0.00443127
0.00247219
-0.00314173
-0.00422835
-0.000641285
-0.00591591
0.00137504
-0.00559481
0.00272604
-0.00517307
0.00382891
-0.00432465
0.000900376
-0.00250178
0.00226611
0.00363745
-0.00212448
0.00233435
-0.00581156
-0.0012743
0.00285269
-0.00881055
0.00103101
0.0011949
-0.0128858
0.00236743
0.00255158
-0.01231
0.00310275
0.00240536
-0.00883417
0.00279274
0.00329643
-0.0038329
0.00403513
0.00992611
-0.00500296
0.00339027
0.00011449
-0.00192384
0.00282013
-0.00928685
0.00142624
0.00153193
-0.016262
0.00294996
0.00261997
-0.00914443
0.00341758
0.00327093
-0.00298518
0.00427693
0.00984076
-0.000834564
0.0027174
0.0109775
-0.00135679
0.00196819
0.0071319
-0.000650764
0.000724991
0.00507314
7.59412e-05
-0.000291344
0.00360093
0.000646291
0.000665887
0.00488663
0.000539982
0.00175619
0.00671412
0.00277953
0.011029
0.00146334
-0.00209861
0.00672346
0.00213757
-0.00165885
0.00612261
0.00118447
-0.000809523
0.00552772
-0.000863659
-0.000476857
0.00529065
-0.00172294
-0.00099163
0.00551309
-0.0013359
-0.00150344
0.00600784
-0.00176714
0.00659587
-0.000434843
-0.00378635
0.00763978
-0.000621097
-0.00314497
0.00525474
-0.0012745
-0.00183096
0.00414924
-0.00117248
-0.0019729
0.00318205
-0.000767963
-0.00302824
0.00364129
-0.000357677
-0.00344037
0.00451748
-0.00368974
0.00658882
-0.00349288
-0.00129757
0.007596
-0.00473606
-0.00157104
-0.00120579
-0.0033893
-0.00195507
-0.00646009
-0.000554645
-0.00198986
-0.00985461
0.00162956
-0.00247881
-0.0078468
0.000930295
-0.00203113
-0.00261191
-0.00271008
0.00507955
-0.00171885
0.00315753
-0.00060975
-0.00701235
0.000853678
-0.00936275
0.00221046
-0.00894591
0.00236191
-0.007749
0.00208877
-0.00602209
0.000576986
-0.000682262
0.00201776
0.00262291
-0.000298299
0.00102635
-0.00722454
-0.00027711
0.00216249
-0.0109635
0.000993966
-0.000458614
-0.0136549
0.00180315
0.000364558
-0.0134467
0.00139177
0.00154719
-0.0100292
0.00232384
0.0027713
0.000322308
0.00282608
0.00933162
-0.00114289
0.00233258
0.000514377
0.000251785
0.00206306
-0.0103908
-0.000371565
0.0003662
-0.0165164
-0.000620473
0.00112222
-0.00949853
-0.000232114
0.00260555
-0.00424012
0.00316343
0.00947608
0.00104314
0.00181977
0.0108485
0.000739882
0.00160875
0.00820898
0.000695278
0.000990094
0.00633007
-0.000724794
0.000214093
0.00527567
-0.0014845
0.000839897
0.00606446
-0.00125025
0.00158093
0.00760954
0.00194113
0.0110523
0.00108925
-0.00149656
0.00843505
0.00169286
-0.0012843
0.00797927
0.00109485
-0.00068623
0.00755227
-0.000669209
-0.000223378
0.0073815
-0.00150533
-0.000624219
0.00758098
-0.00104055
-0.00118209
0.0079075
-0.00123627
0.00829183
0.000385468
-0.00305997
0.00846131
0.000235336
-0.00258688
0.00669552
-0.000987341
-0.00113752
0.00593153
-0.00200687
-0.00119273
0.00526345
-0.00201947
-0.00207899
0.00517611
-0.00120647
-0.0030719
0.00551955
-0.00314057
0.00709403
-0.000586895
-0.00119445
0.00659117
-0.00341187
0.000232015
-0.000931538
-0.00413381
-0.000437872
-0.00620026
-0.00358765
-0.00106208
-0.0104645
-0.00177329
-0.00087515
-0.0104796
-0.0012126
-0.00110842
-0.00483391
-0.00216863
0.0031188
0.000393293
0.00174456
0.00159109
-0.00801565
0.00204035
-0.0102837
0.00204747
-0.0100514
0.00201745
-0.0085725
0.00122871
-0.00632823
-0.000176528
0.00112014
0.00157201
-8.20425e-06
0.00118237
0.00097797
-0.00827464
0.000375919
0.00130874
-0.0114558
0.00112763
-0.00090026
-0.013383
0.000538902
0.000276858
-0.0130747
-0.000546423
0.000769212
-0.0097834
0.00179664
0.000521218
0.00340666
0.00229641
0.00540355
0.00293175
0.00180219
2.58717e-05
0.00255848
0.000815261
-0.0096439
-0.000580217
0.000357108
-0.0147993
-0.00120967
0.000696128
-0.00930105
-0.00297152
0.00189705
-0.00366199
0.00266951
0.00589088
0.00167536
0.00102095
0.0101987
0.00152447
0.00146204
0.00865506
0.000825333
0.000980638
0.0069044
-0.000691536
0.000470873
0.00673576
-0.00166503
0.000824794
0.00695457
-0.0017587
0.00142175
0.00816631
0.00109383
0.0106029
0.000481241
-0.00118074
0.00987172
0.00113631
-0.00112248
0.00966695
0.000884087
-0.000816099
0.00941715
-0.000382503
-0.000248872
0.00927501
-0.00115241
-0.000393545
0.00937318
-0.00069521
-0.0010943
0.00960317
-0.0015488
0.00988346
0.000910229
-0.0025722
0.0088275
0.000624037
-0.00180438
0.00765816
-0.000771222
-0.000528764
0.00718775
-0.00240924
-0.000285608
0.00704846
-0.00267208
-0.00100754
0.0060854
-0.00137157
-0.00286918
0.00597145
-0.00349089
0.00748085
0.0024776
-0.00151639
0.00315506
0.000514917
3.77998e-06
-0.000922979
-0.0016045
0.000373065
-0.00499153
-0.00288267
-0.000620776
-0.0088961
-0.00211376
-0.000419557
-0.0117892
-0.000827922
-0.000929906
-0.00770974
-0.00155337
0.000392183
0.00259327
-0.00216019
0.00386673
-0.00923625
0.004234
-0.0103181
0.00328252
-0.00978411
0.00245682
-0.00819892
0.000757993
-0.00557712
-0.000889593
0.00169735
0.00175019
-0.00332851
0.00123648
0.00101804
-0.00877737
0.00045575
0.000390885
-0.0110902
0.000884179
-0.000850991
-0.0128245
-0.00100878
0.000586157
-0.0117767
-0.00150172
0.00011062
-0.00946702
0.00197632
-0.00292922
0.00430805
0.00235873
0.000570966
0.00552725
0.00201392
-0.0022577
0.00458099
0.000992149
-0.00947227
0.000452396
0.000419065
-0.0120737
-0.00253668
0.00115797
-0.00693319
-0.00432093
0.00166992
-0.00362212
0.00216604
0.00136672
0.00173241
0.000774848
0.00991177
0.00209682
0.00121924
0.00897892
0.00123936
0.000742357
0.00805573
2.60874e-05
0.000431952
0.00797184
-0.00128131
0.0010675
0.00841675
-0.00154208
0.00114439
0.00881045
0.000722717
0.0102774
0.000394141
-0.00117511
0.0111624
0.00102016
-0.00114944
0.0111796
0.000935954
-0.000999169
0.0110561
-8.95905e-05
-0.000405293
0.0109903
-0.000652821
-0.000303844
0.0110894
-0.000639747
-0.0008647
0.0112602
-0.0017249
0.0113253
0.00113081
-0.0024954
0.00885025
0.000896366
-0.00171888
0.00836941
-0.000909617
-0.000134535
0.00818367
-0.00270486
7.4699e-05
0.00847307
-0.0026788
-0.00135226
0.00715797
-0.00143245
-0.00239409
0.00630311
-0.00353858
0.00776264
0.00444222
-0.00168441
-0.00198637
0.00588412
-0.000548082
-0.00360286
0.00529264
0.00131877
-0.00597114
0.0034591
-0.000236629
-0.00690671
0.000251253
-0.000609967
-0.00940514
-0.000350452
-0.000727679
-0.00852332
-0.00103025
-0.00233265
0.00360593
-0.00714742
0.00436954
-0.0104218
0.00539942
-0.0100101
0.00433146
-0.00898162
0.00222626
-0.00675996
0.000196567
-0.00428435
-0.00170431
-2.15034e-05
0.00148357
-0.00464221
-0.000767512
0.000587781
-0.008575
-7.29838e-05
-0.000781554
-0.0110608
-0.000512832
-0.000554783
-0.0118231
-0.00107621
-0.000430624
-0.010779
-0.000831051
-3.15657e-05
-0.00971015
0.00114901
-0.00490099
0.00250335
0.00208544
-0.00235433
0.00435667
0.00193775
-0.00513837
0.00446753
0.000965516
-0.0112993
0.000748329
0.000474542
-0.00937967
-0.00256747
0.000445639
-0.00451242
-0.00330888
0.000926308
-0.00386067
0.00124353
-0.00190754
0.00157481
0.000543074
0.00975965
0.00258722
0.000664087
0.00907699
0.00178193
0.000279918
0.00959396
0.000321092
0.000536008
0.00945704
-0.00126943
0.00108161
0.00945837
-0.00120646
0.000402216
0.00925052
0.0004457
0.00980409
0.000720403
-0.000619999
0.0112447
0.000778759
-0.000408595
0.011874
0.000410611
-0.000491319
0.0119461
-0.00025242
-2.34666e-05
0.0120394
-0.000218824
-1.73913e-05
0.0119635
-0.000645327
-0.000185955
0.0120762
-0.000887692
0.0117802
0.00137039
-0.00205735
0.0086736
0.00140819
-0.0014553
0.00924224
2.42982e-05
-0.000655461
0.00971585
-0.00188433
0.000468072
0.00995021
-0.00268935
-0.000807115
0.00881472
-0.00185497
-0.00196047
0.00736862
-0.00296379
0.00800476
0.00365979
0.000244976
-0.00761765
0.0070491
0.00157977
-0.00973456
0.00880029
0.00166296
-0.00979359
0.00857611
0.00063452
-0.0068335
0.00463893
-0.000212103
-0.00606952
0.00117521
-0.000484848
-0.00642001
-0.000498469
-0.00334449
0.0027322
-0.00939056
0.0043531
-0.010423
0.0054389
-0.0093684
0.00443845
-0.00731722
0.00204019
-0.00457295
0.000259926
-0.002952
-0.00187202
-0.00322522
0.00102867
-0.00230633
-0.00350824
-0.00105227
-0.00720309
-0.00265168
-0.00194066
-0.00999755
-0.00202315
-0.00133238
-0.01106
7.91627e-05
-0.00157699
-0.0112603
0.00126635
-0.00107196
-0.00977125
0.000672493
-0.00429519
-0.000870111
0.00205326
-0.00223807
0.000379109
0.00185007
-0.00883795
-0.00134401
-4.45331e-05
-0.0114264
-0.00164578
-0.00163791
-0.0087155
-0.00116782
-0.00118952
-0.0053232
-0.00175204
0.000144558
-0.00436167
0.00140412
-0.00415883
0.00127978
0.000930543
0.00941998
0.00258627
0.000739562
0.00880165
0.00221854
0.000417222
0.00949066
0.000535682
7.39012e-05
0.00945121
-0.00112994
0.000937023
0.0091013
-0.00101316
0.0009098
0.00839346
0.00199576
0.00821079
0.000742848
-0.00173165
0.0127926
0.000751037
-0.000684087
0.0129614
0.0009116
-0.000979296
0.0128738
-1.1013e-05
-1.05653e-05
0.0129064
0.000182329
0.000198546
0.0123333
-0.000688336
0.000909142
0.0127554
0.00028056
0.0126009
0.00184909
-0.00207699
0.00718289
0.00203446
1.02191e-05
0.00837322
0.000688245
0.000367796
0.00971576
-2.69742e-05
0.000678732
0.0100107
-0.0021761
2.17697e-05
0.0111793
-0.00209796
-0.000867997
0.00918248
-0.00237603
0.00871389
0.00627078
0.00186064
-0.0165056
0.0101985
0.0027639
-0.0158708
0.0107818
0.0024218
-0.0119713
0.0101121
0.00174017
-0.00701662
0.00787327
0.000656812
-0.00441193
0.00404582
0.000394255
-0.003773
-0.000135026
-0.00122172
0.00250223
-0.00985826
0.00506365
-0.0101602
0.00559532
-0.00738419
0.00479733
-0.00471037
0.00326734
-0.00235601
0.00192015
-0.00119571
-3.03365e-05
-0.00215272
-0.00010297
0.00243907
-0.000127609
-0.00316777
2.49849e-06
-0.00466838
0.00571516
-0.00273794
0.00201824
-0.0113828
0.00898969
-0.000227881
0.00216983
-0.0141705
0.00954551
0.000993813
0.00286689
-0.0143522
0.0103317
0.00133896
0.001214
-0.0105087
0.00910861
0.00184639
-0.00325472
0.00273516
-0.0046668
0.00206315
0.00305333
-0.00019061
-0.00753533
0.000307324
-0.00653279
0.0092047
-0.00864401
2.54644e-05
-0.00810944
0.0112813
-0.00551877
-0.00190584
-0.00840647
0.00941909
-0.00118976
-0.00124182
-0.0080702
0.00797999
0.000912927
0.000192178
-0.00780264
0.00691277
0.00169571
-0.0014894
0.00274787
0.000608843
0.000257006
0.0100884
-0.00888807
0.000282853
-3.75621e-05
0.00910276
-0.00848553
0.000627525
-0.000117664
0.00837146
-0.00863475
-0.000928356
-0.000465106
0.00900235
-0.00889188
-0.00184444
0.000102937
0.0082498
-0.00870361
-0.00142346
0.000854302
0.00670753
-0.0077933
0.000936652
0.00608762
-0.00673436
0.000710145
-0.000538971
0.0117606
-0.0119018
0.000907026
-0.000218667
0.0115975
-0.0118261
0.000692676
-2.06072e-05
0.0117632
-0.0118488
2.24394e-05
0.000156119
0.0118693
-0.011985
-0.00026259
0.000519478
0.0118362
-0.0122008
-9.05078e-05
0.000939517
0.0114905
-0.0119612
0.00108434
0.0113554
-0.0118574
0.00372755
-0.00256477
0.00440246
-0.00576994
0.0049947
-0.000589156
0.00688902
-0.00767966
0.00271414
0.00207604
0.00931503
-0.00911392
0.00043459
0.00197847
0.0102889
-0.00986743
-0.00053982
0.000921337
0.0101025
-0.00961643
-0.000616031
0.000223793
0.00994921
-0.00918787
-0.000779529
0.00989892
-0.00862308
0.00454349
-0.00324772
-0.0218996
0.0185204
0.00801438
-0.00332253
-0.0166638
0.0164069
0.00821802
-0.00109486
-0.00792007
0.011146
0.00802604
0.000522977
-0.00477663
0.00654649
0.00723103
0.000230728
-0.00248391
0.004005
0.00479508
0.000599829
-0.000816835
0.00288089
0.00134393
0.00389308
-0.00111357
-9.99729e-05
-0.0127553
0.00962221
-0.00124863
-0.014501
0.0123321
1.27255e-05
-0.0080492
0.0057411
0.000769579
-0.0032824
0.00306952
0.00120949
-0.00076148
0.000548064
0.000534176
0.00153335
-0.000271425
0.0034743
-0.00156381
-0.000541359
-0.000644741
0.00359727
-0.00113713
-0.00177371
-0.00233112
0.00056051
-0.00181976
-0.011264
0.0010461
-0.000882908
-0.0137802
0.000189759
0.000600406
-0.014079
0.000730907
-0.000724506
-0.010135
0.0011552
-0.00363286
-0.00392393
0.00122272
0.00539198
-0.00802408
-0.000182538
-0.004026
-0.00952505
-0.00200899
-0.00640821
-0.00811166
-0.00160243
-0.00904396
-0.00358517
-0.000231762
-0.0116227
-0.00102489
0.00122979
-0.0120221
0.00238035
-0.00361789
0.000370792
0.000482485
0.0104862
0.000178476
0.000120623
0.00899019
-0.00116832
-0.000275623
0.00802146
-0.00210449
-0.000189633
0.00854281
-0.00283534
0.000540205
0.00823767
-0.00179273
0.00119479
0.00574353
0.00113855
0.00546009
0.000729197
5.72181e-05
0.0112013
0.00100005
8.29005e-05
0.0111847
0.00056087
-5.67367e-05
0.0117944
-0.000137059
0.000115943
0.0120707
-0.000479612
0.000463134
0.0120169
-0.000186751
0.000600679
0.0115568
0.000661885
0.0113283
0.00513743
-0.000530762
7.62456e-06
0.00559169
0.00170105
0.00485632
0.00326601
0.00288678
0.00867482
0.00100549
0.00231499
0.0102872
-0.000373523
0.00155216
0.0103499
-0.000404405
0.000349895
0.0102648
-0.000450129
0.0106506
0.00135543
-0.000933195
-0.0227598
0.00328874
-0.000643413
-0.0162688
0.00361674
0.00074674
-0.00615181
0.00293932
0.00165276
-0.0034449
0.00295699
0.000622452
-0.0015565
0.00183963
6.1288e-05
0.000621221
0.000158
0.00530705
-0.000744696
-0.0129462
-0.00322517
-0.0126686
-0.00253513
-0.00797648
-0.00100201
-0.00313359
-0.00025694
-0.000871927
0.000142016
0.00119258
0.00382862
0.000149264
-0.000237137
0.00364887
0.000628767
-0.00204667
-0.000835782
0.00267133
-0.00161159
-0.0117359
0.0030961
-0.000593879
-0.0136665
0.00159781
0.000304817
-0.0128934
0.000811183
-4.87913e-05
-0.00914907
0.000967318
-0.00367816
-0.00217362
0.000295396
0.00719424
-0.0050583
-0.0021183
-0.00109156
-0.00546067
-0.00269466
-0.00491281
-0.00578232
-0.00140688
-0.00785712
-0.00271371
0.000407902
-0.0147041
-0.00105438
0.00273714
-0.016256
0.00419486
-0.00754138
-0.00230836
0.00233354
0.0107789
-0.00353057
0.00130733
0.00683258
-0.00420549
0.000920409
0.00516707
-0.00439016
0.000339155
0.00695951
-0.00444716
0.000680711
0.00804428
-0.00272611
0.00117823
0.00559234
0.00183007
0.00492889
0.00103903
0.000127142
0.0120944
0.00150468
-0.000515155
0.0123356
0.00138588
-0.000443716
0.0130673
-5.51829e-06
-0.000251496
0.0138212
-0.00110413
-0.000280431
0.0138758
-0.00112467
-0.000292598
0.0127803
-0.000477291
0.0121144
0.00613465
-0.000799652
-0.00492641
0.00769437
0.00227042
0.000566721
0.00507093
0.00293162
0.0078832
0.00239008
0.00212224
0.0105705
0.000691256
0.00111991
0.0106833
-0.000368708
0.000451023
0.0106959
-0.001035
0.0108934
-0.00185286
-0.00211765
-0.0196503
-0.000667175
-0.00136961
-0.0139513
0.00067992
0.000690515
-0.0054234
0.000927787
0.00144507
-0.0030921
0.00148044
0.000737275
-0.00173454
0.000889816
0.000586024
0.00116955
-5.97274e-05
0.00560432
-0.00275269
-0.0123607
-0.00509756
-0.0116648
-0.00404222
-0.00833808
-0.00187064
-0.00385833
-0.000656562
-0.00137034
-0.000155346
0.00133004
0.00375636
-0.000106715
-0.000410715
0.00415486
0.00197596
-0.00107289
-0.00193627
0.00448033
-0.000543732
-0.0137107
0.00448053
0.000239694
-0.0139489
0.00267672
0.00087356
-0.0119822
0.000870492
0.000205034
-0.00750389
-0.000145693
-0.00245179
-0.00118401
-0.00118281
0.00928963
-0.000213227
-0.0043432
0.00120084
0.00436738
-0.00423814
-0.00580493
0.00678347
-0.00190296
-0.00810422
0.00698932
0.000678418
-0.0147025
0.00316265
0.00313082
-0.0152555
0.00597289
-0.0092956
-0.00652012
0.00389037
0.0123324
-0.00692131
0.00242982
0.000610032
-0.00781837
0.00130634
0.000409613
-0.00814273
6.45599e-05
0.00513037
-0.00661911
-0.000395589
0.0074087
-0.00404908
0.000268597
0.00587324
0.00195914
0.00504629
0.000451948
0.0003854
0.0149912
0.000835003
-9.40218e-05
0.0143821
0.000916637
-0.00052092
0.0146785
-0.000609267
-0.000979571
0.0162261
-0.00182216
-0.00133578
0.0159434
-0.00189954
-0.00200752
0.0150094
-0.00238163
0.0141828
0.00554465
-0.00157942
-0.00819827
0.00827526
0.000875881
-0.00287173
0.00675023
0.00220598
0.00677374
0.00476499
0.00154609
0.0100869
0.00331314
0.00110401
0.00976526
0.00187924
0.000807484
0.00941467
-0.000679194
0.0111352
-0.0026688
-0.00323376
-0.015451
-0.00236171
-0.0018786
-0.0116088
0.000347516
-0.000705515
-0.00531049
0.00219452
0.000494869
-0.00397602
0.00307858
0.000496537
-0.00207417
0.00177782
0.000861004
0.00251662
0.000374584
0.00669413
-0.00538047
-0.0102924
-0.00756817
-0.0113532
-0.0062444
-0.0103781
-0.00251402
-0.00710413
-0.00035694
-0.00309746
-0.000239407
0.00217354
0.00404381
0.00113289
-0.00122882
0.0043772
0.00573008
0.000821924
-0.00723593
0.00780888
-0.00131762
-0.0144849
0.00679095
-0.000892648
-0.0120676
0.00352139
-0.000421202
-0.0083093
0.0013212
-0.00181938
-0.00351555
-0.00225104
0.00129021
-0.00277977
-0.00109672
0.0121563
0.00224928
-0.00455475
0.00158136
0.0091095
-0.00533117
-0.00867449
0.0154192
-0.00155619
-0.0137422
0.0163951
-0.000575596
-0.015537
0.011758
0.00156376
-0.0140007
0.00602695
-0.00556074
-0.00508768
0.00237054
0.0141315
-0.00459576
0.00234845
-0.00668813
-0.00759108
0.00124798
-0.00317762
-0.00826239
-0.00115548
0.00529402
-0.00670708
-0.00235354
0.00760174
-0.00394727
-0.00145243
0.00605259
0.000811988
0.00672175
0.000674936
0.000336869
0.0161811
0.000731024
0.00145831
0.0150969
0.00108259
-1.17703e-05
0.015536
5.18531e-05
-0.000603191
0.0166856
-0.00114921
-0.00145642
0.01611
-0.00150349
-0.00252779
0.0162379
-0.0030898
0.0164471
0.00291416
-0.00386663
-0.00680244
0.00490007
-0.00123388
-0.00205851
0.00768404
0.000650788
0.00333667
0.00947737
0.00138677
0.00629561
0.00874843
0.00211781
0.00678142
0.00585246