/*--------------------------------*- C++ -*----------------------------------*\
  =========                 |
  \\      /  F ield         | OpenFOAM: The Open Source CFD Toolbox
   \\    /   O peration     | Website:  https://openfoam.org
    \\  /    A nd           | Version:  6
     \\/     M anipulation  |
\*---------------------------------------------------------------------------*/
FoamFile
{
    version     2.0;
    format      ascii;
    class       volScalarField;
    location    "0.0075";
    object      T;
}
// * * * * * * * * * * * * * * * * * * * * * * * * * * * * * * * * * * * * * //

dimensions      [0 0 0 1 0 0 0];

internalField   nonuniform List<scalar> 
3773
(
269.833
266.682
266.675
267.02
267.17
267.586
270.957
287.2
286.616
286.757
286.611
286.44
286.64
287.13
308.867
310.05
310.109
310.072
310.051
310.096
308.859
315.617
315.816
315.825
315.819
315.817
315.86
315.637
308.913
309.059
310.178
310.118
310.096
310.144
308.923
287.318
287.574
286.957
286.686
286.627
286.835
287.305
271.442
269.248
268.444
268.172
267.849
267.985
271.682
236.037
232.769
232.594
232.946
233.698
234.501
236.739
271.881
276.163
276.519
276.376
276.088
276.578
272.851
313.803
311.583
312.005
312.03
312.176
311.639
313.892
324.752
324.826
324.959
324.997
324.991
324.821
325.274
314.085
314.069
312.306
312.263
312.223
312.091
314.169
272.66
272.542
276.415
276.222
276.263
276.816
272.757
237.927
234.902
235.235
235.503
234.407
234.687
237.66
220.26
219.02
218.108
218.199
219.05
219.923
220.416
264.469
270.646
269.517
269.072
267.835
268.857
264.491
314.3
311.839
313.984
313.98
313.392
311.227
313.879
325.685
324.78
325.412
325.891
325.903
324.768
325.592
314.104
312.319
312.287
313.022
313.694
312.62
313.949
264.775
267.716
269.574
265.944
269.148
269.696
264.771
220.893
219.925
219.345
218.955
218.933
219.95
220.721
215.933
218.023
217.027
217.187
216.407
216.328
215.94
264.127
273.202
272.17
271.801
267.744
268.076
264.004
314.205
311.941
312.742
312.857
313.662
311.13
313.923
325.715
325.022
325.412
325.746
325.524
324.996
325.6
314.073
311.07
313.614
314.957
313.766
311.606
313.895
264.143
268.378
269
266.01
269.322
270.537
264.214
215.946
216.348
216.676
214.6
216.666
217.144
215.995
215.16
217.292
216.814
216.767
215.884
215.563
215.116
264.246
271.71
270.963
271.015
268.927
269.033
264.329
314.34
311.817
311.442
312.42
312.035
310.241
314.273
325.764
325.01
325.265
325.293
325.072
325.004
325.739
314.198
311.058
312.672
313.653
313.131
311.044
314.205
264.451
269.427
269.053
268.832
269.082
269.862
264.45
215.146
215.846
216.018
214.787
216.354
216.113
215.127
215.273
216.717
215.263
216.834
216.455
215.882
215.209
266.539
272.025
273.104
272.862
271.894
271.77
266.214
315.032
311.517
311.524
310.949
310.729
310.506
314.696
325.92
325.04
324.79
325.091
324.651
325.39
325.889
314.788
311.711
311.19
311.439
311.188
311.932
314.75
266.698
272.162
272.061
273.023
273.082
271.058
266.475
215.297
215.279
216.084
214.742
217.218
216.046
215.224
213.485
211.375
212.783
213.541
213.45
213.478
213.569
268.245
270.209
268.284
268.835
268.936
269.411
268.257
312.732
312.993
311.654
312.145
311.344
312.297
311.789
328.967
329.997
329.736
329.756
330.231
328.881
330.281
312.687
316.586
312.408
311.586
317.543
312.665
311.843
268.623
261.396
269.378
268.878
263.767
269.332
268.483
213.755
212.439
213.513
212.969
211.348
213.586
213.666
320.586
331.722
336.812
336.27
336.612
336.263
328.035
304.059
325.342
330.072
337.117
330.004
326.776
308.041
293.998
311.894
318.379
322.804
318.184
312.28
294.406
330.796
335.084
340.492
343.912
340.011
333.748
329.041
291.23
305.31
309.573
311.649
308.629
303.22
288.652
286.881
306.922
311.187
316.432
311.873
306.962
285.216
304.974
314.574
318.248
322.886
324.752
323.805
307.782
312.802
324.203
334.632
333.409
332.535
331.96
321.601
291.449
311.429
325.292
338.544
326.83
312.508
295.203
290.7
307.244
316.568
323.402
316.539
307.478
290.803
335.345
337.6
344.281
347.415
343.523
337.28
334.247
292.076
305.046
314.149
317.5
312.27
303.467
290.643
276.943
299.936
311.654
321.093
311.451
298.604
274.08
296.218
307.379
315.688
321.828
325.37
324.882
296.142
290.717
318.381
333.422
330.941
329.089
325.838
300.576
277.082
301.217
325.649
337.416
326.454
303.69
280.574
290.365
304.298
316.736
324.396
316.488
304.608
290.04
340.104
341.078
345.572
348.283
344.836
340.894
339.917
296.224
305.935
317.055
321.003
315.488
304.652
295.684
272.018
298.497
315.783
324.443
318.883
294.529
275.963
272.175
300.149
312.786
319.349
325.198
324.906
297.295
281.793
317.616
332.989
330.503
328.647
323.626
287.743
275.906
292.36
326.335
335.581
329.312
300.801
278.963
294.66
304.46
318.931
325.574
318.752
305.002
293.719
343.492
343.515
346.204
349.279
346.422
342.293
341.703
300.311
308.707
319.779
324.285
318.105
308.783
299.804
273.417
297.069
317.836
325.537
326.322
305.906
283.926
272.453
300.34
312.743
318.487
324.687
324.852
304.007
303.818
323.443
333.106
330.223
328.588
322.15
307.509
284.378
294.715
325.458
335.217
329.508
303.863
288.204
299.477
306.508
321.844
328.624
320.855
307.967
298.832
344.581
344.427
347.287
350.935
347.864
343.485
342.248
303.474
310.949
321.539
325.708
320.572
313.116
303.317
285.381
294.346
311.597
321.609
327.474
319.067
294.287
301.857
311.647
315.745
319.189
324.396
324.969
307.322
314.838
329.227
332.097
330.384
329.613
322.482
316.777
298.605
308.315
330.808
336.722
330.227
310.813
300.658
307.729
312.945
324.122
329.83
323.443
313.294
307.225
347.661
348.144
350.74
353.309
349.436
347.328
344.783
311.281
316.684
323.974
327.594
323.108
317.569
309.356
298.287
308.158
311.676
319.693
325.499
328.988
305.91
315.691
322.334
321.696
321.871
325.221
326.612
311.633
322.705
331.311
331.554
331.227
331.403
323.51
318.804
304.971
325.254
339.097
338.586
333.861
321.05
306.583
311.378
317.279
324.716
332.987
325.475
316.423
310.359
346.882
348.217
351.61
354.924
352.187
348.733
345.003
314.327
319.694
326.194
330.6
325.383
320.449
312.849
310.464
319.101
319.78
321.977
327.518
329.995
317.24
324.829
325.077
323.412
323.856
326.694
328.672
319.151
324.281
330.549
330.48
334.405
335.969
328.084
309.038
316.962
339.631
340.085
340.299
337.338
327.707
304.845
321.165
326.758
333.693
337.687
333.028
325.891
319.929
348.988
350.9
353.699
355.949
354.67
352.259
348.717
320.448
324.705
331.101
336.742
332.574
329.903
324.041
338.031
333.718
330.35
330.739
331.571
332.46
325.111
336.087
327.177
323.003
325.546
328.033
328.081
317.959
318.741
331.477
329.255
333.055
334.609
329.793
298.393
315.568
340.62
341.781
342.093
339.526
329.502
294.664
321.841
327.806
334.968
339.366
334.673
327.664
320.405
350.396
351.683
354.566
356.683
355.711
352.434
350.587
319.28
322.834
329.636
337.833
336.7
332.506
326.611
343.015
336.819
333.829
335.805
336.14
335.215
319.228
334.717
324.806
323.688
327.344
330.967
326.71
311.844
313.205
329.79
327.054
331.296
334.632
333.312
296.114
313.002
339.302
343.288
344.193
344.519
339.057
293.551
322.384
329.891
336.734
340.223
333.863
327.687
316.344
348.849
349.976
353.306
356.471
355.24
351.958
349.662
320.316
318.72
322.791
335.489
336.237
331.57
326.452
343.068
336.566
332.324
336.355
336.626
332.336
311.22
334.599
326.6
325.117
326.707
327.747
321.464
308.476
307.713
320.931
325.579
331.428
335.292
338.296
303.378
309.471
337.534
347.272
345.994
346.725
347.592
318.805
326.638
339.068
347.346
344.199
338.821
327.661
313.427
342.13
345.459
350.459
355.153
352.768
348.434
345.569
333.948
324.673
321.573
327.283
333.155
330.781
326.745
343.943
340.057
334.115
336.419
338.195
331.952
304.526
336.384
330.149
327.9
326.565
322.665
310.267
297.996
299.593
310.946
328.112
333.015
337.089
339.933
316.993
311.183
341.901
347.48
347.028
347.352
348.317
343.228
330.219
348.218
349.779
345.974
339.499
329.515
320.512
340.703
342.922
347.622
351.749
348.235
344.421
340.77
344.897
337.84
325.682
326.082
331.833
332.356
328.85
345.59
345.933
342.315
341.021
341.141
333.988
307.442
339.759
335.91
333.015
329.382
321.549
310.596
289.547
292.639
318.245
336.583
334.676
337.905
340.76
313.709
312.72
344.793
345.623
346.185
347.704
348.384
345.793
327.805
350.169
351.323
347.679
343.851
338.4
326.008
337.2
341.633
345.299
349.9
348.05
344.491
340.218
350.049
345.53
341.18
339.779
343.122
341.343
331.306
348.445
348.498
348.485
346.896
343.041
337.445
313.167
345.31
346.615
343.455
337.51
324.854
317.221
286.774
333.033
344.071
345.18
329.583
301.843
306.218
306.525
332.625
340.379
342.863
346.786
348.188
348.245
338.71
337.267
350.154
352.189
352.361
349.356
346.08
329.946
337.173
342.954
345.411
350.041
348.667
345.624
342.254
353.166
355.32
353.569
351.4
350.763
348.226
341.977
348.604
349.85
349.653
348.547
345.989
341.381
335.294
342.409
349.066
348.001
346.502
342.63
328.146
322.301
325.994
331.746
331.841
334.151
334.795
326.012
317.989
318.279
338.088
338.981
339.352
335.398
326.829
314.08
315.805
321.413
325.718
334.712
327.924
319.971
313.776
345.656
348.411
352.501
355.403
351.546
350.376
344.946
317.436
322.442
328.778
332.962
326.254
323.792
316.716
332.546
330.584
328.562
328.659
329.813
330.648
324.967
335.174
328.373
325.025
325.173
327.601
329.159
324.038
326.863
331.343
331.535
334.202
334.949
326.401
317.549
320.769
338.532
339.23
339.414
335.723
327.089
314.11
316.081
321.478
326.11
334.827
328.282
320.212
314.055
346.014
348.555
352.6
355.465
351.713
350.629
345.234
317.848
322.624
329.134
333.178
326.489
323.935
316.957
334.003
331.284
329.11
329.114
330.168
331.097
325.304
335.341
328.001
324.797
325.148
327.706
329.12
324.032
326.857
331.219
331.397
334.345
335.346
326.761
317.042
321.462
338.655
339.371
339.51
336.033
327.19
313.721
316.821
321.759
326.473
334.874
328.842
320.434
314.503
346.37
348.781
352.674
355.529
351.883
350.988
345.592
318.398
323.144
329.906
333.442
326.618
324.199
317.291
335.086
331.893
329.484
329.538
330.362
331.244
325.519
335.73
327.873
324.662
325.161
327.808
329.046
323.969
327.005
331.237
331.36
334.47
335.534
327.088
315.18
321.972
338.711
339.442
339.651
336.284
327.241
312.713
317.394
321.934
327.23
334.809
329.09
320.704
315.178
346.693
349.036
352.764
355.599
352.109
351.12
345.765
319.05
323.412
330.28
333.879
326.987
324.847
317.81
335.882
332.337
329.637
329.745
330.517
331.347
325.742
335.888
327.742
324.6
325.263
327.911
329.254
324.015
327.345
331.435
331.478
334.826
335.993
327.701
314.249
322.255
338.793
339.649
339.804
336.46
327.293
310.192
317.775
322.248
327.613
334.731
329.212
321.118
315.456
346.972
349.17
352.801
355.653
352.355
351.159
345.752
319.866
323.725
330.388
334.156
327.356
325.247
318.381
336.488
332.693
329.835
330.09
330.737
331.657
325.756
335.741
327.813
324.236
325.37
328.042
329.406
324.067
327.138
331.215
331.419
334.93
336.16
328.004
313.005
323.327
338.829
339.796
339.973
336.718
327.297
309.305
318.928
322.876
328.446
334.786
329.415
321.333
315.762
347.115
349.412
352.84
355.7
352.604
351.313
345.868
320.28
324.364
330.591
334.778
328.163
326.325
318.949
336.971
332.984
329.933
330.267
331.127
331.973
326.26
335.561
327.81
324.03
325.385
328.202
329.621
324.125
326.444
330.806
331.017
334.768
336.16
328.108
311.068
324.363
339.255
339.947
340.1
336.947
327.544
307.297
319.573
323.125
328.895
334.908
329.707
321.765
316.019
347.335
349.675
352.931
355.766
352.714
351.543
346.157
321.366
324.75
331.054
335.006
328.311
326.722
319.262
337.583
333.245
330
330.406
331.274
332.134
326.125
335.271
327.423
323.657
325.366
328.255
329.664
324.253
337.4
353.577
329.119
323.588
321.657
322.496
320.279
342.508
350.529
353.925
347.713
347.748
347.11
344.863
358.431
358.697
355.041
352.325
351.564
347.171
329.536
337.312
342.902
345.355
350.074
349.092
346.432
342.528
353.155
353.318
352.561
354.135
354.86
355.375
354.724
349.359
353.226
357.744
358.117
357.027
349.161
342.548
320.637
333.252
345.744
349.265
358.187
351.25
333.402
359.37
338.307
331.855
329.164
327.592
327.944
327.206
353.974
360.327
349.34
347.472
347.056
345.073
343.468
360.227
358.951
353.293
352.627
351.788
348.301
330.093
337.639
342.922
345.433
350.173
349.36
346.785
343.143
352.731
353.099
353.355
354.862
355.182
356.29
356.791
348.364
349.006
353.184
354.936
354.937
358.194
355.032
327.033
330.207
336.943
339.437
340.808
343.251
359.607
361.424
343.059
341.578
337.62
334.908
334.006
338.497
362.079
357.122
350.077
348.745
348.472
347.075
346.119
360.146
355.067
352.352
353.34
352.401
349.246
331.293
338.75
343.149
345.703
350.409
350.034
347.497
343.501
352.348
352.127
352.2
354.605
354.957
354.567
356.017
349.202
349.183
350.471
353.147
353.756
354.636
357.958
335.515
334.752
337.585
337.956
340.35
342.35
350.643
352.422
344.695
343.24
340.015
339.661
343.858
345.613
363.897
357.065
352.016
351.278
349.286
348.391
348.125
357.468
355.08
352.378
354.08
353.673
351.18
333.732
339.159
343.748
346.22
351.161
351.178
349.307
344.508
351.59
350.679
351.821
354.734
355.337
354.636
354.792
350.6
350.561
351.197
352.683
353.597
354.576
355.509
343.755
338.226
339.311
339.142
343.094
345.227
346.602
350.623
348.451
348.662
347.299
347.436
347.273
347.641
362.351
357.274
352.754
351.812
350.865
349.807
344.473
354.654
355.053
353.468
354.765
354.442
352.549
335.728
340.285
345.37
347.393
352.294
351.515
350.734
345.312
350.967
351.484
352.93
355.234
355.478
355.048
354.203
352.635
351.512
352.373
353.563
354.296
354.747
355.056
346.945
341.557
341.116
341.753
344.991
346.188
346.972
351.04
350.013
350.034
348.422
347.871
348.39
348.289
360.223
356.739
352.47
351.416
351.215
351.942
347.526
353.276
354.931
354.58
355.112
355.351
355.202
340.582
342.386
349.072
349.94
352.804
351.988
353.127
347.089
350.004
353.535
354.245
356.005
355.797
355.51
354.659
351.189
354.485
354.379
355.29
355.918
355.886
355.286
346.525
345.669
345.797
346.623
348.274
348.591
349.341
353.318
353.039
349.674
348.453
347.131
346.465
346.565
356.429
355.085
352.805
351.784
351.709
352.128
351.617
353.714
355.335
355.438
355.37
355.564
356.427
351.386
346.83
351.484
351.465
355.323
355.423
356.566
351.977
351.244
354.086
354.914
356.719
356.165
355.817
355.56
351.533
355.714
356.981
357.386
356.04
355.996
356.774
346.149
348.557
351.308
354.374
352.607
354.434
356.295
320.462
319.009
318.24
318.863
321.915
333.026
342.779
343.488
343.074
342.88
342.33
342.467
346.134
349.006
330.673
357.758
359.66
359.273
358.81
359.031
359.333
344.298
357.177
358.048
358.02
357.871
357.274
356.86
354.349
354.083
354.099
354.335
355.053
355.739
356.685
343.947
345.134
345.778
346.303
346.578
348.041
351.363
333.355
334.814
334.338
335.42
336.004
339.151
344.759
328.869
326.905
326.792
326.046
328.641
337.037
343.009
343.548
342.891
342.377
342.439
342.922
344.505
348.725
330.248
348.5
358.787
358.083
357.915
358.032
358.4
344.331
347.776
354.66
356.702
356.827
356.771
356.608
356.051
356.307
356.794
356.856
357.14
357.468
357.851
355.906
356.344
355.9
355.649
355.737
355.89
356.919
354.353
355.679
354.456
353.918
353.049
351.167
353.596
340.367
340.056
339.906
339.463
339.109
339.425
339.827
346.62
346.405
346.24
345.725
345.945
346.367
348.751
329.963
341.545
359.007
358.743
358.052
357.959
358.176
344.241
345.437
349.177
352.987
354.688
355.137
355.204
357.222
357.693
358.737
359.485
360.167
360.652
360.993
359.038
360.118
361.168
362.143
362.982
363.495
363.205
355.507
357.89
360.205
361.506
361.942
363.638
358.749
348.012
348.196
348.742
349.129
348.806
344.151
339.889
349.502
349.776
350.095
349.838
349.315
349.207
349.882
330.618
333.236
352.666
358.457
357.486
356.96
357.029
344.712
344.98
346.013
348.531
350.063
350.907
351.717
354.728
355.018
355.975
358.011
358.766
359.13
360.269
356.257
357.339
358.178
359.92
361.003
361.646
363.486
347.693
349.459
351.288
355.255
359.599
364.355
364.343
348.191
348.129
348.359
349.106
349.705
350.498
342.402
344.958
346.352
347.536
348.318
347.798
346.68
347.85
332.739
332.659
336.131
349.761
356.19
356.593
355.702
344.538
344.517
344.538
344.921
346.139
346.684
347.086
352.742
353.021
353.531
354.714
355.278
356.102
357.237
355.534
356.59
357.313
358.492
359.419
360.357
361.801
348.243
350.099
352.252
356.124
359.924
362.78
364.327
347.894
348.001
347.958
348.221
349.149
350.38
348.985
341.973
341.138
340.689
340.32
340.377
340.971
341.738
333.349
332.414
332.838
334.435
339.094
343.409
346.365
345.089
344.558
343.943
342.51
342.183
341.546
341.724
353.081
353.224
353.676
353.739
353.944
353.794
353.676
355.383
355.845
356.416
357.771
358.648
359.84
360.455
350.637
352.163
353.722
356.771
358.967
362.48
363.915
346.919
347.217
347.682
348.396
348.773
350.118
349.593
350.877
349.716
347.322
346.59
346.164
346.149
345.757
345.704
339.07
337.262
336.087
335.208
334.753
332.982
350.626
348.763
347.984
346.331
344.261
342.399
337.121
356.146
356.229
356.493
356.286
355.838
355.235
352.344
358.091
358.653
359.114
360.39
360.967
361.429
360.711
358.093
358.979
359.896
360.945
361.785
363.174
362.273
345.611
339.875
330.78
328.443
326.993
328.69
331.43
353.481
350.827
347.175
344.134
343.082
342.769
342.747
359.955
358.4
357.411
356.821
356.59
356.689
357.009
357.408
358.097
358.674
358.889
358.657
353.865
339.962
358.363
357.999
358.185
358.77
359.02
353.802
352.749
345.859
343.132
340.967
340.194
340.312
340.719
342.257
341.301
328.782
323.53
318.761
318.128
318.266
316.581
345.632
338.164
335.537
335.359
335.425
336.902
340.58
352.693
349.144
347.096
346.388
346.55
347.292
349.532
358.696
358.551
358.582
358.721
358.617
358.904
359.147
356.932
357.221
357.219
356.156
352.712
344.886
339.438
357.58
357.427
357.686
358.197
355.628
352.873
352.488
346.263
343.829
342.571
342.528
343.105
343.314
345.22
342.321
334.015
328.891
324.757
324.908
326.554
328.796
343.798
346.536
353.507
357.686
358.212
359.276
356.628
352.734
352.996
354.747
356.664
359.315
360.307
361.218
359.152
360.795
361.855
361.762
361.914
361.663
361.727
354.453
354.571
353.587
350.914
346.125
341.628
339.487
356.995
357.126
357.599
357.046
353.193
352.646
352.464
348.402
346.535
346.569
347.479
348.89
348.77
349.361
341.902
338.758
335.744
337.515
339.88
341.299
342.11
351.23
361.258
361.661
361.198
362.224
361.654
359.191
357.82
360.327
361.558
361.728
362.728
363.644
363.763
362.387
359.757
358.013
357.572
357.3
357.206
357.213
350.163
347.491
345.618
343.011
341.43
340.653
340.179
356.121
356.757
356.359
353.427
352.593
352.542
352.273
349.794
349.739
349.951
350.377
351.075
350.937
351.275
341.913
342.516
346.101
347.212
347.348
346.816
346.507
356.279
362.536
360.598
357.18
354.031
353.386
351.698
360.119
360.621
360.757
361.279
362.009
363.329
363.386
356.069
354.854
354.522
354.525
354.694
354.728
354.677
343.463
342.438
341.99
341.848
341.14
340.724
340.437
355.409
353.332
352.378
352.075
352.077
351.993
351.428
350.635
351.748
352.622
352.945
353.001
353.046
353.258
345.848
349.763
348.823
348.266
347.602
347.785
348.659
357.201
360.823
357.572
354.147
352.01
351.278
351.148
357.177
357.121
357.204
356.956
357.994
359.388
360.014
351.28
351.566
351.827
351.953
352.535
352.886
353.192
339.334
340.138
340.976
341.049
341.036
341.058
341.65
349.567
350.202
350.805
350.887
350.703
350.309
350.035
350.165
350.334
350.54
350.707
350.957
351.145
351.073
348.192
349.429
348.946
348.621
347.895
347.507
346.814
355.551
358.408
357.598
355.167
353.571
352.688
353.001
354.936
356.146
355.881
354.611
354.456
354.781
355.58
348.658
350.342
350.962
351.099
351.386
352.167
353.111
335.702
340.129
341.633
342.331
343.624
344.284
345.819
345.583
347.184
348.959
349.665
349.858
350.158
350.607
348.643
349.302
349.877
350.367
350.895
351.079
351.276
349.218
349.109
348.76
348.308
347.647
347.47
346.716
368.239
367.366
368.08
366.004
359.759
356.529
349.639
365.26
362.2
362.767
361.887
360.329
358.921
355.39
363.497
362.005
362.022
361.82
361.259
361.095
360.398
359.149
358.489
357.64
356.372
356.09
356.302
357.053
358.93
359.6
359.459
358.948
358.613
358.631
358.613
357.5
358.83
357.04
355.473
354.28
351.238
348.612
368.938
367.444
362.281
360.442
356.443
353.569
348.079
368.578
362.71
364.075
359.567
358.157
356.498
349.269
366.34
358.301
357.942
356.877
356.29
355.706
353.776
363.591
361.21
360.553
359.944
359.792
359.27
358.901
359.418
358.578
356.934
355.823
355.493
355.619
356.406
356.123
357.153
357.148
356.891
356.986
357.354
357.651
352.565
354.426
353.894
354.148
353.567
351.656
350.321
367.255
367.105
361.871
361.06
357.441
354.682
348.692
359.501
359.98
360.83
356.213
352.817
352.655
345.248
356.142
351.649
351.829
353.288
354.282
354.603
354.231
361.813
359.104
358.569
358.289
358.258
358.464
358.573
358.513
356.851
354.685
353.737
353.359
353.3
353.813
355.409
355.758
356.142
356.104
356.131
356.577
357.048
348.209
349.815
350.76
351.049
351.465
351.641
350.408
357.193
361.537
350.367
355.172
351.076
347.394
341.83
358.814
355.37
353.223
346.506
350.392
349.349
342.855
350.743
348.484
350.057
351.663
353.582
355.428
356.823
358.337
358.113
356.727
356.292
356.974
358.232
359.405
357.995
356.646
354.287
353.12
351.696
350.969
350.641
352.266
353.404
353.5
353.515
354.187
355.041
355.787
335.903
347.286
346.243
348.38
349.769
351.247
351.567
339.625
352.59
342.147
349.567
340.883
336.464
338.08
355.215
349.932
349.874
343.481
344.541
343.518
339.781
345.702
343.936
348.446
348.123
352.879
356.198
358
356.471
355.881
354.808
355.617
357.991
358.637
357.331
357.345
354.453
351.758
349.915
347.575
346.265
345.763
351.54
351.612
352.398
352.831
353.953
355.077
355.535
331.462
340.84
342.928
345.03
348.953
352.212
352.489
336.9
338.517
336.27
342.506
333.71
329.955
332.862
350.309
347.09
347.013
338.705
341.849
341.363
339.665
340.927
341.484
347.99
346.049
356.298
357.817
357.165
352.883
353.735
353.435
353.388
355.672
353.915
351.17
355.397
353.526
350.07
345.393
340.122
338.236
338.056
349.553
349.654
349.293
350.07
351.798
352.326
349.749
329.935
338.575
341.66
343.647
349.495
352.281
350.217
337.732
337.425
333.304
339.123
329.69
328.942
332.935
346.423
339.502
342.304
334.11
336.438
336.658
339.964
337.3
337.342
345.984
344.102
357.511
353.997
353.444
351.089
349.755
349.336
349.291
347.977
344.145
344.994
353.457
345.943
340.419
336.252
334.602
333.776
333.671
348.235
346.789
346.932
347.573
347.173
343.425
343.376
330.109
337.838
340.136
341.846
349.304
351.994
348.842
343.68
339.536
332.496
337.916
329.17
328.789
330.714
338.062
326.06
335.498
330.052
329.463
330.105
334.89
331.835
333.278
330.959
333.614
340.638
333.792
331.488
341.378
341.381
337.72
337.398
337.46
335.585
329.877
334.899
337.371
336.308
335.056
333.722
332.118
324.441
338.72
336.653
335.907
338.794
340.128
337.968
329.836
328.527
327.26
329.922
333.129
332.232
339.63
339.475
344.135
339.142
330.133
321.641
327.377
327.166
326.112
309.67
309.619
305.713
300.307
305.961
309.897
323.694
321.007
321.219
320.278
320.63
330.482
340.862
336.128
337.914
336.32
332.414
331.369
328.83
328.518
328.399
326.836
326.226
326.077
325.674
327.199
325.952
324.303
333.87
333.062
331.832
330.848
331.094
331.2
330.132
317.746
318.973
320.054
322.331
319.666
319.048
320.139
305.998
302.091
303.83
302.786
304.239
303.749
304.911
294.988
294.501
293.457
294.198
294.448
293.25
295.523
314.701
313.018
311.89
313.326
315.106
314.617
315.731
329.475
333.199
331.109
330.567
327.499
328.46
327.573
321.993
319.156
319.264
319.353
320.743
322.74
321.42
328.27
324.918
323.68
326.029
327.687
327.826
326.532
307.364
307.972
308.718
309.376
310.866
309.683
310.748
285.892
285.257
285.394
285.368
285.636
282.278
286.403
285.669
282.093
282.352
286.869
287.34
285.038
287.756
308.944
305.222
305.574
308.129
308.469
309.151
309.458
322.396
322.565
322.528
321.895
322.073
323.131
324.877
313.094
315.485
314.421
314.944
316.196
318.567
315.153
323.109
320.523
319.041
319.49
318.894
320.202
319.66
304.188
303.069
304.334
305.614
305.981
306.314
306.675
277.843
277.505
278.448
278.61
278.443
278.542
278.942
280.336
279.35
279.374
280.066
280.505
279.872
280.181
303.77
302.307
302.29
302.377
304.167
302.286
304.108
317.363
320.189
320.421
318.69
317.569
320.862
319.806
310.526
310.165
309.051
309.765
310.655
312.132
310.991
322.36
319.991
318.925
317.818
317.567
317.688
316.057
301.106
300.971
301.383
304.244
301.413
301.413
301.342
276.13
276.181
276.069
276.445
276.106
276.163
276.336
279.745
279.083
279.106
279.568
279.744
279.584
279.734
302.923
302.052
302.035
301.889
303.028
301.841
302.925
317.259
320.187
320.862
318.934
317.257
321.857
319.581
307.878
307.443
306.633
307.377
308.253
309.391
308.655
323.247
320.987
320.205
318.155
319.009
318.645
316.349
301.864
301.996
302.153
303.378
301.907
302.071
302.047
277.257
277.361
277.371
277.987
277.457
277.386
277.434
292.109
292.199
292.71
292.101
292.098
292.092
292.111
305.101
304.963
305.054
304.927
305.15
304.93
305.149
312.028
313.804
314.909
312.928
310.944
316.121
313.657
291.997
291.757
292.13
292.956
293.893
293.915
292.674
317.366
315.15
314.323
312.598
313.581
312.911
310.184
305.313
305.174
305.234
305.339
305.212
305.223
305.242
292.731
292.179
292.422
292.177
292.179
292.179
292.179
346.811
353.29
359.445
362.644
367.823
366.572
367.833
351.306
356.064
357.97
360.199
363.373
361.92
368.104
359.754
360.26
360.937
362.054
362.73
362.864
366.246
356.733
356.467
356.433
356.668
357.238
357.875
358.919
356.909
357.648
358.169
358.33
358.98
359.584
362.225
353.43
354.257
356.273
356.844
357.471
356.59
360.966
353.052
354.929
358.027
360.151
361.989
359.793
360.578
347.685
355.117
356.569
358.229
362.625
360.556
365.142
349.99
352.796
353.911
354.34
354.644
355.219
362.549
358.482
358.47
358.766
359.081
359.726
361.189
364.131
356.262
356.176
355.948
356.063
356.502
357.401
357.798
357.962
358.025
358.04
357.969
358.212
358.894
359.676
357.995
358.18
358.428
357.989
356.456
354.471
354.635
356.022
357.21
359.116
360.262
361.4
357.886
360.174
338.37
343.859
348.759
347.031
355.536
356.118
358.011
350.376
351.265
351.823
350.227
350.221
350.314
351.869
358.066
357.633
357.562
357.676
358.213
359.416
359.754
355.275
355.446
355.514
355.867
356.292
356.79
357.735
361.059
360.214
359.232
358.452
357.411
356.336
355.849
363.732
363.881
363.889
362.345
358.019
353.062
350.425
357.336
356.906
357.686
357.422
357.842
352.861
355.791
333.379
334.816
342.549
341.513
348.762
351.26
354.386
351.541
352.591
352.606
349.538
348.244
346.316
346.685
356.621
356.273
356.009
355.911
356.686
356.331
355.516
352.916
353.564
353.625
354.249
355.239
356.611
357.759
362.248
361.346
360.411
359.284
357.409
356.349
354.925
365.089
365.975
366.438
366.15
362.102
356.993
349.705
357.489
355.615
355.098
355.45
356.456
350.646
355.215
329.416
330.575
335.912
335.936
343.658
347.553
349.884
349.499
352.995
354.922
347.944
344.297
340.443
339.105
356.144
356.545
355.9
354.739
354.078
352.94
353.049
348.086
349.193
351.583
353.142
354.467
356.025
356.956
359.517
360.84
361.85
361.189
358.332
356
352.36
363.181
364.557
365.874
367.042
366.452
359.243
345.299
356.339
352.563
353.318
352.054
352.564
348.343
352.679
331.627
329.706
334.934
334.75
342.105
340.857
346.26
343.535
348.384
356.069
348.111
340.495
338.065
335.905
350.809
352.502
353.126
351.985
351.314
351.623
351.854
341.471
341.407
342.81
346.847
352.279
355.16
355.688
353.486
354.648
359.635
359.62
357.889
355.824
351.715
361.538
362.477
363.778
366.178
367.139
362.478
343.535
353.83
349.672
347.77
344.537
350.818
342.946
350.056
332.134
329.09
334.501
332.052
339.8
330.318
340.885
345.993
349.599
355.43
347.179
337.807
332.701
331.165
333.762
338.524
345.554
348.149
348.121
347.957
349.18
336.349
336.701
339.043
340.225
343.236
348.116
354.131
351.911
351.161
351.675
355.151
355.914
353.627
349.318
360.737
361.812
363.201
366.691
366.666
364.211
342.106
346.791
343.988
342.638
341.606
344.618
339.424
346.063
329.501
326.541
327.025
328.476
334.725
321.91
334.414
336.183
331.566
331.586
332.183
327.562
328.89
326.339
323.664
329.972
333.802
335.692
337.832
340.652
338.685
327.604
333.494
337.588
338.822
340.533
341.836
338.056
342.374
346.454
347.328
349.795
350.756
348.325
344.882
338.617
340.468
347.918
353.378
352.049
356.945
338.789
338.857
336.587
338.25
338.674
335.609
335.877
339.212
300.706
302.008
299.979
301.72
295.384
293.389
300.518
319.072
318.954
319.868
319.885
318.82
318.552
316.823
323.317
328.458
330.536
331.712
332.598
331.53
332.55
326.7
330.25
331.684
331.622
331.161
330.612
331.511
338.472
336.646
333.636
333.894
335.36
335.061
333.298
322.116
323.575
330.39
333.192
338.261
329.095
325.026
317.094
308.111
316.734
316.812
317.721
305.019
316.091
287.69
287.978
288.288
287.759
287.428
286.827
286.779
310.448
310.688
311.653
311.939
311.324
309.53
309.85
320.45
325.979
323.717
324.194
324.525
327.778
326.106
321.351
323.521
323.439
322.598
320.623
319.208
319.407
327.382
329.672
328.029
329.527
331.619
330.874
331.32
315.768
314.527
316.025
316.879
315.334
316.719
316.784
299.533
298.964
298.774
299.168
298.088
297.949
298.601
280.72
280.706
279.291
281.273
280.487
279.945
280.639
306.802
307.694
307.338
306.9
303.693
303.665
304.857
314.446
318.506
317.963
318.832
318.925
320.47
320.903
316.067
318.155
318.602
318.385
315.955
313.623
315.073
324.686
325.476
322.699
327.823
327.454
326.091
328.268
307.165
307.057
309.423
309.639
308.78
306.514
306.284
283.331
285.677
285.91
285.429
286.196
286.002
286.482
278.121
278.74
278.014
279.182
278.208
278.183
278.601
303.196
303.555
303.16
303.405
301.646
301.664
303.046
312.044
315.643
315.565
316.47
317.01
318.405
317.874
310.603
312.156
313.02
312.809
310.969
308.572
310.124
320.876
319.982
318.799
321.296
320.617
320.455
321.218
304.56
304.622
304.638
303.976
303.445
303.642
303.507
280.53
280.457
280.57
280.381
280.43
280.417
280.623
279.044
279.672
278.937
279.788
278.939
278.857
279.08
302.953
303.194
302.985
303.134
302.108
301.918
302.725
312.321
315.439
315.267
316.048
317.005
318.438
317.064
308.742
309.981
310.757
310.29
308.558
306.413
307.895
321.201
319.964
319.94
320.083
320.048
320.246
320.51
303.094
302.971
302.946
303.101
302.821
303.022
302.934
280.231
280.239
280.339
280.125