/*--------------------------------*- C++ -*----------------------------------*\
  =========                 |
  \\      /  F ield         | OpenFOAM: The Open Source CFD Toolbox
   \\    /   O peration     | Website:  https://openfoam.org
    \\  /    A nd           | Version:  6
     \\/     M anipulation  |
\*---------------------------------------------------------------------------*/
FoamFile
{
    version     2.0;
    format      ascii;
    class       volVectorField;
    location    "0.0075";
    object      U;
}
// * * * * * * * * * * * * * * * * * * * * * * * * * * * * * * * * * * * * * //

dimensions      [0 1 -1 0 0 0 0];

internalField   nonuniform List<vector> 
3773
(
(37.8439 -0.0314543 0.434798)
(37.2461 0.0197311 0.42367)
(37.246 0.0140921 0.413788)
(37.3 -0.00680009 0.414778)
(37.3213 -0.0204111 0.418589)
(37.3979 -0.0258398 0.426294)
(38.0334 0.024157 0.44243)
(10.7265 0.0176946 -0.0511893)
(10.6852 -0.0486275 -0.0466486)
(10.7044 -0.0401288 -0.0310293)
(10.6925 -0.00620634 -0.0319546)
(10.67 -0.00011086 -0.0318398)
(10.682 0.0182684 -0.0139794)
(10.7142 -0.0140053 -0.0126153)
(4.31363 0.0318476 0.0326319)
(4.30459 -0.0118793 0.0379781)
(4.30547 -0.0245321 0.0470924)
(4.30493 0.0177012 0.0452182)
(4.30466 0.0274922 0.0466678)
(4.30537 0.0168481 0.0600938)
(4.31314 -0.0115427 0.0499989)
(-0.000169927 0.00632514 0.0500261)
(-0.000174417 0.0161567 0.0504398)
(-0.000156697 0.0189579 0.0511424)
(-0.000142179 -0.00529446 0.0503602)
(-0.000156131 -0.0214901 0.0477333)
(-0.000155609 -0.0234992 0.0402499)
(-0.000159291 -0.0153853 0.0429212)
(-4.31472 0.0265577 0.0351937)
(-4.3081 -0.0173881 0.0368603)
(-4.30681 -0.0315228 0.04207)
(-4.30592 0.00745509 0.0424377)
(-4.30559 0.0195983 0.0429293)
(-4.30629 0.0138492 0.0549544)
(-4.31426 -0.00994115 0.0451069)
(-10.7209 0.0166342 -0.0631844)
(-10.7115 -0.0446168 -0.0533083)
(-10.7015 -0.0252131 -0.0354369)
(-10.6852 0.00944373 -0.0359572)
(-10.6754 0.0154609 -0.0360387)
(-10.6892 0.0362671 -0.017493)
(-10.7195 -0.00557765 -0.0149598)
(-38.0964 -0.0223919 0.444725)
(-37.6426 0.022336 0.436795)
(-37.5359 0.0198674 0.430966)
(-37.487 0.00313103 0.42888)
(-37.4262 -0.0161573 0.425018)
(-37.4565 -0.0263302 0.432609)
(-38.1439 0.0186714 0.456299)
(30.254 -0.0528508 0.916842)
(29.603 0.0244523 0.91419)
(29.5625 0.0262812 0.900877)
(29.6193 0.00847725 0.900292)
(29.7554 -0.00151358 0.889256)
(29.8886 -0.0150002 0.877021)
(30.3796 0.0436648 0.90233)
(9.1087 0.00789705 -0.158645)
(9.23241 -0.0553945 -0.152211)
(9.25068 -0.0469899 -0.125003)
(9.24232 0.000916679 -0.130324)
(9.2268 0.0208837 -0.13917)
(9.24565 0.0370334 -0.114024)
(9.138 -0.00109137 -0.122189)
(3.89653 0.0387213 0.0126934)
(3.87465 -0.00993653 0.0168758)
(3.88329 -0.0284421 0.0400713)
(3.88173 0.0190781 0.033818)
(3.88265 0.0400164 0.031243)
(3.88441 0.0254366 0.0526991)
(3.8966 -0.01575 0.0316624)
(-0.000155333 0.00698004 0.0374687)
(-0.000155131 0.0208943 0.0338835)
(-0.000140837 0.0240881 0.0342415)
(-0.000128159 -0.00909151 0.0339716)
(-0.000142624 -0.0303924 0.0296679)
(-0.000141217 -0.028914 0.0179605)
(-0.000142987 -0.0164869 0.0247692)
(-3.8997 0.0315067 0.0106484)
(-3.88974 -0.0203793 0.0113675)
(-3.88737 -0.0367659 0.0266208)
(-3.88515 0.00946725 0.0255626)
(-3.88232 0.0312273 0.0242933)
(-3.88584 0.0211931 0.0437116)
(-3.90012 -0.0139353 0.0248302)
(-9.13201 0.0143302 -0.177524)
(-9.10388 -0.0496431 -0.15784)
(-9.24356 -0.0373144 -0.138727)
(-9.23242 0.0103041 -0.147249)
(-9.2316 0.0301576 -0.144429)
(-9.2535 0.0506589 -0.116093)
(-9.13452 0.00409353 -0.126731)
(-30.5628 -0.0346577 0.928304)
(-29.9845 0.0226326 0.913532)
(-29.9929 0.0112902 0.913291)
(-30.0252 -0.00252139 0.899163)
(-29.8583 -0.0180099 0.909582)
(-29.8981 -0.0325224 0.901001)
(-30.5185 0.0287214 0.926695)
(27.192 -0.0751846 1.04966)
(26.833 0.00527616 1.01112)
(26.7096 0.0249678 0.987742)
(26.7261 0.0258036 0.986191)
(26.8749 0.0187701 1.01184)
(27.0164 0.00541731 1.03757)
(27.2318 0.0682293 1.06382)
(8.83617 -0.00189088 -0.0665088)
(9.01351 -0.0456052 -0.0801974)
(8.97624 -0.0381283 -0.0599668)
(8.96105 -0.00270535 -0.06809)
(8.92098 0.0219922 -0.0746279)
(8.9558 0.0346165 -0.0634973)
(8.83691 0.00451491 -0.0800124)
(3.88026 0.0378202 0.0440942)
(3.84171 -0.00761311 0.0341701)
(3.86908 -0.02603 0.0618498)
(3.86861 0.0152288 0.0513429)
(3.86122 0.0417825 0.0429383)
(3.83425 0.0272249 0.0534132)
(3.87548 -0.0197186 0.0319569)
(-0.000154172 0.00719022 0.0406652)
(-0.000151702 0.0186687 0.0362211)
(-0.000135353 0.0224648 0.0263892)
(-0.000124018 -0.00967557 0.0260271)
(-0.000141748 -0.032975 0.0245267)
(-0.000136666 -0.0281837 0.023561)
(-0.00013715 -0.0157388 0.0338198)
(-3.87857 0.0306752 0.0356217)
(-3.84699 -0.0194373 0.0273735)
(-3.84748 -0.0359137 0.0455342)
(-3.85687 0.00770868 0.0407034)
(-3.86491 0.0334772 0.0353902)
(-3.85246 0.0217694 0.0455009)
(-3.8766 -0.0174063 0.0287952)
(-8.84648 0.0039497 -0.0731387)
(-8.91817 -0.0432183 -0.0745234)
(-8.97931 -0.0341251 -0.0677148)
(-8.85904 0.00271075 -0.0611053)
(-8.96424 0.0301204 -0.0851453)
(-8.9835 0.0438142 -0.0680521)
(-8.84634 0.00591177 -0.085706)
(-27.3082 -0.0555063 1.09419)
(-27.0317 0.0021212 1.06785)
(-26.9232 -0.00374211 1.0397)
(-26.8947 -0.0103636 1.05834)
(-26.8564 -0.0218044 1.03177)
(-27.0018 -0.0199877 1.04964)
(-27.2837 0.0509301 1.10054)
(26.3728 -0.084674 0.785774)
(26.5133 0.00377567 0.784431)
(26.3864 0.0239802 0.774281)
(26.408 0.0251825 0.766617)
(26.3055 0.021125 0.773035)
(26.2978 0.0117849 0.78653)
(26.3798 0.0791975 0.798078)
(8.82075 0.000704339 -0.0396689)
(9.09652 -0.0349887 -0.0656708)
(9.06174 -0.0373478 -0.0388284)
(9.04942 -0.0123158 -0.0498612)
(8.91483 0.0152519 -0.0476428)
(8.92584 0.0285296 -0.0419374)
(8.81669 0.00225848 -0.0543656)
(3.87852 0.0353214 0.0448502)
(3.84111 -0.00311335 0.0313525)
(3.85115 -0.0226636 0.0675016)
(3.85251 0.0110441 0.0555881)
(3.86227 0.0419757 0.0487966)
(3.83112 0.0246009 0.0477994)
(3.87504 -0.0227952 0.0340109)
(-0.000151196 0.00890544 0.048089)
(-0.000144764 0.0167621 0.0439231)
(-0.000131321 0.0177744 0.0245425)
(-0.000121239 -0.00953006 0.0235368)
(-0.000140135 -0.0311398 0.0270991)
(-0.000138848 -0.0255191 0.0395818)
(-0.000130787 -0.014775 0.0474022)
(-3.87711 0.0285632 0.0374213)
(-3.83054 -0.0162233 0.0275865)
(-3.8618 -0.0321285 0.0523114)
(-3.87834 0.00592832 0.0457447)
(-3.86383 0.0353598 0.0395695)
(-3.83736 0.0216366 0.0437078)
(-3.87489 -0.020522 0.0298281)
(-8.82148 0.00210037 -0.0473125)
(-8.93633 -0.0352665 -0.0536115)
(-8.95691 -0.0296647 -0.0404022)
(-8.85709 -0.000325536 -0.0481348)
(-8.96758 0.0316968 -0.0576521)
(-9.00829 0.0372425 -0.0472225)
(-8.82388 0.000871553 -0.0592217)
(-26.3852 -0.0702484 0.823679)
(-26.3042 -0.00439775 0.816406)
(-26.3444 -0.00203014 0.799176)
(-26.0805 -0.0149612 0.772175)
(-26.3427 -0.0247314 0.803113)
(-26.3993 -0.0149389 0.805075)
(-26.3913 0.065339 0.83071)
(26.231 -0.0809325 0.554436)
(26.374 0.00291141 0.590548)
(26.3124 0.0215391 0.567212)
(26.3083 0.0208647 0.556076)
(26.1976 0.0239342 0.534381)
(26.1572 0.0164015 0.548508)
(26.2273 0.0815673 0.553129)
(8.82418 0.00390114 0.00696453)
(9.04697 -0.0296429 -0.0147384)
(9.02146 -0.0342226 0.00247483)
(9.02328 -0.0163326 0.0013631)
(8.95373 0.0137073 0.00251533)
(8.95755 0.0252371 0.00683744)
(8.82697 -0.00245911 -0.00309594)
(3.88041 0.0322446 0.051155)
(3.83985 0.00174947 0.0399347)
(3.83518 -0.0185111 0.0716722)
(3.84723 0.00783481 0.0587391)
(3.84246 0.0413373 0.0573234)
(3.82032 0.0209612 0.0537701)
(3.87961 -0.0240903 0.0455786)
(-0.000146169 0.00737868 0.0555356)
(-0.000144986 0.0110707 0.0466813)
(-0.000131009 0.0122351 0.0290374)
(-0.000119975 -0.00778483 0.0273875)
(-0.000138466 -0.0242629 0.0336778)
(-0.000141241 -0.0204279 0.0492551)
(-0.000125697 -0.0124459 0.053093)
(-3.87889 0.0261183 0.046417)
(-3.83067 -0.0123787 0.0394078)
(-3.85047 -0.0286007 0.0665212)
(-3.86258 0.00323151 0.0601842)
(-3.85618 0.0337426 0.048028)
(-3.8305 0.0185757 0.0495437)
(-3.87897 -0.0226534 0.0401986)
(-8.8312 0.00382899 -0.00321275)
(-8.9708 -0.0286669 -0.0175677)
(-8.95815 -0.0267246 0.012893)
(-8.95085 -0.00223351 -0.00750171)
(-8.95911 0.029422 -0.00402341)
(-8.98534 0.0333083 0.00435831)
(-8.83118 -0.00481781 -0.0062159)
(-26.2331 -0.0711827 0.572272)
(-26.1931 -0.00742707 0.577311)
(-26.2156 -0.00374347 0.561581)
(-26.066 -0.0134536 0.561946)
(-26.2565 -0.0236002 0.560318)
(-26.2268 -0.00968519 0.574441)
(-26.2306 0.0695073 0.580359)
(26.2374 -0.072445 0.306268)
(26.2905 0.00978357 0.343076)
(26.1167 0.0171115 0.346081)
(26.3046 0.0127376 0.325084)
(26.2576 0.0165099 0.302081)
(26.1881 0.01801 0.308784)
(26.2298 0.0822294 0.302179)
(8.90046 0.00375099 0.047263)
(9.05725 -0.0299062 0.0380542)
(9.09266 -0.0283194 0.0575376)
(9.08467 -0.0150446 0.0619251)
(9.05247 0.00757996 0.0651598)
(9.04857 0.0212032 0.0708852)
(8.88959 -0.00719773 0.0594057)
(3.88904 0.0300105 0.0743046)
(3.83636 0.00594796 0.0622698)
(3.83627 -0.0148771 0.0839032)
(3.8292 0.00537476 0.0776603)
(3.82657 0.0391527 0.0787082)
(3.82378 0.0186444 0.0773139)
(3.88493 -0.0257742 0.0714262)
(-0.000141184 0.00387102 0.0539948)
(-0.000150767 0.00480474 0.0501922)
(-0.000132332 0.00923386 0.0409387)
(-0.000119599 -0.00678491 0.0373682)
(-0.000138882 -0.0210525 0.0415988)
(-0.000145566 -0.0183232 0.0453244)
(-0.000123656 -0.0107555 0.0513401)
(-3.88626 0.0248398 0.0684037)
(-3.83891 -0.00754391 0.057684)
(-3.83242 -0.0240086 0.0842754)
(-3.8355 -0.00148282 0.081138)
(-3.8324 0.0296753 0.0726782)
(-3.84153 0.0156415 0.0748713)
(-3.8858 -0.0241748 0.0700585)
(-8.9059 0.0023882 0.0398738)
(-9.06169 -0.0223402 0.0344568)
(-9.05813 -0.0210684 0.065998)
(-9.09023 -0.00462635 0.0576116)
(-9.09223 0.0324348 0.0572876)
(-9.02489 0.0305455 0.0635151)
(-8.89849 -0.00857797 0.0507425)
(-26.2429 -0.0678787 0.320252)
(-26.1175 -0.00742487 0.348819)
(-26.2143 -0.00701076 0.316351)
(-26.053 -0.0108408 0.326193)
(-26.3503 -0.0230098 0.331951)
(-26.21 -0.0106559 0.322105)
(-26.2338 0.0711091 0.31912)
(25.8968 -0.0743265 0.238455)
(25.641 0.0142292 0.257045)
(25.8144 0.015744 0.258796)
(25.9036 0.0101282 0.25323)
(25.8916 0.0174422 0.240858)
(25.8953 0.0229675 0.250153)
(25.9069 0.0857706 0.239709)
(8.93144 0.0025082 0.0116363)
(8.99663 -0.0265647 0.0135555)
(8.93241 -0.0220587 0.0340647)
(8.95085 -0.0122447 0.031865)
(8.95418 0.0123469 0.0328256)
(8.96995 0.0254959 0.0429566)
(8.93176 -0.00869942 0.0328536)
(3.85155 0.0309415 0.0311187)
(3.85476 0.00704629 0.0180867)
(3.83823 -0.0127963 0.0307137)
(3.84427 0.00656049 0.0313029)
(3.83442 0.0452705 0.0311057)
(3.84618 0.0206032 0.0316159)
(3.83993 -0.0313721 0.0285037)
(-0.000139496 0.0051265 0.000105965)
(-0.00015551 0.00407999 0.00156876)
(-0.000135079 0.00796246 -0.00272547)
(-0.000121773 -0.00822485 -0.00516229)
(-0.000146311 -0.0247281 -0.00314878)
(-0.000146177 -0.0198431 -0.00552648)
(-0.000124832 -0.0122131 -0.00117073)
(-3.85118 0.0245741 0.0245659)
(-3.89918 -0.00778851 0.0102805)
(-3.84771 -0.0219722 0.0299585)
(-3.8376 -0.00201382 0.0284297)
(-3.91098 0.0362042 0.027625)
(-3.85092 0.0203623 0.0323976)
(-3.84082 -0.0289698 0.0305596)
(-8.9441 0.00209199 0.0083099)
(-8.70322 -0.0214426 0.023898)
(-8.96906 -0.0172319 0.0321686)
(-8.95243 -0.00679186 0.0315875)
(-8.78225 0.0328054 0.0318284)
(-8.96751 0.030133 0.033624)
(-8.93947 -0.0114068 0.0213103)
(-25.93 -0.0667671 0.249408)
(-25.7711 -0.0125798 0.274091)
(-25.9009 -0.0140869 0.25189)
(-25.8365 -0.0102086 0.254619)
(-25.6362 -0.0276651 0.259149)
(-25.9103 -0.0135367 0.249346)
(-25.9192 0.0767248 0.2454)
(38.0388 -33.6799 -7.36193)
(39.2358 -27.6438 -42.9179)
(39.7301 -22.5828 -57.5237)
(39.5275 -9.0883 -79.4197)
(39.6218 12.868 -72.9368)
(39.5894 23.5179 -57.1241)
(38.7548 34.5979 -11.765)
(9.74781 -26.9228 -4.74444)
(10.4336 -27.4782 -34.6355)
(10.5072 -12.7207 -42.5179)
(10.6403 -4.93894 -55.0325)
(10.474 7.83818 -47.3013)
(10.4216 24.2945 -39.1417)
(9.82885 26.9585 -5.42302)
(3.43665 -8.13262 5.91096)
(3.65889 -10.0675 -1.42601)
(3.7151 -5.86585 -5.83864)
(3.73928 -2.05161 -10.4541)
(3.70205 4.34093 -6.73251)
(3.65114 9.09201 -1.70622)
(3.43379 8.30819 5.90239)
(-0.0416641 0.393514 4.40725)
(-0.0341362 1.71555 3.5406)
(-0.0300256 2.12747 3.04956)
(-0.0281267 0.19062 3.0183)
(-0.0259794 -1.78228 2.95608)
(-0.0243136 -1.50216 3.42749)
(-0.0292098 -0.262689 4.36292)
(-3.492 -4.56037 5.10399)
(-3.6608 -5.99584 0.629709)
(-3.69841 -4.20947 -2.7964)
(-3.71265 -1.80453 -4.737)
(-3.67796 1.53592 -3.77002)
(-3.61685 4.13289 -0.468929)
(-3.44385 3.93636 4.32999)
(-9.30593 -19.5284 0.26719)
(-9.95759 -20.3809 -25.0688)
(-10.0675 -8.90475 -31.0223)
(-10.2165 -3.65933 -33.1714)
(-10.0766 4.99854 -31.7463)
(-9.9328 14.2273 -25.9809)
(-9.2261 15.9011 -2.14916)
(-36.3686 -26.1976 -8.47762)
(-37.4734 -16.4764 -41.8722)
(-37.8863 -6.27487 -49.5207)
(-38.4295 1.17583 -46.8011)
(-38.6342 9.37624 -46.3651)
(-38.5076 14.0888 -41.3728)
(-36.6122 20.3005 -15.8062)
(37.3449 -26.5996 21.7617)
(38.5697 -6.04822 -35.2246)
(39.7666 -7.21169 -57.9158)
(39.3472 1.03824 -96.9774)
(39.3773 7.05826 -91.0807)
(39.2345 7.82027 -61.862)
(38.2949 28.5653 19.2794)
(9.50344 -20.0704 24.0706)
(10.1732 -7.53628 3.90936)
(10.5579 -6.36722 -24.2541)
(10.8896 1.12411 -50.827)
(10.5652 2.398 -28.7609)
(10.1686 3.88607 -2.22672)
(9.59812 20.3919 24.2591)
(3.4941 -3.27726 20.9298)
(3.70243 -3.01502 13.6961)
(3.80369 -1.54204 9.94552)
(3.88156 -0.709651 7.37195)
(3.80137 0.890236 9.41257)
(3.70303 1.78604 13.3118)
(3.49189 3.39367 21.2677)
(-0.0144664 0.980625 12.1868)
(-0.00858002 2.59359 11.102)
(-0.00587212 2.73962 10.2152)
(-0.00245081 0.251108 9.90214)
(0.000368152 -2.1877 10.0978)
(0.00141453 -2.17341 11.0598)
(-0.00453999 -0.90325 12.0172)
(-3.5448 -1.66415 14.3443)
(-3.70209 -1.66342 9.86486)
(-3.80035 -1.42273 7.45428)
(-3.83304 -2.06542 5.72927)
(-3.7648 -1.31359 6.39546)
(-3.66113 -0.325632 8.25614)
(-3.50782 0.859918 12.773)
(-9.09611 -13.3744 18.9706)
(-9.8574 -8.32771 -0.99682)
(-10.1641 -6.84652 -18.522)
(-10.4295 -5.16024 -27.831)
(-10.1521 0.813434 -18.6836)
(-9.75852 1.7944 -5.66374)
(-8.95138 8.21864 15.4605)
(-35.5824 -22.7426 16.2758)
(-36.8643 0.621867 -45.982)
(-37.7519 3.20994 -64.2181)
(-38.3899 9.23389 -63.2743)
(-38.7858 10.4074 -55.3676)
(-38.7312 9.55256 -42.3096)
(-35.3902 12.3553 8.49122)
(34.9018 -12.6043 29.8263)
(38.1938 1.00859 -51.7482)
(39.8702 -1.09158 -80.1797)
(39.073 2.8997 -104.74)
(39.3201 6.26189 -100.761)
(38.7874 6.31404 -74.4111)
(36.0511 13.8079 29.0122)
(9.10418 -7.09516 32.0302)
(9.92213 -1.46108 0.390915)
(10.7005 1.06314 -31.6475)
(11.024 1.69487 -55.4407)
(10.6664 -4.67455 -27.243)
(9.98336 -0.545651 -11.7171)
(9.20965 7.46753 32.8431)
(3.52522 -0.378566 24.0963)
(3.70358 0.866124 17.619)
(3.85756 0.981427 14.3885)
(3.94713 -0.0350251 11.026)
(3.84902 -1.65667 13.9138)
(3.71472 -1.69474 16.5561)
(3.52642 0.454726 24.4363)
(-0.00715676 0.900879 16.9518)
(-0.00406709 2.17329 15.7573)
(-0.00258549 2.30276 14.7921)
(-0.00124395 0.326175 14.4453)
(0.00356787 -1.82402 14.8716)
(0.00978196 -1.98467 15.6103)
(0.00596158 -0.832223 16.7757)
(-3.6136 -0.282149 17.413)
(-3.7375 0.0599322 13.1642)
(-3.87166 -0.650187 12.1764)
(-3.90811 -2.47622 9.7255)
(-3.82973 -3.07075 10.6184)
(-3.69346 -2.16636 11.5739)
(-3.58353 -0.441575 14.8854)
(-8.97825 -4.80345 22.2792)
(-9.86868 -4.50055 -3.20172)
(-10.3866 -8.01702 -19.0975)
(-10.6256 -7.6829 -33.118)
(-10.4415 -8.01648 -27.7395)
(-9.67279 -1.61456 -7.31312)
(-9.05664 2.39831 13.744)
(-32.7908 -11.0406 24.88)
(-36.0902 8.45744 -55.651)
(-37.4336 12.2736 -76.0987)
(-38.1891 11.833 -73.778)
(-38.9031 9.20826 -63.5607)
(-38.9102 8.5417 -48.5463)
(-35.6851 5.48702 3.00897)
(33.8375 -1.10258 15.3575)
(38.2254 3.50809 -53.1348)
(39.9552 6.489 -86.1853)
(39.4179 4.40806 -105.563)
(39.544 3.34356 -103.597)
(38.6226 0.685111 -73.7785)
(34.5866 1.51093 19.9824)
(9.05185 -0.213386 23.9591)
(9.62874 3.58804 4.6899)
(10.7251 10.7347 -33.4272)
(11.0537 2.52186 -51.5398)
(10.8279 -5.52935 -30.5717)
(9.90466 -3.03172 -10.8493)
(9.16622 0.436038 25.1907)
(3.56493 0.971725 23.2893)
(3.70006 2.11259 19.4837)
(3.88829 1.80564 15.7241)
(3.96275 0.0320923 15.3781)
(3.88324 -1.90102 15.4317)
(3.72485 -2.23687 18.2193)
(3.57357 -0.933643 23.9534)
(-0.0158208 0.455251 21.2457)
(-0.0126594 1.33244 20.6647)
(-0.00931383 1.50125 19.9425)
(-0.0102396 0.324272 19.6167)
(-0.00384881 -1.16344 19.7678)
(0.00590095 -1.43168 20.5228)
(0.00535559 -0.556581 21.1391)
(-3.65989 0.457388 19.2657)
(-3.77545 0.830453 16.3957)
(-3.92235 -0.219252 15.1081)
(-3.97008 -2.65138 14.9713)
(-3.87643 -4.00112 13.2944)
(-3.75016 -2.70449 13.4652)
(-3.63746 -0.95828 16.3778)
(-8.99195 0.166419 15.8597)
(-9.80583 1.27219 -2.42279)
(-10.4962 -0.828367 -20.6436)
(-10.7288 -3.11935 -34.6228)
(-10.7131 -7.69224 -38.5279)
(-10.0478 -1.10139 -19.6691)
(-9.34153 0.242792 4.38189)
(-32.6808 -0.303386 6.6078)
(-35.9737 15.8069 -54.9241)
(-37.3748 23.0233 -75.7407)
(-38.1215 23.1605 -75.5276)
(-38.9674 14.2208 -66.7827)
(-39.1219 7.02683 -48.8512)
(-36.6081 3.23273 -5.95138)
(36.4634 6.72861 -13.1643)
(38.9097 -1.70196 -68.5928)
(40.1013 8.51939 -90.2608)
(39.8527 3.50745 -105.247)
(39.5434 -2.06281 -101.134)
(38.5125 -1.39731 -72.7847)
(36.9109 -5.84238 -9.334)
(9.31497 4.46262 7.33641)
(9.67462 5.68785 -1.72992)
(10.6914 16.4544 -27.4317)
(11.0638 3.93036 -44.8558)
(10.8694 -3.18602 -29.2732)
(9.99332 -5.69448 -9.26067)
(9.46287 -4.17139 8.69537)
(3.60272 1.53687 22.1679)
(3.70325 2.54431 19.8204)
(3.90532 2.60016 16.9388)
(3.99612 1.00495 17.2066)
(3.90727 -0.98405 17.201)
(3.74324 -1.81415 18.7585)
(3.62099 -1.25928 22.781)
(-0.0181451 0.260358 24.4401)
(-0.0144067 0.899212 23.8092)
(-0.0119872 1.51372 23.6143)
(-0.0147269 0.83031 23.9278)
(-0.0124454 -0.687702 24.0046)
(-0.0050918 -0.960494 23.6534)
(-0.000644116 -0.43248 24.2387)
(-3.68716 0.852992 19.584)
(-3.78533 1.1843 17.9456)
(-3.9302 -0.352075 17.668)
(-3.99213 -3.08901 18.1851)
(-3.91643 -4.12973 15.5043)
(-3.80868 -2.76794 13.9471)
(-3.6859 -1.00255 16.8471)
(-9.37022 4.03269 2.19602)
(-9.69286 7.28194 -2.83491)
(-10.282 10.9139 -12.2939)
(-10.6099 14.2187 -23.7094)
(-10.7959 4.70576 -37.8584)
(-10.4945 -1.02469 -28.2559)
(-9.70302 -0.063048 -2.73596)
(-36.1626 2.56452 -34.6163)
(-37.3655 20.1434 -78.0147)
(-37.767 25.2812 -77.1468)
(-38.4438 28.2529 -72.5491)
(-39.0498 20.6336 -61.0013)
(-39.1858 3.48596 -38.3033)
(-37.0656 2.62305 -9.06625)
(37.7885 -4.31486 -37.5032)
(39.6533 -11.8482 -75.5665)
(40.0953 2.41497 -95.3831)
(39.9385 -4.34176 -108.649)
(39.773 -7.52466 -98.0483)
(38.6453 3.07701 -82.5075)
(37.9217 4.71654 -37.7877)
(9.78838 2.47536 -5.16714)
(10.1361 3.33533 -13.3079)
(10.8971 14.4395 -36.2457)
(11.1137 0.757919 -40.6124)
(10.8915 1.6343 -19.5441)
(10.2344 -6.85935 -14.8194)
(9.87016 -1.76308 -2.82334)
(3.70118 1.56974 22.5497)
(3.77323 3.13638 21.4492)
(3.93286 3.77144 21.0409)
(4.01596 1.64613 20.4417)
(3.93438 -0.997874 21.0928)
(3.79058 -1.85898 21.1008)
(3.70422 -1.16136 22.8345)
(-0.00681881 0.449205 27.8435)
(-0.0119864 1.03225 28.1462)
(-0.0127284 0.969865 28.0629)
(-0.0192331 0.134422 27.9948)
(-0.0261285 -0.554297 27.5453)
(-0.0241665 -0.426346 28.246)
(-0.0199497 -0.282289 28.099)
(-3.77153 1.29381 20.232)
(-3.84707 2.34559 20.9711)
(-3.95616 1.38349 21.8401)
(-4.016 -2.34182 22.2755)
(-3.96475 -3.5943 17.6266)
(-3.88069 -2.94864 15.2973)
(-3.77264 -1.49499 18.4569)
(-9.82077 2.27096 -17.2966)
(-10.146 9.35455 -20.1005)
(-10.2748 16.1447 -23.6215)
(-10.5226 19.5437 -20.5202)
(-10.7219 19.0804 -24.8979)
(-10.8472 6.48904 -27.2187)
(-10.0867 0.392177 -10.2419)
(-37.7391 5.31351 -77.797)
(-38.5418 18.1607 -85.118)
(-38.6133 25.2913 -78.4988)
(-38.9119 28.6115 -67.4761)
(-39.2721 23.0549 -46.0037)
(-39.4273 4.14058 -28.4607)
(-37.633 5.86538 -12.8328)
(38.7617 -21.0849 -39.0649)
(39.7396 -21.9878 -70.4859)
(39.6171 -13.9722 -94.5891)
(39.6195 -14.4778 -101.958)
(39.6812 -9.94401 -97.6848)
(38.5212 10.1074 -84.0935)
(38.1053 14.2586 -45.7545)
(10.004 -3.06826 -15.7797)
(10.6794 -1.31641 -27.3017)
(11.1512 -0.0337046 -46.9681)
(11.1453 -9.21095 -29.7615)
(10.9782 2.9049 -16.5156)
(10.5498 -4.45717 -20.7482)
(10.0557 2.08885 -17.7801)
(3.75144 1.18384 21.7565)
(3.82441 2.93545 20.438)
(3.95244 3.97773 22.1705)
(4.05975 2.45752 23.1392)
(3.95322 -0.98864 21.8477)
(3.81463 -1.74833 19.8683)
(3.74338 -0.595495 19.221)
(-0.00435789 0.774647 30.4898)
(-0.0146131 1.2809 30.5007)
(-0.02342 0.978256 30.4203)
(-0.031665 0.599246 30.8713)
(-0.0423401 0.347603 30.1144)
(-0.0478822 -0.29521 29.8727)
(-0.0463666 -0.366525 29.6295)
(-3.80707 1.40954 16.6759)
(-3.89511 2.90629 19.6744)
(-4.01418 2.31174 22.4992)
(-4.08702 -0.0199278 24.3075)
(-4.02287 -2.46555 19.7463)
(-3.94834 -2.42742 18.2087)
(-3.84257 -1.37393 19.1475)
(-10.1745 4.67472 -41.8461)
(-10.4396 20.0246 -49.359)
(-10.505 22.4067 -42.3215)
(-10.6579 22.1462 -26.8137)
(-10.8569 21.0423 -20.3018)
(-10.8975 17.333 -20.2833)
(-10.469 4.61392 -13.0756)
(-38.7345 7.56182 -86.4397)
(-38.6853 20.7479 -88.3748)
(-38.8991 26.4162 -76.4904)
(-39.1372 27.2005 -55.8246)
(-39.4999 28.9231 -33.5169)
(-39.6986 14.4598 -21.3072)
(-38.5616 11.4266 -11.3933)
(39.2538 -22.945 8.95832)
(40.0872 -18.2359 -45.4763)
(39.8751 -2.09026 -80.4531)
(40.2433 -7.17073 -93.9928)
(40.3424 -8.71973 -96.5442)
(39.1413 3.36716 -76.2288)
(37.1694 16.0734 -18.3511)
(10.4576 -11.574 1.00613)
(11.1636 -14.3514 -31.6469)
(11.1952 -22.0291 -35.8322)
(11.1032 -16.4854 -33.1118)
(10.974 -8.40416 -29.0231)
(10.7296 0.635411 -25.3461)
(10.0025 8.10227 -7.12471)
(3.88788 0.328312 20.5324)
(3.96177 0.357784 18.2041)
(4.0403 1.1492 16.9876)
(4.06266 0.980752 20.1757)
(3.9874 -3.1327 18.6438)
(3.90688 -3.37495 14.8233)
(3.8283 -1.08521 12.9004)
(-0.013925 0.668732 25.0308)
(-0.0230824 1.36878 25.5821)
(-0.0389107 1.65447 26.9604)
(-0.0526858 0.815646 27.588)
(-0.0612491 -0.369656 27.3204)
(-0.0650465 -0.431986 26.2132)
(-0.0662945 -0.292538 25.8442)
(-3.92078 2.6147 5.86402)
(-4.00341 8.26864 12.5597)
(-4.11018 7.28778 20.2593)
(-4.18489 2.41306 23.6004)
(-4.11566 -0.321978 22.7274)
(-4.07196 -1.48659 21.9254)
(-3.99025 -0.119295 20.5838)
(-11.1636 -1.99088 -71.6827)
(-11.0894 12.3868 -61.8283)
(-11.0593 19.1293 -37.134)
(-11.0218 19.7618 -22.7656)
(-11.0396 20.6067 -14.9335)
(-11.0462 16.2545 -11.3495)
(-10.7735 11.4852 4.18518)
(-40.4551 3.42363 -95.6788)
(-39.6285 -9.26816 -88.496)
(-39.2689 -16.326 -54.0843)
(-39.4426 1.15651 -27.064)
(-39.7637 10.3078 -9.38952)
(-39.7498 5.15844 3.96039)
(-38.4659 9.49269 21.0818)
(38.61 -16.2141 21.3764)
(40.1583 -14.3835 -28.1143)
(39.8826 11.0573 -83.4571)
(40.2431 7.44604 -105.153)
(40.2522 5.23909 -107.999)
(39.3261 -2.75259 -77.5045)
(35.7786 7.64379 -22.4397)
(10.4505 -9.92121 9.99476)
(11.3051 -18.0712 -17.9616)
(11.3034 -21.3905 -21.447)
(11.2738 -21.4973 -24.1964)
(11.1297 -15.9386 -25.6798)
(10.7855 -1.87848 -26.9415)
(9.66027 3.28258 -6.75691)
(3.92604 0.390773 23.1003)
(4.00293 0.0885589 20.8388)
(4.08663 -0.462042 21.2785)
(4.12 -1.73868 23.0677)
(4.03123 -4.96698 19.9714)
(3.93383 -4.69927 14.3197)
(3.83599 -1.21386 13.2516)
(-0.018375 0.677718 26.1061)
(-0.0257283 1.56996 26.4016)
(-0.0309864 1.73136 27.7699)
(-0.0401204 0.458121 28.5391)
(-0.0531861 -0.849873 28.1515)
(-0.0641513 -0.579499 26.8649)
(-0.0676687 -0.188598 26.2833)
(-3.92641 3.74794 4.86751)
(-4.00291 9.77939 14.5227)
(-4.10237 8.41758 21.1834)
(-4.19998 3.32941 24.5148)
(-4.17006 0.149052 24.0288)
(-4.11601 -1.02235 23.0641)
(-4.04261 0.422827 23.3196)
(-11.3208 -10.1312 -81.2214)
(-11.2297 2.48781 -59.7358)
(-11.1418 10.7247 -21.7957)
(-11.2017 8.99262 -12.9557)
(-11.1994 7.70706 -6.19459)
(-11.1678 8.72996 0.558118)
(-10.6145 8.80402 12.8894)
(-40.2652 -13.8473 -105.972)
(-39.2548 -24.18 -99.3752)
(-39.2882 -28.1211 -52.4441)
(-39.6208 -0.939609 -18.9644)
(-40.1043 3.32415 -3.12385)
(-39.581 -1.28439 11.5474)
(-37.808 11.7967 28.8096)
(37.9174 -8.03549 27.46)
(39.8883 -14.408 -9.11866)
(39.6544 23.9322 -93.3117)
(39.9414 23.2393 -110.78)
(40.1444 22.0054 -104.576)
(40.0245 -2.39433 -77.5819)
(35.52 4.71097 -25.0933)
(10.3872 -8.96544 19.3215)
(11.2758 -13.5689 -9.81259)
(11.4066 -12.1134 -21.6419)
(11.3856 -12.1048 -36.2051)
(11.3078 -11.8391 -49.082)
(11.0819 0.889497 -49.47)
(9.5944 0.365548 -14.5337)
(3.94791 -0.811095 26.7626)
(4.03374 -5.72974 24.5731)
(4.12644 -7.35147 22.9425)
(4.16354 -7.44365 23.4331)
(4.03969 -7.74008 24.0031)
(3.9211 -6.32535 15.5142)
(3.76676 -1.83099 13.3672)
(-0.00678766 0.990553 28.239)
(-0.0128733 2.2242 28.4671)
(-0.0110305 2.71491 30.4197)
(-0.0149447 1.72969 30.8866)
(-0.0326926 -1.57971 30.4186)
(-0.0586584 -1.99169 28.7091)
(-0.0737599 -0.882857 27.9812)
(-3.90366 3.78871 -4.08777)
(-3.91974 11.507 10.4849)
(-3.98199 11.9666 21.4213)
(-4.1388 6.7371 26.4598)
(-4.15344 2.56083 27.3149)
(-4.10256 0.0578116 26.6833)
(-4.0478 -0.601514 26.8728)
(-11.2818 -24.1161 -76.0912)
(-11.1656 -6.23694 -50.378)
(-11.0451 3.48182 -17.9652)
(-11.1715 3.69221 -9.15328)
(-11.1963 3.60965 -1.98817)
(-11.0577 4.28945 4.57596)
(-10.3579 7.69778 19.7517)
(-40.1574 -24.5399 -104.342)
(-39.4119 -37.9633 -93.3851)
(-39.3679 -35.7211 -62.0891)
(-39.5827 -6.8769 -23.7445)
(-39.7264 0.720699 -6.30012)
(-38.8912 -3.47229 9.71542)
(-37.3935 9.92731 30.4236)
(37.104 -4.55365 28.3416)
(38.7901 -14.8904 -7.4312)
(39.3194 28.8677 -103.144)
(39.7221 32.2324 -109.609)
(40.0901 28.9307 -97.3345)
(40.5602 3.25091 -62.5568)
(36.4807 -0.458142 -18.7038)
(10.2562 -8.05783 24.8612)
(11.1979 -8.47234 1.11953)
(11.5185 0.527281 -16.3028)
(11.4463 17.0339 -27.5772)
(11.3727 27.1509 -55.7861)
(11.271 17.6815 -56.1079)
(10.3161 0.48299 -23.4852)
(3.98961 -6.4826 29.2564)
(4.13101 -12.9591 10.6914)
(4.25141 -15.161 1.93909)
(4.21862 -16.889 8.10283)
(4.11215 -11.3875 13.5618)
(3.90343 -7.3183 12.039)
(3.67892 -3.09392 12.3823)
(0.00230188 -0.7207 31.6494)
(-0.0112716 0.2603 31.162)
(0.00143535 1.71968 31.7717)
(0.00742528 0.630363 34.6907)
(-0.0106573 -2.28969 35.7959)
(-0.0419659 -2.72372 32.9649)
(-0.0702172 -1.14003 30.6556)
(-4.01751 -0.710882 -20.3312)
(-3.95065 11.3914 -7.62869)
(-3.93133 15.7378 16.6733)
(-4.00874 10.6634 26.7897)
(-4.09325 7.00639 27.9808)
(-4.07765 4.75221 28.105)
(-4.03614 0.644655 28.8674)
(-11.183 -26.8467 -62.8458)
(-11.1651 -12.2467 -45.9531)
(-11.0334 2.40794 -17.3779)
(-11.1407 5.26372 -9.59506)
(-11.23 7.74121 -4.84477)
(-11.0374 8.06295 10.0809)
(-10.1376 6.16244 21.5679)
(-39.8558 -40.1516 -86.2847)
(-39.4135 -47.2831 -89.5376)
(-39.4967 -47.8452 -72.5892)
(-39.4937 -18.7089 -38.3526)
(-39.0804 3.16764 -12.1105)
(-37.5279 -2.46931 14.6417)
(-36.0725 7.63062 29.8257)
(36.0359 -8.55227 30.662)
(37.3419 18.6986 -22.4551)
(38.8022 43.028 -108.939)
(39.6719 41.0271 -104.202)
(40.4057 37.215 -85.4543)
(40.7204 14.4222 -46.0249)
(38.0564 0.588442 -4.44005)
(10.287 -9.70831 33.6181)
(11.2675 -8.3365 9.2082)
(11.4641 9.70761 -24.9103)
(11.4283 31.3129 -34.6109)
(11.2904 45.8452 -46.9625)
(11.1598 41.3142 -46.6445)
(11.028 21.4654 -27.5119)
(4.01181 -8.07315 28.8168)
(4.23495 -6.29211 -8.79799)
(4.27984 -15.5827 -4.32704)
(4.22544 -17.2762 12.4355)
(4.11466 -12.1486 17.5648)
(3.91984 -5.73829 14.3102)
(3.73615 -1.29274 13.3977)
(0.0339683 -0.419724 38.2872)
(0.00305345 -0.281638 33.3876)
(0.00936116 1.78329 34.1781)
(0.0198629 1.5598 39.6216)
(0.0106524 -1.47937 37.4988)
(-0.0147251 -1.21619 34.6056)
(-0.0496111 -0.210521 35.2725)
(-4.06688 -12.1103 -22.0451)
(-4.04825 6.2978 -10.9058)
(-3.94022 14.9505 12.6453)
(-3.95584 16.1374 22.4406)
(-4.04367 16.6014 21.6949)
(-4.07202 13.6822 20.3606)
(-4.03375 6.89305 27.9358)
(-11.0867 -30.0734 -46.9123)
(-11.1947 -18.5036 -38.1408)
(-11.184 -4.91025 -19.7347)
(-11.2412 -4.71725 -17.3969)
(-11.325 8.52912 -9.61901)
(-11.111 11.7819 10.5336)
(-10.2369 5.81171 25.6699)
(-39.9769 -49.4585 -59.2962)
(-39.4946 -65.9047 -78.003)
(-39.4125 -69.4908 -81.962)
(-39.5386 -57.9324 -75.1388)
(-38.7893 -30.122 -43.7519)
(-37.5815 9.20738 18.2981)
(-34.9807 4.11331 34.0692)
(35.0966 -18.9883 37.4915)
(37.3623 74.4478 -106.739)
(39.2793 46.0007 -119.166)
(40.1363 41.5091 -97.8307)
(40.7014 42.944 -71.2396)
(40.9023 9.63035 -32.231)
(37.6247 1.61988 9.92507)
(10.2725 -5.37679 38.7037)
(11.318 -7.07803 -18.8018)
(11.3029 53.5125 -55.0262)
(11.2716 65.2996 -59.2256)
(11.2144 61.1968 -56.9605)
(11.2639 49.7304 -49.7514)
(11.1614 31.381 -15.9901)
(4.00074 -7.22918 36.3519)
(4.29649 2.64045 -34.822)
(4.30311 -13.7407 -19.2875)
(4.24192 -13.9571 13.8247)
(4.16265 -9.0838 21.561)
(4.0515 0.156874 15.5429)
(3.83221 5.1688 21.5187)
(0.0918436 -0.0977594 42.9427)
(0.0618415 1.02639 35.9841)
(0.037397 1.32578 37.5435)
(0.036658 1.75529 39.7125)
(0.0317876 0.371966 36.833)
(0.00929473 0.938607 39.6248)
(-0.0215387 0.308979 43.3062)
(-4.02845 -26.7038 -1.27406)
(-4.04904 5.69041 5.81805)
(-4.06368 12.7641 6.32666)
(-4.08971 13.9866 8.41536)
(-4.16692 14.0163 7.09942)
(-4.17266 14.3597 11.0908)
(-4.04389 7.92674 33.036)
(-11.0754 -35.9229 -13.4952)
(-11.0933 -38.2955 -17.3238)
(-11.2142 -39.8644 -13.8563)
(-11.302 -42.7002 -23.0409)
(-11.3017 -37.5499 -26.0581)
(-11.2104 10.2677 1.12333)
(-10.3936 6.72656 37.497)
(-41.0577 -39.7854 -33.9654)
(-41.2014 -69.6747 -62.0286)
(-40.6145 -82.5477 -78.736)
(-39.4626 -85.4196 -85.8599)
(-38.3735 -82.6893 -88.6106)
(-38.1336 -43.119 -42.8413)
(-34.5549 9.48121 47.9306)
(39.3964 132.557 -127.581)
(39.5919 94.1001 -140.519)
(41.1972 -6.59784 -129.723)
(39.6337 -3.85325 -29.8619)
(36.0894 -21.1954 49.7106)
(36.4516 -27.2686 50.1469)
(36.6087 -17.48 56.4396)
(10.9297 30.357 -4.263)
(10.9923 93.3919 -59.5665)
(11.0429 99.5493 -64.657)
(11.3091 79.6638 -62.2779)
(11.4882 63.0547 -52.7785)
(11.4277 45.6144 -36.66)
(10.9676 13.7221 34.1305)
(4.10144 9.25795 6.60185)
(4.22666 18.6416 -36.8146)
(4.24988 2.31605 -31.8378)
(4.34208 -2.50234 -8.86692)
(4.32973 -4.6244 12.6344)
(4.24185 9.89305 15.7937)
(3.93215 -0.239596 43.8357)
(0.0811931 0.267848 52.0823)
(0.0500386 -1.29656 36.8981)
(0.0145395 -2.16384 39.8471)
(0.0295495 0.807455 37.6624)
(0.0603718 4.07708 33.8024)
(0.0520613 3.64024 38.1966)
(0.0113035 0.580909 51.6681)
(-4.01579 -25.4716 33.7998)
(-4.17074 -29.9367 9.30241)
(-4.24717 -37.7618 7.94409)