/*--------------------------------*- C++ -*----------------------------------*\
  =========                 |
  \\      /  F ield         | OpenFOAM: The Open Source CFD Toolbox
   \\    /   O peration     | Website:  https://openfoam.org
    \\  /    A nd           | Version:  6
     \\/     M anipulation  |
\*---------------------------------------------------------------------------*/
FoamFile
{
    version     2.0;
    format      ascii;
    class       volScalarField;
    location    "2";
    object      O2;
}
// * * * * * * * * * * * * * * * * * * * * * * * * * * * * * * * * * * * * * //

dimensions      [0 0 0 0 0 0 0];

internalField   nonuniform List<scalar> 
297
(
0
0
0
0
0
0
0
0
0
0
0
0
0
0
0
0
0
0
0
0
0
0
0
0
0
0
0
0.10781
0.0595368
0.130782
0.193989
0.149173
0.192424
0.1242
0.111936
0.161156
0
0.000365653
0.00660042
0.0978404
0.10819
0.107741
0
1.33329e-05
0
0
0
0
0.0578238
0.023363
0.0622106
0
0
0
0
1.31524e-11
0
0
0
0
0
0
0
5.21248e-17
1.15323e-15
1.33369e-16
2.47202e-20
2.04469e-17
3.06824e-20
1.29529e-15
8.02375e-16
4.02766e-16
8.95511e-16
9.67458e-16
4.49844e-16
5.41259e-16
2.91187e-15
4.55956e-16
1.21633e-15
7.41636e-16
4.31739e-16
0
0
0
0.0181998
6.15916e-07
0.0230761
0
0
0
0
0
0
0
7.25718e-09
0.00541906
0
0
0
0
0
0
0
0
0
0
0
0
3.59781e-16
3.66676e-16
2.77033e-16
8.79772e-16
7.6668e-16
9.5366e-16
4.799e-16
3.70746e-16
1.83205e-16
2.80771e-16
2.87823e-16
1.96126e-16
8.9938e-16
6.49613e-16
1.05085e-15
4.48957e-16
3.18093e-16
1.23866e-16
5.40869e-16
2.69688e-16
2.17762e-16
9.70499e-16
5.59333e-16
6.32698e-16
1.27674e-15
5.47365e-16
1.65568e-16
9.55011e-17
2.35786e-17
2.26522e-17
8.4269e-16
1.72096e-17
9.98112e-18
3.32597e-17
1.06856e-17
1.29143e-17
1.76432e-16
6.07308e-17
5.97461e-17
1.06122e-15
1.0226e-15
7.94796e-16
1.03269e-16
4.52634e-17
4.77549e-17
1.87303e-16
1.49868e-16
1.18501e-16
7.93487e-16
8.24811e-16
8.543e-16
1.32066e-16
1.07163e-16
2.28307e-16
2.79351e-17
2.84852e-17
1.48425e-16
5.13802e-16
1.73224e-15
1.11232e-15
9.96201e-17
2.95391e-16
3.26292e-16
1.05649e-16
1.08885e-16
2.35943e-16
1.27117e-15
1.60984e-15
1.3313e-15
1.78924e-16
2.19773e-16
3.35208e-16
1.82879e-16
3.63795e-16
3.55636e-16
1.30946e-15
1.15848e-15
9.8867e-16
5.79584e-16
4.63081e-16
5.29086e-16
2.21589e-21
4.43583e-21
1.24896e-20
2.27153e-17
4.56148e-18
1.57659e-17
5.50515e-17
7.23654e-17
7.34849e-17
2.12097e-21
7.44109e-21
1.91711e-20
2.57467e-17
9.47637e-18
6.75908e-17
5.50369e-17
1.03103e-16
1.08242e-16
9.3923e-21
8.15325e-21
1.81231e-20
1.00197e-16
4.43519e-16
1.01783e-15
5.53722e-17
1.42977e-16
4.84729e-16
5.15069e-21
5.07585e-21
1.37322e-20
1.43217e-16
3.91015e-16
6.19588e-16
5.65967e-17
2.2235e-16
4.31906e-16
1.76242e-21
2.84736e-21
6.59635e-21
1.35403e-16
2.48215e-16
4.60075e-16
4.82912e-17
2.07827e-16
4.84319e-16
4.66405e-22
9.37825e-22
2.43574e-21
7.55962e-17
1.56516e-16
3.97064e-16
3.86463e-17
1.41777e-16
4.94847e-16
6.11592e-21
2.55539e-21
7.42385e-22
1.97452e-18
1.10265e-18
4.25568e-18
1.50349e-17
1.50717e-17
1.19215e-17
9.03752e-21
3.75306e-21
7.03487e-22
5.5437e-17
1.93168e-18
4.25853e-18
2.65774e-17
2.7653e-17
1.16976e-17
9.27468e-21
4.09565e-21
4.50238e-21
6.75242e-16
3.27021e-16
6.9663e-17
2.27497e-16
4.56184e-17
1.16197e-17
6.11634e-21
2.37071e-21
2.35084e-21
3.48142e-16
2.43719e-16
8.01397e-17
1.69427e-16
7.89506e-17
1.15556e-17
1.89598e-21
1.18196e-21
5.4414e-22
2.33695e-16
1.13318e-16
6.87921e-17
1.71485e-16
6.73787e-17
1.10208e-17
9.32143e-22
3.75211e-22
1.88616e-22
1.61643e-16
6.5781e-17
3.2652e-17
1.64437e-16
5.35949e-17
8.05157e-18
)
;

boundaryField
{
    fuel
    {
        type            fixedValue;
        value           uniform 0;
    }
    primary_air
    {
        type            fixedValue;
        value           uniform 0.23;
    }
    Secondary_air_RHS
    {
        type            fixedValue;
        value           uniform 0.23;
    }
    Secondary_air_LHS
    {
        type            fixedValue;
        value           uniform 0.23;
    }
    outlet
    {
        type            inletOutlet;
        inletValue      uniform 0;
        value           nonuniform List<scalar> 
18
(
0
1.61643e-16
0
0
6.5781e-17
0
0
3.2652e-17
0
0
7.55962e-17
0
0
1.56516e-16
0
0
3.97064e-16
0
)
;
    }
    stove_body
    {
        type            fixedValue;
        value           uniform 0;
    }
    frontAndBack
    {
        type            empty;
    }
}


// ************************************************************************* //
