/*--------------------------------*- C++ -*----------------------------------*\
  =========                 |
  \\      /  F ield         | OpenFOAM: The Open Source CFD Toolbox
   \\    /   O peration     | Website:  https://openfoam.org
    \\  /    A nd           | Version:  6
     \\/     M anipulation  |
\*---------------------------------------------------------------------------*/
FoamFile
{
    version     2.0;
    format      ascii;
    class       volScalarField;
    location    "4.5";
    object      p;
}
// * * * * * * * * * * * * * * * * * * * * * * * * * * * * * * * * * * * * * //

dimensions      [1 -1 -2 0 0 0 0];

internalField   nonuniform List<scalar> 
297
(
111844
111844
111844
182329
182329
182329
111844
111844
111844
111843
111843
111843
182330
182330
182329
111843
111843
111843
111843
111843
111843
182330
182330
182330
111843
111843
111843
97528.3
97553.8
97538.5
159447
159430
159447
97538.5
97553.9
97528.4
97476
97500.6
97498.2
159256
159273
159256
97497.7
97500.5
97476.4
97369.6
97496
97451.6
158211
158764
158212
97450.6
97496.6
97370.3
97384.6
97444.2
97342.9
159281
158986
159280
97344.2
97444.5
97383.8
97341.9
97385.4
97261.1
159213
159162
159210
97263.4
97385.7
97340.6
97275.4
97380.3
97152.2
158960
159034
158959
97152.7
97380.7
97275.2
97233.8
97588.4
97186.4
156386
158289
156380
97188.2
97591
97232.7
97204
97584.8
97151.4
156178
158353
156171
97153.1
97586.8
97202.8
97190.4
97570.1
97144.6
156375
158517
156368
97146.2
97569.4
97188.7
97599.8
97627.7
97550.9
158932
159032
158934
97548
97627.3
97600
97664.6
97676.4
97637.5
159047
159046
159050
97633.8
97675.8
97665
97687.7
97686.1
97679.9
159123
159075
159127
97675.9
97685.4
97688.1
97697.6
97639.6
97603.7
158539
158693
158906
97662.5
97602.8
97558
97641.7
97542.8
97457.3
158800
158800
158915
97629.6
97539.7
97447.5
97617.5
97517.2
97435.8
158918
158806
158727
97612.8
97519.9
97418.8
97560.2
97604.1
97663
158900
158686
158533
97598.9
97633.9
97691.7
97449.7
97541.2
97630.1
158909
158793
158794
97452.6
97536.9
97635.7
97421.1
97521.3
97613.3
158722
158799
158912
97431.3
97510.9
97611.3
98423.3
98176.7
97764.4
159067
159050
159025
98666.5
98375.3
97871
98124.4
97812.5
97532.9
158981
158943
158982
98345.7
97961.6
97594
97785.9
97508.3
97327
158763
158634
158598
97994.7
97618.2
97372.1
96596.9
96521.5
96502.7
157255
157156
157088
96725.2
96628.7
96612
95331.1
95370.1
95423.5
153234
153217
153218
95218.2
95269.8
95340.1
92441.9
92523.1
92587.1
141637
141659
141693
92061.1
92134.6
92198.7
97874.8
98377.8
98668.2
159029
159053
159070
97761.8
98173.7
98420
97596.7
97962.2
98345
158986
158945
158983
97530.3
97809.5
98120.9
97372.7
97615.9
97990.8
158600
158634
158762
97324.1
97505.2
97782.8
96601.3
96616.1
96711.4
157079
157147
157246
96498.4
96517.3
96592.6
95353.7
95286.1
95236.5
153225
153225
153241
95430.5
95376.6
95337.1
92194.8
92130.7
92057.4
141687
141652
141631
92587.4
92523.3
92442.1
)
;

boundaryField
{
    fuel
    {
        type            zeroGradient;
    }
    primary_air
    {
        type            zeroGradient;
    }
    Secondary_air_RHS
    {
        type            zeroGradient;
    }
    Secondary_air_LHS
    {
        type            zeroGradient;
    }
    outlet
    {
        type            totalPressure;
        rho             rho;
        psi             none;
        gamma           1;
        p0              uniform 100000;
        value           nonuniform List<scalar> 
18
(
93550.3
100000
93841.7
93169.7
100000
93537.3
92006.3
100000
92325.2
92323.4
100000
92005.3
93536.4
100000
93170.6
93840.8
100000
93551.3
)
;
    }
    stove_body
    {
        type            zeroGradient;
    }
    frontAndBack
    {
        type            empty;
    }
}


// ************************************************************************* //
