/*--------------------------------*- C++ -*----------------------------------*\
  =========                 |
  \\      /  F ield         | OpenFOAM: The Open Source CFD Toolbox
   \\    /   O peration     | Website:  https://openfoam.org
    \\  /    A nd           | Version:  6
     \\/     M anipulation  |
\*---------------------------------------------------------------------------*/
FoamFile
{
    version     2.0;
    format      ascii;
    class       surfaceScalarField;
    location    "4.5";
    object      phi;
}
// * * * * * * * * * * * * * * * * * * * * * * * * * * * * * * * * * * * * * //

dimensions      [1 0 -1 0 0 0 0];

internalField   nonuniform List<scalar> 
675
(
7.86694e-07
-0.000216999
0.000334407
-2.40249e-06
-0.000221812
0.000343132
-0.000221694
0.000337329
1.4349e-05
0.000217005
-0.000256247
2.50349e-06
0.000221816
-0.000239801
0.000221698
-0.00024908
7.7546e-07
0.000334358
-2.40587e-06
0.000343099
0.000337276
-1.93177e-07
1.56348e-05
0.000318849
-2.48246e-06
1.96539e-05
0.000325294
1.20447e-05
0.000322704
-2.51323e-06
-1.56318e-05
-0.000223092
7.74284e-06
-1.96535e-05
-0.000207703
-1.20443e-05
-0.000218747
-2.01856e-07
0.000318817
-2.48906e-06
0.000325284
0.000322674
-4.5413e-06
0.000205271
-1.76274e-06
0.00020378
0.000203068
-5.01185e-06
-0.000205273
5.53114e-06
-0.000203784
-0.000203074
-4.54635e-06
-1.77241e-06
-0.00586259
0.00589562
0.00317523
0.00611031
0.00312232
-0.0118874
0.00596523
0.00335094
0.00175484
-0.00596957
0.0153557
-0.00173944
-0.00312444
0.0149835
-0.00589309
0.0153598
-0.0060928
0.0033322
0.00587824
-0.0118875
0.00319105
-0.00145059
0.00813777
-0.0035117
0.000311233
0.00288699
-0.016536
0.00860989
-0.00494721
-0.000637841
-0.00860021
0.0327322
0.000606225
-0.00288827
0.0195148
-0.00814821
0.0327246
-0.00035296
-0.0049149
0.00140759
-0.0165364
-0.00354915
0.00697638
0.0123512
-0.0228418
0.000826912
0.00528982
-0.0156532
0.0151933
-0.0193112
-0.03197
-0.0151938
0.0922421
0.0319475
-0.0053024
-0.033812
-0.0123439
0.0922054
-0.000839965
-0.0192724
-0.00699089
-0.0157127
-0.0228827
-0.00120929
-0.00649365
-0.0199282
0.0276311
0.00519486
0.00758934
-0.0263556
0.0123711
-0.00551521
-0.0132474
0.0239588
0.0190872
0.00550635
0.0402845
-0.0713801
-0.019069
-0.00758521
0.00428938
0.0490419
0.00650398
0.0402794
-0.0713625
-0.00519214
-0.0132322
0.0239297
0.00121852
-0.0263658
0.0123622
-0.019939
0.027662
0.00238734
-0.00475772
-0.0175561
0.000262265
-0.00163036
-0.0226009
-0.00185393
-0.0111333
0.00858531
0.00184764
0.0250968
-0.00856343
0.00162581
0.0181825
0.00475998
0.0250998
-0.000247518
-0.0111345
-0.00237741
-0.022609
-0.0175579
-0.00282698
-0.000326831
-0.0143981
-0.0072853
-0.00125301
-0.0168921
-0.00295755
-0.0154703
-0.0101391
0.00295613
0.0319627
0.010153
0.00125394
-0.00461803
0.000327484
0.0319555
0.00729716
-0.0154677
0.00283681
-0.0168938
-0.0144003
0.000839315
-0.00271877
-0.0241598
-0.00016449
-0.00181434
-0.0128313
-0.00178575
-0.020884
-0.00277359
0.00179337
0.0853607
0.00277283
0.00188367
-0.043056
0.00271114
0.0853434
0.000167051
-0.0208436
-0.000832563
-0.0128321
-0.024201
0.000370855
-0.00144077
-0.0262864
0.000140611
-0.00126867
-0.0113319
-0.00111669
-0.0228199
-0.00138799
0.00112104
0.0790524
0.00138856
0.00131557
-0.048414
0.00143636
0.0790475
-0.000136129
-0.0227823
-0.000362968
-0.0112895
-0.0263236
0.000318956
-0.0021707
0.000144011
0.00121614
-0.00191076
-0.00154354
0.00190738
0.00154398
-0.00124632
0.00217366
-0.000140267
-0.000316737
0.0025622
-0.00251084
-0.00392372
-0.0105252
-0.00586462
-0.00108063
-0.00738554
-0.00381634
-0.00502476
-0.0124955
-0.00154128
0.00381712
0.016281
0.0108976
0.00154515
0.0010808
-0.00986593
0.00251134
0.0162751
0.0108955
0.00586511
-0.00502326
-0.0124905
-0.00256087
-0.00738631
-0.00392498
-0.0105256
0.002969
0.000439668
0.000895232
-0.00822707
-0.0046143
0.00124296
-0.00104617
-0.000209713
0.000435059
-0.00986613
-0.000845443
0.000210259
0.00487752
0.0124811
0.000850081
-0.00124315
-0.00907533
-0.000439991
0.0048745
0.0124787
0.00461473
0.000435626
-0.00986123
-0.00296743
-0.00104648
0.000894359
-0.0082274
0.00120546
0.00211161
-0.0024213
-0.00243144
0.00258969
0.00182924
-0.00382744
0.00195025
-0.00182864
0.00687031
-0.00194532
-0.00259006
-0.00211155
0.00686786
0.00243223
-0.00382309
-0.00120347
-0.00242113
-0.0120203
-0.00167933
0.00120459
-0.0123815
-0.000868067
0.00123044
-0.00100874
0.00136128
-0.0127323
0.0068949
0.00124085
0.00107982
0.00640043
0.000719956
-0.00109353
0.000948492
0.0006281
0.00381579
-0.0103938
0.00110867
-0.0107988
0.00112457
0.00134635
-0.0111972
-0.00953152
-0.00195112
0.00282164
-0.00968779
-0.000607328
0.00199554
-0.000301732
0.000777006
-0.0087997
0.0111369
0.00134451
-0.000874497
0.0104238
0.000501146
-0.00148884
0.000524685
0.00256934
0.00765693
-0.00822717
0.00245264
-0.00847057
0.00186867
0.00145784
-0.00805785
-0.00129559
0.000290379
-0.000148658
0.000850019
0.000820175
-0.00018982
0.00680227
-0.000518864
0.00703266
-0.000869069
-0.00053145
0.0109545
-0.000487554
0.000511743
0.00143776
0.0107993
-0.000947045
0.00134624
-0.0111982
0.0103936
-0.000718804
0.00112444
-0.00124007
0.00110853
-0.00640288
0.00101028
0.000628485
0.00381694
-0.00689738
0.00086924
-0.00109325
0.00168006
0.00108096
0.0123763
0.0013615
-0.0127282
0.0120146
0.00123095
0.00120477
0.00847123
-0.000523337
0.00145788
-0.00805924
0.00822703
-0.00050006
0.0018687
-0.00134421
0.00245287
-0.0104274
0.000301978
0.00256975
0.00766065
-0.0111398
0.000607718
-0.00148815
0.00195241
-0.000873505
0.00968263
0.000776928
-0.00879695
0.00952544
0.00199585
0.00282197
-0.000511025
0.00053274
0.00143648
0.000487765
0.000870058
0.000519518
-0.00703787
-0.00081974
0.0109597
-0.00680649
-0.000849186
-0.000289463
0.000143479
-0.000187302
0.00129011
0.0069438
0.000284478
-0.00722817
0.0114053
-0.00125298
-0.00320805
-2.53549e-05
0.000233068
0.00429124
-0.000277287
-0.00373017
-0.000745662
0.00103877
0.00274441
-1.72233e-06
0.00304715
0.00780387
-0.00808396
0.0127835
-0.00394358
5.1828e-05
0.00496829
0.000268291
-0.0124614
0.00814266
-0.000602355
-0.00577982
0.000406736
-8.99074e-05
0.00327726
-0.000328247
-0.00641192
-0.00395307
0.000619687
0.00875161
-0.000469325
0.00763005
0.00534448
-0.013759
0.00851977
-0.00650223
-0.000696719
0.00502083
0.00232128
-0.0197966
0.00409702
-0.000846891
-0.00400821
-0.000398758
0.00584256
0.00071464
-0.00259024
-0.00221574
-0.00682623
0.00133065
0.0141136
-2.77707e-05
0.0113916
0.00489156
-0.0212308
0.00540151
-0.00568357
0.00448788
0.00453673
0.00665844
-0.0309803
0.00540962
0.00316142
-0.00804259
0.00241633
0.00883781
0.0112212
-0.00751522
0.00072447
0.0128771
-0.003479
0.019085
-0.00331476
0.0299869
0.00330823
-0.0320326
0.00605804
-0.0119258
0.00721502
-0.0124294
0.0105063
-0.0290869
-0.0115644
0.00711059
-0.0160241
0.00660789
-0.00934263
-7.41174e-05
-0.0102763
0.0216
-0.00343146
-0.00655254
0.0361257
-0.00628249
0.039465
-0.0128544
-0.0294789
-0.0124722
-0.0188363
-0.011515
-0.00864703
0.0223179
-0.00647808
0.0214867
0.0230239
-0.00766692
-0.0217361
-0.00773778
-0.0206202
-0.0218443
-0.00762681
-0.00635828
-0.0127861
3.13455e-06
5.23612e-05
-0.00780491
-0.00103773
-0.00394175
0.000278037
-0.00808077
0.000745448
2.66242e-05
0.00304769
-0.00429043
0.0012541
0.00274514
-0.000283129
-0.00372803
-0.011404
0.000233235
-0.00694285
-0.00320695
-0.00722582
-0.00852
0.000470169
-0.000695605
-0.00534194
-0.000618814
-0.00649909
0.000323948
-0.0137468
0.00395158
-0.000405425
0.00762971
-0.00327583
0.000603352
0.00875169
-0.00026732
-0.0064115
-0.00814049
-8.97239e-05
-0.00496619
-0.00577815
-0.0124621
-0.00539886
2.81318e-05
0.00448695
-0.00488367
-0.00133053
-0.00568278
0.00258671
-0.0212232
0.00682335
0.000399867
0.0113902
-0.000713757
0.000848246
0.0141113
-0.00232126
-0.00221668
-0.00409453
0.00584227
-0.00501763
-0.00400777
-0.0198055
-0.00603541
0.00331431
0.00722407
-0.0032676
0.00347431
-0.0119182
0.00750912
-0.0320297
-0.0128734
-0.00240956
0.0299981
-0.0112188
-0.00315534
0.0190956
-0.00665275
0.00073428
-0.00540399
0.00883366
-0.00451824
-0.00804947
-0.0309883
0.0124396
0.00628237
-0.0115205
0.0127905
0.00655721
-0.0188408
0.0102798
-0.0294864
0.00342951
-0.00662828
0.0394612
7.54365e-05
-0.00713207
0.0361218
-0.0105214
0.0215959
0.0115527
-0.00933805
0.0123999
-0.0160217
-0.0290821
0.00635696
0.0218449
0.00762508
0.0206212
0.0217272
0.00774327
-0.0230306
0.00767759
-0.0214935
-0.0223224
0.00647894
0.00864588
)
;

boundaryField
{
    fuel
    {
        type            calculated;
        value           nonuniform List<scalar> 
36
(
0.000118436
0.000193077
0.000118436
0.000118436
0.000193077
0.000118436
0.000118436
0.000193077
0.000118436
-0.000118436
-0.000193076
-0.000118436
-0.000118436
-0.000193076
-0.000118436
-0.000118436
-0.000193076
-0.000118436
0
0
0
0
0
0
0
0
0
0
0
0
0
0
0
0
0
0
)
;
    }
    primary_air
    {
        type            calculated;
        value           nonuniform List<scalar> 9(-0.00320711 -0.00524323 -0.00320745 -0.00320795 -0.00524267 -0.00320795 -0.00320745 -0.00524323 -0.00320712);
    }
    Secondary_air_RHS
    {
        type            calculated;
        value           nonuniform List<scalar> 9(0.00319587 0.0051424 0.00319739 0.00319472 0.00513553 0.00319641 0.0031945 0.005142 0.00319595);
    }
    Secondary_air_LHS
    {
        type            calculated;
        value           nonuniform List<scalar> 9(0.00319743 0.0051426 0.00319593 0.00319645 0.00513574 0.00319478 0.003196 0.00514221 0.00319455);
    }
    outlet
    {
        type            calculated;
        value           nonuniform List<scalar> 
18
(
-0.0397234
0.0765928
-0.0388449
-0.0407306
0.0783014
-0.0396799
-0.0435889
0.0733211
-0.0427565
-0.0427601
0.0733208
-0.0435891
-0.039682
0.0783022
-0.0407261
-0.0388469
0.0765938
-0.0397186
)
;
    }
    stove_body
    {
        type            calculated;
        value           uniform 0;
    }
    frontAndBack
    {
        type            empty;
        value           nonuniform 0();
    }
}


// ************************************************************************* //
