/*--------------------------------*- C++ -*----------------------------------*\
  =========                 |
  \\      /  F ield         | OpenFOAM: The Open Source CFD Toolbox
   \\    /   O peration     | Website:  https://openfoam.org
    \\  /    A nd           | Version:  6
     \\/     M anipulation  |
\*---------------------------------------------------------------------------*/
FoamFile
{
    version     2.0;
    format      ascii;
    class       volScalarField;
    location    "4.5";
    object      T;
}
// * * * * * * * * * * * * * * * * * * * * * * * * * * * * * * * * * * * * * //

dimensions      [0 0 0 1 0 0 0];

internalField   nonuniform List<scalar> 
297
(
289.852
290.973
289.858
295.779
297.667
295.777
289.852
290.973
289.858
289.874
291.016
289.875
298.758
303.399
298.711
289.874
291.016
289.875
291.071
292.938
290.988
299.196
304.266
299.014
291.071
292.938
290.988
293.284
295.86
293.316
294.907
295.954
294.899
293.314
295.858
293.285
297.167
297.601
298.034
297.605
296.964
297.616
298.03
297.598
297.172
299.978
297.616
300.908
300.124
300.924
300.126
300.91
297.611
299.982
296.549
295.775
296.853
303.185
302.68
303.189
296.853
295.775
296.55
295.626
295.614
296.415
303.17
303.127
303.171
296.416
295.614
295.626
295.033
295.388
295.715
302.971
302.399
302.972
295.716
295.388
295.034
300.42
297.041
301.399
301.139
301.958
301.141
301.404
297.033
300.423
299.372
296.544
299.552
301.429
301.984
301.432
299.987
296.541
299.065
298.749
295.922
299.115
302.383
302.051
302.369
299.115
295.917
298.751
295.208
295.35
295.547
302.71
299.627
302.712
295.544
295.35
295.209
294.615
294.876
294.905
302.459
299.629
302.461
294.902
294.876
294.615
294.658
294.768
294.824
300.776
299.784
300.777
294.821
294.767
294.658
294.853
294.057
293.742
302.699
302.719
302.718
294.574
293.846
293.55
295.063
294.083
293.766
302.359
302.015
302.116
294.759
293.877
293.604
294.814
294.162
293.902
300.596
300.067
300.092
294.645
293.978
293.77
293.552
293.847
294.574
302.713
302.714
302.694
293.736
294.051
294.848
293.608
293.879
294.76
302.112
302.011
302.356
293.76
294.077
295.058
293.773
293.98
294.646
300.089
300.064
300.593
293.897
294.156
294.808
293.467
293.786
293.288
298.095
298.79
302.721
293.96
294.133
293.568
293.241
293.666
293.389
298.127
299.818
302.323
293.713
294.039
293.704
292.789
293.679
294.024
298.105
300.161
300.942
293.181
294.056
293.787
292.481
293.163
292.075
298.217
298.354
298.351
292.939
293.263
291.882
291.392
292.681
292.944
297.941
296.421
295.82
291.739
292.662
293.021
287.931
287.307
287.283
285.04
282.628
283.269
288.102
287.505
287.495
293.573
294.136
293.961
302.726
298.794
298.097
293.285
293.783
293.467
293.708
294.046
293.753
302.327
299.821
298.13
293.385
293.665
293.223
293.791
294.067
293.184
300.944
300.162
298.109
294.021
293.672
292.666
291.877
293.256
292.932
298.35
298.352
298.216
292.07
293.16
292.432
293.027
292.671
291.737
295.823
296.424
297.941
292.952
292.689
291.471
287.492
287.502
288.1
283.264
282.622
285.035
287.284
287.307
287.932
)
;

boundaryField
{
    fuel
    {
        type            fixedValue;
        value           uniform 293;
    }
    primary_air
    {
        type            fixedValue;
        value           uniform 293;
    }
    Secondary_air_RHS
    {
        type            fixedValue;
        value           uniform 293;
    }
    Secondary_air_LHS
    {
        type            fixedValue;
        value           uniform 293;
    }
    outlet
    {
        type            inletOutlet;
        inletValue      uniform 293;
        value           nonuniform List<scalar> 
18
(
293
283.264
293
293
282.622
293
293
285.035
293
293
285.04
293
293
282.628
293
293
283.269
293
)
;
    }
    stove_body
    {
        type            fixedValue;
        value           uniform 293;
    }
    frontAndBack
    {
        type            empty;
    }
}


// ************************************************************************* //
