/*--------------------------------*- C++ -*----------------------------------*\
  =========                 |
  \\      /  F ield         | OpenFOAM: The Open Source CFD Toolbox
   \\    /   O peration     | Website:  https://openfoam.org
    \\  /    A nd           | Version:  6
     \\/     M anipulation  |
\*---------------------------------------------------------------------------*/
FoamFile
{
    version     2.0;
    format      ascii;
    class       volVectorField;
    location    "2.5";
    object      U;
}
// * * * * * * * * * * * * * * * * * * * * * * * * * * * * * * * * * * * * * //

dimensions      [0 1 -1 0 0 0 0];

internalField   nonuniform List<vector> 
297
(
(85.6337 -0.0432528 0.266581)
(85.6285 -0.0187026 0.231889)
(85.6304 0.0115605 0.236119)
(2.29766e-06 0.0686413 0.323822)
(2.20424e-06 0.0208959 0.333644)
(2.14035e-06 -0.0450764 0.335872)
(-85.6337 -0.0433228 0.266475)
(-85.6285 -0.0185175 0.231742)
(-85.6304 0.0116197 0.236187)
(85.8817 -0.0110558 0.245306)
(85.6624 0.0030641 0.276463)
(85.6338 0.0206014 0.267799)
(2.35727e-06 0.0878341 -0.173061)
(2.22467e-06 0.0856437 0.0591724)
(2.14588e-06 -0.0773434 -0.0543967)
(-85.8739 -0.0108802 0.245155)
(-85.6608 0.00324411 0.276594)
(-85.6338 0.0208657 0.267909)
(86.0837 -0.141566 0.600872)
(85.7749 -0.0710012 0.593982)
(85.7444 0.0910549 0.557788)
(2.06483e-06 -0.394424 0.412396)
(2.05532e-06 0.137602 0.179117)
(1.95622e-06 0.190766 0.328111)
(-86.087 -0.142277 0.600921)
(-85.7752 -0.0716368 0.593793)
(-85.7444 0.0906801 0.558018)
(62.9504 3.00536 0.661737)
(63.032 0.651549 -4.18701)
(59.4653 2.03172 -2.23206)
(-0.0144611 0.084467 5.54148)
(-0.0153487 -0.516683 3.78763)
(-0.0129411 0.798491 4.15778)
(-63.0524 3.73695 0.765746)
(-62.1154 1.67642 -0.0953291)
(-58.4207 1.08092 -1.64612)
(68.8671 9.01207 0.383877)
(65.7601 2.48364 -9.93177)
(69.2469 -4.02925 14.8474)
(-0.0171189 9.28023 34.629)
(-0.0127807 -0.0724629 21.6142)
(-0.00961648 -3.55118 36.6502)
(-68.4379 11.5477 -1.49524)
(-67.4799 4.1855 -1.41986)
(-68.8088 -0.518408 14.214)
(68.2483 9.16387 -7.94349)
(63.8897 -2.55863 -17.198)
(70.1507 -15.5835 -0.474732)
(-0.0174309 -3.9637 46.154)
(-0.0142749 -1.85375 12.0205)
(-0.00407384 3.65318 48.5321)
(-67.8631 13.8734 -8.89514)
(-64.8695 -6.02019 -3.03899)
(-70.0154 -7.77931 3.5982)
(64.9725 1.62676 -43.0859)
(62.6078 0.479447 -29.4789)
(65.8381 -5.69383 -41.4008)
(-0.0181774 -0.911765 5.62035)
(-0.0310458 -2.67772 -8.15264)
(-0.0370653 -1.70272 13.9464)
(-64.5501 5.85958 -44.4728)
(-63.5236 0.385673 -25.6109)
(-66.0829 5.19773 -31.3707)
(64.7475 9.09377 -26.4384)
(62.5103 0.378544 -33.8446)
(64.3288 -15.6761 -25.562)
(-0.00571118 0.591316 3.27108)
(-0.0331605 0.972169 2.24803)
(-0.0347406 -2.33457 15.2047)
(-63.2829 13.2794 -29.9396)
(-63.5152 -3.30982 -31.9931)
(-66.615 -6.50054 -18.0761)
(62.9526 24.9886 -31.9807)
(60.8473 4.33797 -34.2789)
(62.8651 -25.4571 -30.5195)
(0.018777 -1.97569 8.36959)
(-0.0233241 3.38953 -11.1379)
(-0.0350817 0.533015 15.098)
(-61.0741 16.5822 -29.8299)
(-60.7004 -14.064 -27.1819)
(-63.7611 -18.6879 -21.9978)
(61.1393 12.8801 -40.6917)
(59.5648 0.2717 -20.352)
(62.9807 -18.7464 -38.3157)
(-0.0166628 -2.64749 61.2186)
(-0.0272953 -2.47225 -22.5403)
(0.0191545 1.84446 64.1726)
(-60.5218 17.8326 -41.4123)
(-61.7452 -2.67585 -14.0339)
(-62.6082 -10.149 -34.3663)
(58.5926 6.64545 -45.3716)
(61.0146 0.721244 -21.3919)
(59.6375 -11.3779 -43.4401)
(-0.0148149 -2.08928 67.3073)
(-0.0284088 -2.22231 -23.1056)
(0.0188815 1.06079 70.6666)
(-58.0848 11.1943 -46.3879)
(-62.4391 -2.12228 -15.2017)
(-61.4403 -3.26591 -39.3749)
(54.5478 4.81297 -44.9448)
(62.3657 0.372221 -23.5105)
(55.4466 -9.24117 -43.0493)
(-0.0156426 -1.51125 66.1393)
(-0.0301374 -1.88685 -19.5673)
(0.0228862 0.317651 69.8947)
(-53.575 9.18337 -46.0218)
(-63.2905 -1.51018 -18.4774)
(-62.4979 0.59126 -37.4021)
(59.2894 39.6201 -7.97358)
(59.2073 6.81391 -10.0524)
(59.5108 -38.0299 -7.349)
(-0.0193108 -9.70021 5.08569)
(-0.0306944 -3.91418 -6.81343)
(-0.0553148 7.19591 12.6893)
(-59.2293 32.7128 -6.92869)
(-59.1752 -8.66372 -8.40368)
(-59.3108 -36.1792 -7.6423)
(58.1343 36.5164 -2.67637)
(58.3283 8.02882 -5.72531)
(59.0983 -32.8423 -2.24298)
(-0.021117 0.0914813 -2.9241)
(-0.0342999 -3.45478 -4.15839)
(-0.0517062 5.85301 8.01835)
(-58.5427 25.9458 1.64432)
(-58.8325 -12.0854 -1.2557)
(-59.1108 -30.4159 2.44593)
(58.5251 6.11798 3.50857)
(58.3695 -2.98147 0.0522579)
(58.7133 -10.4116 5.25202)
(-0.0269204 -5.85522 -0.699865)
(-0.0385887 -5.46608 -2.1532)
(-0.0474445 3.00242 0.792264)
(-58.857 -4.97515 -2.52846)
(-59.2853 -8.11459 1.00046)
(-59.4808 12.5946 -3.51889)
(56.638 -40.4072 -3.34637)
(57.6378 -44.1336 -11.0136)
(57.985 -28.2554 -20.6761)
(-0.0921538 8.0982 8.87807)
(-0.112782 -4.87786 -6.50831)
(-0.203639 -6.12752 -10.0674)
(-57.4372 -41.259 -2.95183)
(-56.7784 -47.6926 -7.72176)
(-56.6663 -51.6038 -8.58859)
(58.3131 -33.5431 2.55448)
(58.6934 -39.192 -7.67167)
(57.642 -24.7799 -21.5779)
(-0.0586575 16.6731 4.54573)
(-0.0888237 15.0757 4.94063)
(-0.188708 10.2311 10.6257)
(-58.3571 -32.2832 7.81075)
(-58.3241 -38.9635 6.9424)
(-58.2513 -41.6032 4.22619)
(59.0987 -9.29193 12.4891)
(58.8223 -2.04129 10.3288)
(57.77 -21.5436 -29.6323)
(-0.0422962 14.8512 -1.3288)
(-0.0618596 18.2541 0.377134)
(-0.104986 31.1341 7.27582)
(-59.2081 -2.50215 7.93)
(-58.9212 3.78634 9.37641)
(-59.2879 16.9267 12.3563)
(57.7304 28.2228 -21.8317)
(57.2857 46.0211 -9.86987)
(56.4751 41.9896 -2.87046)
(-0.218398 3.771 -3.86073)
(-0.13525 -11.3042 5.51162)
(-0.0921704 -12.5412 3.79756)
(-56.7319 48.1768 -7.41215)
(-57.516 42.037 -5.36836)
(-58.2646 37.4407 -2.43621)
(57.3384 26.5794 -22.9202)
(58.5112 42.3163 -7.05148)
(57.1696 37.6396 3.58695)
(-0.171123 -3.85413 9.25755)
(-0.0744825 -7.77098 1.11377)
(-0.0438516 -8.91496 -3.79934)
(-57.8781 37.7225 5.1669)
(-58.2158 32.9751 6.71959)
(-58.1645 29.9717 6.84056)
(57.1776 23.5346 -30.2753)
(58.7485 5.87147 1.20219)
(58.3306 13.6757 11.1588)
(-0.0841345 -24.8912 9.8604)
(-0.0379812 -12.2279 1.72222)
(-0.027775 -9.50333 0.225767)
(-58.3013 -16.0308 10.8961)
(-58.6792 -6.0573 6.53823)
(-58.6037 -0.359724 6.04481)
(57.5032 -8.53876 -12.349)
(57.4053 2.0274 -31.5546)
(57.4223 21.5823 -28.3736)
(-0.0271243 2.06538 -3.97564)
(-0.133858 -3.92091 -10.272)
(-0.233365 9.45261 -8.83208)
(-55.8133 22.3864 -27.9769)
(-55.39 28.2682 -20.1786)
(-57.1651 46.4494 -14.6991)
(57.5536 -4.03843 9.48494)
(57.5699 8.36616 -38.7922)
(57.4361 21.5224 -37.759)
(-0.0959678 1.00822 13.8027)
(-0.208486 -0.751668 8.05599)
(-0.245959 8.57728 10.1365)
(-56.3735 5.9026 -50.1218)
(-56.6328 19.1741 -26.292)
(-58.1354 36.5438 -3.19795)
(57.197 1.36258 3.41339)
(60.711 7.43597 -47.6206)
(58.5407 13.0084 -47.6681)
(-0.17594 -1.23687 11.5782)
(-0.258726 -8.53137 7.02777)
(-0.231868 -18.5741 18.048)
(-58.8834 4.04122 -65.7959)
(-57.127 19.3558 -20.4879)
(-57.0072 -9.70556 21.7053)
(57.4942 6.08752 -11.3318)
(58.174 2.20397 -65.1473)
(57.7225 -8.32415 -80.8108)
(-0.372919 0.864968 60.4831)
(-0.374133 -0.69235 35.7154)
(-0.379876 -12.6056 34.6067)
(-58.3953 -7.72497 -97.4947)
(-58.8363 9.85026 18.2742)
(-58.4662 -1.05278 62.2864)
(56.7085 1.0906 -126.117)
(56.8212 1.45519 -132.901)
(56.6205 7.47576 -130.345)
(-0.20454 3.24268 80.437)
(-0.200579 4.91584 71.7964)
(-0.212248 0.725661 68.4362)
(-57.1657 2.52489 -130.939)
(-57.1526 -5.13983 -39.383)
(-57.1654 1.95958 106.301)
(54.417 0.1482 -159.717)
(54.4958 0.368638 -161.439)
(54.2573 -1.16411 -160.057)
(0.387813 -0.137936 159.345)
(0.411581 2.15087 175.675)
(0.436672 0.418345 203.038)
(-53.592 -7.10731 -150.614)
(-53.0657 -6.97172 -107.033)
(-54.342 -3.01905 -4.1111)
(57.5159 -20.6834 -29.3498)
(57.4746 -1.67499 -31.6633)
(57.5243 8.8933 -11.8803)
(-0.213751 -9.54624 -10.3032)
(-0.0891838 1.24197 -9.66168)
(0.0365979 -3.67514 -6.27669)
(-57.2533 -50.3368 -16.3824)
(-55.3059 -30.51 -21.9692)
(-55.9748 -24.1621 -30.5327)
(57.2481 -17.6252 -38.037)
(57.3896 -8.71448 -39.8095)
(57.5665 4.36454 9.90024)
(-0.241406 -7.05636 11.8076)
(-0.172747 -0.688223 8.93375)
(-0.0354304 -2.25814 12.1904)
(-58.1803 -39.7205 -3.98554)
(-56.4787 -20.7244 -28.3955)
(-56.5294 -6.59927 -53.2472)
(57.9642 -10.965 -49.1832)
(59.5641 -7.08104 -49.513)
(57.5528 -1.00882 2.56622)
(-0.242851 24.87 16.9948)
(-0.23152 13.1117 11.8127)
(-0.12557 0.875809 7.67905)
(-57.9781 7.8415 21.9012)
(-56.9987 -20.4485 -21.4017)
(-59.1398 -4.03273 -69.1758)
(57.815 7.02923 -81.7374)
(58.1509 -2.17104 -65.6728)
(57.7242 -5.31141 -13.6934)
(-0.43215 13.5585 34.7454)
(-0.42555 0.943463 35.8975)
(-0.414449 -0.770053 60.1544)
(-59.1591 0.225132 64.751)
(-59.1753 -9.27208 24.7953)
(-58.613 8.53593 -98.7601)
(55.9565 -6.7673 -129.636)
(56.6908 -1.45819 -131.996)
(56.2171 -1.13848 -125.364)
(-0.24777 -0.300166 69.513)
(-0.233718 -4.89613 71.3577)
(-0.234733 -3.26856 83.2009)
(-57.7825 -3.01238 109.189)
(-57.1702 6.39894 -52.0098)
(-56.7643 -2.6369 -132.034)
(54.119 0.843752 -159.193)
(54.4064 -0.317166 -161.36)
(54.3024 -0.130052 -159.002)
(0.418932 -0.488988 204.351)
(0.387563 -2.02983 175.081)
(0.362868 -0.0273055 161.831)
(-54.9061 2.54613 -2.95371)
(-53.2644 7.26817 -107.103)
(-53.5597 6.77059 -151.381)
)
;

boundaryField
{
    fuel
    {
        type            fixedValue;
        value           uniform (0 0 0.25);
    }
    primary_air
    {
        type            fixedValue;
        value           uniform (0 0 2.5);
    }
    Secondary_air_RHS
    {
        type            fixedValue;
        value           uniform (0 41.6667 0);
    }
    Secondary_air_LHS
    {
        type            fixedValue;
        value           uniform (0 -41.6667 0);
    }
    outlet
    {
        type            pressureInletOutletVelocity;
        value           nonuniform List<vector> 
18
(
(0 0 -159.193)
(0.418932 -0.488988 204.351)
(0 0 -2.95371)
(0 0 -161.36)
(0.387563 -2.02983 175.081)
(0 0 -107.103)
(0 0 -159.002)
(0.362868 -0.0273055 161.831)
(0 0 -151.381)
(0 0 -159.717)
(0.387813 -0.137936 159.345)
(0 0 -150.614)
(0 0 -161.439)
(0.411581 2.15087 175.675)
(0 0 -107.033)
(0 0 -160.057)
(0.436672 0.418345 203.038)
(0 0 -4.1111)
)
;
    }
    stove_body
    {
        type            noSlip;
    }
    frontAndBack
    {
        type            empty;
    }
}


// ************************************************************************* //
