/*--------------------------------*- C++ -*----------------------------------*\
  =========                 |
  \\      /  F ield         | OpenFOAM: The Open Source CFD Toolbox
   \\    /   O peration     | Website:  https://openfoam.org
    \\  /    A nd           | Version:  6
     \\/     M anipulation  |
\*---------------------------------------------------------------------------*/
FoamFile
{
    version     2.0;
    format      ascii;
    class       volScalarField;
    location    "2";
    object      O2;
}
// * * * * * * * * * * * * * * * * * * * * * * * * * * * * * * * * * * * * * //

dimensions      [0 0 0 0 0 0 0];

internalField   nonuniform List<scalar> 
297
(
0
0
0
0
0
0
0
0
0
0
0
0
0
0
0
0
0
0
0
0
0
0
0
0
0
0
0
0.0687827
0.0853263
0.15686
0.166819
0.162487
0.206218
0.0652752
0.0791427
0.142883
0
8.43563e-06
0.0199829
0.081946
0.128808
0.107505
0
6.10277e-06
0.00658117
0
0
0
0.0529418
0.0254608
0.0750809
0
0
0
0
4.72999e-11
0
0
0
0
5.03939e-05
1.41393e-09
0
0
0
0
0
0
0
0
0
0
0
0
0
0
0
0
0
0
0
0
0
0
0.00822812
6.00054e-07
0.0309937
0
0
0
0
0
0
0
0
0.0100719
0
0
0
0
0
0
0
0
0
0
0
0
0
0
0
0
0
0
0
0
0
0
2.12267e-17
2.51416e-16
0
0
0
4.00998e-18
0
0
4.90432e-21
7.43328e-18
1.71144e-16
0
0
0
4.03216e-18
5.78091e-18
0
0
6.78975e-19
7.44131e-19
0
6.62883e-20
1.56225e-19
0
0
5.78985e-24
0
7.69662e-19
7.69967e-19
0
0
0
0
0
0
7.36104e-17
5.55782e-17
3.95286e-17
0
0
0
0
0
0
1.45628e-21
0
0
3.82678e-20
0
0
5.66249e-20
2.66124e-21
0
5.12789e-21
4.90238e-21
0
0
0
0
6.57623e-20
5.85824e-20
0
1.0653e-20
7.24146e-21
3.36675e-21
7.67993e-20
1.16328e-19
1.89306e-19
2.69268e-18
4.53417e-18
6.62525e-18
4.729e-25
1.92449e-25
4.9765e-25
2.10063e-20
1.29843e-20
1.63135e-20
4.25297e-20
5.51059e-20
5.66532e-20
8.53007e-25
2.19843e-25
7.3255e-25
2.24594e-20
1.34453e-20
1.75465e-20
4.75663e-20
6.26298e-20
6.47585e-20
7.52598e-25
2.21334e-25
7.68853e-25
3.08278e-20
1.94592e-20
5.45459e-20
5.07076e-20
6.67831e-20
1.8428e-18
2.99752e-25
2.92402e-25
6.62656e-25
2.06029e-20
1.53426e-20
3.1715e-20
5.23599e-20
1.50057e-19
8.81924e-19
2.36914e-25
3.37759e-25
9.04322e-25
2.13314e-20
2.70343e-20
2.8971e-20
5.87391e-20
2.00122e-19
7.39186e-19
1.30785e-25
2.58939e-25
7.14989e-25
2.37024e-20
7.26592e-20
1.99858e-19
4.50101e-20
1.94367e-19
6.87129e-19
7.88527e-19
7.87843e-19
7.89649e-19
1.92222e-19
1.72722e-19
3.13421e-19
1.14717e-23
8.5426e-24
1.18555e-23
7.86525e-19
7.83798e-19
7.91356e-19
2.23871e-19
2.05054e-19
3.16189e-19
1.20367e-23
7.28734e-24
1.5035e-23
3.07179e-17
7.84532e-19
7.92693e-19
2.6902e-20
5.57952e-20
4.02099e-19
1.28622e-23
6.89307e-24
1.32151e-23
1.4647e-17
1.34776e-18
7.97023e-19
1.05162e-20
1.77269e-20
1.77512e-19
1.48853e-23
6.80629e-24
6.63526e-24
1.20861e-17
3.03272e-18
8.04384e-19
2.98898e-20
1.63398e-19
1.82711e-19
1.48885e-23
6.16777e-24
2.66363e-24
1.09828e-17
3.10937e-18
7.14564e-19
2.88053e-18
1.07157e-18
3.21263e-19
1.58489e-23
5.86711e-24
1.7856e-24
)
;

boundaryField
{
    fuel
    {
        type            fixedValue;
        value           uniform 0;
    }
    primary_air
    {
        type            fixedValue;
        value           uniform 0.23;
    }
    Secondary_air_RHS
    {
        type            fixedValue;
        value           uniform 0.23;
    }
    Secondary_air_LHS
    {
        type            fixedValue;
        value           uniform 0.23;
    }
    outlet
    {
        type            inletOutlet;
        inletValue      uniform 0;
        value           nonuniform List<scalar> 
18
(
0
2.88053e-18
0
0
1.07157e-18
0
0
3.21263e-19
0
0
2.37024e-20
0
0
7.26592e-20
0
0
1.99858e-19
0
)
;
    }
    stove_body
    {
        type            fixedValue;
        value           uniform 0;
    }
    frontAndBack
    {
        type            empty;
    }
}


// ************************************************************************* //
