/*--------------------------------*- C++ -*----------------------------------*\
  =========                 |
  \\      /  F ield         | OpenFOAM: The Open Source CFD Toolbox
   \\    /   O peration     | Website:  https://openfoam.org
    \\  /    A nd           | Version:  6
     \\/     M anipulation  |
\*---------------------------------------------------------------------------*/
FoamFile
{
    version     2.0;
    format      ascii;
    class       volScalarField;
    location    "2";
    object      p;
}
// * * * * * * * * * * * * * * * * * * * * * * * * * * * * * * * * * * * * * //

dimensions      [1 -1 -2 0 0 0 0];

internalField   nonuniform List<scalar> 
297
(
122555
122555
122555
202910
202910
202910
122555
122555
122555
122555
122555
122555
202910
202910
202910
122555
122555
122555
122555
122555
122555
202910
202910
202910
122555
122555
122555
97063.2
97066.7
97060.1
160484
160512
160558
97104.9
97127.8
97125.3
97073.8
97033.9
97026.5
160182
160292
160257
97118.4
97103.2
97107.8
97045.3
97059.9
96740.1
158273
159481
158337
97049.8
97071.9
96836.6
96149.5
96527.6
96275.9
159338
159056
159127
96273.9
96515.2
96274.7
96544.9
96726.9
96613
160151
159913
159969
96644.9
96658.8
96511.1
96572.8
96858.6
96761.8
160125
160108
160107
96837.8
96898.8
96647.3
95545.6
97172.2
95822.9
152686
158076
154999
95003
97065.5
95866.5
95333.5
97141.2
95672.5
152078
158018
154545
94726
97035.2
95720.5
95310.2
97067.8
95575.3
152554
158118
154664
94641.6
96977.6
95635.3
97088.8
97342.9
97231.2
160118
160198
160275
97186.7
97315.6
97154.3
97191
97411.7
97351.4
160144
160266
160343
97280.5
97373.8
97189.2
97271.5
97399.3
97382.3
160165
160306
160377
97310.7
97356.2
97209.6
97015.1
96863.3
96741.4
160149
160035
159858
97427.3
97621.9
98316.2
96964.1
96642.6
96316.8
160088
159934
159644
97084.5
97088.9
97613.8
96948.1
96568
96184.1
160105
159878
159537
97004.6
96878.8
96829
98497.5
97830.2
97618.5
160055
160097
160064
96806.8
96924.4
97034.1
97729
97260.1
97258.8
159813
160035
160063
96390.8
96701.9
96974.6
96890
96956.3
97134.2
159676
159970
160055
96269.9
96642.8
96966.1
98908.9
99160.8
99048.2
159863
159856
159924
99272
98427.7
97278
98479.7
98603.2
98368
159488
159439
159544
98235.9
97221
96478.5
98010.8
98024.9
97637.3
158875
158947
159027
97072.2
96308.9
95902.4
95351.8
95263.8
95221.2
154776
154759
154577
92710.6
92662.4
92584.7
90251.9
90180.2
90180.7
146885
146860
146807
88823.7
88793.3
88699.4
84125.6
84108.7
84091.3
134856
134760
134660
86576.8
86729.8
86911
97241.2
98410.2
99261.4
159767
159735
159751
98882.1
98993.1
98815.2
96436.7
97205.6
98239.5
159379
159310
159399
98247.7
98513.6
98433.3
95877.8
96318.5
97080.6
158901
158863
158809
97590.3
98006.2
97981.1
92529.7
92607.4
92649.1
154423
154629
154645
95239.5
95248.8
95312.5
88702.9
88804.2
88834.9
146808
146866
146891
90196.7
90204.5
90281.9
86949.6
86775.1
86627.2
134804
134902
134990
84214
84228.6
84242.3
)
;

boundaryField
{
    fuel
    {
        type            zeroGradient;
    }
    primary_air
    {
        type            zeroGradient;
    }
    Secondary_air_RHS
    {
        type            zeroGradient;
    }
    Secondary_air_LHS
    {
        type            zeroGradient;
    }
    outlet
    {
        type            totalPressure;
        rho             rho;
        psi             none;
        gamma           1;
        p0              uniform 100000;
        value           nonuniform List<scalar> 
18
(
99995.9
100000
86552
93492
100000
86521.7
87843.7
100000
86635.5
86497.8
100000
87819.9
86295.3
100000
93578.5
86421.8
100000
99998.7
)
;
    }
    stove_body
    {
        type            zeroGradient;
    }
    frontAndBack
    {
        type            empty;
    }
}


// ************************************************************************* //
