/*--------------------------------*- C++ -*----------------------------------*\
  =========                 |
  \\      /  F ield         | OpenFOAM: The Open Source CFD Toolbox
   \\    /   O peration     | Website:  https://openfoam.org
    \\  /    A nd           | Version:  6
     \\/     M anipulation  |
\*---------------------------------------------------------------------------*/
FoamFile
{
    version     2.0;
    format      ascii;
    class       surfaceScalarField;
    location    "2";
    object      phi;
}
// * * * * * * * * * * * * * * * * * * * * * * * * * * * * * * * * * * * * * //

dimensions      [1 0 -1 0 0 0 0];

internalField   nonuniform List<scalar> 
675
(
2.35834e-06
-1.29717e-05
0.00014039
-2.19827e-06
-1.37138e-05
0.000148047
-1.29236e-05
0.000140502
-1.56727e-05
1.22468e-05
0.000205524
1.53168e-05
1.30432e-05
0.000157335
1.22031e-05
0.000205268
2.52416e-06
0.000139503
-2.37606e-06
0.000147723
0.000139605
2.84422e-06
-1.46194e-05
0.000152155
-2.61774e-06
-1.90307e-05
0.000172531
-1.46292e-05
0.000152504
-2.225e-05
1.4183e-05
0.000199177
2.07631e-05
1.95624e-05
7.59431e-05
1.42446e-05
0.000197361
3.11352e-06
0.000150561
-2.89739e-06
0.000173284
0.000150942
-9.30322e-06
3.15601e-05
1.01299e-05
2.32218e-05
3.27385e-05
4.71236e-05
-3.11178e-05
-4.75761e-05
-2.16296e-05
-3.22167e-05
-1.04766e-05
1.11967e-05
0.00596126
0.00467961
-0.00735884
0.00691665
0.00511463
-0.00278697
0.00791131
0.00229717
-0.000558803
-0.00532955
0.0160234
-0.00459082
-0.00606017
0.0206825
-0.00910892
0.0179298
0.0059162
-0.00797851
0.00688836
-0.00376022
0.00107817
0.0116639
0.00634772
-0.0253218
0.00933736
0.00355155
-0.00395625
0.00791787
0.0037608
0.00387188
-0.00625709
0.0248438
0.00810305
-0.00364543
0.0237124
-0.00913006
0.0431345
0.0148782
-0.029056
0.0115811
-0.00407038
0.00350466
-0.00827307
0.024247
-0.041296
-0.00828709
0.0115245
-0.0154974
0.017231
-0.0217811
-0.0479922
-0.0234667
0.120523
0.0408184
-0.0122055
-0.0414113
-0.0188429
0.119935
-0.00472237
-0.047799
-0.00479343
-0.0161842
-0.0201291
-0.0200168
-0.00875011
-0.0238809
0.0525979
0.00265539
0.00240861
-0.0427219
0.0176031
-0.00969219
-0.0241713
0.036464
0.0151724
0.0194361
0.0477237
-0.091194
-0.00398075
-0.00200917
-0.0295371
0.0530183
0.00828417
0.0653979
-0.0874418
-0.00781431
-0.0310972
0.0583194
0.00915265
-0.0378015
0.0187602
-0.016504
0.0339114
-0.00317204
-0.00753084
-0.0132133
-0.00959479
-0.00630928
-0.0299779
-0.0122953
-0.021466
0.0171914
0.00835157
0.0146165
-0.00972225
0.00747664
-0.0163572
0.0055654
0.0378438
0.00403219
-0.026748
0.00167074
-0.0279269
-0.00919805
0.0105322
-0.00876155
-0.0150964
-0.00208223
0.00244782
-0.0198798
-0.00528362
-0.0182896
0.000152434
0.000232531
0.00538069
-0.00362914
0.000831615
-0.0109886
0.0122231
0.016734
-0.0098249
-0.0168303
-0.0186494
-0.0182731
-0.0155617
-0.000729282
-0.00244439
-0.0440608
-0.00140765
-0.000874002
-0.0139522
-0.00226858
-0.026874
-0.00352113
0.00198372
0.110135
0.00264876
0.000538849
-0.0489976
0.00198181
0.108699
-0.000936005
-0.0507856
-0.000914774
-0.0156635
-0.025016
-0.000993813
-0.000580381
-0.0484111
-0.000530907
-0.000317542
-0.014102
-0.00142425
-0.0319261
-0.00157873
0.000958095
0.10073
0.00229726
-9.38249e-05
-0.0531006
0.00128021
0.0986861
-0.0010282
-0.0546799
7.00434e-06
-0.0167929
-0.0296761
-0.00190092
0.000164347
-0.000292312
0.00189098
-0.00169334
-0.00127517
0.00150213
0.00166478
-0.00113424
0.00160371
-0.000729587
0.00010248
0.00702828
-0.00366308
-0.00343002
-0.0150417
-0.00488836
-0.000954405
-0.00702619
-0.0013198
-0.00456236
-0.0172765
-0.00227577
0.00126613
-0.00270954
0.00550661
-0.00185799
0.000317542
-0.0126726
0.00466453
0.00943273
-0.000523151
0.00418874
-0.00411023
-0.0157245
-0.00777742
-0.00606452
-0.00240078
-0.0163688
0.00983538
0.000654311
-8.94261e-05
-0.0138564
-0.00112641
0.00184132
0.00208649
0.00185039
0.00461032
-0.012172
0.000892316
-0.00280136
-0.00309421
0.00290241
-0.00235563
-0.00145681
-0.00612273
0.000590303
0.00439423
0.00395782
0.00182993
0.00369704
-0.012472
-0.0087902
0.00306426
0.00197065
-0.0124722
0.0021561
0.00295203
-0.00522691
0.000871012
0.00336713
0.00290019
0.00257817
-0.00284845
-0.00360825
0.006266
-0.00262537
-0.0029918
-0.00227464
0.0069223
-0.00137891
0.00143628
-0.00132584
-0.00163233
-0.0184132
-0.000237983
0.00137327
-0.0183626
-0.00186464
0.00181377
-0.00165584
0.00186254
-0.0185625
-0.00391797
0.00183079
0.00132838
-0.00509987
-0.00164022
0.000954529
-0.00280391
0.0028075
-0.00676684
-0.0157942
0.00125926
-0.0171482
-0.000285168
-0.00756326
-0.0123934
-0.0130336
-0.000476007
0.00270342
-0.0129689
6.2706e-05
0.00169272
-0.000213706
0.00157376
-0.0124681
0.00319149
0.001386
0.00023324
0.00282941
-0.00121105
0.00256596
2.25285e-06
0.00747316
-0.00207867
-0.0118989
0.00211249
-0.0134722
8.09706e-05
-0.0107351
-0.0102954
0.00532187
-4.82165e-05
0.00699239
1.99203e-05
-0.00135518
0.00992365
0.00772529
-0.000631535
0.0111761
-0.000868158
0.0018108
0.0154807
-0.000149996
-0.000934877
-0.00984543
0.0161828
0.00292521
-0.00705294
-0.0120507
0.0148276
-4.49998e-05
0.00140211
-0.00297031
0.00275535
0.00228315
0.00156339
0.00430583
-0.00524979
-0.00178503
0.00180549
0.00224588
0.00037767
0.000365049
0.0175272
0.00214442
-0.0181253
0.0171553
0.00216703
0.00178168
0.0134572
0.000137631
-0.00976655
-0.0108789
0.0127642
0.00122779
0.000862732
-0.00178045
0.00343807
-0.0016801
0.000397688
0.00750662
-0.00180308
-0.00121837
-8.01209e-06
0.0029992
0.000312139
-6.85873e-05
0.0127242
0.00199579
-0.0121951
0.0130462
0.00181282
0.00264531
0.00210786
-0.00156178
-0.010315
0.0020498
0.000910262
0.000248142
-0.0103564
0.00138179
0.0148861
-0.00662213
0.000138833
-0.000210466
-0.00578264
0.00914303
-0.00385177
-0.00454714
0.00287171
0.00168817
0.00426446
0.00291157
-0.0117071
0.00257789
-0.0103524
0.00241193
-0.00194709
0.00240557
0.00354443
-0.000182158
0.0019555
-0.000999837
0.0018605
0.012253
-0.0142112
0.0190464
-0.00698587
-9.11305e-05
-0.00203516
0.00229618
0.00143609
0.00567395
0.00228118
-0.0216982
0.00161446
-0.0171719
0.0028678
-0.00155263
0.00338063
0.00374142
0.000148247
0.00320243
-0.000838277
0.00623636
0.00908589
-0.0248634
0.0135263
-0.0112875
0.000391266
-0.0035751
0.00159795
0.00341831
0.0077526
0.00522591
-0.0382685
0.00196012
-0.0217076
-0.00224946
-0.00431625
0.0115396
-0.00660987
0.000498508
0.0122809
0.00133853
0.015122
0.00990363
-0.039096
0.00215909
-0.0030507
0.0130231
0.0166067
0.0118811
-0.0249226
-0.00111023
0.0164377
-0.0368817
0.0157619
-0.0384639
-0.00954453
-0.00131344
0.0343797
-0.00751096
0.00404304
0.0228186
0.00324812
0.0202983
0.00660936
-0.0470056
0.0155974
-0.00797636
0.0318988
0.00833956
0.006604
-0.0398569
0.00555645
0.00694789
-0.041034
0.00755084
-0.040446
0.0117787
-0.00252748
0.0317795
0.0131266
-0.00314556
0.031525
0.00120279
0.0397171
-0.00434075
-0.0452672
0.00207755
-0.0176144
0.0351275
0.000849171
0.0143805
1.68278e-05
0.015209
0.0147791
0.00533584
-0.0232507
0.00506725
-0.022296
-0.0210504
-0.0160263
-0.0160378
-0.0191971
0.000962475
-0.00031835
-0.0122698
0.000161348
-0.00707729
0.00198272
-0.0142445
-0.00447997
-0.00257748
0.00124506
-0.00324973
-0.00311055
0.00203072
-0.00304048
0.00176431
-0.00414654
-0.0108304
0.00442493
-0.0116901
0.00136945
-0.0136695
0.000872597
1.63806e-05
-0.00915341
-0.000155173
-0.0114405
0.00156411
-0.0249857
-0.00413957
-0.00170745
0.00588027
-0.00396034
-0.00203383
0.00372072
-0.00234942
0.00170946
-0.00510099
-0.0177437
0.00219534
-0.021034
0.00120165
-0.00167715
-0.00128268
0.0129031
-0.0097791
-0.00047666
-0.00286765
0.0045218
-0.0392967
0.00752653
-0.00185846
0.0144144
0.00287425
-0.00534628
0.013214
-0.00162766
0.0107257
-0.00818513
-0.0212779
0.00410152
-0.0386812
0.00366491
-0.0158893
-0.00250926
0.0313221
-0.00606128
-0.00353255
-0.00915864
0.00172763
-0.0470508
0.00651387
-0.0155513
0.0209624
0.00928254
-0.0163316
0.0232768
-0.0117423
0.0334992
0.000854313
-0.0376125
-0.0173383
-0.0367528
-0.0253753
-0.00202262
-0.00109898
0.0345093
0.00418634
0.00305746
-0.0183718
0.00247824
-0.0452394
-0.0124822
-0.00751688
0.0399416
-0.0113281
-0.0068471
0.0321099
-0.00686817
0.0316205
-0.0048306
-0.0402528
-0.00754223
-0.0408364
-0.0396999
0.016202
0.0207143
0.0158634
0.0220904
0.0230609
-0.00444712
-0.0147296
-0.00473479
-0.0149775
-0.0144093
1.45989e-05
-0.000753754
)
;

boundaryField
{
    fuel
    {
        type            calculated;
        value           nonuniform List<scalar> 
36
(
0.000129779
0.00021487
0.000129779
0.000129779
0.00021487
0.000129779
0.000129779
0.00021487
0.000129779
-0.000129779
-0.00021487
-0.000129779
-0.000129779
-0.00021487
-0.000129779
-0.000129779
-0.00021487
-0.000129779
0
0
0
0
0
0
0
0
0
0
0
0
0
0
0
0
0
0
)
;
    }
    primary_air
    {
        type            calculated;
        value           nonuniform List<scalar> 9(-0.00319182 -0.00527734 -0.00319319 -0.00319193 -0.00527825 -0.00319394 -0.00319172 -0.00527979 -0.00319386);
    }
    Secondary_air_RHS
    {
        type            calculated;
        value           nonuniform List<scalar> 9(0.00595195 0.00962763 0.00595466 0.00594261 0.00959943 0.00594559 0.00593657 0.00960683 0.0059403);
    }
    Secondary_air_LHS
    {
        type            calculated;
        value           nonuniform List<scalar> 9(0.00593473 0.00948397 0.00590102 0.00592155 0.00944621 0.00588382 0.0059201 0.00947575 0.00587857);
    }
    outlet
    {
        type            calculated;
        value           nonuniform List<scalar> 
18
(
-0.00239153
0.0798531
-0.0549884
-0.0401177
0.0694868
-0.0550368
-0.052432
0.0643741
-0.0548533
-0.0550906
0.0641171
-0.0524795
-0.0554159
0.0693077
-0.039884
-0.055214
0.0806316
-0.00192431
)
;
    }
    stove_body
    {
        type            calculated;
        value           uniform 0;
    }
    frontAndBack
    {
        type            empty;
        value           nonuniform 0();
    }
}


// ************************************************************************* //
