/*--------------------------------*- C++ -*----------------------------------*\
  =========                 |
  \\      /  F ield         | OpenFOAM: The Open Source CFD Toolbox
   \\    /   O peration     | Website:  https://openfoam.org
    \\  /    A nd           | Version:  6
     \\/     M anipulation  |
\*---------------------------------------------------------------------------*/
FoamFile
{
    version     2.0;
    format      ascii;
    class       volScalarField;
    location    "2";
    object      T;
}
// * * * * * * * * * * * * * * * * * * * * * * * * * * * * * * * * * * * * * //

dimensions      [0 0 0 1 0 0 0];

internalField   nonuniform List<scalar> 
297
(
291.554
291.549
291.554
292.982
292.992
292.982
291.555
291.55
291.555
291.565
291.675
291.565
293.103
294.281
293.096
291.571
291.685
291.571
292.957
292.854
292.933
294.06
439.463
294.054
293.364
293.484
293.361
392.172
380.877
339.792
335.245
339.438
324.15
391.67
382.732
345.844
433.665
430.227
403.351
382.734
358.081
345.93
429.62
427.455
408.274
433.91
420.615
502.09
403.397
416.357
402.382
429.698
418.648
524.179
393.042
356.302
412.172
457.077
437.323
471.677
389.437
377.414
421.005
402.903
355.964
379.657
457.166
430.887
471.798
354.296
377.218
421.898
366.833
333.32
346.69
457.173
369.898
471.862
324.124
359.544
397.916
436.104
373.543
510.351
424.317
434.62
437.27
429.564
387.588
535.062
418.221
356.171
453.262
438.929
434.551
444.707
414.531
377.452
467.726
403.791
353.353
437.61
453.937
434.843
468.685
402.049
377.408
449.612
322.952
316.771
311.128
393.836
360.154
467.289
308.42
321.581
331.254
306.828
307.132
306.626
310.244
338.127
447.431
303.312
318.607
320.211
306.094
306.7
306.757
315.034
330.094
367.259
308.071
319.966
319.318
300.736
300.687
300.238
300.732
305.512
304.999
302.847
303.601
304.207
306.003
301.937
301.641
422.717
368.38
329.16
315.231
305.779
306.215
307.348
306.044
310.739
365.399
361.587
348.295
315.479
308.965
309.147
303.455
303.077
316.103
304.789
338.924
392.561
299.646
302.754
304.941
304.087
303.537
306.997
308.787
324.452
318.091
301.698
302.167
303.093
304.6
304.077
305.944
314.779
316.706
314.477
305.142
304.412
305.036
304.059
303.974
303.448
303.335
304.496
304.368
298.575
300.382
299.502
304.192
303.755
303.065
303.715
304.697
304.516
298.912
301.927
301.69
304.448
303.036
302.42
304.207
306.965
310.36
298.549
302.714
305.035
302.405
302.22
301.489
302.81
305.842
307.716
298.337
300.313
301.243
299.059
298.889
297.915
301.085
303.957
303.921
294.769
294.657
296.636
291.907
291.873
291.21
291.915
290.141
286.989
290.956
290.772
299.91
300.236
301.243
301.035
304.627
304.8
304.248
303.094
303.588
303.826
301.479
301.849
300.403
304.62
304.817
304.413
302.701
303.433
304.087
312.019
302.482
299.484
336.79
315.741
307.122
301.955
303.109
304.32
305.111
300.571
296.756
319.835
311.329
304.505
301.173
302.799
302.642
300.761
295.858
294.836
311.516
307.087
302.428
297.565
296.716
298.338
303.678
291.931
291.228
291.775
291.516
293.102
291.168
291.824
291.92
)
;

boundaryField
{
    fuel
    {
        type            fixedValue;
        value           uniform 293;
    }
    primary_air
    {
        type            fixedValue;
        value           uniform 293;
    }
    Secondary_air_RHS
    {
        type            fixedValue;
        value           uniform 293;
    }
    Secondary_air_LHS
    {
        type            fixedValue;
        value           uniform 293;
    }
    outlet
    {
        type            inletOutlet;
        inletValue      uniform 293;
        value           nonuniform List<scalar> 
18
(
293
291.78
293
293
291.52
293
293
293.106
293
293
291.911
293
293
290.142
293
293
286.989
293
)
;
    }
    stove_body
    {
        type            fixedValue;
        value           uniform 293;
    }
    frontAndBack
    {
        type            empty;
    }
}


// ************************************************************************* //
