/*--------------------------------*- C++ -*----------------------------------*\
  =========                 |
  \\      /  F ield         | OpenFOAM: The Open Source CFD Toolbox
   \\    /   O peration     | Website:  https://openfoam.org
    \\  /    A nd           | Version:  6
     \\/     M anipulation  |
\*---------------------------------------------------------------------------*/
FoamFile
{
    version     2.0;
    format      ascii;
    class       volVectorField;
    location    "2";
    object      U;
}
// * * * * * * * * * * * * * * * * * * * * * * * * * * * * * * * * * * * * * //

dimensions      [0 1 -1 0 0 0 0];

internalField   nonuniform List<vector> 
297
(
(74.8591 -0.0153192 0.196264)
(74.8576 0.00029365 0.202043)
(74.8591 0.0155713 0.196351)
(7.34909e-05 0.0109582 0.301207)
(7.348e-05 -0.000351597 0.267388)
(7.34495e-05 -0.0117105 0.301841)
(-74.8589 -0.0141296 0.195404)
(-74.8574 0.000285446 0.193689)
(-74.859 0.0143422 0.19538)
(74.8614 -0.0342662 0.221596)
(74.8899 0.000484508 0.235054)
(74.8612 0.0346529 0.221753)
(7.36087e-05 0.0269853 0.263678)
(7.37458e-05 -0.00167125 0.343483)
(7.35661e-05 -0.030975 0.260599)
(-74.8626 -0.0339473 0.220981)
(-74.8918 0.000414113 0.240703)
(-74.8624 0.0344329 0.22132)
(75.2335 -0.256561 0.483397)
(75.2087 0.002647 0.532608)
(75.2271 0.25695 0.483861)
(7.25354e-05 -0.0145524 0.15387)
(7.30906e-05 -0.00925465 -0.506463)
(7.24039e-05 0.0244366 0.157065)
(-75.3378 -0.265989 0.478222)
(-75.3701 0.00252988 0.531489)
(-75.3369 0.265696 0.478539)
(65.9388 4.73391 -5.6303)
(63.9393 4.76242 -2.65385)
(56.6041 2.7551 1.34802)
(0.00546076 0.939212 4.55883)
(0.00809282 -0.773132 4.01385)
(0.00820194 -0.018724 5.38993)
(-65.8538 6.76122 -5.81915)
(-64.2603 4.80071 -3.18213)
(-57.6821 2.30047 1.6332)
(73.3744 7.17536 -9.21681)
(72.8262 7.41444 -7.77988)
(68.2032 8.34577 13.5656)
(0.00674415 9.82714 38.3619)
(0.00971791 0.662948 26.8243)
(0.0110659 0.721094 35.2185)
(-72.626 12.0469 -9.23742)
(-72.2704 9.39863 -6.88678)
(-69.1045 9.86853 10.6684)
(72.4503 4.47946 -11.4349)
(70.8621 -7.86803 -5.76359)
(84.0664 -24.5744 19.8796)
(0.00073336 -7.82864 53.4309)
(0.00196761 -4.10023 11.8454)
(0.0155311 8.15969 53.11)
(-71.6927 11.0885 -12.5102)
(-70.5533 -10.4081 -3.77008)
(-87.7599 -12.7228 25.9553)
(66.5806 -6.57977 -44.1781)
(59.9571 -2.40423 -28.762)
(69.334 -10.6434 -40.2164)
(0.0225566 -2.15648 2.6027)
(-0.0021797 8.32505 -33.4385)
(-0.000234157 -5.95224 25.8974)
(-65.2229 3.49286 -59.6561)
(-63.5406 -3.09701 -27.1623)
(-70.9136 2.47818 -38.144)
(68.6039 11.3219 -30.6408)
(60.068 -0.775213 -36.6168)
(64.1983 -23.5241 -26.3424)
(0.0182593 -0.0988216 -2.75558)
(-0.0116935 4.72344 -15.083)
(-0.0192435 -5.90298 20.2975)
(-60.1421 16.0615 -34.8259)
(-63.7167 -5.00337 -36.0778)
(-71.7937 -4.48391 -20.5124)
(62.2769 18.5474 -26.4175)
(56.4504 14.5959 -33.677)
(58.7343 -31.851 -31.7231)
(0.0483814 -3.10018 6.04725)
(0.00594438 0.183151 -17.0297)
(-0.0216075 -2.97059 17.9815)
(-54.9812 16.1743 -30.513)
(-60.7578 -19.8249 -27.7811)
(-67.3198 -22.5358 -20.3214)
(62.4422 6.83968 -52.7351)
(58.9092 -10.8518 -14.8989)
(78.501 -42.9188 -33.27)
(-0.0962813 -6.02518 73.1465)
(-0.0171764 -3.10024 -35.705)
(0.00795831 0.162132 70.4996)
(-63.8721 12.9157 -60.6576)
(-62.0645 -16.2378 -16.6518)
(-82.7727 -26.8206 -33.0143)
(61.9883 1.53148 -56.6003)
(57.4347 -6.63844 -13.213)
(68.5953 -23.3149 -40.9832)
(-0.0911018 -5.02293 81.5968)
(-0.0176391 0.59736 -37.2662)
(0.00832055 0.446693 77.1609)
(-60.1932 6.80794 -64.0846)
(-61.6337 -11.1247 -16.4586)
(-71.1992 -8.31816 -39.0935)
(63.8118 -2.22202 -53.6121)
(59.1059 -4.20735 -17.399)
(62.781 -18.4676 -41.152)
(-0.0970232 -3.94531 80.7315)
(-0.0156978 2.65991 -35.8997)
(0.0101297 -5.39015 80.8379)
(-53.1006 6.21539 -63.0107)
(-62.7011 -9.08943 -20.4662)
(-64.9906 -4.4256 -39.232)
(53.6449 40.2642 -7.52126)
(52.8006 13.4517 -9.04058)
(52.0823 -43.1788 -9.42416)
(0.0153531 -6.29449 0.753731)
(-0.00390972 -4.64143 -6.69472)
(-0.0142834 1.71449 11.7962)
(-51.5099 38.8243 -9.23427)
(-53.7467 -13.314 -9.42305)
(-54.8686 -41.8268 -8.42486)
(51.5064 37.4458 -0.73435)
(51.6003 27.0012 -4.00607)
(51.7635 -28.288 4.08728)
(0.0110605 4.60858 -1.64282)
(-0.00509543 -1.99797 -5.06851)
(-0.028843 -0.324409 5.85887)
(-51.1282 28.3774 4.23363)
(-53.4792 -21.1959 -2.14857)
(-53.7459 -36.0725 -0.356235)
(51.6231 3.66701 4.20435)
(51.7695 9.88788 1.96766)
(51.8246 7.27427 -0.910142)
(0.0049307 -7.10422 -0.190835)
(-0.00565893 -3.35246 -1.25043)
(-0.0253283 3.99975 -0.200334)
(-52.0062 -6.0394 -0.694481)
(-54.0027 -10.145 2.15721)
(-54.0357 0.169014 4.55952)
(50.4423 -49.9527 -7.08355)
(49.7212 -53.2548 -9.66692)
(49.4953 -57.7737 -11.2173)
(0.0493293 -1.539 -4.89363)
(0.0921695 -10.489 -8.09945)
(0.190227 -9.94741 -11.0108)
(-49.6529 -47.3401 -7.26383)
(-50.9895 -49.0908 -15.4409)
(-50.8781 -30.4099 -22.8602)
(51.3768 -35.6971 9.11805)
(51.1253 -41.2817 7.19148)
(50.9811 -46.1588 3.76473)
(0.0201477 10.8567 5.28616)
(0.0654732 7.45283 6.19498)
(0.170036 0.591738 11.5195)
(-52.2852 -37.8393 1.40155)
(-51.8081 -42.0854 -10.9681)
(-50.5441 -24.9773 -24.6929)
(51.8222 9.299 3.59647)
(51.886 14.3209 4.95812)
(52.1585 24.0642 9.18275)
(0.00827623 15.2421 1.20066)
(0.0448954 20.549 1.82252)
(0.0882909 29.6211 9.54275)
(-53.3737 -8.47339 14.9573)
(-52.3927 1.0196 21.7238)
(-50.8016 -21.8653 -35.3381)
(50.7278 30.8868 -22.7499)
(50.0262 47.7301 -7.47729)
(50.697 42.2647 -1.68314)
(-0.203709 9.83061 -7.51946)
(-0.12211 -2.45091 -0.270922)
(-0.0913867 -10.8336 1.35063)
(-49.4977 56.407 -10.3795)
(-50.0638 50.2903 -8.61354)
(-50.9857 45.8113 -4.86888)
(50.2322 26.1413 -23.7669)
(51.2277 44.2255 -6.19074)
(50.5703 37.9424 4.96364)
(-0.164305 1.13193 10.4805)
(-0.0720924 -3.33197 3.3151)
(-0.0360043 -7.96688 -0.633391)
(-50.9114 44.927 4.27114)
(-51.0871 39.8021 7.49104)
(-50.8431 35.4419 8.10578)
(50.269 23.236 -33.1719)
(51.5149 5.56637 5.26146)
(51.3917 15.3524 12.6705)
(-0.0767374 -25.1169 8.32542)
(-0.0394243 -15.4973 1.80834)
(-0.0211738 -14.4848 -0.703915)
(-51.1852 -21.2476 10.5487)
(-51.4758 -11.3113 5.96855)
(-51.3777 -6.19838 5.15445)
(50.3217 -10.5303 -12.7899)
(50.2455 2.34084 -34.199)
(50.3633 21.2361 -29.852)
(0.0437162 4.39519 -7.9683)
(-0.0884449 1.35944 -9.79012)
(-0.21235 10.8729 -9.00954)
(-48.5971 25.1122 -34.2814)
(-48.4292 32.6124 -25.3739)
(-50.1363 54.333 -19.3088)
(50.3604 -5.85701 10.5803)
(50.3886 9.23828 -44.3263)
(50.2527 19.9995 -42.6308)
(-0.0293134 2.41129 12.3805)
(-0.166591 2.98661 9.03383)
(-0.227539 9.50319 10.1105)
(-49.2143 6.10394 -58.0532)
(-49.5144 23.3979 -31.8877)
(-51.0549 41.4046 -5.7961)
(50.2889 0.966553 5.04602)
(52.7344 5.17617 -54.098)
(51.4567 11.5888 -55.2112)
(-0.112372 0.45459 4.67667)
(-0.205581 -7.84589 10.5115)
(-0.206802 -19.3321 18.3715)
(-51.5638 3.07958 -74.3345)
(-50.0835 21.542 -22.1149)
(-50.1184 -16.1015 21.9552)
(50.4113 6.78582 -15.6229)
(50.9216 1.82638 -72.2958)
(50.6834 -7.04399 -89.7113)
(-0.328909 0.627435 59.2172)
(-0.326367 -1.54117 33.1248)
(-0.333645 -12.3587 32.824)
(-51.2203 -9.53489 -103.042)
(-51.2153 12.9801 30.6175)
(-51.3943 -5.24359 71.5273)
(49.5754 0.926892 -131.851)
(49.6402 2.42317 -138.408)
(49.5079 6.63389 -136.376)
(-0.186435 3.09094 86.6651)
(-0.182797 4.4933 71.9214)
(-0.195474 0.316693 69.1851)
(-49.756 2.98025 -136.559)
(-49.8272 -5.01542 -66.7578)
(-49.8334 -0.0736728 113.654)
(47.6213 0.177234 -164.773)
(47.6744 0.227866 -166.199)
(47.5043 -0.814956 -165.308)
(0.331271 0.208247 162.068)
(0.352 1.95329 174.517)
(0.373204 -0.0261009 201.593)
(-46.8092 -5.94539 -155.315)
(-46.5003 -7.29553 -109.249)
(-47.683 -4.66065 -1.48042)
(50.222 -55.0762 -19.9707)
(48.5229 -32.9477 -26.075)
(48.9616 -25.2714 -34.9365)
(0.196772 -12.8996 -12.6126)
(0.0704839 -3.12972 -12.2838)
(-0.0540379 -4.70865 -9.29815)
(-50.4074 -22.3778 -34.4621)
(-50.4451 -2.25695 -35.7911)
(-50.4143 10.3299 -14.0827)
(51.0085 -41.661 -6.92947)
(49.4646 -23.838 -31.9984)
(49.4296 -6.04982 -58.0276)
(0.218516 -10.9857 11.3612)
(0.157569 -4.15324 11.0183)
(0.0234009 -3.47564 11.6856)
(-50.2265 -19.9846 -41.7195)
(-50.4076 -6.04397 -42.2774)
(-50.3871 5.63747 10.6258)
(51.2274 19.4855 22.201)
(50.043 -21.3709 -21.7291)
(51.7211 -2.80023 -74.0953)
(0.220722 22.6127 17.9744)
(0.207786 9.65939 11.8358)
(0.109153 0.030403 1.29116)
(-51.0829 -12.6663 -57.3042)
(-52.7422 -2.54014 -52.2911)
(-50.2723 -0.737339 4.70364)
(52.0408 6.69639 69.8918)
(51.253 -14.444 26.5611)
(50.9379 9.54005 -103.176)
(0.356837 14.244 35.7018)
(0.337534 0.648898 35.0148)
(0.333799 -0.576159 58.5698)
(-50.5433 9.30635 -85.9557)
(-51.0027 -4.56495 -72.0465)
(-50.4319 -5.43749 -16.8611)
(50.5238 0.705978 112.915)
(50.0157 4.93156 -70.2619)
(49.7562 -3.02796 -136.601)
(0.201826 0.059664 70.5406)
(0.186265 -4.55934 71.677)
(0.189663 -3.14033 85.2117)
(-49.4232 -6.9046 -135.671)
(-49.2403 -1.3521 -137.526)
(-49.4331 -1.19614 -131.635)
(48.3076 5.07832 -2.67128)
(46.7101 7.2875 -110.033)
(46.8716 5.83057 -155.141)
(-0.367561 0.392983 202.909)
(-0.34308 -1.87205 175.784)
(-0.323149 -0.160852 163.377)
(-47.4842 0.833387 -164.389)
(-47.6198 -0.31436 -164.603)
(-47.6103 -0.100461 -163.799)
)
;

boundaryField
{
    fuel
    {
        type            fixedValue;
        value           uniform (0 0 0.25);
    }
    primary_air
    {
        type            fixedValue;
        value           uniform (0 0 2.5);
    }
    Secondary_air_RHS
    {
        type            fixedValue;
        value           uniform (0 47.2222 0);
    }
    Secondary_air_LHS
    {
        type            fixedValue;
        value           uniform (0 -47.2222 0);
    }
    outlet
    {
        type            pressureInletOutletVelocity;
        value           nonuniform List<vector> 
18
(
(0 0 -2.67128)
(-0.367561 0.392983 202.909)
(0 0 -164.389)
(0 0 -110.033)
(-0.34308 -1.87205 175.784)
(0 0 -164.603)
(0 0 -155.141)
(-0.323149 -0.160852 163.377)
(0 0 -163.799)
(0 0 -164.773)
(0.331271 0.208247 162.068)
(0 0 -155.315)
(0 0 -166.199)
(0.352 1.95329 174.517)
(0 0 -109.249)
(0 0 -165.308)
(0.373204 -0.0261009 201.593)
(0 0 -1.48042)
)
;
    }
    stove_body
    {
        type            noSlip;
    }
    frontAndBack
    {
        type            empty;
    }
}


// ************************************************************************* //
