/*--------------------------------*- C++ -*----------------------------------*\
  =========                 |
  \\      /  F ield         | OpenFOAM: The Open Source CFD Toolbox
   \\    /   O peration     | Website:  https://openfoam.org
    \\  /    A nd           | Version:  6
     \\/     M anipulation  |
\*---------------------------------------------------------------------------*/
FoamFile
{
    version     2.0;
    format      ascii;
    class       volScalarField;
    location    "3";
    object      p;
}
// * * * * * * * * * * * * * * * * * * * * * * * * * * * * * * * * * * * * * //

dimensions      [1 -1 -2 0 0 0 0];

internalField   nonuniform List<scalar> 
297
(
122961
122961
122961
202928
202930
202929
122961
122961
122961
122950
122951
122950
202943
202941
202943
122950
122951
122950
122948
122949
122948
202955
202952
202955
122948
122949
122948
96936.8
96940.8
96959.8
160828
160818
160848
96919.4
96924.1
96942.3
97037.4
96947.9
97059.8
160668
160802
160619
97016.3
96933.3
97046.4
96409.5
96298.1
96315
156762
159347
156572
96409.9
96298.2
96312.7
94726.6
95984.1
94858.3
158402
158241
158603
94755.2
95960.8
94857.8
96575.9
96747.1
96639.3
160932
160497
160897
96563.3
96698.6
96703.4
96730.6
96932.7
96843.7
160816
160841
160860
96607.1
96850.8
96972.5
90521.1
95901.1
90047.8
144939
156717
144689
90655.8
95883.6
90114
89942
95883.4
89450.5
143316
156501
143219
90100.7
95864.3
89532.9
90200.1
95903.1
89775.7
144222
156589
144264
90364.5
95882.5
89868.7
97038.3
97213.2
97118.8
160734
160868
160849
96865.1
97095.7
97190.5
97103.8
97257.5
97182.8
160771
160895
160869
96941.9
97136
97229.8
97131.4
97255.1
97204.5
160806
160911
160880
96974.9
97140.3
97240.4
97078.6
97011.2
96977.4
160756
160737
160680
97085.3
96991.4
96929.9
97008.1
96845.1
96712.4
160737
160710
160611
97044.7
96888.7
96740.5
96998.6
96809
96661.4
160744
160668
160491
97033.2
96861.6
96685.6
96765.5
96862.7
96943.8
160143
160406
160486
96922.9
96867.5
96867.3
96376
96660.1
96874.5
160034
160393
160508
96372.8
96588.2
96789.8
96260
96613.1
96871.9
159788
160306
160520
96213.1
96520.3
96792.9
99264.9
98384
97240.2
160129
159983
159883
99250.1
98612.2
97579.4
98288.2
97169.6
96441.9
159398
158995
159278
98357.7
97573.7
96667.4
97271.5
96359.8
95856.3
158581
158086
158345
97216.4
96501
95919
93437.4
93352.2
93255.9
153757
153579
153322
92596.4
92454.4
92288.1
91012.5
91127.5
91189.3
147822
147836
147785
88761.4
88700.4
88656.5
87146.8
87261.3
87409.2
138337
138357
138340
86842.2
86998.6
87266.4
97332.8
98095
98670.6
160554
160554
160654
97149.2
97692.8
98136.9
96852
97338.8
98016.6
160288
160126
160338
96776.5
97112.4
97621
96575.1
96891.6
97429.9
159902
159768
160029
96521.9
96725.8
97107.9
95623.2
95652.8
95722.4
158155
158243
158337
95379.4
95414.2
95464.3
94269.6
94224.3
94149.7
154854
154869
154864
94379
94362
94318.8
90686.7
90602.7
90528.3
144134
144111
144077
91529.9
91443.5
91344.2
)
;

boundaryField
{
    fuel
    {
        type            zeroGradient;
    }
    primary_air
    {
        type            zeroGradient;
    }
    Secondary_air_RHS
    {
        type            zeroGradient;
    }
    Secondary_air_LHS
    {
        type            zeroGradient;
    }
    outlet
    {
        type            totalPressure;
        rho             rho;
        psi             none;
        gamma           1;
        p0              uniform 100000;
        value           nonuniform List<scalar> 
18
(
92486.4
100000
92967.6
92293.8
100000
92840.9
92061
100000
92593.3
88690.7
100000
87850.9
88897.5
100000
91925.8
89318.4
100000
99795.6
)
;
    }
    stove_body
    {
        type            zeroGradient;
    }
    frontAndBack
    {
        type            empty;
    }
}


// ************************************************************************* //
