/*--------------------------------*- C++ -*----------------------------------*\
  =========                 |
  \\      /  F ield         | OpenFOAM: The Open Source CFD Toolbox
   \\    /   O peration     | Website:  https://openfoam.org
    \\  /    A nd           | Version:  6
     \\/     M anipulation  |
\*---------------------------------------------------------------------------*/
FoamFile
{
    version     2.0;
    format      ascii;
    class       volScalarField;
    location    "3";
    object      p;
}
// * * * * * * * * * * * * * * * * * * * * * * * * * * * * * * * * * * * * * //

dimensions      [1 -1 -2 0 0 0 0];

internalField   nonuniform List<scalar> 
297
(
112021
112021
112021
182610
182610
182610
112021
112021
112021
112021
112021
112021
182610
182610
182610
112021
112021
112021
112020
112020
112020
182611
182611
182611
112020
112020
112020
97528.2
97553.8
97538.6
159446
159430
159447
97538.3
97553.8
97528.4
97476.3
97500.6
97498
159256
159273
159256
97498.1
97500.6
97476.3
97369.9
97495.9
97451
158212
158764
158212
97451.3
97496.8
97370
97384.5
97444.2
97343.3
159281
158986
159280
97343.6
97444.2
97383.8
97341.6
97386.3
97263.2
159211
159162
159212
97261.5
97385.3
97341.6
97274.3
97380.4
97153.2
158958
159034
158962
97150.9
97380.4
97276.9
97233.9
97588.3
97185.8
156384
158289
156379
97188.3
97591
97232
97204.1
97584.8
97150.8
156175
158352
156170
97153.2
97586.8
97202
97190.5
97570.1
97144.1
156371
158516
156367
97146.2
97569.3
97188
97598.7
97626.8
97549.2
158931
159032
158935
97548
97627.7
97602.1
97663.4
97675.2
97635.1
159046
159046
159050
97634.2
97676.3
97667.1
97686.5
97684.8
97677.1
159122
159074
159127
97676.4
97686
97690.3
97693.6
97636
97600.6
158537
158689
158902
97664.3
97603.5
97557.6
97637.6
97538.9
97454.1
158798
158797
158911
97631.4
97540.6
97447.2
97613.1
97512.9
97432.5
158916
158803
158724
97614.6
97520.9
97418.6
97559.9
97604
97662.6
158904
158689
158535
97604.6
97638.9
97694.9
97449.4
97541
97629.6
158913
158796
158796
97458
97541.8
97638.9
97420.7
97521.2
97612.9
158727
158803
158914
97436.3
97515.7
97614.5
98421.5
98175.3
97763.7
159072
159055
159030
98671.6
98380.6
97876.6
98121.6
97810.7
97532.1
158985
158948
158987
98347.6
97964.9
97598.7
97783.1
97506.5
97326.2
158766
158638
158602
97991.8
97619.1
97375.4
96593.3
96520.7
96502.9
157258
157159
157091
96724.1
96627.6
96611.4
95338.6
95374.5
95426.7
153225
153209
153210
95221
95270.5
95339.3
92443.6
92524.7
92588.7
141633
141655
141690
92059.4
92132.8
92196.9
97872
98375.3
98665.7
159026
159050
159067
97760.8
98172.3
98418.2
97594.3
97960.4
98343.7
158983
158943
158981
97529.3
97808
98119.1
97371.4
97615.8
97992.7
158597
158632
158761
97322.9
97503.4
97780.9
96607.4
96623.2
96720.9
157078
157146
157246
96494.3
96513.6
96589.2
95344.7
95275.6
95222.8
153230
153229
153246
95436.5
95382.1
95342.3
92196.8
92132.7
92059.3
141689
141655
141634
92586.1
92522
92440.8
)
;

boundaryField
{
    fuel
    {
        type            zeroGradient;
    }
    primary_air
    {
        type            zeroGradient;
    }
    Secondary_air_RHS
    {
        type            zeroGradient;
    }
    Secondary_air_LHS
    {
        type            zeroGradient;
    }
    outlet
    {
        type            totalPressure;
        rho             rho;
        psi             none;
        gamma           1;
        p0              uniform 100000;
        value           nonuniform List<scalar> 
18
(
93551.3
100000
93841.2
93170.7
100000
93536.8
92006.1
100000
92324.7
92324.7
100000
92004.9
93536.7
100000
93169.4
93841.1
100000
93550.1
)
;
    }
    stove_body
    {
        type            zeroGradient;
    }
    frontAndBack
    {
        type            empty;
    }
}


// ************************************************************************* //
