/*--------------------------------*- C++ -*----------------------------------*\
  =========                 |
  \\      /  F ield         | OpenFOAM: The Open Source CFD Toolbox
   \\    /   O peration     | Website:  https://openfoam.org
    \\  /    A nd           | Version:  6
     \\/     M anipulation  |
\*---------------------------------------------------------------------------*/
FoamFile
{
    version     2.0;
    format      ascii;
    class       surfaceScalarField;
    location    "3";
    object      phi;
}
// * * * * * * * * * * * * * * * * * * * * * * * * * * * * * * * * * * * * * //

dimensions      [1 0 -1 0 0 0 0];

internalField   nonuniform List<scalar> 
675
(
-3.48336e-06
-0.000575864
0.00578812
3.89367e-06
-0.000567373
0.00576853
-0.000576047
0.00578872
1.5628e-06
0.000575865
0.00744154
-2.52145e-07
0.000567374
0.00746484
0.000576048
0.00744247
-3.48644e-06
0.00578812
3.89502e-06
0.00576853
0.00578872
-4.43628e-06
-0.000766693
0.00655935
4.6787e-06
-0.000831982
0.00659051
-0.00076719
0.00656067
7.22382e-05
0.000766693
0.00583481
-8.11004e-05
0.000831981
0.00595685
0.00076719
0.00582594
-4.43837e-06
0.00655934
4.67972e-06
0.00659051
0.00656067
-1.92244e-06
0.00135323
5.52188e-06
0.00137512
0.00135816
-5.6424e-05
-0.00135323
5.54745e-05
-0.00137512
-0.00135816
-1.92245e-06
5.52162e-06
-0.0012624
0.00458665
0.00942951
-0.00445425
0.00452791
0.0114197
0.00676296
0.00154234
9.69294e-06
-0.00398131
0.0297191
-0.00524311
-0.00404963
0.0349907
-0.00612346
0.0288082
-0.00133101
0.0101019
-0.00418729
0.0115591
0.00244314
0.014098
0.0123147
-0.0169848
-0.0195307
0.00183115
0.0432182
0.0147543
-0.0327498
0.00348355
-0.0119775
0.0505307
-0.0103644
-0.00127815
0.0519482
-0.0138955
0.0470913
0.0128706
-0.0147437
-0.0195013
0.0426587
-0.0309511
0.0111382
0.0487812
-0.0769021
-0.00952883
0.0171116
0.0467765
0.0456268
-0.0879104
-0.0799421
-0.049082
0.228338
0.0803333
-0.0169196
-0.0742956
-0.0456238
0.218679
0.0110064
-0.0748352
-0.0103502
0.0470983
-0.08692
-0.0371734
-0.0373009
-0.0233595
0.0978315
0.0382649
0.00320644
-0.041735
-0.0369074
-0.0379491
-0.0313766
0.107591
0.0082849
0.0363145
0.109321
-0.191233
-0.0133271
-0.00285922
-0.0719478
0.0996274
0.037832
0.0900086
-0.179113
-0.038114
-0.0216303
0.0960594
0.0373873
-0.0410237
-0.0373362
-0.0316408
0.10686
0.00720213
-0.020522
-0.0100414
-0.00424693
-0.00305821
-0.0272246
-0.0175637
-0.0180567
0.0298228
0.021954
0.0370382
-0.0352816
0.00392103
-0.0138055
0.0182247
0.0189252
0.00581651
-0.00547993
-0.007243
-0.0240477
-0.0206604
0.0151534
-0.0109327
-0.0142657
0.00514211
-0.000680903
-0.0165253
0.00164777
-0.0145538
-0.0113408
0.0105064
0.0269224
-0.023955
0.00116811
-0.00303855
-0.00237436
-0.000997885
0.0157562
-0.0107488
0.00892113
-0.0160532
-0.0141145
-0.00133391
-0.00190523
-0.083129
0.00133409
0.000451942
0.0436567
-0.00230241
-0.0936905
-0.00631642
0.00175872
0.215835
0.00590562
-0.000404634
-0.0856608
0.00225591
0.204897
-0.00134485
-0.0812116
0.00128482
0.0440643
-0.0928024
-0.00163069
-0.000214195
-0.0906894
0.00164647
-0.000835374
0.0412151
-0.000553845
-0.100844
-0.00234045
0.000137935
0.202837
0.00225884
0.000853606
-0.0919488
0.000518708
0.191106
-0.00165685
-0.0888387
0.00160879
0.0416525
-0.100037
-0.00279697
0.000506826
0.00299146
-0.00148058
0.000350231
-0.00237216
-0.000597931
0.00230895
0.00151735
-0.000432985
-0.00282671
0.00300721
0.00674083
-0.00284921
-0.00183641
-0.0163188
-0.00465619
-0.000298029
-0.00482821
-0.0017869
-0.00392363
-0.0135051
0.00113738
0.0031641
0.0112543
0.00851485
0.00271446
0.000795014
-0.00570351
0.000328242
-0.0058258
0.00542704
0.011799
-0.00218673
-0.0171988
0.00111634
-0.00457512
-0.00258929
-0.0100795
0.00622912
0.00110777
0.00311571
-0.0122865
-0.00337359
0.00118445
0.00359126
0.00179713
0.00195431
-0.0110571
0.00272055
-0.000990124
0.00350204
0.00713165
0.00210955
-0.00194867
-0.00195497
-0.00227104
-0.00297536
0.00332624
0.0107468
0.000414247
-0.0143391
0.000727172
0.00349586
0.00360755
-0.00773764
0.000126799
0.0026357
0.000350695
0.000848896
0.00286978
0.00318235
-0.000388698
-0.000723511
-0.0020441
0.00889865
0.00257982
-0.00238434
-0.00331809
0.00610424
-0.000986766
-0.000643605
0.000124711
0.000420178
-0.0143199
-0.00081057
0.00162344
-0.0148493
-0.00120362
0.0017364
-0.00126914
0.00147279
-0.01505
0.00465324
0.000261432
-0.000302917
0.00120529
0.000858878
0.00138109
0.0010807
0.00457085
-0.0057168
-0.0112841
0.00146502
-0.0119922
0.00156416
0.00159272
-0.0125064
-0.0111816
-0.000629935
0.00237346
-0.0107509
-5.59904e-05
0.0013612
-0.000363979
0.000919755
-0.00983263
0.00407852
0.000122989
-0.00181232
0.00293774
-7.41518e-05
0.0025362
0.00059195
0.00783333
-0.00128244
-0.00853866
0.00238983
-0.00864478
0.00159495
0.00176504
-0.00822578
0.00153648
0.000441183
0.00275254
0.000141941
-0.000443914
0.00411542
0.00534766
-0.000618418
0.00837434
-0.000352306
0.000738612
0.0150228
0.00219437
0.00343833
0.00594225
0.0176264
-0.00146611
0.00183951
-0.0180026
0.0175185
-0.00185413
0.00195949
-0.000676111
0.00187518
0.00391919
0.00158445
0.00518442
-0.0121563
-0.00347009
0.00233818
0.00320097
0.00103228
0.00333723
0.0182737
0.00198255
-0.0186722
0.0181096
0.00250246
0.00194339
0.0120905
-0.00117487
0.0027004
-0.0117746
0.0124949
-0.000731591
0.00228553
-0.000639173
0.00272242
-0.00444188
0.000594551
0.0114721
-0.00361469
-0.00799314
0.00039126
0.00562791
0.00115113
0.000684737
0.0128218
0.00171828
-0.0119632
0.0138614
0.00185438
0.00261686
-0.00494826
-0.00116322
0.00881548
-0.00264709
-1.59875e-05
0.000425737
-0.0154148
0.00100219
0.0247197
-0.010248
0.00044166
-0.000243514
-0.0040248
0.0067453
-0.00172921
0.0120159
0.00219361
-0.0141821
0.0186775
0.000635998
-0.007276
0.00104303
-0.000361041
0.0124318
-0.00339037
-0.00684812
0.0150574
-0.00242459
0.000433817
-0.00153364
0.00547607
0.0102657
-0.0136654
0.018122
-0.0102862
-0.00208472
0.00896881
0.00181559
-0.024965
0.0129482
0.000510723
-0.0117485
0.000888783
-6.30929e-05
0.0103498
-0.0019874
-0.0133938
0.00799593
-0.0011471
0.004448
-0.000814668
0.0115619
0.00830744
-0.0239839
0.0139909
-0.0171221
-0.000873558
0.00906611
0.0047235
-0.0388209
0.0024014
0.00026978
-0.00535846
-0.000598129
0.0117622
0.00195292
-0.00484928
-0.00577792
-0.0126652
-0.0013532
0.0206922
0.00057873
0.0224418
0.0095631
-0.0384311
0.00481302
-0.0137299
0.0112633
-0.00269172
0.0131511
-0.0492756
0.0057786
0.00796176
-0.0217611
0.00650337
0.0109733
0.011461
-0.00733635
0.00325844
0.0166378
-0.00336368
0.0268448
-0.00219533
0.0477766
0.00222894
-0.0478789
0.0149278
-0.0297945
0.0239965
-0.0209671
0.0120942
-0.0403739
-0.0183838
0.0101224
-0.0345265
0.0105805
-0.0179594
-0.00580053
0.00172802
0.0194279
-0.00522517
0.00204287
0.0343448
0.0025549
0.0505716
0.00101418
-0.0471692
0.00281734
-0.0295594
0.0293706
-0.00864481
0.0191235
-0.0112459
0.0185276
0.0204195
-0.0116139
-0.0188273
-0.0122803
-0.0187157
-0.0195668
-0.0136409
-0.0179793
-0.0153115
0.000692726
-0.00043161
-0.00975746
0.000186423
-0.00573958
0.0014943
-0.0112472
-0.0088173
-0.000622675
0.00441641
-0.00904265
-0.000134035
0.000547391
-0.00129987
-0.00624582
-0.0130309
-9.88188e-05
-0.00847923
-0.0046853
-0.00977719
-0.0101966
0.000557787
-0.000622893
-0.00709523
4.46031e-05
-0.00887729
0.000911721
-0.0192404
-0.00394334
-0.000577517
0.00821286
-0.00652096
-8.35039e-05
0.00325493
-0.000876525
-0.010975
-0.00890709
5.16576e-06
-0.00601706
-0.0076572
-0.0166672
-0.00303794
-0.000450672
0.0069847
-0.00637493
-0.000210868
-0.00531912
0.00296774
-0.0286096
0.00838682
0.000688286
0.0137097
-0.00150976
3.82036e-05
0.012904
-0.00266895
-0.00684521
-0.00150957
0.00814518
-0.00606137
-0.0030667
-0.0253981
-0.00470659
0.00354102
0.00812415
-0.000373029
0.00454746
-0.0142406
0.00876931
-0.037709
-0.0110921
-0.000733152
0.0290812
-0.00915447
-0.00249642
0.0180179
-0.00599509
-0.00122659
-0.00490644
0.0123237
-0.0039729
-0.00650138
-0.0353965
0.0130145
0.00714802
-0.0120203
0.0153621
0.00649071
-0.0230537
0.00779363
-0.0301578
0.00913583
-0.00802519
0.0351178
0.00870638
-0.00797501
0.0329106
-0.00855442
0.0238343
0.011742
-0.00744332
0.0141728
-0.0169029
-0.0297498
0.00781522
0.0225464
0.00698263
0.0206462
0.0202661
0.0114573
-0.0254682
0.011976
-0.023007
-0.0219422
0.00815437
0.00964702
)
;

boundaryField
{
    fuel
    {
        type            calculated;
        value           nonuniform List<scalar> 
36
(
0.00520781
0.00859669
0.00520781
0.00520785
0.00859658
0.00520785
0.00520781
0.0085967
0.00520781
-0.00520833
-0.00859559
-0.00520833
-0.00520834
-0.00859563
-0.00520834
-0.00520833
-0.00859559
-0.00520833
0
0
0
0
0
0
0
0
0
0
0
0
0
0
0
0
0
0
)
;
    }
    primary_air
    {
        type            calculated;
        value           nonuniform List<scalar> 9(-0.0127506 -0.0211546 -0.0127484 -0.0127512 -0.0211534 -0.012749 -0.0127537 -0.0211572 -0.0127514);
    }
    Secondary_air_RHS
    {
        type            calculated;
        value           nonuniform List<scalar> 9(0.00941638 0.0151302 0.0094233 0.00935392 0.0149765 0.00936253 0.00938793 0.0150858 0.00939765);
    }
    Secondary_air_LHS
    {
        type            calculated;
        value           nonuniform List<scalar> 9(0.00946587 0.0151564 0.00947996 0.00940531 0.0149866 0.00942191 0.0094323 0.0150814 0.00944949);
    }
    outlet
    {
        type            calculated;
        value           nonuniform List<scalar> 
18
(
-0.0423689
0.0716938
-0.0410557
-0.0428545
0.0760626
-0.0413928
-0.0434286
0.0780399
-0.0420354
-0.0508488
0.068999
-0.0523489
-0.0504479
0.0722619
-0.0439317
-0.049619
0.078282
-0.00817969
)
;
    }
    stove_body
    {
        type            calculated;
        value           uniform 0;
    }
    frontAndBack
    {
        type            empty;
        value           nonuniform 0();
    }
}


// ************************************************************************* //
