/*--------------------------------*- C++ -*----------------------------------*\
  =========                 |
  \\      /  F ield         | OpenFOAM: The Open Source CFD Toolbox
   \\    /   O peration     | Website:  https://openfoam.org
    \\  /    A nd           | Version:  6
     \\/     M anipulation  |
\*---------------------------------------------------------------------------*/
FoamFile
{
    version     2.0;
    format      ascii;
    class       volScalarField;
    location    "3";
    object      T;
}
// * * * * * * * * * * * * * * * * * * * * * * * * * * * * * * * * * * * * * //

dimensions      [0 0 0 1 0 0 0];

internalField   nonuniform List<scalar> 
297
(
292.189
292.189
292.189
293.002
293.003
293.002
292.189
292.189
292.189
292.19
292.189
292.19
293.01
293.008
293.01
292.19
292.189
292.19
292.141
292.139
292.141
301.407
293.141
301.372
292.141
292.139
292.141
292.163
292.19
292.273
292.86
292.894
292.893
292.15
292.186
292.266
287.892
289.841
288.397
289.937
291.9
290.169
287.889
289.968
288.258
286.013
288.199
288.49
287.594
289.79
288.372
285.485
288.05
288.261
286.831
291.537
287.865
287.16
288.046
288.546
286.66
291.05
287.767
287.982
293.427
291.808
287.496
288.772
288.627
286.955
292.616
291.932
294.785
297.383
296.778
288.31
290.85
290.422
293.679
297.317
296.709
284.503
288.192
286.128
284.137
287.995
285.529
284.133
288.042
285.977
285.027
288.304
286.448
282.506
287.875
284.072
284.752
288.154
286.175
286.111
288.32
287.039
282.021
287.841
283.736
285.908
288.174
287.058
298.426
298.255
296.339
288.352
294.822
297.334
298.039
298.483
296.129
299.863
298.935
296.63
290.127
298.224
298.059
299.101
299.367
296.331
300.249
299.304
297.234
297.697
300.215
298.582
299.445
299.607
296.499
296.193
295.968
295.8
297.42
297.405
297.276
295.543
295.342
295.128
296.504
296.285
296.227
297.966
297.771
297.425
295.769
295.627
295.473
296.77
296.634
296.589
297.945
297.763
297.44
296.045
295.882
295.919
300.007
299.86
299.626
302.464
295.613
288.229
300.123
299.88
299.484
300.531
300.344
299.71
300.464
290.032
288.777
299.611
299.618
299.02
299.605
300.16
300.019
295.095
294.346
297.149
298.574
299.246
299.381
300.669
300.738
299.926
302.521
302.503
302.333
301.07
300.948
300.168
300.305
300.745
300.604
302.863
302.784
302.272
300.406
299.572
299.66
299.61
300.763
299.719
302.854
299.891
296.891
299.244
298.74
298.819
298.89
299.903
295.34
303.752
299.361
294.961
298.271
295.946
295.195
293.842
297.386
298.981
300.909
297.561
293.593
295.159
294.262
293.946
291.705
291.302
290.803
289.11
286.389
282.518
291.081
289.911
295.136
295.813
296.383
296.367
297.098
297.128
297.081
294.954
295.365
295.317
296.344
296.356
296.078
297.094
297.264
297.185
295.44
295.513
295.119
296.615
296.427
295.496
297.19
297.164
297.153
295.988
295.662
294.634
294.202
296.025
294.98
295.704
296.07
297.366
293.978
295.677
293.728
295.788
295.249
293.678
293.957
294.283
296.181
295.124
295.428
292.85
290.274
290.096
290.012
284.3
283.157
282.641
289.803
289.609
289.599
)
;

boundaryField
{
    fuel
    {
        type            fixedValue;
        value           uniform 293;
    }
    primary_air
    {
        type            fixedValue;
        value           uniform 293;
    }
    Secondary_air_RHS
    {
        type            fixedValue;
        value           uniform 293;
    }
    Secondary_air_LHS
    {
        type            fixedValue;
        value           uniform 293;
    }
    outlet
    {
        type            inletOutlet;
        inletValue      uniform 293;
        value           nonuniform List<scalar> 
18
(
293
284.299
293
293
283.157
293
293
282.64
293
293
289.11
293
293
286.389
293
293
282.518
293
)
;
    }
    stove_body
    {
        type            fixedValue;
        value           uniform 293;
    }
    frontAndBack
    {
        type            empty;
    }
}


// ************************************************************************* //
