/*--------------------------------*- C++ -*----------------------------------*\
  =========                 |
  \\      /  F ield         | OpenFOAM: The Open Source CFD Toolbox
   \\    /   O peration     | Website:  https://openfoam.org
    \\  /    A nd           | Version:  6
     \\/     M anipulation  |
\*---------------------------------------------------------------------------*/
FoamFile
{
    version     2.0;
    format      ascii;
    class       volVectorField;
    location    "3";
    object      U;
}
// * * * * * * * * * * * * * * * * * * * * * * * * * * * * * * * * * * * * * //

dimensions      [0 1 -1 0 0 0 0];

internalField   nonuniform List<vector> 
297
(
(55.7008 -0.0107538 10.5226)
(55.7024 0.00109935 10.5116)
(55.7008 0.0116156 10.5233)
(-8.27732e-07 -0.0496633 9.80624)
(1.88489e-06 0.00443702 9.83256)
(-5.68475e-07 0.0494942 9.80606)
(-55.7008 -0.0107612 10.5226)
(-55.7023 0.0010952 10.5116)
(-55.7008 0.0116188 10.5233)
(55.6439 -0.00560379 10.7386)
(55.6423 0.000148567 10.728)
(55.6438 0.00656132 10.7395)
(-1.91993e-07 0.241609 8.33674)
(4.19972e-07 -0.0225579 8.2725)
(-1.16494e-07 -0.246142 8.33249)
(-55.6439 -0.00560875 10.7386)
(-55.6423 0.000146035 10.728)
(-55.6438 0.00656374 10.7395)
(56.4741 -0.0326697 14.9048)
(56.4684 0.00754446 14.911)
(56.4737 0.0451992 14.9084)
(1.13386e-07 -7.46079 5.59483)
(-1.41218e-07 0.0325675 8.26998)
(9.43391e-08 7.39658 5.57555)
(-56.4741 -0.0326707 14.9048)
(-56.4684 0.00754372 14.911)
(-56.4737 0.0451994 14.9084)
(36.522 -0.398097 5.96627)
(36.5171 -1.49579 9.04766)
(36.555 -1.20686 5.03383)
(-0.00148548 -0.207705 10.6856)
(-0.00142831 -0.968333 10.0214)
(-0.00149379 -0.763235 10.588)
(-36.5241 -0.421506 6.11443)
(-36.5214 -1.44025 8.98954)
(-36.5575 -1.12654 4.91878)
(36.5999 7.98763 25.9544)
(36.7073 -1.79801 22.4401)
(36.9904 -9.56955 17.4113)
(-0.0017957 11.1813 49.2452)
(-0.00124739 -1.72848 36.6433)
(-0.00114951 -12.4812 47.2676)
(-36.5528 7.50598 26.5042)
(-36.6742 -2.36375 22.5144)
(-36.9376 -9.2442 18.55)
(36.0655 8.534 13.4936)
(36.8635 -2.67354 29.9293)
(36.3171 -4.06846 -2.95053)
(4.19407e-05 -9.47554 72.5476)
(9.4049e-06 -0.985401 22.4138)
(-0.000208125 11.5539 69.5305)
(-36.0036 8.98244 15.8774)
(-36.821 -3.26503 30.2903)
(-36.2887 -4.43763 -2.00363)
(36.8132 -11.8282 -54.1241)
(36.7779 2.26705 -14.3936)
(36.9711 9.90104 -62.8304)
(0.00246309 -0.171762 29.5543)
(-0.00205824 -1.75939 -30.8204)
(-4.33583e-05 2.15363 17.0961)
(-36.7805 -12.6849 -51.8107)
(-36.7125 1.34617 -13.3735)
(-36.9573 10.3312 -61.2207)
(37.0789 14.8472 -32.9974)
(37.6157 4.86017 -41.9216)
(37.5943 -19.6194 -43.4538)
(-0.00108427 6.01381 5.18271)
(-0.00420987 -0.584275 -19.0265)
(0.00555018 -6.73166 -6.52243)
(-36.9325 11.3935 -30.3388)
(-37.5243 2.80248 -41.6343)
(-37.5414 -14.5997 -42.2526)
(37.9059 19.1626 -15.6518)
(38.1986 11.5856 -16.9762)
(38.2372 -17.6142 -17.5939)
(-0.0106927 2.14157 6.74171)
(-0.00716144 -8.74633 -13.8745)
(0.0112484 -7.13949 -1.6512)
(-37.8558 13.3433 -14.5564)
(-38.2298 17.9525 -12.7088)
(-38.1424 -7.54625 -17.4612)
(31.1133 6.3488 -72.0143)
(35.8928 1.0417 35.2039)
(30.4057 -4.96202 -81.4713)
(0.0128906 -4.41776 98.2873)
(-0.00140014 -1.72258 -41.4166)
(0.00633648 6.91128 94.2036)
(-31.2313 6.58736 -70.3001)
(-35.8143 0.699828 35.5021)
(-30.4764 -5.16481 -80.6418)
(32.2796 -0.953664 -75.5844)
(33.7939 1.41725 34.2913)
(31.7494 0.658719 -84.9472)
(0.0121564 -1.58419 109.227)
(-0.0015052 -1.91667 -43.9407)
(0.00643162 4.1015 104.364)
(-32.3732 -1.1862 -73.7095)
(-33.7334 1.11769 34.6051)
(-31.7861 0.648065 -84.0186)
(34.8099 -5.31872 -69.8133)
(34.0893 2.04041 32.2897)
(34.9348 4.6445 -79.4681)
(0.011772 0.958083 107.988)
(-0.00179014 -1.9459 -44.3446)
(0.00680723 1.48673 102.804)
(-34.8908 -5.58509 -67.6201)
(-34.0289 1.91313 32.5886)
(-35.0776 4.67569 -78.2354)
(37.9724 38.1026 -8.25998)
(38.0575 2.82074 -9.2113)
(37.7506 -32.1297 -8.5897)
(-0.015016 -3.37648 8.0628)
(-0.010412 3.47967 -1.84956)
(0.00640731 4.80232 -2.45776)
(-38.0425 39.9852 -5.8458)
(-38.1262 29.8689 -9.95868)
(-37.7916 -21.8051 -7.87628)
(38.4321 29.2245 4.90963)
(38.2431 6.51983 0.830987)
(38.0434 -25.8448 2.84571)
(-0.0140854 -2.12665 6.92375)
(-0.0108903 8.47833 -1.60237)
(0.00420163 -0.844189 -1.28434)
(-38.4336 34.2567 4.15648)
(-38.4335 27.3121 1.65383)
(-38.0099 -15.4775 3.05739)
(38.5814 -4.64035 -0.973589)
(38.4218 2.56232 1.46113)
(38.1984 5.96854 -1.79995)
(-0.014032 -12.3769 -1.32413)
(-0.0103736 3.8574 0.377664)
(0.00321643 6.2989 -1.52939)
(-38.5345 -20.7871 -5.09807)
(-38.4956 13.0901 0.897418)
(-38.0908 -1.21505 0.750071)
(37.7075 -37.1779 -3.90965)
(37.6512 -42.7522 -8.01704)
(37.5508 -46.275 -9.42094)
(0.000605216 7.17849 -1.58322)
(-0.00176621 11.5507 -0.358061)
(-0.00422648 -5.80841 1.34179)
(-37.7294 -29.7453 -2.87015)
(-37.6571 -33.6899 -6.06649)
(-37.554 -38.2149 -7.07146)
(37.8371 -30.5357 5.79359)
(38.0792 -34.3639 4.77059)
(38.0818 -35.4173 1.66708)
(0.00326726 5.16936 -1.79527)
(0.00390522 12.1737 2.90945)
(0.00249744 2.74338 9.38259)
(-37.8207 -23.5951 5.51709)
(-37.9832 -25.7941 4.8987)
(-37.9112 -29.3063 3.13819)
(38.1022 -1.4395 6.87616)
(38.1701 3.01968 7.46158)
(38.0813 11.3413 10.6256)
(0.0031066 9.24271 -0.477404)
(0.00470939 12.9879 0.527199)
(0.0021583 22.6751 5.71015)
(-38.0117 1.10592 5.58469)
(-38.0674 7.04798 5.91462)
(-37.8948 12.2439 8.34628)
(37.7548 56.5026 -11.3325)
(37.8353 50.1847 -9.3446)
(38.1267 46.5348 -5.40922)
(0.0142108 20.1524 -1.77693)
(0.000417946 -4.10336 2.02856)
(-0.00661424 -13.4862 6.75759)
(-37.578 56.9815 -11.369)
(-37.6534 51.7596 -8.45555)
(-38.0868 49.0731 -4.78107)
(38.3915 42.9427 5.39504)
(38.4551 35.9982 8.27314)
(38.2448 33.3557 8.24206)
(-0.000290678 2.09741 15.3508)
(-0.00624545 -21.171 7.96811)
(-0.00734042 -11.7631 3.06537)
(-38.4406 45.3962 1.74765)
(-38.4933 42.8743 7.34915)
(-38.115 37.5326 7.5586)
(38.2033 -18.0342 11.3785)
(38.5838 -9.3956 7.34132)
(38.502 -4.58696 6.6092)
(-0.00412563 -37.5138 6.77791)
(-0.00822808 -25.3541 -0.155817)
(-0.00709134 -19.1009 -1.22682)
(-38.1561 -17.6759 14.5298)
(-38.4563 -4.13662 8.52611)
(-38.4449 1.82332 7.42658)
(37.2976 23.8114 -35.5625)
(37.0723 31.7313 -26.6515)
(38.1177 53.9654 -20.8706)
(-0.00133277 18.2649 -14.6318)
(0.0206267 20.3237 -10.3182)
(0.0305445 25.9856 -3.49292)
(-37.8667 19.0874 -35.3382)
(-37.8239 28.7795 -30.7979)
(-38.1482 49.6895 -24.2557)
(37.5568 3.97304 -56.9819)
(37.5168 22.682 -32.9604)
(38.5132 40.9417 -5.84983)
(0.00623788 9.02058 -15.8789)
(0.0368414 13.5946 -2.91385)
(0.0204227 18.9718 17.83)
(-37.618 8.94789 -54.4766)
(-37.4313 23.2653 -43.977)
(-38.2198 36.7633 -12.7333)
(38.8596 -0.361774 -71.9022)
(37.6901 18.4175 -23.1716)
(37.5721 -13.275 15.7773)
(-0.00498924 6.49028 -23.5001)
(0.0126914 -12.691 25.0339)
(0.00544064 -31.43 23.0884)
(-38.8671 3.81813 -71.8515)
(-37.9099 16.4723 -46.5102)
(-37.4304 -3.86072 19.17)
(38.4605 -13.8278 -96.8119)
(38.3331 3.50481 3.94712)
(37.6143 -3.5999 97.5007)
(-0.0802735 -9.31978 12.2669)
(-0.0844306 11.8732 53.7623)
(-0.0898274 -11.5995 93.8708)
(-38.6195 -5.6138 -106.044)
(-38.1743 -3.93106 -53.8618)
(-38.0122 6.96108 52.9913)
(37.0063 -1.0176 -129.992)
(37.2871 -14.8324 -95.911)
(37.4725 -3.76573 -7.91628)
(-0.221334 -1.74748 40.736)
(-0.235464 1.62888 76.1122)
(-0.241994 -8.86407 110.534)
(-37.8435 0.990416 -138.671)
(-37.7452 -3.95163 -102.57)
(-37.6635 5.47216 91.8633)
(35.9541 -2.55704 -148.923)
(35.8435 -4.32127 -147.383)
(35.8762 -2.6148 -144.221)
(-0.0302423 -3.41232 173.694)
(-0.0257267 -3.36399 180.374)
(-0.0137589 -5.2225 193.058)
(-36.0087 -4.63428 -155.089)
(-35.8207 -8.26054 -123.598)
(-36.4109 -1.27703 -18.8727)
(37.7356 -43.8016 -17.4424)
(36.937 -25.7641 -21.0599)
(37.1137 -19.2588 -28.4422)
(-0.0163123 -15.9964 -1.04613)
(-0.035794 -12.9512 -6.79145)
(-0.0472918 -12.314 -11.5009)
(-37.717 -37.4725 -13.9423)
(-37.0515 -21.8557 -17.4451)
(-37.2056 -16.3246 -24.0991)
(38.0362 -31.0584 -5.20613)
(37.3169 -18.3754 -26.4577)
(37.2338 -3.85334 -45.9031)
(-0.0067163 -11.809 12.1872)
(-0.020226 -7.46096 -1.97215)
(-0.0349053 -4.60532 -14.3153)
(-37.9722 -27.5018 -3.84058)
(-37.3789 -15.4055 -21.9792)
(-37.3362 -2.38552 -40.4792)
(37.6864 0.0240484 9.85027)
(37.4304 -12.0812 -16.2424)
(38.1392 -0.458524 -56.8025)
(-0.00466223 18.7534 15.1344)
(-0.0147811 8.55412 16.9156)
(-0.0285853 -3.16884 -18.6273)
(-37.4962 9.68748 11.2448)
(-37.5248 -13.3196 -14.0261)
(-38.1008 0.0348369 -51.4068)
(37.7134 -3.42573 67.9684)
(38.0163 -1.13575 4.25649)
(38.0511 9.62738 -71.3629)
(-0.0220497 6.28125 57.3495)
(-0.0215794 -8.30045 35.5994)
(-0.0234391 7.95801 8.0916)
(-37.7221 2.48648 64.3261)
(-38.0369 -5.15954 13.2743)
(-37.9301 8.38355 -67.1861)
(37.5245 1.66868 -0.722419)
(37.4634 10.1609 -56.1416)
(37.3826 0.849881 -94.3214)
(0.0100066 4.35003 84.0369)
(0.0126121 2.63989 64.7593)
(0.0155957 1.39374 31.1844)
(-37.4261 2.9922 28.5478)
(-37.492 9.04186 -19.1801)
(-37.2221 1.64362 -86.6515)
(35.9847 1.71855 -118.868)
(35.8641 3.24151 -120.508)
(35.8595 1.88241 -122.47)
(0.078888 2.8389 177.217)
(0.0783428 4.09334 187.526)
(0.0758929 2.65668 192.166)
(-35.7473 1.76886 -114.701)
(-35.586 3.99524 -115.809)
(-35.5479 2.63676 -117.952)
)
;

boundaryField
{
    fuel
    {
        type            fixedValue;
        value           uniform (0 0 10);
    }
    primary_air
    {
        type            fixedValue;
        value           uniform (0 0 10);
    }
    Secondary_air_RHS
    {
        type            fixedValue;
        value           uniform (0 79.5 0);
    }
    Secondary_air_LHS
    {
        type            fixedValue;
        value           uniform (0 -79.5 0);
    }
    outlet
    {
        type            pressureInletOutletVelocity;
        value           nonuniform List<vector> 
18
(
(0 0 -118.868)
(0.078888 2.8389 177.217)
(0 0 -114.701)
(0 0 -120.508)
(0.0783428 4.09334 187.526)
(0 0 -115.809)
(0 0 -122.47)
(0.0758929 2.65668 192.166)
(0 0 -117.952)
(0 0 -148.923)
(-0.0302423 -3.41232 173.694)
(0 0 -155.089)
(0 0 -147.383)
(-0.0257267 -3.36399 180.374)
(0 0 -123.598)
(0 0 -144.221)
(-0.0137589 -5.2225 193.058)
(0 0 -18.8727)
)
;
    }
    stove_body
    {
        type            noSlip;
    }
    frontAndBack
    {
        type            empty;
    }
}


// ************************************************************************* //
