/*--------------------------------*- C++ -*----------------------------------*\
  =========                 |
  \\      /  F ield         | OpenFOAM: The Open Source CFD Toolbox
   \\    /   O peration     | Website:  https://openfoam.org
    \\  /    A nd           | Version:  6
     \\/     M anipulation  |
\*---------------------------------------------------------------------------*/
FoamFile
{
    version     2.0;
    format      ascii;
    class       volScalarField;
    location    "3";
    object      O2;
}
// * * * * * * * * * * * * * * * * * * * * * * * * * * * * * * * * * * * * * //

dimensions      [0 0 0 0 0 0 0];

internalField   nonuniform List<scalar> 
297
(
0
0
0
0
0
0
0
0
0
0
0
0
0
0
0
0
0
0
0
0
0
0
0
0
0
0
0
0.042699
0.0539311
0.104025
0.0174571
0.0265388
0.0795613
0.0424808
0.0539299
0.105609
0
0.00596563
0.0585791
0
0.000309866
0.0466841
0
0.00538606
0.0558783
0
0.000677796
0.0412683
0
0.000246823
0.0416397
0
0.000913524
0.0382496
0
0
0
1.17995e-05
3.45444e-05
0
4.71524e-05
0
0
0
0
0
0
0
0
0
0
0
0
0
0
0
0
0
0
0
0
0
0.000264839
0.00625355
0
0.000246908
0.0227696
0
4.8827e-06
0.00357989
0
1.66611e-06
0
0
0.000246255
0.000944576
0
2.96258e-06
0
0
5.73365e-06
0
0
0.000243036
0
0
1.5594e-06
0
0
0
0
0
0
0
0
0
0
0
0
0
0
0
0
0
0
0
0
0
0
1.20146e-22
0
0
1.20173e-22
0
0
0
0
1.46206e-29
0
4.53232e-24
2.79675e-28
0
2.62314e-23
9.16444e-28
0
7.23279e-25
3.10742e-29
1.23508e-21
5.10758e-25
6.90292e-29
4.1814e-21
8.96803e-25
6.32347e-29
5.09597e-21
5.14248e-25
2.03879e-29
3.79705e-22
3.44852e-26
1.86122e-29
0
2.64707e-27
2.23545e-30
1.1555e-28
4.86406e-28
6.38235e-26
5.67713e-26
4.38953e-26
7.27145e-25
2.21287e-25
2.16163e-25
2.64032e-25
5.44593e-28
5.98539e-27
3.91881e-27
1.73821e-24
5.4554e-24
1.02285e-23
7.23656e-25
7.49049e-25
7.73618e-25
3.50269e-28
5.50546e-27
1.00908e-26
2.08903e-23
4.36541e-23
1.11795e-22
1.7511e-22
2.11194e-22
1.91606e-22
1.59799e-29
1.42752e-29
2.59479e-29
2.05575e-26
7.97627e-26
9.33294e-26
7.91468e-26
2.30263e-25
2.33148e-25
1.58884e-29
1.43435e-29
3.78954e-29
5.47839e-26
8.31169e-26
1.66976e-25
1.93182e-25
3.56391e-25
7.3536e-25
2.09091e-29
1.47037e-29
5.59948e-29
4.2379e-25
2.95302e-24
1.09105e-23
2.43435e-25
5.33465e-25
1.66057e-22
8.02735e-30
1.01209e-29
2.97853e-29
3.5767e-25
1.40288e-24
3.35203e-24
2.91168e-25
1.60274e-24
7.16025e-23
1.78828e-30
8.29469e-30
3.51027e-29
2.06894e-25
7.96297e-25
2.51337e-24
4.88151e-25
3.42183e-24
3.83264e-23
7.21893e-31
5.71653e-30
2.3179e-29
2.15169e-25
1.7964e-24
7.37601e-24
5.10836e-25
6.08876e-24
2.84579e-23
1.93675e-33
6.16966e-37
9.096e-37
3.41891e-32
2.97853e-35
4.48114e-35
1.34667e-31
3.4231e-35
8.31302e-35
1.19344e-33
4.37019e-38
1.46316e-37
3.42505e-33
4.04028e-37
3.31338e-35
1.67173e-33
7.00225e-38
1.43296e-35
4.66472e-34
7.0707e-39
5.16796e-39
9.05687e-34
5.53499e-38
1.8094e-35
4.62754e-35
1.16211e-39
4.46752e-39
1.85842e-39
1.28923e-40
4.71754e-40
1.1818e-38
2.40116e-39
4.96564e-36
3.89483e-40
1.70735e-40
4.50471e-40
5.23967e-43
5.46605e-42
1.84835e-41
3.13641e-38
4.03302e-37
2.82547e-36
5.27583e-43
4.43411e-42
2.16413e-41
7.35487e-44
7.51685e-43
3.92378e-42
2.17748e-38
2.2066e-37
1.20373e-36
1.27438e-43
1.30223e-42
6.58311e-42
)
;

boundaryField
{
    fuel
    {
        type            fixedValue;
        value           uniform 0;
    }
    primary_air
    {
        type            fixedValue;
        value           uniform 0.23;
    }
    Secondary_air_RHS
    {
        type            fixedValue;
        value           uniform 0.23;
    }
    Secondary_air_LHS
    {
        type            fixedValue;
        value           uniform 0.23;
    }
    outlet
    {
        type            inletOutlet;
        inletValue      uniform 0;
        value           nonuniform List<scalar> 
18
(
0
2.17748e-38
0
0
2.2066e-37
0
0
1.20373e-36
0
0
2.15169e-25
0
0
1.7964e-24
0
0
7.37601e-24
0
)
;
    }
    stove_body
    {
        type            fixedValue;
        value           uniform 0;
    }
    frontAndBack
    {
        type            empty;
    }
}


// ************************************************************************* //
