/*--------------------------------*- C++ -*----------------------------------*\
  =========                 |
  \\      /  F ield         | OpenFOAM: The Open Source CFD Toolbox
   \\    /   O peration     | Website:  https://openfoam.org
    \\  /    A nd           | Version:  6
     \\/     M anipulation  |
\*---------------------------------------------------------------------------*/
FoamFile
{
    version     2.0;
    format      ascii;
    class       surfaceScalarField;
    location    "3";
    object      phi;
}
// * * * * * * * * * * * * * * * * * * * * * * * * * * * * * * * * * * * * * //

dimensions      [1 0 -1 0 0 0 0];

internalField   nonuniform List<scalar> 
675
(
3.27738e-07
-7.53648e-05
0.000152342
2.59004e-08
-7.53316e-05
0.000152924
-7.53653e-05
0.000152636
-7.75509e-07
7.53649e-05
0.000126702
1.5496e-06
7.53318e-05
0.000124612
7.53655e-05
0.000128614
3.27603e-07
0.000152342
2.57312e-08
0.000152924
0.000152636
-6.93277e-08
-8.41325e-05
0.000188349
-1.39141e-06
-8.42697e-05
0.000190307
-8.37711e-05
0.000186809
1.24167e-08
8.41324e-05
5.43699e-05
-3.14978e-06
8.42697e-05
5.56966e-05
8.37711e-05
5.45474e-05
-6.949e-08
0.00018835
-1.39162e-06
0.000190307
0.000186809
-1.10704e-06
1.55401e-05
1.00322e-06
1.42768e-05
1.39507e-05
1.90183e-06
-1.55402e-05
1.87461e-06
-1.4277e-05
-1.39508e-05
-1.10678e-06
1.00346e-06
0.0251615
-0.0185701
-0.00349764
0.0261096
-0.0095837
0.00971657
-7.97037e-05
0.0281277
0.0350073
0.0175369
-0.0648134
0.0374417
0.00829987
-0.0154927
-0.00191584
0.051796
0.0253983
-0.00337717
0.0253064
0.00968601
0.0273406
0.0262736
-0.0119797
-0.0160433
0.0216934
9.22935e-06
0.0158134
0.00870289
0.0383691
0.037634
0.0111543
-0.127163
0.0289151
-0.00220565
-0.00149633
-0.0105786
0.0972136
0.0278594
-0.0209906
0.0231923
0.0141637
0.0374686
0.0145237
0.00587239
-0.0452598
0.0328153
0.00977723
-0.0155857
0.0116407
0.0590205
0.0334293
-0.00830695
-0.147781
0.0211013
-0.0113779
0.0377344
-0.0109447
0.144222
0.0185522
-0.0393951
0.0377358
-0.0127198
0.0586923
-0.0130773
0.0234986
-0.0668149
0.0753997
-0.020007
-0.0109178
-0.0107863
0.0261151
-0.00445047
0.0433445
-0.0606953
-0.0374214
-0.0176847
-0.0623933
0.145644
-0.0322332
0.0100653
-0.0108801
-0.0181099
0.00286569
0.0535467
-0.0887717
-0.0191254
-0.0751343
0.0649182
-0.0233981
-0.0159129
0.0229799
0.0432108
-0.0615278
-0.0244583
-0.0222277
-0.031242
-0.0222909
-0.00920501
-0.00585422
0.00156458
0.0207447
-0.0406584
0.0233841
-0.0498062
-0.0400921
0.00707313
-0.0214127
-0.00151081
0.0194701
-0.0223875
-0.0334503
-0.023265
-0.00881661
0.0184747
-0.0143446
0.0013266
-0.0157823
-0.0140363
-0.001696
-0.00280451
0.00432261
0.00295438
-0.0245956
0.00111182
-0.0293
-0.0331327
-0.000934214
-0.0162341
-0.00404534
-0.00792517
-0.0110924
-0.0219435
-0.0133675
-0.00779484
0.000634687
-0.00183837
0.000514646
-0.0507108
0.00270695
0.000128214
-0.0202304
-0.01352
0.0689997
-0.00114743
-0.000179651
-0.15659
0.00462006
8.64175e-05
0.0317782
0.014106
0.111327
-0.00205487
-0.0446268
0.00240408
-0.0173075
0.0694654
-0.00195269
0.000908468
-0.0568478
0.000517033
6.41511e-05
-0.0227245
-0.00209184
0.0654207
-0.0017398
-0.000359767
-0.164755
0.00230492
0.000123124
0.0274814
0.00217529
0.099576
-0.00225849
-0.0503725
0.000359013
-0.0200518
0.0662573
-0.00267599
0.0137403
0.000346075
0.000416588
-0.00110486
-0.00828955
-0.00883413
0.00113979
8.80983e-05
0.00107632
-0.00274146
6.72772e-06
-0.00389117
-0.000780019
-0.00352504
-0.00754842
-0.00763184
0.0001779
0.000952202
0.000143514
0.00650938
-0.0103802
-0.0123168
0.00022239
-0.0136966
-0.00446156
-0.0169012
-0.00119275
-0.0108865
-0.000133084
-0.00763627
-0.0175021
-0.00137716
-0.00623363
-0.0138336
-0.0104683
0.000293724
0.00185065
-0.0122346
-0.00899435
0.00111124
-0.00205168
0.00597325
-0.00987534
0.000431117
0.000940912
0.00022797
0.00528018
-0.00919001
-0.00753467
-0.00230211
-0.0063075
0.00392907
-0.0110276
-0.0018279
-0.00501719
-8.40382e-05
-0.00468767
-0.0133087
-0.00409854
0.00373912
-0.00783007
-0.0097724
0.00423483
0.00196322
-0.00988396
-0.00371583
0.00210483
-0.00121535
-0.00536695
0.00160211
0.000797315
-0.00236462
-0.00368259
-0.00327615
0.00351217
-0.00345862
-0.00293798
-0.00169224
-0.00453641
-0.00274314
0.00357505
-0.00158771
-0.00123279
-0.0112568
0.000321719
0.000543635
-0.0119578
0.00161515
-0.000861017
0.00155977
-0.00516719
-0.00835325
-0.0159319
-0.000203557
-0.000891171
-0.0134118
-0.00157431
0.000738923
-0.00154365
0.00155369
-0.0119051
-0.0119937
-0.000379476
-0.0123724
-0.00109632
-0.00529817
-0.00854348
-0.00944215
0.000235437
0.000425372
-0.00920973
0.000976865
-0.00209142
7.85948e-05
-0.00581769
-0.00866389
-0.0131653
-0.000117823
-0.000415528
-0.0104654
-0.000951866
8.42477e-05
-5.97446e-06
0.0020783
-0.010936
-0.00988913
-0.000488069
-0.00953628
-0.00237592
-0.00605482
-0.00876121
-0.00233437
0.000140975
-0.00421369
-0.0002973
-0.00141423
-0.00866314
-0.00418725
-0.000239285
-0.00459319
0.000354327
0.00144967
-0.00538601
-0.00199479
-0.00404893
-0.00868646
0.00770569
0.00176752
-0.00232636
-0.00716146
0.00774283
0.000776212
-0.00082057
0.000125018
5.57755e-05
0.00437917
0.000860451
0.00135204
-0.00481775
0.00426978
0.000713534
0.00030955
0.000261397
-0.000146793
0.0143461
0.000792914
-0.0144
0.0141331
0.00102247
0.000780314
-0.000570358
0.00157379
0.000959759
-0.00434166
-0.00431984
0.000793799
0.00209319
0.00111428
0.000505085
-0.00470769
0.000720294
0.00591535
0.00104898
-0.00576952
-0.000149851
0.00247536
-1.16567e-05
-0.000642096
0.00886664
0.00169184
-0.00912455
0.00871501
0.0011527
0.00189595
0.000497406
0.00137126
-0.000968832
0.00167459
0.000851242
0.000824968
-0.00714624
0.000967069
0.013525
-0.00395875
0.000311554
3.46566e-05
-0.00738961
0.0100166
-0.00576654
-0.00286577
0.00239609
0.000449712
0.00277551
0.00211315
-0.00777427
0.00181241
-0.00621746
0.00335132
-0.00221335
0.00110792
0.00415817
-0.000894491
0.00207358
-0.000951737
0.00202614
0.00958555
-0.0121198
0.0148649
-0.00645881
-0.000700427
-0.00230661
0.00226889
0.000468506
0.00186436
0.00198619
-0.0139593
0.00158316
-0.0103066
0.00310583
-0.00191082
0.00205735
0.00210412
-0.000468774
0.00542736
-0.000486032
0.00720077
0.00759766
-0.0219058
0.0104413
-0.0100127
-4.39668e-05
-0.00256831
0.00169033
0.0013314
0.00372905
0.00308394
-0.0233634
0.00131045
-0.00888366
-0.00253821
-0.00394144
0.0101423
-0.00796853
-0.000207472
0.0140882
0.000487714
0.0135608
0.008704
-0.034794
0.000173717
-0.00187414
0.0105284
0.00772468
0.0149223
-0.0211691
-0.00378613
0.0169101
-0.0286273
0.016509
-0.0290737
-0.00808308
0.00140956
0.0320283
-0.00464841
0.00491116
0.0229265
0.00373502
0.0219511
0.00627131
-0.0393395
0.015513
-0.00588455
0.0301268
0.00449244
0.00859292
-0.0344614
0.00240004
0.00846819
-0.03521
0.0085317
-0.0354171
0.00669109
-0.00139633
0.0350248
0.00939059
-0.00369019
0.0323024
-0.00119449
0.0410276
-0.00189468
-0.0389642
0.00553225
-0.017082
0.034402
0.000553465
0.0160791
0.000306958
0.0161902
0.0160571
0.00184566
-0.021531
0.00216293
-0.0232122
-0.0226149
-0.0117002
-0.0128858
-0.00277825
0.00154764
-0.00717687
0.00193793
0.00177831
-0.0065602
0.00163101
0.000244147
-0.0055639
-0.00159966
-0.00319832
0.00148536
-0.00180498
-0.00341277
-0.00165023
0.00486545
-0.00281446
-0.0073656
0.0020857
-0.00683665
0.000239585
-0.0049761
0.00108732
-0.0120003
0.000934149
0.00152968
-0.0140542
0.00163589
-0.000497671
-0.00604135
-0.00110908
-0.00590206
0.000170662
-0.00155315
-0.00649873
-0.00163871
0.00839818
-0.00501969
-0.0122697
0.000958336
-0.0145048
-0.000627374
-0.00757367
0.00170353
-0.014841
0.00340104
0.00423111
-0.0293055
0.00143166
0.00145969
-0.00521944
-0.00172931
-0.00263814
0.000431543
-0.00432723
-0.00356446
-0.00142891
0.0117636
-0.00760822
-0.015152
0.00353064
-0.0301154
0.00131482
0.00217271
0.0105573
-0.0275042
-0.011984
0.0108368
-0.0258851
0.00845131
-0.0188351
0.00433866
-0.0103412
0.0138524
0.00239647
-0.0107205
0.0199285
-0.00829508
0.0309758
0.00236821
-0.0277538
-0.0121194
-0.0262758
-0.0190548
-0.00391433
0.00699945
-0.0306925
-0.00446671
0.00629671
-0.0317439
0.00688235
-0.0303105
-0.00421863
-0.00688342
0.0320018
-0.00679316
-0.00617063
0.0350221
-0.00674874
0.0378396
-0.00389773
-0.030772
-0.00455066
-0.0318259
-0.0303877
0.000130123
0.0188101
-0.000612477
0.0186637
0.0186682
-0.00313667
-0.0187467
-0.00379801
-0.0186009
-0.0186051
0.000129491
-0.000615026
)
;

boundaryField
{
    fuel
    {
        type            calculated;
        value           nonuniform List<scalar> 
36
(
0.000125397
0.000209175
0.000125397
0.000125397
0.000209175
0.000125397
0.000125397
0.000209174
0.000125397
-0.000125393
-0.000209165
-0.000125393
-0.000125393
-0.000209166
-0.000125393
-0.000125393
-0.000209166
-0.000125393
0
0
0
0
0
0
0
0
0
0
0
0
0
0
0
0
0
0
)
;
    }
    primary_air
    {
        type            calculated;
        value           nonuniform List<scalar> 9(-0.0032432 -0.00536685 -0.00322559 -0.00322109 -0.00533677 -0.0032147 -0.00319013 -0.00531047 -0.00320609);
    }
    Secondary_air_RHS
    {
        type            calculated;
        value           nonuniform List<scalar> 9(0.00600207 0.0103479 0.00598796 0.00599219 0.0102641 0.00597805 0.00602498 0.0102498 0.00601279);
    }
    Secondary_air_LHS
    {
        type            calculated;
        value           nonuniform List<scalar> 9(0.00652708 0.00955878 0.00619838 0.00654419 0.00950178 0.00618922 0.00658662 0.00958812 0.00622147);
    }
    outlet
    {
        type            calculated;
        value           nonuniform List<scalar> 
18
(
-0.0496411
0.0728202
-0.0496726
-0.049675
0.073071
-0.0497081
-0.0496028
0.0714581
-0.0496351
-0.0510794
0.0710588
-0.0488452
-0.0511411
0.0714722
-0.0391575
-0.0511519
0.0819219
-0.00112982
)
;
    }
    stove_body
    {
        type            calculated;
        value           uniform 0;
    }
    frontAndBack
    {
        type            empty;
        value           nonuniform 0();
    }
}


// ************************************************************************* //
