/*--------------------------------*- C++ -*----------------------------------*\
  =========                 |
  \\      /  F ield         | OpenFOAM: The Open Source CFD Toolbox
   \\    /   O peration     | Website:  https://openfoam.org
    \\  /    A nd           | Version:  6
     \\/     M anipulation  |
\*---------------------------------------------------------------------------*/
FoamFile
{
    version     2.0;
    format      ascii;
    class       volVectorField;
    location    "3";
    object      U;
}
// * * * * * * * * * * * * * * * * * * * * * * * * * * * * * * * * * * * * * //

dimensions      [0 1 -1 0 0 0 0];

internalField   nonuniform List<vector> 
297
(
(20.5308 -0.00682579 0.257987)
(20.5308 0.00159278 0.258635)
(20.5309 0.00732231 0.256369)
(-6.81782e-10 0.00947203 0.241069)
(-6.73191e-10 0.000910686 0.240835)
(-8.01125e-10 -0.00801794 0.239516)
(-20.5308 -0.00682624 0.257987)
(-20.5308 0.0015918 0.258634)
(-20.5309 0.00732187 0.256369)
(20.5328 -0.00582014 0.275465)
(20.5328 -0.0044694 0.277123)
(20.533 0.00169071 0.275768)
(-4.80631e-10 0.0286519 0.0404138)
(-6.70344e-10 -0.00764157 0.0415385)
(-9.12638e-10 -0.0304922 0.0553514)
(-20.5328 -0.0058206 0.275465)
(-20.5328 -0.0044704 0.277123)
(-20.533 0.00169003 0.275768)
(20.542 -0.0267732 0.462582)
(20.5421 -0.00327502 0.465716)
(20.543 0.0347722 0.46261)
(-3.95061e-10 0.0344952 0.235119)
(-6.85569e-10 -0.00154035 0.230199)
(-9.54601e-10 0.00332149 0.218024)
(-20.542 -0.0267714 0.462584)
(-20.5421 -0.00327377 0.465718)
(-20.543 0.0347733 0.462612)
(44.5771 23.8386 -30.8648)
(41.8792 36.916 -14.7175)
(34.79 48.174 24.8027)
(-0.0587323 5.29898 -86.5394)
(-0.0208245 35.7772 -52.7456)
(0.0442299 50.3419 24.2052)
(-44.0321 24.1192 -29.4892)
(-41.9949 36.516 -13.6281)
(-34.662 47.2439 24.6917)
(56.2179 12.1619 -4.2451)
(53.3363 61.2595 69.5462)
(40.3771 30.3437 99.2038)
(0.223704 -27.2832 -147.523)
(0.100209 55.2994 -22.155)
(-0.136221 35.0707 93.7771)
(-51.0561 13.2996 -8.02417)
(-49.409 60.3904 61.1471)
(-41.0543 32.0109 98.8818)
(59.227 -36.0834 -31.0945)
(57.6352 40.6825 33.3569)
(48.9623 92.3233 210.913)
(-0.286628 -45.5264 -180.53)
(-0.175408 64.6844 33.6368)
(0.10412 64.4205 128.981)
(-51.0719 -20.1362 -29.9941)
(-52.7074 44.8313 25.1133)
(-45.7059 86.7976 203.666)
(45.2191 -49.2013 -139.487)
(58.594 -78.6024 -53.5504)
(60.1267 59.0756 122.946)
(0.272458 -22.9589 -289.716)
(-0.161305 -70.7805 -44.05)
(-0.0334096 40.8393 110.955)
(-39.5606 -49.5602 -138.695)
(-56.9542 -88.5385 -61.4689)
(-57.6094 55.423 113.79)
(42.5034 -41.2833 -113.073)
(59.9261 -66.8329 -26.4432)
(61.6402 17.637 61.8121)
(-0.0385468 -49.8489 -95.2921)
(0.0780803 -50.0306 -67.0454)
(0.172307 -3.92578 22.523)
(-36.0992 -20.2159 -115.434)
(-56.2594 -65.38 -39.7973)
(-58.6006 16.2806 52.3971)
(25.7171 -10.4705 -35.2135)
(56.2654 -38.8775 -30.3821)
(61.4335 -7.09356 42.9532)
(0.00256711 -5.13834 -40.9747)
(-0.0472324 -33.4606 -31.5596)
(-0.0410574 -23.7052 4.24928)
(-22.394 8.02085 -35.1471)
(-48.5361 -38.2683 -36.841)
(-58.8251 -8.09866 33.8016)
(52.6651 -71.52 -187.708)
(55.412 -59.0845 -77.0217)
(56.2878 72.0051 238.269)
(-0.497946 -58.2756 -317.267)
(-0.260112 30.3071 60.5706)
(-0.0244035 60.6887 172.9)
(-42.9763 -58.2006 -145.86)
(-54.8969 -71.4493 -61.9297)
(-54.3848 69.3747 232.56)
(47.8184 -65.1652 -178.622)
(54.5699 -65.4367 -81.4483)
(54.8048 72.378 248.134)
(-0.541532 -51.0928 -315.941)
(-0.254915 14.974 55.1984)
(-0.025175 61.7817 187.346)
(-39.2326 -58.3411 -143.92)
(-53.977 -80.549 -71.8111)
(-53.652 69.283 241.778)
(48.7738 -65.4743 -160.151)
(56.8852 -68.4832 -82.1378)
(54.0059 80.6978 265.427)
(-0.656125 -50.7685 -303.453)
(-0.253389 -17.0401 69.9962)
(-0.0227775 57.4018 215.937)
(-42.8701 -58.4852 -143.966)
(-56.3199 -88.9875 -72.9374)
(-52.0628 76.4895 256.656)
(17.3287 0.221961 -11.2813)
(25.1671 -36.6403 -3.38498)
(25.3924 -34.4666 3.52899)
(-0.000875054 -12.5096 -10.6512)
(-0.0194285 -27.3982 -8.30198)
(-0.0177769 -29.2667 -6.99834)
(-13.9522 25.0344 -14.8329)
(-15.9521 -35.6006 -4.90401)
(-16.8945 -36.1491 -2.1139)
(17.0648 -24.9504 -2.05641)
(17.1636 -32.6309 2.29442)
(16.8522 -31.504 6.53471)
(-5.18471e-05 -7.84815 -6.31998)
(-0.0156228 -16.7149 -3.0235)
(-0.0143452 -19.4503 0.877558)
(-14.1293 2.66566 2.74921)
(-14.3345 -29.4019 1.92796)
(-14.2577 -29.4096 2.61023)
(15.994 -2.12696 -0.0448856)
(15.6813 -15.6052 1.29128)
(15.4913 -15.3846 4.94787)
(-0.000441082 -8.026 -2.05216)
(-0.0115282 -6.75662 -2.78437)
(-0.00993857 -3.91352 -3.06138)
(-14.1807 -11.6506 0.185259)
(-14.2351 -11.8606 3.31338)
(-14.0981 -2.15148 3.12007)
(13.8866 -34.9288 -6.56911)
(13.9281 -31.6637 -9.51334)
(13.8868 -24.9616 -14.3874)
(-0.000290477 -28.877 -6.17835)
(0.00494267 -25.9888 -7.13283)
(0.00520766 -20.6178 -7.29985)
(-13.9043 -37.2883 -7.88392)
(-13.9365 -32.902 -9.9093)
(-13.8913 -25.527 -14.9557)
(13.939 -28.0405 1.20531)
(13.9593 -28.3233 -4.77611)
(13.8748 -24.4336 -13.8983)
(0.00460591 -22.6206 1.85709)
(0.00826771 -22.2945 1.93361)
(0.00701436 -17.4256 1.86589)
(-13.9472 -28.3727 -0.41122)
(-13.9603 -30.5006 -5.86727)
(-13.8751 -24.2605 -14.2229)
(13.9713 -2.41552 -0.918376)
(13.9792 -14.733 -14.2138)
(13.8892 -20.9303 -19.7726)
(0.00922608 -6.17475 0.190303)
(0.0121411 -9.0277 2.01446)
(0.00891841 -11.3792 0.830477)
(-13.9783 0.0905536 -3.05402)
(-13.977 -14.5831 -13.8002)
(-13.89 -21.0922 -20.3308)
(13.9953 23.3205 -12.3294)
(14.3815 22.6384 -9.24566)
(14.3652 26.8018 -6.63457)
(-0.0108918 8.51555 -3.61835)
(-0.000168405 7.05663 -2.6132)
(0.00335976 10.3968 -0.477942)
(-13.8121 44.2186 -10.741)
(-13.824 41.2748 -9.80501)
(-13.8115 39.4554 -7.22028)
(14.3576 13.4297 -4.00588)
(17.1569 -11.311 4.72168)
(17.1591 -19.854 1.47713)
(-0.0164222 -6.27079 5.57343)
(-0.00436432 -12.5577 2.26705)
(0.00299867 -9.54661 -2.97025)
(-14.0204 33.2407 3.9258)
(-14.0254 26.9673 6.62833)
(-13.976 26.1445 7.34677)
(14.1881 10.6713 1.80532)
(16.4564 -1.59248 5.22308)
(16.6655 6.5871 5.45541)
(-0.017945 -21.6782 5.63534)
(-0.00587001 -10.5931 2.52171)
(0.0019715 -7.05681 1.14798)
(-14.217 -22.4066 4.70205)
(-14.1345 -17.3368 2.69695)
(-14.0724 -12.0686 2.31995)
(13.92 -5.28981 -6.94612)
(13.8911 1.76855 -20.1275)
(13.8986 7.46124 -17.8549)
(0.0222605 5.89093 -7.02608)
(0.00214607 5.3826 -4.74559)
(-0.0143401 8.39871 -4.4817)
(-13.6356 19.7007 -30.0175)
(-13.6884 25.3351 -22.8611)
(-13.8263 42.4912 -17.4881)
(13.9289 -4.70421 2.23105)
(13.8841 1.75738 -29.9285)
(13.8887 3.4175 -22.9424)
(0.00881019 0.648486 6.69363)
(-0.0157973 4.86592 6.70139)
(-0.024796 5.53414 11.1471)
(-13.7101 5.08763 -46.7397)
(-13.8168 18.9181 -27.2585)
(-13.9545 32.8505 -5.58426)
(13.9192 -2.15608 4.56945)
(13.9734 1.46184 -37.5077)
(13.9232 0.621181 -27.5742)
(-0.00581076 -0.910022 4.92913)
(-0.0255621 -10.5699 16.7196)
(-0.0314502 -18.8676 17.3452)
(-13.9047 1.80705 -58.1321)
(-13.8996 17.0626 -18.7085)
(-14.1525 -21.107 16.6588)
(13.8314 1.86762 -16.877)
(13.8491 1.35443 -56.1989)
(13.8031 -0.397706 -58.1864)
(-0.0697563 0.14048 51.8056)
(-0.0710283 -2.45987 33.3691)
(-0.0741825 -7.39522 33.392)
(-13.934 -10.4085 -86.5327)
(-14.0381 14.2815 34.0739)
(-14.1664 -6.40281 65.016)
(13.7105 0.830804 -115.667)
(13.7089 1.66132 -120.3)
(13.6743 1.06565 -120.729)
(-0.0284881 1.81605 78.2665)
(-0.0281833 2.68512 64.2507)
(-0.0316513 0.240273 66.3979)
(-13.6304 2.7259 -123.171)
(-13.6695 -1.90807 -66.5957)
(-13.8129 -0.159368 102.237)
(13.273 0.125927 -150.061)
(13.269 0.200513 -150.3)
(13.2326 0.0750625 -150.344)
(0.0665367 0.437964 180.82)
(0.0717962 0.42539 181.897)
(0.0764304 -0.190299 206.815)
(-13.042 -2.95056 -141.884)
(-13.0481 -6.24263 -108.518)
(-13.5356 -3.78934 -1.9429)
(13.9084 -14.7232 -23.4164)
(13.9355 -3.32064 -20.4603)
(13.9416 4.60821 -8.18067)
(0.00475471 -12.8019 -10.2704)
(0.00475002 -3.9527 -9.29434)
(0.00483368 3.90652 0.421335)
(-13.9154 -15.1674 -24.0769)
(-13.9334 -2.98791 -21.3102)
(-13.9446 4.59304 -8.77642)
(13.8991 -16.9563 -26.4778)
(13.9299 -4.02924 -23.5233)
(13.9321 -0.956651 6.37524)
(0.00537279 -12.6896 -6.82415)
(0.00459973 -4.79347 -7.07375)
(0.00423285 1.89792 11.7792)
(-13.906 -17.1585 -27.0518)
(-13.9275 -4.03274 -24.3626)
(-13.9305 -1.2721 6.71567)
(13.9345 -11.5523 -32.5569)
(14.0408 -4.1465 -27.35)
(13.915 -2.32575 -1.16296)
(0.00526196 -6.97164 -7.96629)
(0.00371912 -4.95633 -11.5678)
(0.00299823 1.89785 15.8165)
(-13.9447 -11.0703 -33.3922)
(-14.0411 -3.96095 -28.2514)
(-13.9084 -2.51239 -1.93822)
(13.9051 10.2281 -54.4312)
(13.9297 -2.48829 -37.4477)
(13.8968 -4.58069 -4.8659)
(-0.00332178 11.7399 15.1529)
(-0.00377115 -1.75192 25.3137)
(-0.0040971 -2.01202 49.1071)
(-13.9262 10.205 -54.9851)
(-13.9401 -2.09146 -38.4736)
(-13.9051 -4.86104 -5.26448)
(13.7458 -6.1575 -106.91)
(13.7368 -0.433359 -111.355)
(13.7442 -0.374756 -105.208)
(-0.000249695 -0.553567 55.4808)
(-0.000403308 -1.93754 63.6063)
(-0.000484213 -1.67717 74.5026)
(-13.7465 -6.1558 -107.36)
(-13.7371 -0.546108 -111.792)
(-13.7459 -0.273751 -105.581)
(13.1769 0.0456191 -144.59)
(13.177 -0.121392 -144.718)
(13.1843 -0.129839 -144.445)
(-0.000404154 -0.475614 185.138)
(-0.000388343 -1.29848 185.605)
(-0.00037294 -1.00096 181.624)
(-13.1786 0.0459309 -144.708)
(-13.1786 -0.121533 -144.842)
(-13.1859 -0.131177 -144.566)
)
;

boundaryField
{
    fuel
    {
        type            fixedValue;
        value           uniform (0 0 0.25);
    }
    primary_air
    {
        type            fixedValue;
        value           uniform (0 0 2.5);
    }
    Secondary_air_RHS
    {
        type            fixedValue;
        value           uniform (0 52.7778 0);
    }
    Secondary_air_LHS
    {
        type            fixedValue;
        value           uniform (0 -52.7778 0);
    }
    outlet
    {
        type            pressureInletOutletVelocity;
        value           nonuniform List<vector> 
18
(
(0 0 -144.59)
(-0.000404154 -0.475614 185.138)
(0 0 -144.708)
(0 0 -144.718)
(-0.000388343 -1.29848 185.605)
(0 0 -144.842)
(0 0 -144.445)
(-0.00037294 -1.00096 181.624)
(0 0 -144.566)
(0 0 -150.061)
(0.0665367 0.437964 180.82)
(0 0 -141.884)
(0 0 -150.3)
(0.0717962 0.42539 181.897)
(0 0 -108.518)
(0 0 -150.344)
(0.0764304 -0.190299 206.815)
(0 0 -1.9429)
)
;
    }
    stove_body
    {
        type            noSlip;
    }
    frontAndBack
    {
        type            empty;
    }
}


// ************************************************************************* //
