/*--------------------------------*- C++ -*----------------------------------*\
  =========                 |
  \\      /  F ield         | OpenFOAM: The Open Source CFD Toolbox
   \\    /   O peration     | Website:  https://openfoam.org
    \\  /    A nd           | Version:  6
     \\/     M anipulation  |
\*---------------------------------------------------------------------------*/
FoamFile
{
    version     2.0;
    format      ascii;
    class       surfaceScalarField;
    location    "0.5";
    object      phi;
}
// * * * * * * * * * * * * * * * * * * * * * * * * * * * * * * * * * * * * * //

dimensions      [1 0 -1 0 0 0 0];

internalField   nonuniform List<scalar> 
675
(
4.65888e-06
-6.98019e-06
0.000132073
-4.04568e-06
-8.11951e-06
0.000146575
-6.78081e-06
0.000132494
-4.91415e-06
6.91269e-06
0.000206503
5.10039e-06
8.25569e-06
0.000189121
7.14507e-06
0.000206658
3.95676e-06
0.000132715
-4.67625e-06
0.000146641
0.000132222
7.97773e-06
-1.50458e-05
0.00013908
-6.12049e-06
-2.43464e-05
0.000184968
-1.48917e-05
0.000141172
-3.14412e-06
1.52443e-05
0.000179465
3.60375e-06
2.45202e-05
0.00013348
1.5244e-05
0.000180232
5.95087e-06
0.00014191
-8.01137e-06
0.00018507
0.000139392
1.08428e-05
-1.95439e-06
-5.06668e-06
7.16243e-05
5.84187e-06
-3.03264e-05
-6.90099e-06
3.04292e-05
-7.15645e-05
1.74919e-06
4.74715e-06
-1.09928e-05
-0.00471563
0.00892628
-0.000971728
-0.00774964
0.00677386
-0.000493585
0.00515725
-0.00966803
0.00256288
-0.00874919
0.0204783
-0.000514128
-0.00612075
0.0213513
-0.00480836
0.0148027
-0.00520381
-0.000328086
-0.00807044
6.70767e-06
-0.00961994
0.011956
0.00986078
-0.0227379
-0.0151978
0.00257853
0.0241355
0.00996939
-0.0347876
0.000514776
-0.00952222
0.0393582
0.000998204
-0.00248485
0.0259233
-0.00986625
0.0357176
0.011781
-0.0216018
-0.0153035
0.0246221
-0.0347557
0.00751091
0.0297719
-0.059977
-0.0017332
0.00620505
0.0272422
0.0306709
-0.0671001
-0.058713
-0.0296776
0.15762
0.0583011
-0.00591878
-0.0788631
-0.0306816
0.155464
0.00790047
-0.05915
-0.00110488
0.0278083
-0.066499
-0.0272307
-0.025962
-0.0251271
0.0783471
0.0305491
0.00366176
-0.0394039
-0.0220063
-0.0248546
-0.029627
0.0850144
0.0108792
0.0257465
0.0583288
-0.120859
-0.0208621
-0.00309785
-0.0575431
0.0961666
0.0241754
0.0480831
-0.117905
-0.0274682
-0.0243368
0.0775756
0.0303708
-0.0382926
-0.0226168
-0.0300069
0.0845408
0.00770669
-0.0171095
-0.0156657
-0.000791356
-0.0052882
-0.0256232
-0.0127823
-0.0175609
0.0182155
0.0167289
0.00635524
-0.028174
0.00507887
-0.0215671
0.0110865
-0.00390912
0.00655112
-0.014073
-0.00122093
-0.0254378
-0.0201244
0.0131147
-0.0112412
-0.0175464
0.00344083
0.000825619
-0.0167605
0.00073162
-0.0148559
-0.00808271
0.0144235
-0.011195
-0.0160725
0.00241391
-0.0151711
-0.0022884
-0.0169458
0.0159339
-0.0155884
0.00917579
-0.0162625
-0.0132336
-0.000418899
-0.0021253
-0.0655356
0.00061657
-0.000888865
0.0270905
-0.00202986
-0.0725562
-0.00338783
0.00211759
0.143759
0.00294901
0.00091423
-0.0869817
0.00197302
0.141427
-0.000409244
-0.0647237
0.000640929
0.0276782
-0.0719963
-0.000920349
-0.000694912
-0.0719847
0.00111262
-0.000471146
0.0255386
-0.000716916
-0.0787911
-0.00179809
0.00069088
0.131253
0.00144446
0.000489432
-0.0911664
0.000660822
0.128591
-0.000910194
-0.0711856
0.00114755
0.0261046
-0.078261
-0.0020859
0.000363128
0.00221704
-0.000795949
0.000355395
-0.00186308
-0.000379822
0.00150876
0.000840842
-0.000443794
-0.00207307
0.00225786
0.00433729
-0.00356153
-0.00602065
-0.0122999
-0.00567836
-0.00167686
-0.00506661
-0.00295923
-0.00571595
-0.0118608
0.00454204
0.00413791
-0.0105955
-0.0128383
-0.00317578
0.0021033
-0.0112312
0.00164171
-0.0133185
-0.0114026
0.00915185
-0.00708721
-0.0135156
-0.000613676
-0.00439229
-0.00259944
-0.00960457
0.00356897
0.000191467
-0.000370521
-0.00940774
-0.00443901
0.0011709
0.0017717
0.000213749
-0.000863709
-0.00950695
0.00171819
0.000311489
-0.0050489
-0.00738068
-0.00173262
-0.00158886
-0.00501736
-0.00139788
-0.0061021
-0.00733648
0.00542835
-0.00178754
-0.0104157
-0.00167302
0.00112321
0.0017211
-0.00738945
-0.00122607
0.00214791
-0.00128898
-0.00205472
0.00260146
0.00199688
-0.00491734
-0.000360302
-0.00118082
-0.00135521
-0.000529153
-0.00224275
-0.00202856
-0.00260524
0.0016556
-0.00462251
0.000539525
0.000234168
-0.0108221
-0.000977234
-6.19498e-05
-0.0113598
0.00125638
-0.000718976
0.0014391
-0.00397623
-0.00882244
-0.0117201
0.000636314
-0.00129645
-0.00874158
-0.00132352
-0.000399062
-0.00136433
0.00141131
-0.0073495
-0.00884398
-0.000124043
-0.00919051
-0.000977068
-0.00497605
-0.00557911
-0.00928544
-0.000836693
0.000552707
-0.00976387
0.000718485
-0.000959241
-0.000278306
-0.00449004
-0.00897156
-0.0083397
-0.000180373
-0.000950047
-0.00692605
-0.000779752
-0.000315003
0.000595222
0.00132788
-0.00771631
-0.00762091
-7.27043e-05
-0.00780368
-0.00157414
-0.00585787
-0.00632699
-0.00445505
8.98976e-05
-0.00578308
0.00036858
-0.00195779
-0.00831517
-0.00281794
-0.000648017
-0.00224572
-0.000519219
0.00177305
-0.00464889
-0.00048634
-0.00257982
-0.00666511
0.0111423
0.00180432
-0.00494873
-0.00799772
0.0111525
0.00116717
-0.00117669
-0.000761761
-0.000384436
0.0113184
-0.00134609
0.00154476
-0.00971115
0.0138615
-0.00112881
-0.000245497
0.00103062
-0.000768165
0.0126046
-0.00518407
-0.00876887
0.0122474
-0.000771857
-0.000237099
0.00918445
-1.69324e-05
-0.00593732
-0.00817874
0.00925167
0.000757838
-0.00200071
-0.000692981
0.000153766
0.00762817
0.000787761
0.00134736
-0.00823427
0.00956698
-0.000664616
-0.000760494
0.00102364
-0.000296805
0.0104576
-0.00598218
-0.00887378
0.0102422
-0.00122147
0.000613394
0.00443075
-0.00209707
-0.0082707
0.00182755
0.00060328
0.000693622
0.000868741
0.00252902
-0.00414673
0.000994618
-0.000281673
3.78291e-05
0.00547438
-0.00892928
0.00397085
-0.0017902
0.00146432
0.000325269
0.00221225
0.00158102
-0.00558394
0.00103279
-0.00681851
-0.00124743
-0.00150569
0.0042166
0.0054542
-0.00147948
-0.00364155
-0.000890718
-0.00233331
-0.00192463
0.000417051
0.00245229
-0.005858
-0.00720932
-0.000959323
0.00145872
-0.000174692
0.00446176
0.00127664
-0.0122821
0.000435171
-0.0109709
4.43862e-05
-0.00150058
0.0071308
0.00520111
-0.00119291
-0.0063291
-0.000159682
-0.00477146
-0.000924345
-0.000160808
0.0048721
-0.012849
-0.0113723
-0.0031102
0.00122131
0.00171382
0.00666914
0.0042438
-0.0263057
0.00136614
-0.0139387
-0.000779256
-0.0012751
0.0104058
0.0050059
-0.00457031
-0.00330053
-0.00114241
-0.00140371
-0.00346315
0.00202574
0.00710292
-0.027987
-0.0143424
0.0116986
0.00772319
-0.017706
-0.00129619
0.0106629
-0.0239717
0.0102601
-0.025493
-0.00399733
-0.00752279
0.0296483
-0.00520899
-0.0105611
0.0191338
-0.00988351
0.0135296
0.0125006
-0.0180014
-0.00158022
-0.0244713
-0.0258098
0.00408209
0.00720949
-0.0289967
0.00365556
0.0068223
-0.0303666
0.00721826
-0.0290548
0.00600294
-0.00701765
0.0378724
0.00430979
-0.00663766
0.0342864
-0.00710989
0.0321671
0.00409454
-0.0291137
0.00347922
-0.0304937
-0.029441
0.00057402
0.0189746
-0.000287219
0.0191892
0.019221
0.00346751
-0.0188503
0.00298476
-0.0190687
-0.0190962
0.000658566
-0.000126821
-0.00587687
0.00110031
-0.00404544
-0.00355662
0.000853299
-0.00317289
0.00103762
-0.00459345
-0.00452019
-0.00108897
-0.000639714
-0.00209351
-0.00117641
-0.000396374
-0.00122024
0.000165093
-0.000975086
-0.00569327
0.00172415
-0.00387592
0.000503622
-0.00585872
0.000470387
-0.00762827
-0.00288625
0.000775619
-0.00692037
0.00105888
-0.00853786
-0.0053632
-6.31857e-05
-0.00245901
-0.00215482
-0.000597712
-0.00223089
-0.00111521
0.000184998
-0.00322021
-0.00886349
0.000452703
-0.00814678
-0.000159173
-0.00442143
0.000252429
-0.0117741
-0.00323179
0.00128793
-0.00939744
0.00282005
-0.0145891
-0.00569254
-0.00119104
2.82605e-05
-0.0028285
-0.00247418
-0.0013324
-0.00126964
0.00144672
-0.00178476
-0.0149352
0.000780672
-0.0131867
-0.000648379
0.00133908
0.00855308
-0.0216663
0.00424857
0.00904018
-0.0213471
0.010269
-0.0206095
0.00226711
-0.00991581
0.0162293
0.00126753
-0.00999787
0.0187046
-0.00851751
0.0215003
-0.00364514
-0.021206
-0.00659929
-0.0202306
-0.0157655
-0.000860197
0.00682906
-0.0276341
-0.000737405
0.0065356
-0.0280044
0.00660666
-0.0279525
-0.00158335
-0.00802124
0.0326645
-0.00202719
-0.00787486
0.0335604
-0.00822732
0.0343085
-0.00229253
-0.0269337
-0.00266149
-0.0277358
-0.0266534
0.000138339
0.0196957
2.55828e-05
0.0196397
0.0196059
-0.000966252
-0.0200178
-0.00103352
-0.0199653
-0.0199654
0.000134227
-0.000424239
)
;

boundaryField
{
    fuel
    {
        type            calculated;
        value           nonuniform List<scalar> 
36
(
0.000129678
0.000215404
0.000129678
0.000129678
0.000215405
0.000129678
0.000129678
0.000215404
0.000129678
-0.000129678
-0.000215404
-0.000129678
-0.000129678
-0.000215404
-0.000129678
-0.000129678
-0.000215404
-0.000129678
0
0
0
0
0
0
0
0
0
0
0
0
0
0
0
0
0
0
)
;
    }
    primary_air
    {
        type            calculated;
        value           nonuniform List<scalar> 9(-0.00321485 -0.00533243 -0.0032143 -0.00321486 -0.00533082 -0.00321424 -0.00321464 -0.00532971 -0.00321423);
    }
    Secondary_air_RHS
    {
        type            calculated;
        value           nonuniform List<scalar> 9(0.00810755 0.0129862 0.00811534 0.00806763 0.0129052 0.00807736 0.00808737 0.0129972 0.00809786);
    }
    Secondary_air_LHS
    {
        type            calculated;
        value           nonuniform List<scalar> 9(0.00810745 0.013009 0.00810915 0.00806843 0.0129213 0.00807036 0.00808825 0.0130042 0.00809025);
    }
    outlet
    {
        type            calculated;
        value           nonuniform List<scalar> 
18
(
-0.0474685
0.0733436
-0.0470863
-0.0475316
0.073232
-0.0471432
-0.0475331
0.0728456
-0.0470436
-0.0485465
0.0722273
-0.048624
-0.0486958
0.0730243
-0.0487783
-0.0485642
0.073467
-0.0486653
)
;
    }
    stove_body
    {
        type            calculated;
        value           uniform 0;
    }
    frontAndBack
    {
        type            empty;
        value           nonuniform 0();
    }
}


// ************************************************************************* //
