/*--------------------------------*- C++ -*----------------------------------*\
  =========                 |
  \\      /  F ield         | OpenFOAM: The Open Source CFD Toolbox
   \\    /   O peration     | Website:  https://openfoam.org
    \\  /    A nd           | Version:  6
     \\/     M anipulation  |
\*---------------------------------------------------------------------------*/
FoamFile
{
    version     2.0;
    format      ascii;
    class       volScalarField;
    location    "0.5";
    object      Qdot;
}
// * * * * * * * * * * * * * * * * * * * * * * * * * * * * * * * * * * * * * //

dimensions      [1 -1 -3 0 0 0 0];

internalField   nonuniform List<scalar> 
297
(
5.07808e-05
0
3.34868e-05
0.000168535
6.69736e-05
0
8.42677e-05
0
0
3.34868e-05
8.42677e-05
8.42677e-05
0
0.000168535
0
0
0
5.07808e-05
1.67434e-05
5.07808e-05
2.53904e-05
-9.77893e-10
0
-9.77893e-10
0
3.34868e-05
0
-4.88946e-10
0
-4.88946e-10
1.43746e-10
7.1873e-11
-9.77893e-10
-4.88946e-10
0
-4.88946e-10
-4.88946e-10
4.38678e-15
-4.88946e-10
0
0
3.59365e-11
0
0
0
0
0
0
3.59365e-11
0
-9.77893e-10
0
-4.88946e-10
0
0
-4.88946e-10
-4.88946e-10
0
-9.77893e-10
0
-4.88942e-10
1.37087e-16
0
0
0
0
0
0
-9.77893e-10
0
0
0
0
0
0
0
0
0
0
0
0
-4.88946e-10
2.74174e-16
-4.88946e-10
0
1.37087e-16
-9.77893e-10
-4.88946e-10
0
-4.88946e-10
0
-4.88946e-10
-4.88946e-10
-9.77893e-10
-9.77893e-10
0
0
5.48347e-16
-4.88946e-10
0
0
-4.88946e-10
0
-9.77893e-10
-9.77893e-10
-4.88946e-10
0
0
-9.77893e-10
0
0
0
0
0
0
-9.77893e-10
0
-9.77893e-10
-9.77893e-10
4.75615e-34
-1.95579e-09
0
0
0
0
-9.77893e-10
0
0
0
3.04394e-32
-1.95579e-09
-1.95579e-09
0
-9.77893e-10
1.21758e-31
5.94519e-35
0
0
0
7.25732e-39
0
0
2.90293e-38
-9.77893e-10
-9.77893e-10
9.07164e-40
7.08722e-42
0
0
7.08722e-42
-9.77893e-10
4.64468e-37
0
9.28936e-37
0
-9.77893e-10
0
0
0
3.04394e-32
7.43149e-36
0
-9.77893e-10
0
0
5.80585e-38
0
0
1.81433e-39
-9.77893e-10
-9.77893e-10
0
1.45146e-38
0
-1.95579e-09
0
1.52197e-32
0
2.90293e-38
0
0
-9.77893e-10
2.9726e-35
1.81433e-39
0
0
0
0
0
1.68973e-48
0
-9.77893e-10
0
2.16285e-46
-1.95579e-09
0
-9.77893e-10
1.10738e-43
0
0
0
0
5.40712e-47
4.42951e-43
6.7589e-48
8.44863e-49
-9.77893e-10
0
-9.77893e-10
-9.77893e-10
5.40712e-47
-1.95579e-09
0
0
-9.77893e-10
0
-9.77893e-10
4.12531e-52
0
1.35178e-47
0
8.44863e-49
6.60049e-51
0
2.6402e-50
0
2.57832e-53
0
0
-9.77893e-10
4.22431e-49
-9.77893e-10
0
-9.77893e-10
-9.77893e-10
1.61145e-54
4.02862e-55
3.37945e-48
-9.77893e-10
-9.77893e-10
0
3.2229e-54
8.05724e-55
0
0
-9.77893e-10
0
3.37945e-48
0
0
0
-9.77893e-10
0
-9.77893e-10
1.28916e-53
1.73028e-45
0
0
0
-9.77893e-10
-9.77893e-10
-9.77893e-10
1.3201e-50
1.28916e-53
0
1.68973e-48
-1.95579e-09
0
0
1.05608e-49
-9.77893e-10
-9.77893e-10
1.28916e-53
0
3.37945e-48
0
-9.77893e-10
5.15663e-53
0
0
0
2.01431e-55
-9.77893e-10
0
-9.77893e-10
5.15663e-53
6.44579e-54
-9.77893e-10
1.28916e-53
-9.77893e-10
0
-9.77893e-10
0
-9.77893e-10
0
-9.77893e-10
0
)
;

boundaryField
{
    fuel
    {
        type            calculated;
        value           uniform 0;
    }
    primary_air
    {
        type            calculated;
        value           uniform 0;
    }
    Secondary_air_RHS
    {
        type            calculated;
        value           uniform 0;
    }
    Secondary_air_LHS
    {
        type            calculated;
        value           uniform 0;
    }
    outlet
    {
        type            calculated;
        value           uniform 0;
    }
    stove_body
    {
        type            calculated;
        value           uniform 0;
    }
    frontAndBack
    {
        type            empty;
    }
}


// ************************************************************************* //
