/*--------------------------------*- C++ -*----------------------------------*\
  =========                 |
  \\      /  F ield         | OpenFOAM: The Open Source CFD Toolbox
   \\    /   O peration     | Website:  https://openfoam.org
    \\  /    A nd           | Version:  6
     \\/     M anipulation  |
\*---------------------------------------------------------------------------*/
FoamFile
{
    version     2.0;
    format      ascii;
    class       volScalarField;
    location    "0.5";
    object      T;
}
// * * * * * * * * * * * * * * * * * * * * * * * * * * * * * * * * * * * * * //

dimensions      [0 0 0 1 0 0 0];

internalField   nonuniform List<scalar> 
297
(
292.229
292.219
292.227
292.976
292.967
292.976
292.227
292.219
292.228
292.845
292.354
292.73
294.222
293.228
294.219
292.729
292.349
292.813
335.882
300.738
325.211
478.813
323.213
478.763
324.964
300.392
332.954
354.435
385.239
410.329
308.698
342.582
336.603
342.627
384.188
408.475
484.912
461.656
450.048
397.149
361.274
404.287
488.35
460.525
447.721
486.249
467.961
450.622
423.55
427.572
420.209
489.69
469.222
448.262
426.439
385.912
402.886
493.856
437.038
478.014
428.266
390.014
400.451
410.598
340.642
366.534
493.212
417.471
463.728
412.76
343.829
357.435
309.285
303.653
299.745
347.931
300.161
299.993
322.311
306.189
301.906
483.849
467.326
447.681
451.215
437.011
438.477
486.829
468.543
445.534
460.885
466.87
422.77
469.181
436.818
454.683
463.511
467.928
420.507
441.992
465.983
415.37
488.003
436.799
472.684
444.176
467.426
413.145
299.491
299.497
298.817
300.49
300.217
299.703
299.553
299.705
298.806
299.685
299.513
299.036
300.582
300.219
299.754
299.829
299.763
298.971
299.569
299.349
299.227
300.444
300.194
299.809
300.027
299.909
299.284
298.74
298.764
298.893
299.681
299.688
299.719
298.79
298.826
298.963
299.002
298.933
299.011
299.734
299.727
299.722
298.917
298.931
298.962
299.196
299.106
299.019
299.75
299.754
299.742
299.062
298.99
298.956
299.587
299.485
299.43
300.391
300.344
300.361
299.68
299.513
299.444
299.723
299.644
299.685
300.526
300.56
300.586
299.831
299.711
299.77
299.742
299.743
299.831
300.691
300.84
300.695
299.837
299.938
300.044
299.687
299.686
299.634
300.446
300.487
300.469
299.851
299.768
299.726
299.784
299.682
299.647
300.401
300.523
300.601
299.869
299.766
299.731
299.885
299.649
299.556
300.374
300.508
300.685
299.892
299.73
299.655
299.437
299.624
299.451
299.054
300.256
300.997
299.505
299.689
299.541
297.282
297.181
297.376
298.143
298.493
300.065
297.314
297.229
297.354
291.308
291.241
291.186
286.91
287.001
286.893
291.324
291.259
291.206
299.041
299.218
299.236
299.712
299.741
299.748
298.968
298.952
298.954
299.007
299.186
299.214
299.735
299.747
299.762
298.886
298.92
298.947
299.005
299.09
299.173
299.715
299.695
299.84
298.79
298.875
298.883
298.943
299.018
299.119
299.473
299.206
298.625
298.756
298.866
298.792
296.954
296.97
296.98
298.689
298.398
297.954
296.867
296.408
296.62
291.045
291.067
291.105
286.233
286.225
286.267
290.972
290.993
291.016
)
;

boundaryField
{
    fuel
    {
        type            fixedValue;
        value           uniform 293;
    }
    primary_air
    {
        type            fixedValue;
        value           uniform 293;
    }
    Secondary_air_RHS
    {
        type            fixedValue;
        value           uniform 293;
    }
    Secondary_air_LHS
    {
        type            fixedValue;
        value           uniform 293;
    }
    outlet
    {
        type            inletOutlet;
        inletValue      uniform 293;
        value           nonuniform List<scalar> 
18
(
293
286.233
293
293
286.225
293
293
286.267
293
293
286.91
293
293
287.001
293
293
286.893
293
)
;
    }
    stove_body
    {
        type            fixedValue;
        value           uniform 293;
    }
    frontAndBack
    {
        type            empty;
    }
}


// ************************************************************************* //
