/*--------------------------------*- C++ -*----------------------------------*\
  =========                 |
  \\      /  F ield         | OpenFOAM: The Open Source CFD Toolbox
   \\    /   O peration     | Website:  https://openfoam.org
    \\  /    A nd           | Version:  6
     \\/     M anipulation  |
\*---------------------------------------------------------------------------*/
FoamFile
{
    version     2.0;
    format      ascii;
    class       volVectorField;
    location    "0.5";
    object      U;
}
// * * * * * * * * * * * * * * * * * * * * * * * * * * * * * * * * * * * * * //

dimensions      [0 1 -1 0 0 0 0];

internalField   nonuniform List<vector> 
297
(
(53.2145 -0.0108949 0.200553)
(53.2125 0.000794086 0.201681)
(53.2144 0.0112407 0.201422)
(-8.10605e-06 0.00771077 0.297801)
(-7.60415e-06 0.000205979 0.289127)
(-7.21834e-06 -0.00741824 0.297989)
(-53.2144 -0.0113643 0.201323)
(-53.2125 -0.000978562 0.201686)
(-53.2145 0.0108316 0.200653)
(53.3261 -0.0129321 0.226638)
(53.2335 0.00429263 0.26873)
(53.3051 0.0186628 0.225413)
(-9.01664e-06 0.039562 0.297012)
(-7.87078e-06 0.000639072 0.177345)
(-6.62436e-06 -0.0387627 0.297413)
(-53.3049 -0.0190347 0.226084)
(-53.2325 -0.00474549 0.26888)
(-53.3202 0.012749 0.226926)
(50.2174 -0.122446 0.389325)
(54.3465 0.0116493 0.482079)
(49.3481 0.144647 0.392918)
(3.00184e-06 0.169993 -0.0403682)
(-6.55947e-06 0.00116616 0.200587)
(-1.65382e-05 -0.17286 -0.0392899)
(-49.1923 -0.144058 0.393212)
(-54.3304 -0.0130338 0.482193)
(-50.1843 0.121674 0.389729)
(41.9316 -0.676045 0.76548)
(45.8461 -5.15724 2.00725)
(48.9979 -6.72966 -2.23205)
(-0.00141819 -0.325193 5.02224)
(-0.00175712 0.00607029 3.29024)
(-0.00115899 -1.30692 4.69526)
(-40.4786 -1.82901 0.245322)
(-45.7273 -5.07924 2.27738)
(-48.7799 -6.69119 -1.93425)
(58.2355 10.8122 19.7128)
(55.5178 -3.00277 13.3451)
(54.0119 -9.37354 0.107247)
(-0.00266023 14.2334 56.2982)
(-0.00235478 0.267027 41.1322)
(-0.00385604 -14.306 54.1306)
(-58.6656 10.7266 21.6567)
(-55.404 -3.2736 13.9553)
(-53.7574 -9.05343 -0.299349)
(57.2851 3.71502 -4.92542)
(56.0077 3.59841 36.4603)
(53.1268 -2.89378 -17.0472)
(0.000236744 -11.4315 77.6917)
(-0.00101364 -0.642419 6.10373)
(-0.00259004 12.0694 74.1958)
(-57.6883 3.34361 -3.56809)
(-56.1598 4.29028 37.3874)
(-52.8661 -2.54226 -16.9038)
(51.3726 -11.3606 -65.8633)
(45.7154 4.03728 -22.8671)
(48.5032 9.14049 -69.0717)
(-0.000780712 -2.10894 12.3326)
(-0.0040204 -3.80561 -53.9987)
(0.00144355 1.34244 0.944298)
(-51.6013 -12.0741 -64.9982)
(-46.2099 3.5944 -21.2748)
(-48.2224 9.94065 -67.2569)
(49.5293 18.2336 -45.688)
(40.8843 7.80733 -43.5014)
(44.2156 -22.3787 -48.6876)
(-0.000534037 2.66729 -8.48078)
(0.00112853 -3.65293 -43.463)
(0.0122341 -3.17083 -18.6718)
(-49.8022 15.9283 -45.0981)
(-41.2646 7.32956 -42.7585)
(-43.0607 -17.8091 -46.8695)
(37.2704 19.4862 -19.7069)
(36.5482 8.72009 -16.2336)
(36.1411 -17.7075 -18.0071)
(-0.00438714 -3.30037 -12.7356)
(0.00187969 -3.1115 -13.8465)
(0.0137588 -12.4116 -17.0094)
(-38.8416 16.0631 -18.1564)
(-36.7973 14.4631 -14.968)
(-36.3145 -9.18322 -16.2388)
(46.7591 3.32707 -91.3402)
(50.1358 3.38027 34.8407)
(42.992 -4.46512 -93.1519)
(0.00264369 -8.28753 105.884)
(-0.00165027 -3.35286 -64.2019)
(0.0117556 9.1417 101.365)
(-47.0726 2.69319 -90.7491)
(-50.1505 3.90742 35.6979)
(-43.0128 -4.21294 -91.9242)
(46.7008 -1.74079 -93.9614)
(51.5456 3.3733 34.406)
(42.6527 0.229491 -95.4427)
(0.00256999 -5.88238 117.837)
(-0.00182963 -3.45488 -66.5011)
(0.0127257 6.8057 112.652)
(-46.9708 -2.3823 -93.3629)
(-51.6537 3.79344 35.2448)
(-42.6341 0.675672 -94.087)
(50.6874 -6.1513 -86.6555)
(51.8716 3.06217 32.3184)
(47.4709 4.18792 -89.2223)
(0.00258137 -3.45036 116.436)
(-0.00237824 -3.54998 -66.8765)
(0.0132933 4.3745 110.887)
(-50.974 -6.83284 -85.9746)
(-52.0238 3.18696 33.0979)
(-47.4116 4.61875 -87.5135)
(35.6303 32.4538 -10.6835)
(35.7504 -4.23965 -9.52156)
(35.5844 -30.8098 -8.29995)
(-0.00699079 15.8497 -5.68971)
(-0.00234086 1.62686 -6.20549)
(0.00177817 -15.5153 -6.74007)
(-35.6461 35.3707 -10.4317)
(-35.7614 19.8271 -10.0418)
(-35.6925 -26.8628 -6.94216)
(35.9626 24.5845 0.00573823)
(35.9573 -2.09807 -0.836566)
(35.8802 -24.4924 -0.809288)
(-0.00540928 4.48362 -1.95807)
(-0.00308398 1.0082 -3.47434)
(-0.00278252 -8.9339 -3.51009)
(-35.9881 25.7938 -0.0396554)
(-36.0364 8.28533 0.573977)
(-35.9687 -22.5022 -0.100774)
(36.0686 -6.76566 -3.34151)
(36.0441 -1.91122 -0.0897657)
(36.0269 -5.59656 -4.75709)
(-0.0047537 -1.6198 -5.04289)
(-0.00291569 -0.0331099 -2.38763)
(-0.00343281 -3.1887 -4.41828)
(-36.0988 3.19858 -5.59889)
(-36.1102 4.4526 -1.86852)
(-36.0599 -6.56399 1.04369)
(35.5917 -32.51 -2.69054)
(35.9775 -30.2982 -4.95555)
(35.9018 -25.3324 -7.57458)
(9.82924e-05 -19.1598 -4.47265)
(0.00336834 -18.8216 -4.53316)
(0.00676171 -12.7426 -4.58939)
(-35.6801 -27.5279 -4.55077)
(-35.9733 -22.9697 -8.30358)
(-35.8524 -15.7754 -10.8211)
(35.7169 -27.2607 0.628134)
(36.0434 -28.7566 -5.69114)
(35.6939 -23.6158 -12.1338)
(-0.00115569 -12.9719 1.01966)
(0.00338177 -13.708 1.36355)
(0.00500547 -12.1272 2.54875)
(-35.9423 -23.6233 -2.01454)
(-36.0313 -21.5277 -6.50919)
(-35.5732 -17.2456 -14.5213)
(36.0166 -15.0196 -2.67349)
(36.1168 -19.3568 -11.3022)
(35.6094 -20.9541 -16.3211)
(0.00313349 -2.53534 -1.38053)
(0.00953699 -5.53225 -0.32607)
(0.00639368 -5.38467 3.7633)
(-36.0601 3.59866 5.6914)
(-36.0542 -8.65894 -6.36052)
(-35.5833 -15.3893 -17.762)
(35.9401 23.4012 -14.399)
(36.0002 29.1377 -10.252)
(35.6446 34.2898 -6.49797)
(0.00344665 16.6684 -6.88752)
(-0.00421591 23.1759 -6.2231)
(-0.00590278 23.1261 -5.58598)
(-35.7873 25.3512 -14.8146)
(-36.0283 33.1017 -10.3764)
(-35.6175 37.8135 -6.80817)
(35.7509 22.4746 -14.2307)
(36.0674 27.3287 -6.20872)
(35.7969 27.5989 0.513299)
(-0.00159819 14.2786 1.83783)
(-0.0064637 16.4399 2.39166)
(-0.00609733 15.1578 2.97197)
(-35.5599 24.0116 -14.2111)
(-36.1086 31.4596 -4.86069)
(-35.7772 30.7709 2.32655)
(35.5971 19.6168 -19.3841)
(36.159 15.0845 -11.5008)
(36.1303 4.55247 0.0797851)
(-0.00778584 4.8239 4.31997)
(-0.0110867 2.84146 -2.52633)
(-0.00830298 1.27746 -2.30328)
(-35.5924 21.2122 -20.2024)
(-36.2252 19.5587 -12.9557)
(-36.1152 13.9723 -2.40396)
(35.962 -4.55251 -6.52388)
(35.9659 2.97764 -17.1436)
(35.7925 13.4828 -21.5059)
(0.00532142 -3.66606 0.212603)
(0.00611095 4.11567 -8.57677)
(0.00681528 10.9429 -7.43778)
(-35.9606 -4.99408 -7.18593)
(-35.9083 2.7268 -18.0941)
(-35.7095 15.853 -22.7674)
(35.9347 -0.43069 4.97931)
(35.9485 5.11368 -20.2544)
(35.7227 15.7783 -23.7408)
(0.00473458 -2.8405 10.3432)
(0.00524076 6.13806 -6.98366)
(0.00373791 9.36465 -4.80375)
(-35.9279 -0.60209 5.64824)
(-35.8947 6.08962 -20.9139)
(-35.6053 17.9286 -24.5599)
(35.8651 1.9453 1.38928)
(36.6809 4.60792 -23.2567)
(36.0264 10.9141 -30.1399)
(0.00444505 -2.86227 13.8262)
(0.00558767 4.65583 -11.198)
(0.00162965 8.36205 -6.69941)
(-35.8539 1.95422 1.43686)
(-36.7328 5.7383 -24.0897)
(-35.9685 11.696 -32.654)
(35.8591 4.31182 -3.82688)
(36.0418 2.5723 -32.1017)
(36.003 -9.50138 -49.0158)
(-0.00033962 1.22097 48.2443)
(-0.00125989 1.42587 25.9488)
(-0.001853 -11.2329 16.1776)
(-35.8625 5.14663 -4.17818)
(-36.0547 1.60226 -32.2407)
(-36.012 -8.89193 -47.5608)
(35.3553 0.332947 -99.8128)
(35.336 0.147885 -105.816)
(35.3624 5.94678 -99.6078)
(-0.00239261 1.19603 73.1274)
(-0.00229907 1.65377 62.2629)
(-0.00203504 0.924108 55.8085)
(-35.365 -0.0400734 -100.309)
(-35.3477 0.493631 -106.444)
(-35.3681 5.64088 -101.769)
(33.7126 0.109636 -139.763)
(33.7036 0.119442 -140.327)
(33.6909 -0.241785 -139.832)
(-0.00364015 0.810003 181.205)
(-0.00375548 1.22303 183.298)
(-0.00396096 0.471105 184.362)
(-33.7239 0.148002 -140.043)
(-33.7159 0.165539 -140.626)
(-33.7043 -0.212083 -140.198)
(35.8102 -18.6147 -10.0583)
(35.7082 -11.5298 -8.72559)
(35.7372 -7.97153 -11.9573)
(-0.000839318 -10.2455 -5.64444)
(-0.0162002 -4.2119 -3.78275)
(-0.0264939 -0.941057 -4.16398)
(-35.8051 -9.36779 -15.9165)
(-35.8652 -3.72971 -12.5785)
(-35.9236 7.79577 -4.98913)
(35.7171 -20.0305 -17.7111)
(35.7436 -10.7316 -13.5116)
(35.7751 -3.83161 -17.0081)
(-0.00159076 -10.8828 -0.382686)
(-0.0140334 -5.60873 0.517671)
(-0.023862 -0.815333 3.34091)
(-35.6019 -12.541 -21.2612)
(-35.7634 -8.98435 -15.2821)
(-35.9171 6.85419 1.76674)
(35.7396 -13.5103 -24.801)
(35.885 -12.8329 -19.4435)
(36.2051 -2.72074 -20.1042)
(-0.000359425 -9.46661 -2.35599)
(-0.00817882 -7.60554 -4.08468)
(-0.0186282 -1.51114 0.374926)
(-35.9628 -7.65366 -27.9265)
(-36.1786 -9.4897 -18.5335)
(-35.9344 -0.250354 4.56954)
(35.9693 7.74592 -36.8291)
(35.9661 2.82534 -34.37)
(36.0025 1.44404 -31.6893)
(0.00897874 7.679 21.8531)
(0.00704557 -1.05206 26.1421)
(0.00626452 -1.41022 32.0155)
(-35.9429 5.67936 -32.4769)
(-35.9406 -1.29997 -23.6541)
(-35.8542 -3.96744 -4.09742)
(35.3922 -3.44246 -94.7595)
(35.4033 0.224438 -95.9822)
(35.4135 -0.398752 -95.7758)
(0.0210639 0.447865 57.6666)
(0.0231505 -0.842063 60.276)
(0.0259365 -0.706128 62.9054)
(-35.3072 -3.29556 -93.2632)
(-35.255 -0.488026 -97.0948)
(-35.2863 0.341543 -92.3365)
(33.6847 0.142022 -135.927)
(33.6882 -0.00209462 -136.163)
(33.693 0.0220292 -136.169)
(0.00808708 0.110622 183.546)
(0.00814902 -0.481905 183.256)
(0.00856733 -0.3055 182.299)
(-33.6585 0.114167 -134.53)
(-33.6619 -0.0797707 -134.738)
(-33.6653 -0.102901 -134.373)
)
;

boundaryField
{
    fuel
    {
        type            fixedValue;
        value           uniform (0 0 0.25);
    }
    primary_air
    {
        type            fixedValue;
        value           uniform (0 0 2.5);
    }
    Secondary_air_RHS
    {
        type            fixedValue;
        value           uniform (0 66.6667 0);
    }
    Secondary_air_LHS
    {
        type            fixedValue;
        value           uniform (0 -66.6667 0);
    }
    outlet
    {
        type            pressureInletOutletVelocity;
        value           nonuniform List<vector> 
18
(
(0 0 -135.927)
(0.00808708 0.110622 183.546)
(0 0 -134.53)
(0 0 -136.163)
(0.00814902 -0.481905 183.256)
(0 0 -134.738)
(0 0 -136.169)
(0.00856733 -0.3055 182.299)
(0 0 -134.373)
(0 0 -139.763)
(-0.00364015 0.810003 181.205)
(0 0 -140.043)
(0 0 -140.327)
(-0.00375548 1.22303 183.298)
(0 0 -140.626)
(0 0 -139.832)
(-0.00396096 0.471105 184.362)
(0 0 -140.198)
)
;
    }
    stove_body
    {
        type            noSlip;
    }
    frontAndBack
    {
        type            empty;
    }
}


// ************************************************************************* //
