/*--------------------------------*- C++ -*----------------------------------*\
  =========                 |
  \\      /  F ield         | OpenFOAM: The Open Source CFD Toolbox
   \\    /   O peration     | Website:  https://openfoam.org
    \\  /    A nd           | Version:  6
     \\/     M anipulation  |
\*---------------------------------------------------------------------------*/
FoamFile
{
    version     2.0;
    format      ascii;
    class       volVectorField;
    location    "0.5";
    object      U;
}
// * * * * * * * * * * * * * * * * * * * * * * * * * * * * * * * * * * * * * //

dimensions      [0 1 -1 0 0 0 0];

internalField   nonuniform List<vector> 
297
(
(69.1469 -0.0165914 0.194815)
(69.1484 -0.000588844 0.199822)
(69.1469 0.0159744 0.195193)
(4.50313e-06 0.018911 0.304874)
(8.74492e-07 0.00197552 0.280935)
(-3.08879e-06 -0.0164144 0.303251)
(-69.1469 -0.0166576 0.194852)
(-69.1484 -0.000670677 0.199758)
(-69.1469 0.0159598 0.195231)
(69.3064 -0.0423791 0.212895)
(69.5692 -0.00173891 0.227136)
(69.3061 0.0415748 0.210373)
(4.3918e-06 0.0536259 0.26549)
(2.93797e-07 0.00343867 0.340945)
(-3.53245e-06 -0.0340244 0.275402)
(-69.3065 -0.0423862 0.212869)
(-69.5692 -0.00182859 0.227225)
(-69.3063 0.0414949 0.210344)
(72.106 -0.251813 0.472876)
(72.079 -0.00150694 0.368649)
(72.0468 0.254469 0.472104)
(3.79224e-06 0.0297531 0.183901)
(-3.14285e-07 0.00841131 -0.234139)
(-3.48327e-06 -0.0586062 0.177535)
(-72.1069 -0.252028 0.472922)
(-72.0797 -0.00161114 0.368554)
(-72.0476 0.254647 0.472166)
(50.3176 -0.764102 -2.01398)
(53.35 -0.908935 -2.41683)
(54.029 -3.85318 -0.536511)
(0.00293971 -0.473219 4.16593)
(0.00176924 0.602776 3.99762)
(0.00354576 -0.537367 5.25942)
(-49.324 -2.95977 -1.57146)
(-54.2333 -3.79073 -1.52512)
(-55.818 -4.14141 -3.19249)
(62.5863 -0.154948 15.934)
(58.6704 -4.26171 -0.777551)
(61.6387 -11.7745 2.73092)
(-0.00360882 2.44759 39.4504)
(-0.00231967 -0.260104 25.0943)
(0.00419079 -9.38157 38.4365)
(-58.7449 -3.59137 16.2733)
(-59.0864 -4.99807 -2.80033)
(-60.7133 -6.25537 -3.87333)
(65.2046 7.49367 8.69381)
(55.2574 6.34067 -12.4475)
(60.8114 -14.0507 -3.1983)
(-0.00745988 -5.28029 55.1486)
(-0.000163118 1.35734 16.3689)
(0.00143001 5.48744 53.1267)
(-66.506 16.9874 25.5712)
(-56.4396 3.77492 -3.47073)
(-59.9877 -5.02673 -10.0705)
(59.0311 -6.08358 -37.4501)
(54.071 0.160232 -31.7477)
(56.6092 -5.53895 -54.6714)
(0.0119498 0.304182 26.6229)
(8.40616e-05 -5.61241 -17.1689)
(-0.014619 0.58313 7.9609)
(-59.0259 4.80585 -42.6686)
(-53.7511 5.1193 -32.0274)
(-56.9508 4.43638 -44.8341)
(60.7249 9.48098 -23.9557)
(53.5006 3.64554 -38.2686)
(52.3944 -18.0495 -34.5165)
(0.031096 1.48733 18.2951)
(0.00860402 -2.46634 -10.001)
(-0.0118793 -2.07256 -0.462749)
(-56.835 19.189 -24.5243)
(-53.4084 4.36225 -36.996)
(-57.1461 -13.7678 -31.9267)
(55.723 19.5503 -22.3228)
(52.2824 16.7616 -29.2986)
(50.4437 -22.3366 -32.0517)
(0.0203905 1.12697 15.5895)
(-0.000488999 1.08382 -16.3815)
(-0.0244622 1.70824 5.40211)
(-51.5625 30.7929 -30.6885)
(-50.2167 -12.1362 -32.2289)
(-54.5738 -18.9354 -24.8809)
(58.9273 11.1772 -43.3516)
(52.2083 6.12589 -21.882)
(54.2903 -16.4601 -54.3444)
(-0.0258694 -0.644083 73.4885)
(-0.000687082 0.583467 -24.098)
(0.0557738 3.60983 72.2867)
(-61.1757 22.8391 -41.8054)
(-52.0608 2.7308 -20.7736)
(-52.4447 -8.03165 -53.3817)
(57.3039 2.97293 -48.0207)
(52.9633 3.82433 -23.9041)
(51.0524 -10.1404 -58.5163)
(-0.0266125 -0.72007 80.8428)
(-0.00114801 -0.202475 -25.291)
(0.055822 2.7066 80.2813)
(-57.1629 12.0564 -45.8902)
(-52.6107 3.64262 -22.047)
(-51.9613 -2.87944 -56.9649)
(56.1157 -1.06795 -45.2994)
(53.3521 3.3556 -26.4818)
(47.1514 -8.53415 -58.1713)
(-0.0293658 1.98391 84.3007)
(-0.001664 -2.11415 -23.4387)
(0.0640393 1.75603 79.4297)
(-52.0417 9.51 -45.4252)
(-53.3833 3.7181 -25.3134)
(-54.205 0.524544 -54.369)
(49.7687 39.2503 -7.74979)
(48.8681 8.70126 -10.5659)
(47.1707 -41.4796 -9.50744)
(0.0103631 -2.33553 10.9648)
(0.0030565 5.28569 -5.79997)
(-0.00929243 5.26717 0.482212)
(-47.3992 41.9281 -9.11675)
(-48.0213 -10.6265 -8.81342)
(-48.5372 -39.8773 -7.73423)
(49.1183 34.2237 -1.10396)
(48.609 19.5422 -3.0589)
(47.0618 -30.1736 3.71156)
(0.0190323 0.0092714 5.7898)
(0.00327773 2.93635 -4.6144)
(-0.0115733 -3.67708 -1.54659)
(-47.5174 28.25 3.72542)
(-47.4757 -25.0214 -3.50164)
(-47.4314 -36.415 -1.10133)
(48.8962 4.27056 5.00433)
(48.8595 10.7334 2.3228)
(47.7715 8.01197 -1.3826)
(0.0156944 -2.95699 -0.414594)
(0.00270371 3.60726 -0.814095)
(-0.00831727 7.4229 -0.0126504)
(-47.6173 -6.47654 -1.60059)
(-47.7029 -10.2497 2.05396)
(-47.6206 -2.73497 4.59875)
(46.7943 -48.1932 -5.55603)
(46.0859 -52.257 -9.0953)
(45.7768 -58.1931 -11.0587)
(0.0666406 9.19786 1.27357)
(0.0913534 -1.25784 -1.46252)
(0.171879 -10.565 -7.73641)
(-46.4435 -43.0674 -2.45024)
(-46.3492 -47.7409 -8.39621)
(-46.865 -30.0132 -22.7639)
(46.7988 -37.1229 8.3583)
(47.0639 -42.0124 7.34149)
(46.9565 -46.772 3.63246)
(0.0257077 7.87116 0.502633)
(0.0559356 0.227267 3.62548)
(0.139941 -2.02355 10.232)
(-46.6917 -37.1578 3.61189)
(-47.2945 -43.1506 -6.98423)
(-46.4122 -24.9509 -24.0435)
(47.3217 7.73583 4.15212)
(47.3979 12.6727 5.06912)
(47.0716 22.5854 9.92576)
(0.014701 15.0292 -0.332445)
(0.0333219 15.6195 2.19671)
(0.0638115 24.5627 7.99134)
(-47.3557 -12.6531 12.9207)
(-47.4259 -3.77842 11.3944)
(-46.3858 -22.1532 -33.5456)
(46.9182 29.4266 -22.6291)
(46.732 47.2914 -11.3148)
(46.2776 43.5235 -4.06226)
(-0.158145 10.341 -10.1012)
(-0.0767319 7.97697 -7.29192)
(-0.0540701 -1.91361 1.26268)
(-45.719 56.5618 -10.8607)
(-45.8712 51.1615 -9.31702)
(-46.5661 48.1621 -6.65435)
(46.651 23.8218 -23.6771)
(47.5343 41.3199 -8.13919)
(47.8847 35.5861 2.6434)
(-0.135876 -0.7122 10.9205)
(-0.0548411 -8.81128 6.05848)
(-0.0206961 -10.8669 4.51613)
(-47.0881 45.1822 4.25201)
(-47.175 40.4057 7.37717)
(-47.2531 35.2598 8.82515)
(46.8475 20.9615 -32.8245)
(47.9423 1.38578 16.0209)
(48.602 10.4592 14.2406)
(-0.0718075 -28.9321 7.74065)
(-0.0340948 -19.4627 0.536798)
(-0.00842046 -14.092 0.206555)
(-47.9307 -22.675 9.46361)
(-47.7284 -12.8385 5.00818)
(-47.5532 -7.6987 3.79299)
(46.4865 -10.4527 -12.9196)
(46.5066 2.0978 -34.1948)
(46.5542 20.6806 -31.3135)
(0.0704332 5.06502 -9.02585)
(-0.046825 2.69817 -10.8032)
(-0.16157 11.8713 -10.7175)
(-45.0101 24.9767 -34.5542)
(-44.8054 32.5236 -25.6724)
(-46.2871 54.3974 -19.578)
(46.525 -6.00858 10.3386)
(46.4952 8.50501 -41.9575)
(46.4606 18.5087 -40.3019)
(0.000282734 3.0489 11.4851)
(-0.124891 4.15243 9.90154)
(-0.183542 9.82613 11.0667)
(-45.4423 6.00768 -57.7782)
(-45.7848 23.5562 -31.8123)
(-47.1284 41.1773 -6.17634)
(46.4608 0.528284 4.78999)
(48.3947 4.07141 -52.0048)
(47.3381 12.2693 -53.7571)
(-0.0814948 -0.151442 2.4484)
(-0.171609 -10.281 12.6704)
(-0.181084 -22.3845 17.4692)
(-47.4456 2.8159 -73.8696)
(-46.3619 21.2548 -21.6025)
(-47.0924 -18.0641 21.6604)
(46.5014 5.48271 -16.6146)
(46.8777 3.26184 -70.7265)
(46.6763 -7.71113 -86.7317)
(-0.301041 0.358383 59.2513)
(-0.30235 -1.40735 33.9207)
(-0.313576 -13.2552 33.1658)
(-47.2255 -9.70776 -102.425)
(-47.4682 13.8523 32.1745)
(-47.8653 -6.10042 71.4558)
(45.7459 1.27419 -130.652)
(45.779 1.59503 -136.803)
(45.6643 6.64064 -135.118)
(-0.159926 2.91271 86.3111)
(-0.158435 4.46254 71.2344)
(-0.171761 0.136578 68.9955)
(-45.8484 2.91803 -135.677)
(-46.0884 -4.46754 -67.2712)
(-46.6087 -0.488625 113.47)
(43.9919 0.103664 -163.03)
(44.0108 0.290619 -164.276)
(43.8615 -0.702152 -163.514)
(0.30123 0.244414 164.239)
(0.319944 1.88119 175.588)
(0.340185 -0.189602 203.226)
(-43.2249 -5.44992 -153.717)
(-43.1406 -7.19602 -108.991)
(-44.6663 -4.87435 -1.37457)
(46.3295 -55.5651 -20.3785)
(44.8077 -33.3094 -26.411)
(45.1696 -25.5434 -35.4217)
(0.172915 -11.7107 -9.11959)
(0.0515236 -3.05259 -9.68518)
(-0.0723325 -4.86884 -9.10547)
(-46.571 -20.6665 -29.8608)
(-46.4258 -2.0539 -33.8189)
(-46.487 10.5294 -12.2704)
(47.0026 -41.9734 -6.67107)
(45.6223 -24.3241 -32.8485)
(45.5737 -6.18166 -58.9568)
(0.193549 -10.2294 10.2138)
(0.131174 -4.13006 9.51507)
(-0.00172637 -2.84156 12.2329)
(-46.4961 -19.6898 -41.9666)
(-46.5128 -8.71265 -43.4714)
(-46.5136 6.18153 10.0774)
(46.1494 17.1538 21.7594)
(46.0959 -21.8114 -22.1261)
(47.5629 -2.76054 -75.1657)
(0.176859 18.8748 17.8016)
(0.170888 7.56687 11.6108)
(0.0790253 -0.556149 1.63023)
(-47.4942 -11.8945 -54.8978)
(-48.4971 -4.47438 -53.2487)
(-46.4273 -0.265916 6.28952)
(47.1313 5.64998 71.4785)
(46.9682 -13.2564 28.8003)
(46.9575 9.93628 -103.868)
(0.297473 12.1985 32.0497)
(0.290887 1.6251 33.3045)
(0.292707 -0.419198 58.5024)
(-46.8966 7.38161 -90.0061)
(-47.0124 -2.42929 -71.9544)
(-46.5607 -6.30769 -15.8931)
(45.8034 0.100795 112.922)
(45.874 4.79912 -72.3899)
(45.8011 -2.97121 -137.543)
(0.165421 -0.160304 68.7101)
(0.153271 -4.28057 71.9383)
(0.156579 -2.87643 86.8863)
(-45.2092 -6.41589 -137.155)
(-45.5832 -2.15695 -138.383)
(-45.6557 -1.08346 -132.173)
(43.9587 4.66741 -2.28666)
(42.9284 7.33145 -111.145)
(43.1839 5.43443 -155.747)
(-0.335464 0.076999 201.113)
(-0.316646 -1.78818 174.508)
(-0.29853 -0.281909 163.636)
(-43.8235 0.52601 -164.67)
(-43.9832 -0.275171 -165.596)
(-43.9695 -0.162794 -164.613)
)
;

boundaryField
{
    fuel
    {
        type            fixedValue;
        value           uniform (0 0 0.25);
    }
    primary_air
    {
        type            fixedValue;
        value           uniform (0 0 2.5);
    }
    Secondary_air_RHS
    {
        type            fixedValue;
        value           uniform (0 47.2222 0);
    }
    Secondary_air_LHS
    {
        type            fixedValue;
        value           uniform (0 -47.2222 0);
    }
    outlet
    {
        type            pressureInletOutletVelocity;
        value           nonuniform List<vector> 
18
(
(0 0 -2.28666)
(-0.335464 0.076999 201.113)
(0 0 -164.67)
(0 0 -111.145)
(-0.316646 -1.78818 174.508)
(0 0 -165.596)
(0 0 -155.747)
(-0.29853 -0.281909 163.636)
(0 0 -164.613)
(0 0 -163.03)
(0.30123 0.244414 164.239)
(0 0 -153.717)
(0 0 -164.276)
(0.319944 1.88119 175.588)
(0 0 -108.991)
(0 0 -163.514)
(0.340185 -0.189602 203.226)
(0 0 -1.37457)
)
;
    }
    stove_body
    {
        type            noSlip;
    }
    frontAndBack
    {
        type            empty;
    }
}


// ************************************************************************* //
