/*--------------------------------*- C++ -*----------------------------------*\
  =========                 |
  \\      /  F ield         | OpenFOAM: The Open Source CFD Toolbox
   \\    /   O peration     | Website:  https://openfoam.org
    \\  /    A nd           | Version:  6
     \\/     M anipulation  |
\*---------------------------------------------------------------------------*/
FoamFile
{
    version     2.0;
    format      ascii;
    class       volScalarField;
    location    "2";
    object      O2;
}
// * * * * * * * * * * * * * * * * * * * * * * * * * * * * * * * * * * * * * //

dimensions      [0 0 0 0 0 0 0];

internalField   nonuniform List<scalar> 
297
(
0
0
0
0
0
0
0
0
0
0
0
0
0
0
0
0
0
0
0
0
0
0
0
0
0
0
0
0.0944887
0.130118
0.211534
0.181002
0.2039
0.226347
0.103579
0.139777
0.214986
0
0.0577975
0.081267
0.0197122
0.147253
0.197115
0
0.0440042
0.0655479
0
0.0446841
0
0.0143647
0.0230998
0.10754
0
0.0368667
0
0.00633988
0.0159505
0.00510527
0
0.00347674
0
0.00531157
0.0136001
0.00416489
6.37665e-07
3.25952e-07
1.67331e-07
1.97061e-07
9.22275e-08
7.17968e-09
5.11137e-07
4.5577e-07
9.85629e-08
4.1464e-11
3.65836e-12
3.9764e-12
2.71231e-11
1.58702e-11
5.98461e-12
2.77308e-11
1.55617e-11
4.01421e-12
0
0.0380078
0
0
0.00347614
0.0528819
0
0.0304953
0
0
0.0375381
0
0
0.00347588
0.014418
0
0.0301576
0
0
0.0364626
0
0
0.00347637
0
0
0.0294214
0
3.47098e-15
3.88362e-16
1.23371e-16
9.39276e-16
8.24615e-16
1.5472e-16
1.03267e-15
8.676e-16
3.36842e-16
1.21417e-18
1.46523e-18
1.63644e-19
1.94771e-19
6.06712e-19
9.42033e-20
3.09815e-19
4.79255e-19
1.10755e-19
1.16882e-18
1.39688e-18
9.09314e-19
1.22908e-19
6.03217e-19
2.06286e-19
3.83059e-19
4.91385e-19
2.57749e-19
1.43536e-21
5.7761e-26
1.16366e-30
3.31055e-21
1.34581e-25
1.25953e-28
6.17555e-21
1.29732e-24
1.90453e-27
5.39471e-24
3.79664e-27
8.36084e-31
2.45852e-24
2.05827e-25
5.56816e-29
2.70169e-22
8.73789e-24
2.93745e-27
1.79897e-22
2.34549e-26
2.39649e-30
1.4467e-21
1.65341e-25
1.6794e-29
4.33714e-20
1.50416e-22
5.00627e-27
6.25998e-26
2.99612e-23
1.25871e-19
4.00442e-27
1.66495e-24
1.12351e-20
1.33521e-29
2.50322e-25
1.18753e-20
8.99539e-26
7.09715e-22
8.92402e-21
3.22573e-27
5.66798e-23
6.6421e-23
8.15598e-30
5.2301e-27
1.4995e-23
2.00972e-25
2.94726e-21
3.25402e-19
4.25447e-28
2.72599e-25
1.40765e-21
1.76919e-29
2.75393e-26
7.92067e-23
6.84629e-30
8.77594e-30
1.87016e-29
1.23499e-30
1.39272e-30
3.22759e-30
3.70277e-35
1.47988e-35
1.40499e-33
2.27675e-30
2.34765e-33
6.49203e-30
9.41679e-31
2.34788e-32
6.08473e-31
2.51839e-35
1.10788e-36
5.25835e-34
1.09716e-32
3.87584e-34
5.75219e-30
4.15122e-31
6.8532e-33
7.90285e-31
7.38663e-36
9.15982e-37
3.29831e-34
1.18097e-35
2.91424e-36
6.1269e-35
1.0504e-31
2.8746e-35
5.50837e-35
2.72683e-36
8.08427e-37
3.47093e-38
7.07055e-37
1.61659e-37
2.49483e-38
4.85257e-32
6.46931e-33
7.21667e-34
4.94072e-37
1.50499e-37
2.14025e-38
7.81664e-38
1.42391e-38
1.44801e-39
2.23223e-32
3.8603e-33
3.98414e-34
1.47294e-37
2.71443e-38
2.72175e-39
6.18243e-35
2.71049e-36
3.07625e-35
1.32355e-31
9.88075e-32
5.4678e-31
4.79046e-31
1.70951e-31
1.10794e-30
6.11897e-35
1.45203e-36
3.71551e-35
1.64056e-32
7.77673e-33
6.53423e-31
1.47782e-31
4.2879e-34
1.40181e-30
5.74419e-35
1.48261e-36
1.2784e-35
1.44609e-32
1.82265e-33
5.6493e-31
1.08521e-31
4.18775e-34
4.02742e-31
1.40885e-38
1.5043e-36
4.86939e-36
7.94736e-36
1.11963e-34
1.76329e-31
3.61547e-35
5.93209e-34
5.16739e-33
2.60736e-38
2.84526e-37
9.80987e-37
9.65268e-34
1.52445e-32
1.16197e-31
2.09808e-38
2.20551e-37
1.2424e-36
1.88207e-39
3.16652e-38
1.88894e-37
5.93132e-34
8.79376e-33
5.38237e-32
3.46758e-39
6.12075e-38
3.43555e-37
)
;

boundaryField
{
    fuel
    {
        type            fixedValue;
        value           uniform 0;
    }
    primary_air
    {
        type            fixedValue;
        value           uniform 0.23;
    }
    Secondary_air_RHS
    {
        type            fixedValue;
        value           uniform 0.23;
    }
    Secondary_air_LHS
    {
        type            fixedValue;
        value           uniform 0.23;
    }
    outlet
    {
        type            inletOutlet;
        inletValue      uniform 0;
        value           nonuniform List<scalar> 
18
(
0
5.93132e-34
0
0
8.79376e-33
0
0
5.38237e-32
0
0
2.23223e-32
0
0
3.8603e-33
0
0
3.98414e-34
0
)
;
    }
    stove_body
    {
        type            fixedValue;
        value           uniform 0;
    }
    frontAndBack
    {
        type            empty;
    }
}


// ************************************************************************* //
