/*--------------------------------*- C++ -*----------------------------------*\
  =========                 |
  \\      /  F ield         | OpenFOAM: The Open Source CFD Toolbox
   \\    /   O peration     | Website:  https://openfoam.org
    \\  /    A nd           | Version:  6
     \\/     M anipulation  |
\*---------------------------------------------------------------------------*/
FoamFile
{
    version     2.0;
    format      ascii;
    class       volScalarField;
    location    "2";
    object      p;
}
// * * * * * * * * * * * * * * * * * * * * * * * * * * * * * * * * * * * * * //

dimensions      [1 -1 -2 0 0 0 0];

internalField   nonuniform List<scalar> 
297
(
117856
117856
117856
196375
196375
196375
117856
117856
117856
117856
117856
117856
196375
196375
196375
117856
117856
117856
117856
117856
117856
196375
196375
196375
117856
117856
117856
98168.7
97971.7
97930.4
163060
162969
163024
98143.3
97958
97924.6
98550.4
97732.1
97785.9
162726
162607
162487
98532.7
97728.1
97723.1
97559.5
96525.8
96981
158440
160560
158992
97583.3
96513.7
96844.1
95450.2
96703.3
95450.7
160635
159401
159894
95228.2
96575.9
95627.1
97817.2
97688.4
97508.1
163031
162388
162485
97803.1
97709.3
97545.2
97873.3
97869.5
97725.1
162884
163005
162969
97693.5
97858.3
97872.5
85716.5
95156.4
91038.7
140723
156452
150469
85742.6
95145.7
91647.7
85282.7
95157.8
90737.9
139588
156217
149626
85377.7
95136.6
91482
86202
95337.7
91091.4
140965
156528
149905
86385.6
95301.4
91930
97896
97925.6
97887.7
163053
163100
163041
97903.2
97934.3
97891.9
97886.8
97921.5
97943
163109
163113
163090
97962.6
97932.9
97875.3
97886
97919.4
97953.8
163129
163116
163107
97975.3
97929.1
97871.7
98011.9
98120.9
98352.8
163091
163138
163219
97918.5
98000.9
98184.5
97959.4
97994.3
98127.9
163082
163081
163113
97865.3
97904.6
98019.5
97924.4
97870
97827.6
163096
163073
163050
97852.2
97843.9
97820.5
98119
97998.1
97930.8
163226
163171
163127
98380.3
98160.2
98051.9
98006.4
97928.8
97896.1
163138
163123
163116
98170.5
98043.3
98001.1
97871.9
97884.3
97891.1
163088
163110
163130
97903.1
97929.6
97969.8
98047.6
98070.5
98142.7
163341
163336
163298
98560.2
98613.7
98587.7
98032.9
98048.4
98074.6
163244
163238
163202
98512.5
98533.7
98410.3
98042.2
98067.7
98033.9
163103
163125
163103
98463
98497.1
98304.9
97921.6
97908.3
97868.3
162434
162446
162391
97821.7
97781.4
97737.9
94223.6
94201.4
94202
155874
155868
155862
93930
93898.7
93910.9
87599.7
87591.7
87589
140971
140962
140949
87314.7
87309.4
87311.3
98549
98578.2
98541.3
163318
163356
163355
98244.7
98145.8
98102.9
98375
98505.7
98491.5
163200
163244
163248
98133.7
98095.3
98071.4
98256.3
98462.5
98431.5
163082
163111
163092
98059.1
98096.6
98065.6
97682.9
97716.2
97752.5
162323
162369
162351
97862.5
97895.9
97906
93831.3
93820.9
93852.9
155723
155730
155735
94120.1
94125.3
94148.2
87193.2
87190.9
87196.2
140735
140749
140757
87410.9
87415.1
87424.6
)
;

boundaryField
{
    fuel
    {
        type            zeroGradient;
    }
    primary_air
    {
        type            zeroGradient;
    }
    Secondary_air_RHS
    {
        type            zeroGradient;
    }
    Secondary_air_LHS
    {
        type            zeroGradient;
    }
    outlet
    {
        type            totalPressure;
        rho             rho;
        psi             none;
        gamma           1;
        p0              uniform 100000;
        value           nonuniform List<scalar> 
18
(
90491.9
100000
90739
90478.6
100000
90741.5
90503.1
100000
90762.8
90900.8
100000
90604.2
90880.9
100000
90579.9
90882.8
100000
90594.2
)
;
    }
    stove_body
    {
        type            zeroGradient;
    }
    frontAndBack
    {
        type            empty;
    }
}


// ************************************************************************* //
