/*--------------------------------*- C++ -*----------------------------------*\
  =========                 |
  \\      /  F ield         | OpenFOAM: The Open Source CFD Toolbox
   \\    /   O peration     | Website:  https://openfoam.org
    \\  /    A nd           | Version:  6
     \\/     M anipulation  |
\*---------------------------------------------------------------------------*/
FoamFile
{
    version     2.0;
    format      ascii;
    class       surfaceScalarField;
    location    "2";
    object      phi;
}
// * * * * * * * * * * * * * * * * * * * * * * * * * * * * * * * * * * * * * //

dimensions      [1 0 -1 0 0 0 0];

internalField   nonuniform List<scalar> 
675
(
1.74096e-06
-2.88519e-05
0.000152418
-1.89476e-06
-2.60448e-05
0.000154975
-2.88215e-05
0.000152234
2.84863e-06
2.96031e-05
0.000146162
-2.44618e-06
2.15924e-05
0.000165139
2.9566e-05
0.000146632
2.95795e-06
0.000151967
-3.10799e-06
0.000152962
0.000151779
9.56627e-07
-3.87456e-05
0.000190715
-1.19676e-06
-4.76392e-05
0.00020527
-3.84728e-05
0.000190017
-2.39505e-07
3.93745e-05
6.78022e-05
1.14098e-06
3.9832e-05
7.57701e-05
3.90904e-05
6.97335e-05
2.00059e-06
0.000189861
-2.24393e-06
0.000197542
0.000189146
6.62375e-06
5.97978e-05
-8.06348e-06
9.57506e-05
5.7661e-05
-2.03459e-05
-5.92655e-05
2.25183e-05
-8.73301e-05
-5.71439e-05
6.31315e-06
-7.7204e-06
0.00485967
0.00299308
-0.00462711
0.00504913
0.00216221
0.000864794
0.00363791
0.00466193
0.00868295
-0.00279274
0.00256927
0.00417886
-0.00209681
0.014149
-0.00351511
0.016749
0.00438076
-0.00395015
0.00473663
0.000778264
0.00450783
0.00519545
0.00537994
-0.0151968
-0.00570297
-0.00153564
0.0133049
0.00430015
-0.00531974
0.00210858
-0.00514692
0.0109795
0.00520284
-2.65036e-05
0.00956895
-0.00496457
0.0312197
0.00479396
-0.0138905
-0.00792533
0.0134589
-0.00834828
0.000258172
0.0123954
-0.0278412
-0.00476441
-0.0038445
0.0221804
0.0142476
-0.0243073
-0.0346029
-0.0122198
0.0701997
0.0193439
0.00392176
-0.0521129
-0.0148057
0.0796451
0.000316637
-0.0264263
-0.00442853
0.0221184
-0.0275621
-0.017607
-0.0149687
-0.010844
0.0434319
0.0137271
0.0087332
-0.0222424
-0.0177998
-0.0129344
-0.0158366
0.0425225
-0.00014154
0.0160413
0.0129441
-0.0438108
-0.00644077
-0.0069943
-0.0449573
0.0670263
0.0107977
0.0196889
-0.0498353
-0.0164072
-0.00958357
0.0420205
0.0142397
-0.0200218
-0.0176276
-0.021463
0.0465371
8.1973e-06
-0.00662133
-0.00420067
-0.00672508
0.00740654
-0.0229911
-0.00801119
-0.0144943
0.000374795
0.00897577
-0.00305862
-0.0190365
-0.00287173
-0.0151709
0.00176083
-0.00906579
0.00522735
-0.00591681
0.000467557
-0.018062
-0.0189006
-0.00387515
0.0075183
-0.00784704
-0.0153798
-0.000346542
-0.0111407
-0.0161286
-0.0137445
0.0109159
0.0105517
-0.016992
0.00900331
0.0013234
-0.0149092
-0.00187994
-0.014291
0.0192019
-0.0145454
0.0137411
-0.0112624
-0.00703076
-0.000796821
-0.000597654
-0.0330231
0.000516697
-0.000501482
0.0213692
-0.000708387
-0.030066
-0.00286475
0.000600606
0.0610687
0.00134206
0.000480285
-0.0572987
0.000573706
0.068162
-0.000788063
-0.031617
0.000490684
0.0213198
-0.0335279
-0.00105647
-0.000194645
-0.038315
0.000976747
-0.00041426
0.019751
0.000185907
-0.0362358
-0.00234425
0.000199783
0.0523082
0.00201893
0.000385523
-0.0624589
-0.000352603
0.059241
-0.00104386
-0.036925
0.000946403
0.019715
-0.0399513
-0.00162476
0.000128199
0.000927483
-0.000600236
0.000226556
-0.00198179
-0.000208548
0.00139895
0.000589255
-0.000468842
-0.00174225
0.000934332
0.000804102
-0.000290184
-0.00145178
-0.00690928
-0.0072891
-0.000829327
-0.0022201
-0.00134843
-0.00798833
-0.0116995
0.00337574
0.00134383
-0.0102414
-0.0117551
-0.0055157
0.000530821
-0.00737266
0.000480562
-0.00960459
-0.012026
0.00663816
-0.00821509
-0.0116235
-0.00162651
-0.00246426
-0.000234702
-0.00793751
0.00437044
-6.62208e-05
-0.000240093
-0.00551645
0.000102055
0.000260166
0.00178662
0.000303535
-0.000729436
-0.00746154
0.00205868
-0.0002752
-0.0040376
-0.00804894
-0.00228943
-0.000321182
-0.00243846
-2.45681e-05
-0.00361714
-0.00794101
-0.000448478
-0.000746044
-0.00729558
-0.00533602
0.00210299
0.000579047
-0.0061705
-0.000331774
5.84161e-05
3.25675e-05
0.00103822
0.000415541
0.00113233
-0.000821418
0.000446404
-0.00107921
-0.00334314
-0.000972865
-0.000598939
-0.000439068
-0.0030084
-0.00143476
-0.000391486
6.98135e-05
0.000213086
-0.0105418
-0.000151842
-0.00100551
-0.0106467
0.00146422
-0.00135851
0.00173087
-0.00471467
-0.00766127
-0.0116549
0.000178115
-0.000696533
-0.00947084
-0.00108255
0.000366516
-0.00120523
0.000929757
-0.00746045
-0.00761488
-0.000141997
-0.00761945
-0.00107646
-0.00485461
-0.00396821
-0.00819206
-9.61987e-05
-0.0001788
-0.00791563
0.000753177
-0.00238667
0.000358238
-0.00539703
-0.00758923
-0.0089264
8.60824e-05
0.000110731
-0.00742975
-0.000460797
8.75968e-05
3.37076e-05
0.000732352
-0.00690363
-0.00611484
-0.000109765
-0.00615124
-0.00149947
-0.00590066
-0.00506975
-0.00139494
0.000394988
-0.00332768
-0.00045269
-0.00107908
-0.007643
-0.00247342
-2.48033e-05
-0.00314444
0.000310237
0.00109002
-0.00457686
7.88164e-05
-0.0011094
-0.00591783
0.00665377
0.00111296
-0.00425346
-0.00351223
0.00657305
0.000992361
-0.000910789
0.000117583
-0.000453745
0.00888305
-0.00150164
0.000868928
-0.00713587
0.0110763
-0.00150967
0.000310231
0.000144412
-0.00070474
0.010237
-0.00440277
-0.00733935
0.0103022
-0.00157727
-0.00117663
0.00580661
-0.000108738
-0.00521746
-0.00473307
0.00564141
0.000578276
-0.00132294
-6.02256e-05
-0.00026811
0.00689551
-0.000276403
0.000693432
-0.00655111
0.0089348
-0.00104867
-0.000100515
9.70584e-05
2.51816e-05
0.00783896
-0.00519399
-0.00732709
0.00801336
-0.00280255
-0.000362273
0.00144995
-0.000996911
-0.00566987
0.000272505
-0.000144133
3.83984e-05
0.00344576
0.000962348
-0.00471043
0.00283707
0.000365078
-0.000440965
0.00363589
-0.00786852
0.00119615
-0.00109059
0.000631998
0.000459211
-0.000604803
0.000653663
-0.00113864
0.000603851
-0.00471996
-0.000733938
-0.001669
0.0030361
0.00342841
-0.00179321
-0.00171387
-0.00114688
-0.00195568
-0.0017412
7.09089e-05
0.00201891
-0.00555567
-0.00647069
-0.000150772
0.000755268
-0.000144234
0.00231964
0.000490876
-0.00409889
0.000108864
-0.00724159
0.000221102
-0.00153404
0.00510583
0.00422248
-0.00158507
-0.00363819
-0.000675163
-0.00349948
-0.000391752
-0.0010734
0.00423649
-0.0117717
-0.0102388
-0.000497172
0.00105537
-0.000700458
0.00188674
0.00130797
-0.00778953
0.000882061
-0.0119061
0.000226241
-0.00140545
0.00734212
0.00405841
-0.00400116
-0.00216055
-0.00148221
-0.00178664
-0.00264342
0.000161949
0.00637423
-0.0247938
-0.0132169
0.00232511
0.0100306
-0.0130547
0.00315883
0.0100746
-0.0186951
0.0106857
-0.0194312
-0.00158385
-0.00792915
0.0268934
-0.00307966
-0.00972361
0.0191427
-0.00911052
0.014933
0.00944911
-0.0172144
-0.00179552
-0.023272
-0.0241269
0.00302378
0.00879876
-0.0248793
0.00231243
0.00837008
-0.0263547
0.00869752
-0.0258182
0.004971
-0.00604708
0.0367617
0.0031846
-0.00555399
0.0348491
-0.00608868
0.0328981
0.00363716
-0.0269035
0.00308689
-0.0282812
-0.0271286
0.000752834
0.0204415
0.000167454
0.0203489
0.0204636
0.00280454
-0.0193092
0.00223418
-0.0192507
-0.0194175
0.000525816
-0.000214274
-0.00215353
0.00127306
-0.00677939
0.00174865
0.00176574
-0.00566652
0.00166335
8.76679e-05
-0.00328153
-0.000892724
-0.00201004
0.000959495
-0.000850608
-0.00162127
-0.000725647
0.00335166
0.000688043
-0.00554847
0.00164805
-0.00180931
0.000923887
-0.00419003
0.000712498
-0.0108897
0.000555112
0.0015731
-0.0119839
0.00156622
-0.000922194
-0.00412706
-0.000366812
-0.00370388
-4.52741e-05
-0.000453873
-0.0036732
-0.000807975
0.00568317
-0.00189445
-0.00908964
0.000497357
-0.00465432
0.000613946
-0.00598494
0.00130419
-0.0138506
0.00305848
0.0041262
-0.0251529
0.00143819
0.000698636
-0.00368053
-0.00128223
-0.00201023
1.80832e-05
-0.00124572
-0.00199724
-0.00103177
0.00817308
-0.000653919
-0.0156339
0.000775867
-0.0073297
0.000357641
0.00121293
0.00911498
-0.0241714
-0.0102765
0.00972927
-0.0233967
0.00785181
-0.0174352
0.00398827
-0.0111034
0.0142186
0.0015705
-0.0098563
0.019997
-0.00961256
0.0272024
-0.00587615
-0.0208775
-0.00463613
-0.0184434
-0.0139068
-0.00312739
0.00617915
-0.0272294
-0.00358471
0.00560906
-0.0285589
0.00613595
-0.0271659
-0.00371591
-0.00853324
0.0326373
-0.00505844
-0.00816761
0.0350999
-0.00872155
0.0369875
-0.00294462
-0.0264786
-0.00267066
-0.0268964
-0.0253106
0.000280229
0.019477
-0.000526168
0.0192635
0.0192704
-0.00256014
-0.0202516
-0.00286413
-0.0201229
-0.020186
-0.00029545
-0.000885239
)
;

boundaryField
{
    fuel
    {
        type            calculated;
        value           nonuniform List<scalar> 
36
(
0.000124803
0.00020795
0.000124803
0.000124803
0.00020795
0.000124803
0.000124803
0.00020795
0.000124803
-0.000124803
-0.00020795
-0.000124803
-0.000124803
-0.00020795
-0.000124803
-0.000124803
-0.00020795
-0.000124803
0
0
0
0
0
0
0
0
0
0
0
0
0
0
0
0
0
0
)
;
    }
    primary_air
    {
        type            calculated;
        value           nonuniform List<scalar> 9(-0.00322817 -0.00536207 -0.00322734 -0.00322169 -0.00535905 -0.00322124 -0.00322034 -0.00536088 -0.00322014);
    }
    Secondary_air_RHS
    {
        type            calculated;
        value           nonuniform List<scalar> 9(0.00698532 0.0115454 0.00703205 0.00696225 0.0114807 0.00701934 0.00698936 0.0115021 0.00705371);
    }
    Secondary_air_LHS
    {
        type            calculated;
        value           nonuniform List<scalar> 9(0.00657696 0.0107976 0.00657896 0.00654367 0.0107105 0.00655096 0.00661421 0.0108161 0.0066283);
    }
    outlet
    {
        type            calculated;
        value           nonuniform List<scalar> 
18
(
-0.0469941
0.0749151
-0.0464449
-0.0470232
0.0747785
-0.0464394
-0.0469697
0.0735647
-0.0463917
-0.0460782
0.0736976
-0.046745
-0.046123
0.0750079
-0.0467985
-0.0461189
0.075003
-0.0467669
)
;
    }
    stove_body
    {
        type            calculated;
        value           uniform 0;
    }
    frontAndBack
    {
        type            empty;
        value           nonuniform 0();
    }
}


// ************************************************************************* //
