/*--------------------------------*- C++ -*----------------------------------*\
  =========                 |
  \\      /  F ield         | OpenFOAM: The Open Source CFD Toolbox
   \\    /   O peration     | Website:  https://openfoam.org
    \\  /    A nd           | Version:  6
     \\/     M anipulation  |
\*---------------------------------------------------------------------------*/
FoamFile
{
    version     2.0;
    format      ascii;
    class       volScalarField;
    location    "2";
    object      Qdot;
}
// * * * * * * * * * * * * * * * * * * * * * * * * * * * * * * * * * * * * * //

dimensions      [1 -1 -3 0 0 0 0];

internalField   nonuniform List<scalar> 
297
(
0.000328803
0.000198141
0.000198141
0
0
0
0
0.000130662
0
0
0.000198141
0.000198141
0.000396282
0.000396282
0.000396282
0.000198141
0.000130662
0
0.000198141
0
0
0
0
0
0
6.53309e-05
0.000198141
0
0
0
0
-1.90781e-09
2.8044e-10
0
3.5055e-11
0
0
-2.38477e-10
0
0
0
-8.13687e-10
0
0
1.75275e-11
0
0
0
0
-9.53907e-10
0
0
0
0
0
4.38188e-12
0
0
0
0
0
0
0
1.33724e-16
-1.90781e-09
6.68622e-17
3.34311e-17
6.68622e-17
0
0
2.67449e-16
-1.90781e-09
0
0
0
0
0
1.63238e-20
0
0
0
0
0
-2.38477e-10
0
0
0
0
4.38188e-12
0
0
0
0
0
-9.53907e-10
0
0
4.38188e-12
0
0
0
0
-2.38477e-10
-9.53907e-10
0
-2.38477e-10
0
0
0
4.98162e-25
0
1.99265e-24
1.99265e-24
0
0
0
0
1.94595e-27
0
0
4.86486e-28
0
0
4.86486e-28
0
0
0
0
0
0
0
0
-3.81563e-09
0
0
0
0
0
7.60135e-30
0
0
0
1.8558e-33
0
0
0
0
0
0
0
4.75084e-31
1.48464e-32
0
0
2.89969e-35
0
3.80068e-30
4.6395e-34
0
6.08108e-29
0
7.24921e-36
0
0
0
0
0
0
-3.81563e-09
0
1.52027e-29
1.15987e-34
0
0
7.24921e-36
0
0
0
0
2.96928e-32
0
3.80068e-30
0
9.06152e-37
0
0
0
0
0
0
1.41586e-38
0
3.53965e-39
0
0
5.40108e-44
0
0
0
0
0
0
0
0
0
0
0
1.38268e-41
0
0
0
0
0
0
0
4.32087e-43
0
0
0
0
0
0
0
0
5.2745e-47
0
0
0
0
0
0
8.43919e-46
0
0
0
0
0
0
-3.81563e-09
0
0
0
3.29656e-48
0
3.37568e-45
0
0
0
0
0
0
0
1.08022e-43
0
0
0
0
0
0
0
0
0
0
0
0
0
0
0
8.64174e-43
0
0
0
0
0
0
0
5.40108e-44
0
6.91339e-42
0
0
0
0
0
0
0
0
0
0
0
0
-3.81563e-09
-3.81563e-09
-3.81563e-09
0
0
0
)
;

boundaryField
{
    fuel
    {
        type            calculated;
        value           uniform 0;
    }
    primary_air
    {
        type            calculated;
        value           uniform 0;
    }
    Secondary_air_RHS
    {
        type            calculated;
        value           uniform 0;
    }
    Secondary_air_LHS
    {
        type            calculated;
        value           uniform 0;
    }
    outlet
    {
        type            calculated;
        value           uniform 0;
    }
    stove_body
    {
        type            calculated;
        value           uniform 0;
    }
    frontAndBack
    {
        type            empty;
    }
}


// ************************************************************************* //
