/*--------------------------------*- C++ -*----------------------------------*\
  =========                 |
  \\      /  F ield         | OpenFOAM: The Open Source CFD Toolbox
   \\    /   O peration     | Website:  https://openfoam.org
    \\  /    A nd           | Version:  6
     \\/     M anipulation  |
\*---------------------------------------------------------------------------*/
FoamFile
{
    version     2.0;
    format      ascii;
    class       volScalarField;
    location    "2";
    object      T;
}
// * * * * * * * * * * * * * * * * * * * * * * * * * * * * * * * * * * * * * //

dimensions      [0 0 0 1 0 0 0];

internalField   nonuniform List<scalar> 
297
(
292.878
292.877
292.878
292.926
292.927
292.927
292.877
292.877
292.878
292.843
292.883
292.848
293.003
293.214
293.031
292.843
292.88
292.847
292.543
291.175
292.554
308.541
329.393
311.382
292.539
291.837
292.55
3003.9
2281.33
1016.05
1403.82
901.781
570.306
3030.81
2249.94
1043.55
4706.85
3196.67
2180.79
4496.04
2013.63
1174.78
5000
3093.15
1919.16
4707.33
3023.48
2880.23
3164.01
1510.78
1498.75
5000
2886.78
2286.18
2948.9
1539.25
1690.07
4853.03
1421.19
2725.01
3112.44
1717.93
1408.17
2641.55
454.618
951.323
4035.67
1159.51
2006.92
2635.83
886.744
460.725
299.39
299.42
299.362
299.629
299.288
299.308
299.606
299.518
299.285
4627.79
2835.43
2862.39
3526.9
1421.4
2003.34
4941.6
2665.29
2272.39
3874.54
2806.51
2142.56
3782.66
1420.68
2153.83
4114.13
2644.18
1750
3342.53
2779.61
1955.09
4784.31
1420.94
2699.18
3534.18
2620.44
1611.41
298.829
299.373
299.241
299.246
299.288
299.242
299.375
299.388
298.845
298.956
298.963
299.497
299.316
299.255
299.321
299.604
299
298.953
298.871
298.965
299.148
299.249
299.157
299.269
299.15
299.055
298.929
299.118
299.116
299.19
299.193
299.195
299.227
298.853
298.899
299.028
299.343
299.255
299.274
299.275
299.261
299.26
298.962
299.009
299.027
299.56
299.335
299.259
299.331
299.291
299.283
298.913
299.016
299.026
298.854
298.801
298.791
299.324
299.29
299.256
299.522
299.462
299.42
298.857
298.892
298.912
299.351
299.362
299.34
299.632
299.647
299.703
298.864
298.96
298.851
299.313
299.286
299.309
299.637
299.702
299.616
298.789
298.793
298.785
299.289
299.327
299.346
299.448
299.436
299.514
298.721
298.669
298.733
299.265
299.299
299.348
299.477
299.393
299.527
298.441
298.64
298.692
299.203
299.179
299.343
299.498
299.34
299.527
298.584
298.639
298.684
297.997
298.467
299.248
299.279
299.058
299.524
296.852
296.696
296.878
297.123
297.07
297.356
296.826
296.886
295.489
291.134
291.024
291.011
285.209
284.982
284.965
291.325
291.22
291.201
299.249
299.367
299.414
299.266
299.291
299.277
298.993
298.846
298.814
299.237
299.346
299.434
299.274
299.29
299.242
298.915
298.823
298.812
299.173
299.326
299.442
299.267
299.199
299.208
298.87
298.804
298.786
299.07
299.305
299.429
299.183
298.548
297.613
298.869
298.815
298.787
297.227
296.957
296.828
297.688
297.153
296.972
296.982
296.807
297.013
291.232
291.267
291.37
285.168
285.166
285.349
291.089
291.114
291.218
)
;

boundaryField
{
    fuel
    {
        type            fixedValue;
        value           uniform 293;
    }
    primary_air
    {
        type            fixedValue;
        value           uniform 293;
    }
    Secondary_air_RHS
    {
        type            fixedValue;
        value           uniform 293;
    }
    Secondary_air_LHS
    {
        type            fixedValue;
        value           uniform 293;
    }
    outlet
    {
        type            inletOutlet;
        inletValue      uniform 293;
        value           nonuniform List<scalar> 
18
(
293
285.168
293
293
285.166
293
293
285.349
293
293
285.209
293
293
284.982
293
293
284.965
293
)
;
    }
    stove_body
    {
        type            fixedValue;
        value           uniform 293;
    }
    frontAndBack
    {
        type            empty;
    }
}


// ************************************************************************* //
