/*--------------------------------*- C++ -*----------------------------------*\
  =========                 |
  \\      /  F ield         | OpenFOAM: The Open Source CFD Toolbox
   \\    /   O peration     | Website:  https://openfoam.org
    \\  /    A nd           | Version:  6
     \\/     M anipulation  |
\*---------------------------------------------------------------------------*/
FoamFile
{
    version     2.0;
    format      ascii;
    class       volVectorField;
    location    "2";
    object      U;
}
// * * * * * * * * * * * * * * * * * * * * * * * * * * * * * * * * * * * * * //

dimensions      [0 1 -1 0 0 0 0];

internalField   nonuniform List<vector> 
297
(
(13.6963 -0.000883881 0.274038)
(13.6962 -0.000352462 0.267427)
(13.6963 0.000505424 0.273629)
(4.01867e-06 0.00964525 0.247296)
(4.54327e-06 0.000596285 0.248778)
(4.01524e-06 -0.0090044 0.247248)
(-13.6962 0.0022161 0.273477)
(-13.6962 -0.000342717 0.26498)
(-13.6963 -0.00258434 0.273064)
(13.6945 0.000357683 0.288784)
(13.6961 -0.000699751 0.304318)
(13.6947 -0.000779659 0.288449)
(3.97505e-06 0.00278965 0.0968644)
(4.44387e-06 0.00161676 0.112713)
(3.97098e-06 -0.00108803 0.103514)
(-13.6945 0.00299416 0.287839)
(-13.696 -0.000717792 0.300935)
(-13.6947 -0.0034177 0.287494)
(13.6816 0.0349532 0.463684)
(11.4786 -0.00373612 0.429182)
(13.6821 -0.0386063 0.462623)
(3.38453e-06 -0.00696253 0.177252)
(3.08627e-06 -0.00247559 0.188268)
(3.41822e-06 0.017371 0.168399)
(-13.6814 0.0271909 0.462379)
(-12.3526 -0.00386156 0.436174)
(-13.6819 -0.0308514 0.461278)
(91.6222 -9.45686 -18.8196)
(69.4115 19.444 1.97715)
(30.6391 17.8101 4.00349)
(-0.00248658 0.522316 6.97221)
(-0.00085929 6.05155 7.23289)
(-0.000230927 8.37281 10.2313)
(-92.3641 -11.5684 -15.7505)
(-68.386 17.0002 3.06172)
(-31.4568 18.5606 9.58289)
(144.53 -67.7502 24.2139)
(98.1112 18.5494 70.0721)
(66.708 -4.3148 90.81)
(-0.00565961 -32.1449 199.297)
(-0.00056412 17.3611 129.297)
(-0.00514683 -2.63312 109.255)
(-153.545 -76.2467 37.3146)
(-95.2087 14.8374 75.5725)
(-58.8926 -12.8293 73.1027)
(141.732 -147.469 -27.7022)
(92.5393 29.3954 173.645)
(87.655 -12.7314 12.6194)
(0.00548641 -75.9759 256.96)
(-0.00130764 -20.1061 -5.93642)
(-0.0147616 13.7053 147.909)
(-150.477 -163.473 -15.0874)
(-88.455 34.1885 162.317)
(-69.7059 -13.1803 -18.0535)
(91.4247 -65.2295 -244.423)
(46.8854 -8.87471 -17.8636)
(52.3908 18.964 -123.076)
(-0.0766774 -165.239 -12.5935)
(-0.0132038 18.2307 -127.134)
(0.0346141 -12.1511 68.8879)
(-96.6671 -70.0542 -233.899)
(-52.3668 -4.89046 -33.5592)
(-43.657 19.0549 -104.021)
(81.7626 18.9955 -191.715)
(14.0563 -5.58047 -55.291)
(29.4571 -27.2778 -85.3638)
(-0.00404111 -63.3768 -142.777)
(0.00173666 -11.2362 -73.8799)
(0.00532417 -15.7436 -62.0845)
(-81.4558 -3.47979 -165.818)
(-27.3756 18.5531 -82.9624)
(-14.2769 -15.1839 -64.2135)
(9.27261 12.1459 -8.80954)
(9.27364 -11.5582 -12.3041)
(9.27984 -14.4324 -19.0346)
(-0.0038445 10.6997 -8.99644)
(-0.00024016 4.65551 -16.0716)
(0.00314787 -5.03836 -18.7494)
(-9.2861 18.2842 -13.8025)
(-9.27686 13.0048 -11.781)
(-9.27132 -1.89323 -13.1541)
(123.848 -156.706 -476.371)
(76.8243 15.9106 171.353)
(83.0759 4.93464 -247.413)
(0.00742296 -115.101 372.305)
(-0.00105692 -18.1069 -139.495)
(0.0937286 4.77494 215.121)
(-131.777 -174.243 -487.99)
(-72.9603 19.3966 160.877)
(-65.7831 -3.04067 -218.549)
(111.63 -101.518 -419.301)
(79.6635 8.34367 165.052)
(65.08 13.9842 -208.101)
(0.0279192 -115.713 421.128)
(-0.00216791 -3.64403 -144.036)
(0.122371 5.33255 236.094)
(-118.122 -112.56 -423.055)
(-75.5774 10.7705 155.092)
(-52.7646 9.43337 -182.142)
(101.393 -105.094 -367.442)
(79.345 -13.2735 150.721)
(59.9374 11.2543 -185.472)
(0.0627171 -172.727 464.548)
(-0.00382826 2.97611 -140.735)
(0.161541 -5.16514 279.76)
(-108.111 -115.821 -366.604)
(-75.1021 -13.9769 142.495)
(-49.5141 7.23151 -161.24)
(9.25299 21.1941 -4.42177)
(9.26316 -13.754 -7.14662)
(9.24725 -29.6597 -9.43765)
(0.000153905 16.996 -7.38511)
(0.000186374 -3.10437 -5.5247)
(8.8017e-05 -17.7224 -6.07161)
(-9.24965 29.5188 -10.1707)
(-9.26546 10.8232 -6.84096)
(-9.24843 -22.485 -3.37872)
(9.2684 15.288 -0.665429)
(9.26501 12.5759 1.28626)
(9.27526 -13.4607 -1.40835)
(0.00161719 8.90294 -1.31937)
(0.000243497 -0.673402 -2.36887)
(-0.0014458 -8.27575 -1.02471)
(-9.27854 13.7742 -1.58234)
(-9.26246 -13.8631 0.75998)
(-9.26572 -18.2847 0.247387)
(9.26846 -4.46827 2.58017)
(9.26605 6.7481 1.85517)
(9.26969 2.90154 -3.3067)
(0.00190505 1.92821 -3.90731)
(0.000206281 -1.04557 -1.36342)
(-0.00175012 -1.37622 -3.66658)
(-9.26909 -3.57591 -3.19211)
(-9.26765 -7.25406 1.7221)
(-9.26992 4.99599 2.57434)
(9.23898 -32.4889 -6.61414)
(9.25952 -28.3809 -9.27738)
(9.24685 -22.928 -12.7275)
(-0.00198878 -20.16 -4.56122)
(-0.00255823 -18.5624 -5.27618)
(-0.00358558 -13.254 -5.61417)
(-9.24575 -23.332 -3.69177)
(-9.26083 -19.6956 -7.33235)
(-9.2449 -11.7541 -10.5614)
(9.25877 -23.9638 -0.137422)
(9.27043 -24.5096 -5.23631)
(9.24173 -21.2564 -12.45)
(-0.00200293 -14.806 1.9679)
(-0.00191141 -14.9715 1.88142)
(-0.0023112 -11.0595 1.53288)
(-9.26463 -18.9686 -1.75511)
(-9.26933 -16.9203 -6.48087)
(-9.23417 -13.9954 -13.9308)
(9.28472 -0.315427 -2.15457)
(9.27446 -11.6456 -12.9321)
(9.24055 -18.1244 -18.6113)
(-0.00154078 -4.22375 -0.0715887)
(-0.000557994 -5.73407 0.527614)
(-0.000151748 -7.90137 -0.953782)
(-9.27018 2.20972 3.77981)
(-9.27188 -2.9472 -5.30879)
(-9.24173 -12.3298 -16.5991)
(9.24834 10.8382 -10.0417)
(9.25937 16.4955 -7.00094)
(9.25631 20.5071 -4.82251)
(0.00556835 12.7827 -5.59865)
(0.00345756 17.0131 -5.68058)
(0.00257731 19.575 -4.97686)
(-9.24648 22.6182 -12.3893)
(-9.26898 27.2272 -9.81411)
(-9.24747 32.07 -6.88629)
(9.23444 13.2676 -11.5867)
(9.26546 16.225 -5.27735)
(9.26284 17.0079 -2.25519)
(0.00350061 10.7889 1.81343)
(0.00244428 14.5405 1.20632)
(0.00223766 14.9467 1.87408)
(-9.24449 21.4252 -11.3909)
(-9.28107 23.9276 -6.09476)
(-9.26987 23.1875 -0.833468)
(9.23659 12.5979 -14.623)
(9.26862 2.80889 -3.50977)
(9.26738 -2.04528 4.47768)
(0.000664401 8.42865 -1.41103)
(0.000968469 6.49791 0.999113)
(0.00167865 4.89212 0.55802)
(-9.24679 18.3273 -17.0954)
(-9.28164 11.864 -12.8412)
(-9.28452 -1.08322 -1.38489)
(9.26091 -8.24384 -2.48813)
(9.25613 -1.13805 -7.18115)
(9.24108 5.63824 -13.8311)
(0.0109126 -3.68196 0.451707)
(0.0115688 2.98911 -5.79212)
(0.00947784 8.18155 -7.02205)
(-9.2491 -3.66328 -6.12033)
(-9.23923 1.80984 -16.9647)
(-9.22544 12.3867 -20.664)
(9.2553 -8.84604 0.247406)
(9.2455 7.48708 -3.97728)
(9.22768 9.43476 -15.7393)
(0.0102134 -2.663 6.98856)
(0.0103327 4.61708 -3.25015)
(0.00714768 8.51556 -3.12676)
(-9.24569 1.58939 3.48511)
(-9.23889 5.22737 -19.8752)
(-9.22796 13.9345 -21.6198)
(9.24302 -3.59739 5.58187)
(9.25761 10.1843 -9.46923)
(9.25361 7.87852 -21.5179)
(0.0089616 -2.82728 10.4368)
(0.00913889 5.48808 -6.45973)
(0.00577193 6.25248 -4.99174)
(-9.24142 2.04681 -2.47833)
(-9.28724 4.93506 -22.5249)
(-9.25857 10.486 -27.1217)
(9.22801 2.66254 4.82842)
(9.23233 1.7285 -19.4183)
(9.23682 -5.19262 -25.6657)
(-0.00213116 0.907141 43.5634)
(-0.00270995 2.45014 27.1219)
(-0.00279255 -9.87444 20.2408)
(-9.25198 3.74998 -3.34898)
(-9.25674 1.64835 -29.5487)
(-9.27003 -9.3457 -41.9719)
(9.14445 0.449652 -86.3017)
(9.13885 0.459587 -92.4795)
(9.14429 2.85141 -89.9152)
(-0.0064983 0.902181 68.108)
(-0.00670101 1.89871 60.145)
(-0.00645353 -0.484711 55.1156)
(-9.16063 0.31658 -94.3603)
(-9.1626 -0.0385628 -100.376)
(-9.11942 5.56572 -94.6813)
(8.79894 0.162388 -131.948)
(8.79487 0.215444 -132.106)
(8.79439 0.0481032 -132.091)
(-0.00666882 0.568057 186.234)
(-0.00660125 1.14423 189.412)
(-0.00649445 0.039852 189.388)
(-8.82167 0.107436 -134.3)
(-8.81774 0.0743887 -134.492)
(-8.81707 -0.0436906 -134.379)
(9.2304 -12.7209 -21.2823)
(9.24598 -2.58897 -17.5915)
(9.24961 4.37182 -7.15021)
(-0.00647644 -8.02879 -7.00895)
(-0.00920654 -3.02987 -5.74014)
(-0.00932938 4.05027 0.63892)
(-9.24239 -5.73281 -14.8746)
(-9.25245 0.249897 -8.03987)
(-9.25713 8.38579 -1.54071)
(9.22824 -14.6934 -23.1757)
(9.24509 -4.5064 -20.0237)
(9.24604 -1.25813 4.28616)
(-0.00513697 -8.6471 -3.33534)
(-0.00873668 -4.67395 -3.15644)
(-0.00894604 3.05592 7.74613)
(-9.23335 -8.88715 -20.9405)
(-9.24173 -7.05523 -7.28344)
(-9.25409 8.44319 1.64789)
(9.25209 -9.18521 -30.0694)
(9.29028 -3.83766 -22.7273)
(9.24195 -1.83318 -1.7267)
(-0.00419857 -6.01069 -5.64435)
(-0.00778914 -4.79008 -6.70206)
(-0.00779281 2.95741 11.4666)
(-9.25792 -5.58448 -26.2407)
(-9.25452 -8.69549 -10.567)
(-9.24956 3.89659 7.56049)
(9.25732 8.96903 -42.0553)
(9.2655 -2.12211 -29.1228)
(9.25721 -3.92746 -3.31)
(0.00384829 10.644 18.8114)
(0.00383895 -2.68444 29.1736)
(0.00327037 -0.840766 44.2951)
(-9.24076 5.21057 -29.3023)
(-9.23397 -3.84945 -14.3661)
(-9.22982 -2.56899 3.60491)
(9.17256 -5.49148 -95.203)
(9.16394 -0.0465415 -101.286)
(9.15994 -0.243901 -95.3023)
(0.00641296 0.152351 54.7322)
(0.00674656 -1.90475 61.4137)
(0.00653883 -0.940019 68.61)
(-9.14672 -3.52264 -92.8061)
(-9.14081 -0.148731 -94.6324)
(-9.14848 -0.472676 -88.2882)
(8.81693 0.0580711 -135.184)
(8.81804 -0.0598237 -135.289)
(8.82192 -0.106493 -135.096)
(0.00510237 -0.177211 189.305)
(0.00525323 -1.17998 188.957)
(0.00535421 -0.602183 185.994)
(-8.79909 -0.076709 -133.234)
(-8.79995 -0.277331 -133.214)
(-8.80386 -0.193297 -133.045)
)
;

boundaryField
{
    fuel
    {
        type            fixedValue;
        value           uniform (0 0 0.25);
    }
    primary_air
    {
        type            fixedValue;
        value           uniform (0 0 2.5);
    }
    Secondary_air_RHS
    {
        type            fixedValue;
        value           uniform (0 58.3333 0);
    }
    Secondary_air_LHS
    {
        type            fixedValue;
        value           uniform (0 -58.3333 0);
    }
    outlet
    {
        type            pressureInletOutletVelocity;
        value           nonuniform List<vector> 
18
(
(0 0 -135.184)
(0.00510237 -0.177211 189.305)
(0 0 -133.234)
(0 0 -135.289)
(0.00525323 -1.17998 188.957)
(0 0 -133.214)
(0 0 -135.096)
(0.00535421 -0.602183 185.994)
(0 0 -133.045)
(0 0 -131.948)
(-0.00666882 0.568057 186.234)
(0 0 -134.3)
(0 0 -132.106)
(-0.00660125 1.14423 189.412)
(0 0 -134.492)
(0 0 -132.091)
(-0.00649445 0.039852 189.388)
(0 0 -134.379)
)
;
    }
    stove_body
    {
        type            noSlip;
    }
    frontAndBack
    {
        type            empty;
    }
}


// ************************************************************************* //
