# Probe 0 (0 -0.07 0.5)
# Probe 1 (0 -0.04 0.5)
# Probe 2 (0 -0.07 0.3)
# Probe 3 (0 -0.07 0.33)
# Probe 4 (0 -0.04 0.3)
# Probe 5 (0 -0.04 0.33)
# Probe 6 (0 0 0.33)
# Probe 7 (0 0 0.3)
# Probe 8 (0 0.1 0.33)
# Probe 9 (0 0.1 0.3)
# Probe 10 (0 0.14 0.3)
# Probe 11 (0 0.14 0.33)
# Probe 12 (0 0.17 0.3)
# Probe 13 (0 0.17 0.33)
# Probe 14 (0 0.14 0.5)
# Probe 15 (0 0.14 0.33)
#       Probe             0             1             2             3             4             5             6             7             8             9            10            11            12            13            14            15
#        Time
          0.5       292.655       292.736       303.389       303.433       303.113       303.955       304.169       303.831       304.566        304.17       303.408       304.405       303.774       303.528       292.755       304.405
            1       292.653       292.734         303.4       303.442       303.082       304.095       304.313       303.853       304.258       304.032       303.034        304.05       303.605       303.638       292.751        304.05
          1.5       292.651       292.731        303.65       303.439       303.119       304.058        304.27        303.84        304.26       304.026       303.059        304.06       303.611       303.644       292.749        304.06
            2       292.649       292.729       303.389       303.436       303.077         304.1       304.314       303.844       304.265        304.03       303.129       304.059       303.608       303.643       292.747       304.059
          2.5       292.646       292.726       303.377       303.427       303.069       304.094       304.314       303.834       304.265       304.022       303.086       304.054       303.598       303.635       292.743       304.054
            3       292.644       292.724       303.374       303.423       303.065       304.094       304.313       303.847       304.268       304.033       303.124       304.049        303.59       303.629       292.741       304.049
          3.5       292.639       292.719       303.362       303.414       303.053       304.082       304.313       303.836       304.264       304.021       303.063       304.038       303.579       303.619       292.737       304.038
            4       292.636       292.716       303.352       303.404       303.051       304.085       304.315       303.828       304.261       304.006       303.096       304.036       303.567       303.609       292.733       304.036
          4.5       292.633       292.713       303.341       303.397       303.045       304.083       304.312       303.815       304.249       303.993       302.996       304.029       303.561       303.604        292.73       304.029
            5       292.629       292.709       303.334        303.39       303.035       304.074       304.303       303.804       304.242       303.983       303.024       304.021       303.553       303.597       292.726       304.021
