/*--------------------------------*- C++ -*----------------------------------*\
  =========                 |
  \\      /  F ield         | OpenFOAM: The Open Source CFD Toolbox
   \\    /   O peration     | Website:  https://openfoam.org
    \\  /    A nd           | Version:  6
     \\/     M anipulation  |
\*---------------------------------------------------------------------------*/
FoamFile
{
    version     2.0;
    format      ascii;
    class       volScalarField;
    location    "0.5";
    object      O2;
}
// * * * * * * * * * * * * * * * * * * * * * * * * * * * * * * * * * * * * * //

dimensions      [0 0 0 0 0 0 0];

internalField   nonuniform List<scalar> 
297
(
0
0
0
0
0
0
0
0
0
0
0
0
0
0
0
0
0
0
0
0
0
0
0
0
0
0
0
0.0417454
0.0967871
0.0826988
0.130569
0.144985
0.175228
0.0417772
0.0962224
0.0845269
0
0.0214065
0
0.0208322
0.117457
0.0399915
0
0.0211602
0
0
0.0154131
0
0.0113448
0.0185531
0.0152871
0
0.0151793
0
0.00283332
0.00834675
0.00290072
0
0.00110917
0
0.00279882
0.00822154
0.00284717
0
4.21858e-08
0
0
0
0
0
4.15301e-08
0
1.43001e-13
4.71159e-13
7.44601e-14
0
0
3.43988e-13
1.12008e-13
4.36196e-13
1.50127e-14
0
0.0154113
0
0
0.00113835
0
0
0.0151774
0
0
0.0153525
0
0
0.00110889
0
0
0.0151196
0
0
0.0151281
0
0
0.00110903
0
0
0.014899
0
3.51114e-18
1.74686e-17
1.46335e-18
0
6.50586e-19
2.43204e-18
2.23331e-18
1.56041e-17
5.36795e-19
5.18228e-22
3.93705e-21
2.13308e-22
2.70432e-23
1.45138e-21
1.23283e-22
2.38219e-22
3.351e-21
9.4954e-23
1.27821e-22
3.88691e-21
1.89548e-22
2.71359e-23
2.04105e-21
3.02279e-23
9.83611e-23
3.25796e-21
1.55619e-22
2.15636e-23
5.38336e-28
6.38722e-33
1.36517e-23
3.31539e-28
3.90804e-33
8.16828e-24
2.04948e-28
2.44483e-33
3.11055e-27
1.95678e-31
1.32135e-35
1.22944e-27
2.08672e-29
5.60329e-34
2.83696e-27
1.84677e-31
1.22108e-35
1.3526e-26
6.45138e-31
2.41816e-35
9.84667e-28
5.7941e-31
9.73278e-35
1.11325e-26
5.35503e-31
2.1635e-35
8.05573e-33
6.75442e-28
5.10488e-23
1.94202e-33
9.24702e-29
0
1.03858e-32
4.33127e-28
3.25929e-23
1.54431e-35
4.32653e-31
1.32735e-26
2.23648e-34
6.02421e-30
2.58176e-28
1.39754e-35
3.17031e-31
6.79279e-27
1.41401e-35
4.42409e-31
9.30138e-27
3.92031e-35
2.01461e-31
8.65371e-28
1.65175e-35
5.41552e-31
7.16396e-27
4.74696e-46
1.59981e-41
2.78185e-37
1.26311e-45
8.24276e-42
6.64633e-38
1.69118e-45
2.08743e-41
3.60513e-37
1.61887e-48
2.38241e-44
4.85135e-40
1.06896e-47
1.01894e-43
3.8152e-39
6.89454e-48
2.00224e-44
5.52762e-40
2.01198e-48
8.96039e-45
3.07378e-40
6.15984e-48
2.45408e-44
9.06432e-40
6.23643e-48
7.86823e-45
3.43533e-40
3.00466e-48
1.88678e-47
1.13802e-45
5.20149e-48
1.01818e-45
1.08154e-44
6.05787e-48
5.58947e-47
2.18716e-45
2.66424e-52
7.22565e-51
5.19488e-50
3.24718e-47
9.30417e-46
6.59923e-45
2.65051e-52
1.07155e-50
5.18185e-50
5.6039e-53
1.4077e-51
9.64963e-51
1.64682e-47
4.08018e-46
2.8312e-45
9.44622e-53
2.38806e-51
1.62451e-50
1.17495e-37
6.73845e-42
5.40708e-46
7.0835e-38
2.3306e-42
3.77199e-46
8.49338e-38
2.67973e-42
2.29032e-46
5.65486e-40
2.83847e-44
4.63831e-48
9.26438e-39
2.3399e-43
2.31801e-47
5.82294e-40
1.97313e-44
1.3256e-47
5.09431e-40
1.45341e-44
4.53149e-48
2.19122e-39
5.77018e-44
1.27736e-47
4.69335e-40
1.11736e-44
1.2619e-47
1.88557e-45
3.16048e-47
4.78918e-48
2.45196e-44
2.32576e-45
1.02775e-47
3.00201e-45
1.14594e-46
1.235e-47
8.33474e-50
1.69455e-50
4.41377e-52
1.53251e-44
2.18035e-45
7.73985e-47
1.17422e-49
1.6393e-50
6.27633e-52
2.26494e-50
3.31429e-51
1.34357e-52
6.62833e-45
9.59463e-46
3.94307e-47
3.81308e-50
5.62008e-51
2.26077e-52
)
;

boundaryField
{
    fuel
    {
        type            fixedValue;
        value           uniform 0;
    }
    primary_air
    {
        type            fixedValue;
        value           uniform 0.23;
    }
    Secondary_air_RHS
    {
        type            fixedValue;
        value           uniform 0.23;
    }
    Secondary_air_LHS
    {
        type            fixedValue;
        value           uniform 0.23;
    }
    outlet
    {
        type            inletOutlet;
        inletValue      uniform 0;
        value           nonuniform List<scalar> 
18
(
0
6.62833e-45
0
0
9.59463e-46
0
0
3.94307e-47
0
0
1.64682e-47
0
0
4.08018e-46
0
0
2.8312e-45
0
)
;
    }
    stove_body
    {
        type            fixedValue;
        value           uniform 0;
    }
    frontAndBack
    {
        type            empty;
    }
}


// ************************************************************************* //
