/*--------------------------------*- C++ -*----------------------------------*\
  =========                 |
  \\      /  F ield         | OpenFOAM: The Open Source CFD Toolbox
   \\    /   O peration     | Website:  https://openfoam.org
    \\  /    A nd           | Version:  6
     \\/     M anipulation  |
\*---------------------------------------------------------------------------*/
FoamFile
{
    version     2.0;
    format      ascii;
    class       volScalarField;
    location    "0.5";
    object      p;
}
// * * * * * * * * * * * * * * * * * * * * * * * * * * * * * * * * * * * * * //

dimensions      [1 -1 -2 0 0 0 0];

internalField   nonuniform List<scalar> 
297
(
122453
122453
122453
203878
203879
203878
122453
122453
122453
122453
122453
122453
203878
203879
203878
122453
122453
122453
122453
122453
122453
203877
203879
203878
122453
122453
122453
97103.9
97099.5
97099
161285
161326
161357
97101.5
97098.9
97100.1
97325
96877.8
97216.2
161107
161434
161094
97335.5
96878.6
97208.4
94623.9
94590.4
95053.4
152705
157639
153209
94633.2
94590.5
95049.8
91856.2
94346.4
91439.4
156107
155326
155369
91851.3
94344.4
91442.1
96249.1
96533.9
96197.6
160348
159912
160591
96249.7
96533.8
96197.2
96292.9
96624.4
96234
160124
160664
160362
96292.5
96623.3
96234.3
76407.2
92796.1
77224.9
124238
151257
123381
76309.9
92781.9
77294.4
75236.5
92676.6
75874.3
121468
150714
120250
75143.6
92661.9
75941.2
76959
92793.7
77351.2
124104
150981
122626
76887.7
92779.9
77402.6
96897.2
97023.3
96884
160965
161166
160989
96895.9
97021.6
96882.9
96994.9
97023.7
96979.4
161210
161270
161208
96993.5
97022.2
96978
96996.2
97014.3
96981.9
161324
161320
161310
96994.8
97012.9
96980.6
97108
97293.2
97731.7
161168
161271
161473
97106.4
97291.6
97729
97002.3
97059.1
97361.8
161204
161212
161276
97001.1
97058
97360.3
96903.7
96794.9
96731.8
161301
161234
161152
96902.8
96794.4
96731.6
97736.8
97304.2
97120.7
161493
161290
161181
97733.6
97302.2
97118.9
97371.8
97073.3
97017.2
161299
161234
161221
97369.8
97072
97015.8
96750.1
96812.3
96919.6
161177
161258
161322
96749.6
96811.6
96918.4
98661.3
98495.2
98187.6
162231
162095
161826
98650.5
98486.7
98182
98429.6
98225.8
97884.2
161952
161824
161564
98421
98219.6
97880.4
98139.9
97922.6
97511.1
161595
161441
161252
98133.4
97918.1
97508.8
96643.5
96566.6
96422
159864
159781
159683
96644.7
96568.1
96423.8
91086.6
91114.8
91162.8
150647
150647
150645
91090.1
91117.9
91165.8
83744.3
83744.3
83745.9
134317
134317
134309
83746.4
83746.4
83748
98189.3
98502.2
98671.5
161811
162085
162223
98184
98493.6
98660.5
97881.4
98228.4
98435.6
161545
161810
161940
97878.1
98222.3
98427
97502.5
97919.8
98140.5
161227
161420
161577
97500.5
97915.5
98134
96397.5
96543.4
96621.1
159639
159737
159821
96399.3
96544.9
96622.3
91118.8
91070.5
91041.7
150571
150573
150573
91121.7
91073.5
91045.2
83693.6
83691.9
83691.8
134227
134236
134235
83695.6
83693.9
83693.9
)
;

boundaryField
{
    fuel
    {
        type            zeroGradient;
    }
    primary_air
    {
        type            zeroGradient;
    }
    Secondary_air_RHS
    {
        type            zeroGradient;
    }
    Secondary_air_LHS
    {
        type            zeroGradient;
    }
    outlet
    {
        type            totalPressure;
        rho             rho;
        psi             none;
        gamma           1;
        p0              uniform 100000;
        value           nonuniform List<scalar> 
18
(
87312.1
100000
87314.6
87273.4
100000
87276
87266.6
100000
87269.6
87316.1
100000
87319.1
87322.4
100000
87325.1
87360.8
100000
87363.4
)
;
    }
    stove_body
    {
        type            zeroGradient;
    }
    frontAndBack
    {
        type            empty;
    }
}


// ************************************************************************* //
