/*--------------------------------*- C++ -*----------------------------------*\
  =========                 |
  \\      /  F ield         | OpenFOAM: The Open Source CFD Toolbox
   \\    /   O peration     | Website:  https://openfoam.org
    \\  /    A nd           | Version:  6
     \\/     M anipulation  |
\*---------------------------------------------------------------------------*/
FoamFile
{
    version     2.0;
    format      ascii;
    class       volScalarField;
    location    "0.5";
    object      T;
}
// * * * * * * * * * * * * * * * * * * * * * * * * * * * * * * * * * * * * * //

dimensions      [0 0 0 1 0 0 0];

internalField   nonuniform List<scalar> 
297
(
292.752
292.746
292.752
292.979
292.972
292.979
292.751
292.745
292.752
293.339
292.974
293.299
294.378
293.282
294.368
293.285
292.965
293.308
327.806
306.173
323.837
489.441
327.522
488.017
322.237
305.533
324.866
444.955
396.886
439.145
376.04
343.963
349.588
445.107
397.512
436.942
478.65
480.717
522.412
456.974
400.966
477.409
478.863
481.677
522.991
479.446
483.322
524.09
438.601
412
459.636
479.666
483.813
524.664
420.629
421.109
450.982
499.616
405.136
525.263
420.827
421.467
451.182
350.932
339.209
418.297
448.705
399.246
506.696
351.016
339.295
418.457
302.938
303.009
303.035
303.481
303.384
303.55
303.232
303.242
303.212
462.444
482.737
506.842
447.531
405.491
468.703
461.471
483.291
508.5
443.224
482.539
473.498
454.175
404.603
482.622
443.393
483.089
473.914
430.569
482.054
464.667
481.666
404.513
504.735
430.758
482.598
465.033
302.339
303.379
302.419
303.387
303.77
303.453
302.659
303.672
302.756
302.938
303.247
303.07
303.894
303.836
303.916
303.2
303.485
303.277
303.281
303.226
303.364
304.147
303.818
304.247
303.448
303.441
303.492
302.221
302.282
302.469
303.114
303.113
303.274
302.609
302.694
302.896
303.06
302.903
302.968
303.723
303.69
303.832
303.281
303.139
303.224
303.516
303.423
303.211
304.381
304.382
304.352
303.64
303.549
303.344
302.355
302.171
302.112
303.241
303.069
303.042
302.842
302.642
302.559
302.865
302.79
302.952
303.788
303.647
303.708
303.167
303.081
303.225
303.112
303.318
303.411
304.283
304.312
304.306
303.285
303.484
303.576
302.566
302.735
302.5
304.009
303.826
303.502
303.464
303.443
303.069
302.667
302.878
302.696
304.366
304.255
304.038
303.382
303.367
303.066
302.572
302.844
302.71
304.594
304.4
304.365
303.211
303.082
302.913
302.531
302.834
302.59
305.186
304.378
304.714
303.009
302.841
302.767
299.544
299.52
299.537
302.252
303.03
303.612
299.543
299.518
299.536
292.407
292.441
292.482
291.135
291.164
291.476
292.406
292.441
292.481
302.625
302.88
302.765
303.522
303.826
303.955
303.128
303.509
303.53
302.801
302.961
302.679
304.09
304.321
304.491
303.124
303.433
303.446
302.811
302.906
302.631
304.439
304.474
304.673
302.965
303.13
303.264
302.701
302.895
302.579
304.74
304.452
305.279
302.82
302.895
303.063
299.572
299.556
299.573
303.641
303.094
302.332
299.571
299.554
299.572
292.497
292.456
292.421
291.541
291.239
291.212
292.497
292.455
292.421
)
;

boundaryField
{
    fuel
    {
        type            fixedValue;
        value           uniform 293;
    }
    primary_air
    {
        type            fixedValue;
        value           uniform 293;
    }
    Secondary_air_RHS
    {
        type            fixedValue;
        value           uniform 293;
    }
    Secondary_air_LHS
    {
        type            fixedValue;
        value           uniform 293;
    }
    outlet
    {
        type            inletOutlet;
        inletValue      uniform 293;
        value           nonuniform List<scalar> 
18
(
293
291.541
293
293
291.238
293
293
291.212
293
293
291.135
293
293
291.164
293
293
291.476
293
)
;
    }
    stove_body
    {
        type            fixedValue;
        value           uniform 293;
    }
    frontAndBack
    {
        type            empty;
    }
}


// ************************************************************************* //
