/*--------------------------------*- C++ -*----------------------------------*\
  =========                 |
  \\      /  F ield         | OpenFOAM: The Open Source CFD Toolbox
   \\    /   O peration     | Website:  https://openfoam.org
    \\  /    A nd           | Version:  6
     \\/     M anipulation  |
\*---------------------------------------------------------------------------*/
FoamFile
{
    version     2.0;
    format      ascii;
    class       volVectorField;
    location    "0.5";
    object      U;
}
// * * * * * * * * * * * * * * * * * * * * * * * * * * * * * * * * * * * * * //

dimensions      [0 1 -1 0 0 0 0];

internalField   nonuniform List<vector> 
297
(
(29.2653 -0.0063028 0.220674)
(29.2647 0.00082034 0.231111)
(29.2652 0.00706078 0.2209)
(8.59497e-07 0.00874275 0.269586)
(-1.05126e-05 0.000295389 0.26698)
(-1.33296e-05 -0.00847471 0.269552)
(-29.2652 -0.00699557 0.221128)
(-29.2647 -0.000836582 0.231995)
(-29.2653 0.00633359 0.220741)
(29.3236 -0.00175072 0.245875)
(29.287 0.00156895 0.263411)
(29.3196 0.00364005 0.24578)
(-1.13349e-06 0.0189569 0.263827)
(-1.01225e-05 0.000316273 0.173919)
(-1.13539e-05 -0.0186464 0.263624)
(-29.3182 -0.00352846 0.246171)
(-29.2862 -0.00169372 0.263032)
(-29.3205 0.00140451 0.246659)
(27.9261 0.00449841 0.354907)
(29.631 0.00387386 0.436094)
(27.8432 0.0022122 0.357611)
(-3.213e-06 -0.0228584 0.0254836)
(-8.26605e-06 -0.00103441 0.235836)
(-1.02678e-05 0.0276937 0.0263096)
(-27.6046 -0.000876172 0.358626)
(-29.5931 -0.0049897 0.437403)
(-27.9388 -0.00430221 0.356834)
(29.2284 8.26941 1.72662)
(25.9202 6.98751 6.75121)
(28.7411 -6.91013 9.91034)
(-0.000134726 3.68542 3.90565)
(-3.20126e-05 2.48045 2.98043)
(5.57054e-05 -4.1429 6.37664)
(-29.2387 8.44214 1.63986)
(-25.9628 7.03563 6.78462)
(-28.5902 -6.4229 10.1118)
(31.5349 9.78644 10.1463)
(31.7768 3.95893 47.2474)
(34.4872 -11.3504 25.6003)
(0.000731001 24.012 86.666)
(5.34839e-05 -0.638803 75.2958)
(-0.000572783 -27.6996 95.7888)
(-31.5467 10.1045 10.5414)
(-31.8415 3.00756 47.0571)
(-34.5277 -10.9285 25.6393)
(30.7968 -5.14239 -20.3393)
(32.0966 3.04247 69.5117)
(33.6318 5.29027 1.13853)
(0.000660168 -23.8981 126.215)
(4.65628e-06 1.70779 -13.8465)
(-0.000267623 22.4122 138.051)
(-30.8078 -5.62987 -20.0789)
(-32.1291 3.88323 69.9479)
(-33.6699 4.77452 0.858884)
(28.0932 -19.6145 -127.073)
(27.288 -4.85682 -11.0111)
(30.1201 25.1764 -122.813)
(-0.000382522 -8.58808 -0.269827)
(-0.00012753 0.575441 -86.9553)
(0.000223097 12.0882 20.4356)
(-28.1079 -19.717 -127.246)
(-27.3118 -5.08148 -11.0852)
(-30.133 25.1263 -122.759)
(23.2063 35.7763 -85.1887)
(22.2897 -13.5914 -71.725)
(27.6748 -27.4373 -81.7705)
(4.08585e-05 15.9151 -58.7867)
(-6.05185e-06 3.47143 -66.0543)
(-3.08405e-05 -5.52952 -40.3455)
(-23.2118 35.7453 -85.2664)
(-22.2954 -13.4594 -71.7276)
(-27.6856 -27.4491 -81.7219)
(20.0201 23.1132 -24.5541)
(20.0018 -15.4037 -20.2901)
(20.0442 -29.1374 -24.002)
(-1.97515e-05 24.7368 -23.0937)
(-4.83435e-05 9.11525 -24.1473)
(1.26345e-05 -16.2969 -25.6331)
(-20.0395 23.0581 -24.5369)
(-20.0172 -15.3832 -20.301)
(-20.056 -29.0967 -24.0016)
(23.2483 -1.36336 -197.511)
(30.9445 -2.64862 93.3961)
(25.378 5.24716 -193.076)
(-0.00861122 -17.3221 178.563)
(-0.000828605 5.39213 -105.838)
(0.00649188 16.1484 194.003)
(-23.2117 -1.71579 -197.885)
(-30.9719 -2.83502 93.5166)
(-25.4466 4.92764 -192.958)
(23.624 -6.52204 -199.323)
(27.9026 -3.06664 92.4944)
(25.1343 11.2329 -195.014)
(-0.0070953 -12.8681 200.951)
(-0.000844174 4.90363 -109.143)
(0.0053764 12.4997 218.662)
(-23.6395 -6.78167 -199.751)
(-27.9449 -3.35451 92.6236)
(-25.1481 11.0095 -194.834)
(27.7835 -11.8576 -177.194)
(28.1438 -3.27979 89.085)
(29.5483 17.1401 -172.936)
(-0.00531672 -7.96979 198.454)
(-0.000900579 4.54126 -109.629)
(0.00397175 8.45924 216.405)
(-27.8263 -12.0154 -177.559)
(-28.1871 -3.70075 89.1943)
(-29.5481 17.0181 -172.776)
(19.7953 48.7268 -12.5678)
(19.9108 1.48938 -13.809)
(19.8027 -48.9735 -12.8354)
(-5.88347e-05 34.4872 -14.282)
(-7.86366e-05 -3.41747 -14.3876)
(-5.34733e-05 -35.1474 -12.485)
(-19.8167 48.6542 -12.5635)
(-19.9305 1.48383 -13.8042)
(-19.8251 -48.8969 -12.8242)
(19.9835 31.1891 -4.1254)
(20.0442 -2.339 -1.28729)
(19.9938 -31.3838 -4.17685)
(-6.31717e-05 18.6499 -7.16013)
(-7.10005e-05 1.03051 -6.37741)
(-6.24442e-05 -19.4782 -6.92187)
(-20.001 31.1567 -4.14385)
(-20.0602 -2.35036 -1.31008)
(-20.0078 -31.3481 -4.19771)
(20.0707 -3.0851 -4.47982)
(20.0731 -0.469525 2.86462)
(20.0759 3.55679 -4.62096)
(-6.36039e-05 5.5213 -4.80249)
(-6.79402e-05 -1.47592 -1.77047)
(-6.13025e-05 -5.92016 -3.98455)
(-20.082 -3.0425 -4.47536)
(-20.0876 -0.472424 2.84678)
(-20.0846 3.53187 -4.60273)
(19.7835 -51.355 -5.26118)
(19.9597 -46.3765 -8.28056)
(19.905 -39.6703 -11.2729)
(-7.40893e-05 -39.725 -4.82618)
(-7.7255e-05 -37.7367 -4.5033)
(-0.000126447 -31.3859 -4.68467)
(-19.8094 -51.274 -5.23923)
(-19.9871 -46.2784 -8.25509)
(-19.9335 -39.57 -11.2511)
(19.9157 -38.6706 -2.61827)
(20.0339 -40.0254 -9.90418)
(19.8406 -33.9664 -18.267)
(-5.85078e-05 -32.3472 -0.373449)
(-4.92839e-05 -32.6155 1.23181)
(-7.08615e-05 -27.0115 2.97512)
(-19.9305 -38.6375 -2.63513)
(-20.0496 -39.9689 -9.91108)
(-19.8572 -33.9137 -18.2782)
(20.1002 -7.57309 -4.49636)
(20.1008 -21.3519 -16.0841)
(19.863 -29.2243 -25.8614)
(-4.22445e-05 -17.119 1.9251)
(-2.00963e-05 -18.1155 3.89339)
(-1.02025e-05 -19.7203 3.85257)
(-20.1086 -7.56153 -4.45793)
(-20.1093 -21.3082 -16.0511)
(-19.8719 -29.1854 -25.8514)
(19.8986 39.3794 -11.2073)
(19.9524 46.0186 -8.22215)
(19.7772 51.0073 -5.24508)
(-0.000146727 31.2808 -4.68814)
(-9.16893e-05 37.3726 -4.46783)
(-8.20418e-05 39.7499 -4.87652)
(-19.9311 39.2913 -11.1877)
(-19.9838 45.9322 -8.19861)
(-19.8069 50.9334 -5.22511)
(19.835 33.7202 -18.1492)
(20.0262 39.8127 -9.86573)
(19.9091 38.3442 -2.65783)
(-9.06749e-05 26.8229 2.93285)
(-6.37805e-05 32.4344 1.30235)
(-6.59273e-05 32.2642 -0.532906)
(-19.8548 33.6767 -18.1585)
(-20.0456 39.765 -9.8719)
(-19.9274 38.3185 -2.67284)
(19.8576 29.0401 -25.6734)
(20.0939 21.2971 -16.1156)
(20.0926 7.22088 -4.49369)
(-2.1795e-05 19.5797 3.82465)
(-3.24266e-05 18.0361 3.83804)
(-5.17463e-05 17.024 1.86932)
(-19.8693 29.0104 -25.6612)
(-20.1052 21.2719 -16.0785)
(-20.1038 7.23035 -4.46246)
(19.7848 12.3472 -19.3036)
(19.7902 18.2458 -13.4657)
(19.8473 28.3799 -15.733)
(-0.000498317 11.2911 -9.48122)
(-0.000396564 15.5724 -5.13919)
(-0.000260876 23.6824 -5.70529)
(-19.8452 12.3094 -19.2214)
(-19.8378 18.201 -13.4005)
(-19.8853 28.2939 -15.6924)
(19.8234 5.2018 -29.2938)
(19.8427 16.0131 -21.461)
(19.8082 28.104 -27.066)
(-0.000395548 8.06185 -8.17609)
(-0.000287754 12.3993 -3.44437)
(-0.000176556 21.8832 -2.82251)
(-19.8715 5.21439 -29.1796)
(-19.8757 16.0011 -21.4138)
(-19.8324 28.0639 -27.0431)
(20.0265 4.28957 -36.2609)
(19.8827 18.0519 -32.9262)
(19.8434 16.7073 -41.1341)
(-0.000301726 6.36086 -13.218)
(-0.000210103 13.3907 -8.75627)
(-0.000111971 17.3414 -0.467488)
(-20.0693 4.30037 -36.1364)
(-19.8997 18.0383 -32.8906)
(-19.8574 16.6851 -41.1023)
(19.9658 -4.45073 -58.1367)
(19.9698 -3.54043 -55.3652)
(19.9838 -10.0919 -59.8632)
(5.91822e-05 -5.0977 10.6767)
(7.01469e-05 2.0608 19.5207)
(8.37701e-05 -8.73181 15.7684)
(-19.9971 -4.39766 -58.0184)
(-19.9703 -3.51322 -55.359)
(-19.9953 -10.0937 -59.7953)
(19.663 1.86296 -123.615)
(19.6524 -1.08714 -125.114)
(19.648 4.75886 -123.883)
(0.000173396 -1.59905 62.2537)
(0.000153086 0.559014 65.5699)
(0.00014815 -1.65297 60.1066)
(-19.6625 1.83917 -123.547)
(-19.6518 -1.07921 -125.081)
(-19.6475 4.75879 -123.845)
(18.7402 -0.0341569 -158.951)
(18.7424 -0.00798745 -158.905)
(18.7446 -0.11425 -158.63)
(0.000114372 -0.530305 175.385)
(0.000111994 0.32462 174.206)
(0.00011057 -0.484534 172.501)
(-18.7398 -0.032816 -158.929)
(-18.742 -0.00685675 -158.886)
(-18.7443 -0.113617 -158.611)
(19.8539 -28.613 -15.8373)
(19.7972 -18.3946 -13.564)
(19.7949 -12.4465 -19.4571)
(-0.000245627 -23.9507 -5.74449)
(-0.000396231 -15.6888 -5.18175)
(-0.000509014 -11.388 -9.55452)
(-19.8875 -28.5133 -15.793)
(-19.8397 -18.3425 -13.4906)
(-19.8467 -12.4003 -19.3699)
(19.8137 -28.2562 -27.2467)
(19.8461 -16.1371 -21.5995)
(19.8219 -5.21982 -29.5432)
(-0.000154699 -22.0451 -2.88528)
(-0.000281121 -12.498 -3.46648)
(-0.000402162 -8.11615 -8.27698)
(-19.8344 -28.2091 -27.2191)
(-19.8779 -16.127 -21.541)
(-19.8734 -5.2321 -29.4228)
(19.8478 -16.7863 -41.4268)
(19.885 -18.1507 -33.1808)
(20.0298 -4.30888 -36.5876)
(-9.4707e-05 -17.4791 -0.492938)
(-0.000202868 -13.4746 -8.86729)
(-0.00030473 -6.40181 -13.3695)
(-19.8587 -16.7529 -41.4076)
(-19.9011 -18.1338 -33.1387)
(-20.0721 -4.32033 -36.4573)
(19.9907 10.0964 -60.205)
(19.9732 3.58657 -55.7352)
(19.9686 4.52184 -58.6375)
(8.53189e-05 8.69945 15.7441)
(7.00701e-05 -2.06668 19.4639)
(5.64796e-05 5.18628 10.414)
(-19.9983 10.1001 -60.1439)
(-19.9732 3.5501 -55.722)
(-20.0004 4.46266 -58.5196)
(19.6498 -4.74449 -124.28)
(19.6542 1.09297 -125.512)
(19.6647 -1.89481 -124.081)
(0.000143082 1.67805 60.2019)
(0.000149843 -0.56022 65.6784)
(0.000173153 1.63307 62.2793)
(-19.6493 -4.74777 -124.243)
(-19.6537 1.08705 -125.48)
(-19.6641 -1.86927 -124.013)
(18.7454 0.115679 -158.98)
(18.7432 0.0107345 -159.257)
(18.7409 0.0368014 -159.305)
(0.00010689 0.492563 172.319)
(0.000108426 -0.322748 174.046)
(0.000110902 0.541655 175.26)
(-18.7451 0.115073 -158.962)
(-18.7428 0.00950202 -159.238)
(-18.7406 0.0353933 -159.284)
)
;

boundaryField
{
    fuel
    {
        type            fixedValue;
        value           uniform (0 0 0.25);
    }
    primary_air
    {
        type            fixedValue;
        value           uniform (0 0 2.5);
    }
    Secondary_air_RHS
    {
        type            fixedValue;
        value           uniform (0 125 0);
    }
    Secondary_air_LHS
    {
        type            fixedValue;
        value           uniform (0 -125 0);
    }
    outlet
    {
        type            pressureInletOutletVelocity;
        value           nonuniform List<vector> 
18
(
(0 0 -158.98)
(0.00010689 0.492563 172.319)
(0 0 -158.962)
(0 0 -159.257)
(0.000108426 -0.322748 174.046)
(0 0 -159.238)
(0 0 -159.305)
(0.000110902 0.541655 175.26)
(0 0 -159.284)
(0 0 -158.951)
(0.000114372 -0.530305 175.385)
(0 0 -158.929)
(0 0 -158.905)
(0.000111994 0.32462 174.206)
(0 0 -158.886)
(0 0 -158.63)
(0.00011057 -0.484534 172.501)
(0 0 -158.611)
)
;
    }
    stove_body
    {
        type            noSlip;
    }
    frontAndBack
    {
        type            empty;
    }
}


// ************************************************************************* //
