/*--------------------------------*- C++ -*----------------------------------*\
  =========                 |
  \\      /  F ield         | OpenFOAM: The Open Source CFD Toolbox
   \\    /   O peration     | Website:  https://openfoam.org
    \\  /    A nd           | Version:  6
     \\/     M anipulation  |
\*---------------------------------------------------------------------------*/
FoamFile
{
    version     2.0;
    format      ascii;
    class       volScalarField;
    location    "5";
    object      T;
}
// * * * * * * * * * * * * * * * * * * * * * * * * * * * * * * * * * * * * * //

dimensions      [0 0 0 1 0 0 0];

internalField   nonuniform List<scalar> 
297
(
292.942
292.936
292.942
293.002
292.958
293.003
292.944
292.937
292.941
292.943
292.959
292.943
293.094
293.786
293.099
292.945
292.959
292.942
292.849
292.973
292.849
291.97
391.291
292.042
292.851
292.965
292.845
2862
2144.12
924.516
1375.9
887.222
538.059
2876.44
2126.99
925.871
4665.41
3117.41
2350.75
4430.9
1962.68
1209.03
4796.74
3029.28
2162.82
4663
2840.41
2674.04
3059.03
1364.45
1507.11
4794.04
2817.06
2542.43
2882.87
1613.98
1630.87
4529.84
1240.55
2738.04
2957.03
1692.43
1547.14
2564.85
681.812
684.011
3974.59
932.666
1557.23
2684.21
803.5
488.318
300.252
300.094
299.447
300.57
299.8
299.418
300.402
300.24
299.71
4565.39
2664.81
2644.7
3394.54
1240.48
1961.41
4686.65
2599.98
2518.39
3798.75
2640.42
2029.26
3631.34
1239.88
2297.64
3899.88
2578.11
1928.17
3270.43
2611.88
1866.38
4563.43
1240.29
2702.8
3354.59
2551.25
1773.45
299.879
299.784
299.302
300.083
299.796
299.361
299.909
299.9
299.086
300.062
299.68
299.471
300.217
299.753
299.443
300.133
299.53
299.225
299.793
299.475
299.507
300.196
299.734
299.457
300.115
299.538
299.5
299.267
299.305
299.37
299.327
299.338
299.382
299.048
299.076
299.163
299.442
299.384
299.385
299.421
299.419
299.426
299.195
299.175
299.157
299.525
299.476
299.387
299.444
299.434
299.424
299.395
299.202
299.161
299.967
299.876
299.841
300.091
300.033
300.017
300.011
299.896
299.85
300.072
300.053
300.099
300.173
300.158
300.161
300.116
300.086
300.133
300.089
300.152
300.183
300.327
300.341
300.334
300.13
300.199
300.246
299.943
299.996
299.984
300.145
300.185
300.16
300.126
300.069
300.035
300.066
300.012
299.996
300.102
300.201
300.232
300.139
300.062
300.041
300.095
299.994
299.955
300.067
300.164
300.346
300.155
300.042
299.997
299.915
299.958
299.856
298.83
299.794
300.605
299.993
300.003
299.894
297.648
297.468
297.732
297.945
298.098
298.861
297.602
297.483
297.72
291.589
291.472
291.462
286.405
286.209
286.347
291.603
291.488
291.477
299.475
299.65
299.678
299.416
299.454
299.482
299.128
299.019
299
299.38
299.532
299.619
299.444
299.482
299.522
299.076
298.998
298.969
299.353
299.433
299.566
299.426
299.455
299.593
299.041
298.977
298.941
299.311
299.329
299.393
298.967
299.129
298.369
299.035
298.968
298.919
297.251
297.24
297.085
298.29
298.178
297.678
297.145
296.919
297.029
291.301
291.299
291.344
285.666
285.514
285.632
291.192
291.186
291.218
)
;

boundaryField
{
    fuel
    {
        type            fixedValue;
        value           uniform 293;
    }
    primary_air
    {
        type            fixedValue;
        value           uniform 293;
    }
    Secondary_air_RHS
    {
        type            fixedValue;
        value           uniform 293;
    }
    Secondary_air_LHS
    {
        type            fixedValue;
        value           uniform 293;
    }
    outlet
    {
        type            inletOutlet;
        inletValue      uniform 293;
        value           nonuniform List<scalar> 
18
(
293
285.666
293
293
285.514
293
293
285.632
293
293
286.405
293
293
286.209
293
293
286.347
293
)
;
    }
    stove_body
    {
        type            fixedValue;
        value           uniform 293;
    }
    frontAndBack
    {
        type            empty;
    }
}


// ************************************************************************* //
