/*--------------------------------*- C++ -*----------------------------------*\
  =========                 |
  \\      /  F ield         | OpenFOAM: The Open Source CFD Toolbox
   \\    /   O peration     | Website:  https://openfoam.org
    \\  /    A nd           | Version:  6
     \\/     M anipulation  |
\*---------------------------------------------------------------------------*/
FoamFile
{
    version     2.0;
    format      ascii;
    class       volVectorField;
    location    "5";
    object      U;
}
// * * * * * * * * * * * * * * * * * * * * * * * * * * * * * * * * * * * * * //

dimensions      [0 1 -1 0 0 0 0];

internalField   nonuniform List<vector> 
297
(
(12.7275 0.0199143 0.285042)
(12.7279 1.9617e-05 0.253897)
(12.7275 -0.0198816 0.2849)
(-1.04361e-09 -0.0279636 0.25175)
(-5.39724e-10 -0.000691154 0.247302)
(-4.80961e-11 0.0276326 0.251371)
(-12.7275 0.0199161 0.285044)
(-12.7279 2.32447e-05 0.253897)
(-12.7274 -0.0198807 0.284898)
(12.7273 0.0131451 0.298484)
(12.7289 0.000138498 0.26944)
(12.7273 -0.0127671 0.298581)
(-1.04994e-09 -0.0831813 -0.00560955)
(-5.22003e-10 0.00809547 0.200849)
(-6.47704e-12 0.0854883 -0.00124931)
(-12.7273 0.013147 0.298487)
(-12.7289 0.000142083 0.269441)
(-12.7272 -0.0127665 0.298579)
(12.7241 0.0247329 0.490862)
(12.7299 -1.30775e-05 0.431194)
(12.7241 -0.0240482 0.491081)
(-7.10428e-10 0.0536524 0.269966)
(-4.45297e-10 -0.0410064 0.0957238)
(2.67164e-11 -0.0303841 0.267202)
(-12.7242 0.0247387 0.490871)
(-12.7295 9.0583e-06 0.431189)
(-12.7239 -0.0240469 0.491073)
(81.0738 -12.7788 -14.7971)
(60.5642 16.0734 4.89927)
(25.901 17.1061 12.7893)
(-0.00152296 0.0213512 6.0688)
(-0.000853069 5.48563 6.81441)
(-0.000540114 9.04696 11.7002)
(-81.4641 -13.2798 -14.8694)
(-60.0559 15.722 3.83297)
(-25.9335 17.0896 11.7377)
(133.063 -71.6192 47.6924)
(89.2941 11.0679 85.8826)
(67.2112 -21.437 80.2348)
(-0.00374812 -33.1649 215.45)
(-0.00119009 18.3888 136.202)
(-0.00193929 -7.3821 119.534)
(-136.822 -76.3002 52.8418)
(-86.6761 11.7043 89.4301)
(-61.7599 -18.9246 82.7357)
(130.249 -165.326 -8.55913)
(80.9733 35.3856 183.372)
(75.5687 -8.73586 -21.0975)
(0.0103576 -79.9546 279.859)
(0.00126869 -18.5952 -9.67706)
(-0.000414082 17.0494 163.212)
(-133.835 -172.016 -0.52929)
(-80.2196 36.1374 182.533)
(-71.8738 -12.6289 -17.1311)
(83.3003 -73.6878 -251.581)
(45.717 -5.35984 -29.2156)
(47.0731 18.7195 -136.1)
(-0.0166782 -172.261 0.407859)
(-0.00353173 15.6396 -125.387)
(0.0187766 -10.71 47.019)
(-85.4463 -76.0919 -254.641)
(-47.9217 -6.66238 -28.0804)
(-44.6405 20.3204 -121.99)
(73.6881 1.94761 -182.238)
(19.5535 9.0811 -78.9116)
(19.6977 -32.7313 -88.1751)
(-0.00845946 -68.1733 -139.423)
(-0.000932793 -9.54085 -73.3298)
(0.00624549 -16.9646 -80.5814)
(-77.0956 -8.02 -181.029)
(-23.0426 15.9589 -84.6036)
(-14.0603 -19.7773 -72.8924)
(8.64268 20.8253 -15.006)
(8.63464 4.51233 -12.0617)
(8.62426 -15.61 -17.4691)
(-0.00130659 12.9798 -11.147)
(-0.000747559 1.96985 -16.4411)
(0.00184898 -10.1455 -15.8716)
(-8.64845 18.5261 -13.9353)
(-8.63968 12.9919 -12.2184)
(-8.62507 -3.15503 -14.7683)
(113.635 -176.647 -521.965)
(67.4726 21.8419 182.288)
(70.7681 -0.165626 -285.167)
(-0.0469654 -121.433 406.544)
(-0.00141081 -20.9334 -139.764)
(0.0560965 7.88871 240.017)
(-116.478 -184.742 -529.761)
(-65.8821 21.7399 181.753)
(-67.3506 -3.19954 -270.506)
(101.75 -114.43 -450.365)
(69.9839 14.051 175.825)
(57.1319 10.6747 -235.36)
(-0.0537207 -120.866 458.926)
(-0.00192908 -7.14277 -143.935)
(0.0761039 9.19439 264.493)
(-104.362 -119.434 -457.996)
(-68.3542 13.3639 175.404)
(-54.0307 9.82641 -220.59)
(92.7407 -118.559 -391.776)
(69.5642 -8.18221 160.655)
(53.3916 8.25449 -209.115)
(-0.0589856 -180.626 510.094)
(-0.00249421 -0.586906 -139.365)
(0.0927459 -1.4256 312.417)
(-95.2281 -123.125 -397.721)
(-67.8968 -10.8982 161.282)
(-50.7309 7.53701 -194.314)
(8.6096 29.3792 -9.57066)
(8.61425 -8.96684 -7.64174)
(8.59571 -29.2542 -6.91893)
(-0.00137749 20.2792 -8.87809)
(-0.00107447 -1.06969 -6.3256)
(-0.000229026 -17.005 -6.61597)
(-8.61155 30.953 -10.2589)
(-8.62386 12.1028 -7.34039)
(-8.59853 -21.9202 -5.1557)
(8.6351 17.3007 -0.492576)
(8.62651 -6.96023 0.344476)
(8.61657 -18.5328 -2.39996)
(-0.000947122 9.27706 -2.21261)
(-0.00104296 -1.98701 -3.27908)
(-0.000942097 -9.91324 -1.79262)
(-8.63753 16.7332 -1.29876)
(-8.623 -6.67688 -0.16925)
(-8.61668 -15.7761 -0.460599)
(8.63126 -4.46391 -3.97265)
(8.62177 -1.49158 0.0482071)
(8.62331 -1.13663 -4.10974)
(-0.000919562 1.73171 -4.74886)
(-0.00100046 0.65169 -1.8972)
(-0.000932067 -3.73956 -3.98096)
(-8.64309 -0.790417 -5.7092)
(-8.62675 -2.52885 1.1661)
(-8.62819 2.16492 0.641098)
(8.59231 -30.87 -3.63612)
(8.61182 -27.1827 -5.70019)
(8.6043 -23.3245 -7.75319)
(-0.000933529 -19.3642 -3.85642)
(-0.000940389 -17.7865 -4.40662)
(-0.000708423 -13.384 -4.39931)
(-8.59587 -22.4855 -4.5247)
(-8.60816 -18.3357 -7.53434)
(-8.59437 -11.9399 -9.80155)
(8.60587 -24.7884 -1.08901)
(8.61954 -25.1766 -6.52255)
(8.6017 -22.0986 -11.6099)
(-0.000833379 -15.0727 1.45211)
(-0.000536417 -15.1446 1.89125)
(-0.000537158 -12.7286 2.40589)
(-8.61325 -17.1257 -2.2055)
(-8.61436 -16.3978 -5.68198)
(-8.58549 -14.0654 -12.534)
(8.62656 -9.20718 -3.58294)
(8.62294 -13.2534 -9.90948)
(8.59791 -18.9651 -15.3138)
(-7.61389e-06 -8.52255 0.548618)
(0.000829507 -9.6993 0.990629)
(0.000724248 -10.5747 0.243282)
(-8.62444 3.70271 4.55064)
(-8.617 -1.93216 -2.52035)
(-8.5922 -12.6336 -14.9951)
(8.60922 22.0415 -11.9042)
(8.62436 27.2019 -8.80433)
(8.60729 31.3053 -6.23515)
(0.000122681 17.1147 -6.1597)
(-0.000398783 22.1182 -5.9502)
(-0.00066719 24.2498 -5.24015)
(-8.60938 23.2955 -12.4626)
(-8.62737 28.8653 -9.70789)
(-8.60735 33.4939 -6.89547)
(8.60719 21.123 -11.205)
(8.63453 24.1642 -5.01055)
(8.62854 23.1872 -0.405722)
(-0.000281204 15.016 1.23883)
(-0.000657257 18.4245 1.99832)
(-0.000766778 18.1958 2.0227)
(-8.60828 22.395 -11.9465)
(-8.63892 25.752 -5.55395)
(-8.62678 24.9049 -0.173676)
(8.6101 18.2721 -17.1036)
(8.63846 12.6572 -12.7683)
(8.64359 1.21791 -4.37411)
(-0.000711744 9.46462 0.534937)
(-0.000772302 7.70956 1.14717)
(-0.000853228 5.82178 0.418394)
(-8.61294 19.2956 -17.9259)
(-8.64216 12.7482 -12.2891)
(-8.64829 3.23691 -3.72708)
(8.61686 -3.90699 -6.72816)
(8.61646 2.0174 -16.3513)
(8.60183 12.8252 -20.1646)
(0.00073327 -2.96488 0.388386)
(0.000749923 3.43849 -7.53327)
(0.000563091 10.6124 -8.23993)
(-8.62006 -3.97321 -7.33745)
(-8.61654 2.61289 -17.2662)
(-8.60263 13.5966 -21.1976)
(8.61519 0.918444 4.70502)
(8.61466 4.11027 -19.1476)
(8.60213 14.5495 -21.4226)
(0.000716542 -1.15892 9.80286)
(0.000656873 4.37626 -5.45464)
(0.000244877 10.2909 -4.43404)
(-8.61491 1.37588 4.91266)
(-8.61445 4.48886 -20.2152)
(-8.60411 15.2684 -22.5612)
(8.6079 1.55762 -0.447747)
(8.65176 3.36185 -21.8108)
(8.62385 10.9262 -26.9868)
(0.000680296 -1.34304 13.4792)
(0.000611474 4.21339 -8.80935)
(-2.29373e-05 6.58096 -6.21113)
(-8.60703 1.91332 -1.24925)
(-8.65331 3.43155 -22.9165)
(-8.62471 11.2072 -28.2901)
(8.60918 3.50271 -2.99752)
(8.62088 2.96905 -30.4226)
(8.61689 -9.97759 -46.211)
(-0.00030319 1.32367 46.0779)
(-0.000363709 2.62647 26.783)
(-0.000403538 -11.9411 16.6474)
(-8.61228 3.89744 -3.39571)
(-8.62349 2.44679 -31.5575)
(-8.619 -9.84596 -46.1183)
(8.5251 0.623975 -99.0087)
(8.52016 -0.107999 -104.918)
(8.52819 5.8479 -99.1918)
(-0.00044404 1.28982 71.318)
(-0.000442127 1.8717 62.3866)
(-0.000392161 0.27472 55.1562)
(-8.52496 0.441055 -99.4997)
(-8.52184 0.0513795 -105.491)
(-8.52898 5.7631 -100.279)
(8.19884 0.108793 -139.499)
(8.19479 0.0695758 -139.699)
(8.19435 -0.0507699 -139.613)
(-0.000567169 0.775313 183.981)
(-0.000574116 1.17294 187.515)
(-0.000588464 0.334902 187.282)
(-8.20071 0.115456 -139.689)
(-8.19671 0.0876821 -139.892)
(-8.19628 -0.0391886 -139.801)
(8.59793 -17.8349 -10.5576)
(8.5924 -10.4394 -8.82534)
(8.59232 -6.29838 -12.0398)
(-0.0027684 -10.2938 -4.88429)
(-0.0064944 -5.19009 -3.12541)
(-0.0085815 -1.74878 -4.0913)
(-8.59254 -6.54559 -13.5566)
(-8.6008 -1.67726 -8.35465)
(-8.60624 7.69128 -3.61413)
(8.59458 -19.0571 -17.2853)
(8.59521 -10.8054 -14.6281)
(8.59377 -2.64056 -17.0845)
(-0.00215583 -11.3117 -0.237393)
(-0.00537686 -5.88012 1.45935)
(-0.00749975 -0.526066 1.2595)
(-8.58456 -9.68225 -17.9334)
(-8.59315 -8.1253 -9.6808)
(-8.60325 6.85433 0.572914)
(8.60538 -13.0224 -23.1151)
(8.60811 -12.1847 -19.7942)
(8.61875 -2.49934 -20.7964)
(-0.000977476 -9.41448 -1.38498)
(-0.00358638 -7.87667 -1.25504)
(-0.00580066 -0.813586 -0.751514)
(-8.6061 -6.56618 -23.041)
(-8.60729 -9.12405 -12.5216)
(-8.60117 1.34931 3.99402)
(8.60937 7.17777 -33.3333)
(8.60712 3.68538 -33.1761)
(8.60908 -1.23102 -32.659)
(0.00349545 7.53224 22.8762)
(0.00281926 -1.55401 26.1495)
(0.00238091 -1.52374 31.1474)
(-8.59254 4.41969 -25.7865)
(-8.58734 -1.84064 -17.6764)
(-8.58222 -2.77036 -0.151459)
(8.52659 -3.22745 -94.1567)
(8.52806 0.153204 -95.8307)
(8.524 0.730253 -95.5099)
(0.00587342 0.934251 57.0243)
(0.00649874 -0.983804 59.7399)
(0.00699441 -0.479242 62.0614)
(-8.50594 -2.55167 -91.9105)
(-8.49935 -0.280817 -95.0184)
(-8.50256 -0.106225 -89.6043)
(8.19155 0.0471079 -135.414)
(8.19168 0.060421 -135.569)
(8.193 0.0188246 -135.565)
(0.0028457 0.223779 186.59)
(0.00289445 -0.51989 186.956)
(0.00303596 -0.216499 185.658)
(-8.18123 -0.00682932 -133.781)
(-8.18106 -0.125617 -133.801)
(-8.18217 -0.114735 -133.665)
)
;

boundaryField
{
    fuel
    {
        type            fixedValue;
        value           uniform (0 0 0.25);
    }
    primary_air
    {
        type            fixedValue;
        value           uniform (0 0 2.5);
    }
    Secondary_air_RHS
    {
        type            fixedValue;
        value           uniform (0 66.6667 0);
    }
    Secondary_air_LHS
    {
        type            fixedValue;
        value           uniform (0 -66.6667 0);
    }
    outlet
    {
        type            pressureInletOutletVelocity;
        value           nonuniform List<vector> 
18
(
(0 0 -135.414)
(0.0028457 0.223779 186.59)
(0 0 -133.781)
(0 0 -135.569)
(0.00289445 -0.51989 186.956)
(0 0 -133.801)
(0 0 -135.565)
(0.00303596 -0.216499 185.658)
(0 0 -133.665)
(0 0 -139.499)
(-0.000567169 0.775313 183.981)
(0 0 -139.689)
(0 0 -139.699)
(-0.000574116 1.17294 187.515)
(0 0 -139.892)
(0 0 -139.613)
(-0.000588464 0.334902 187.282)
(0 0 -139.801)
)
;
    }
    stove_body
    {
        type            noSlip;
    }
    frontAndBack
    {
        type            empty;
    }
}


// ************************************************************************* //
