/*--------------------------------*- C++ -*----------------------------------*\
  =========                 |
  \\      /  F ield         | OpenFOAM: The Open Source CFD Toolbox
   \\    /   O peration     | Website:  https://openfoam.org
    \\  /    A nd           | Version:  6
     \\/     M anipulation  |
\*---------------------------------------------------------------------------*/
FoamFile
{
    version     2.0;
    format      ascii;
    class       volScalarField;
    location    "1.5";
    object      p;
}
// * * * * * * * * * * * * * * * * * * * * * * * * * * * * * * * * * * * * * //

dimensions      [1 -1 -2 0 0 0 0];

internalField   nonuniform List<scalar> 
297
(
122532
122532
122532
202520
202520
202519
122553
122553
122553
122532
122532
122532
202520
202520
202520
122553
122553
122553
122532
122532
122532
202520
202520
202520
122553
122553
122553
97187
97203.8
97194.2
160565
160574
160588
97076.9
97092.5
97092.4
97195.4
97210.2
97186.7
160254
160370
160314
97088.6
97127.7
97137.9
97028.9
97161.6
97014.3
158373
159514
158363
96964.2
97105.9
96994.4
96447.6
96644.4
96458.7
159460
159263
159443
96409.3
96558.9
96305.6
96669.2
96802.7
96687.4
160248
159977
160209
96683.2
96750
96578.4
96709
96950.8
96750.6
160234
160183
160174
96765.3
96925.2
96641
95779.9
97137.1
95794.4
153800
158674
153909
95679.8
97008.2
95763.3
95589.3
97099.3
95597.6
153265
158705
153343
95484.4
96973.2
95577.1
95515
97040.5
95508.3
153644
158832
153705
95407.5
96920.8
95504.5
97320.6
97399.9
97284.5
160230
160205
160122
97149
97265.7
97045.7
97440.9
97470.6
97375.8
160246
160242
160194
97246.9
97320.5
97144.7
97493.7
97472.7
97409.7
160246
160283
160240
97271
97305.5
97178.5
97555.8
97699.1
98238.8
159827
159799
159700
96986.3
96891
96764.6
97276.3
97251.4
97638.8
159885
159739
159529
96931.2
96688.2
96403.4
97167.9
97011.7
96994.8
159908
159681
159387
96934.2
96640.2
96295.8
98408.6
97878
97700.5
160025
160056
160039
96923.2
97010.9
97081.5
97804.2
97422.3
97423.2
159829
160015
160064
96595.3
96858.1
97052.1
97157.9
97196.1
97340.9
159692
159940
160066
96492.7
96815.8
97055.2
98792.9
98939.7
98836
159805
159802
159880
98824.6
98198.2
97289.2
98496.5
98562
98324.1
159492
159478
159584
97984.5
97213.9
96622.2
98134.4
98152.2
97778.7
158958
159038
159107
96983.9
96386.3
96081.7
95830.1
95771.1
95754.3
155329
155287
155100
93202.6
93115.8
93039.6
91092.8
91028.5
91029.8
148047
148016
147960
89594.7
89572.7
89513.6
85189.8
85173.7
85157.6
136099
136001
135916
87579.5
87737.3
87937
98754.5
98870.7
98675.7
159578
159521
159534
97163.4
98137.2
98813.1
98258.2
98470.5
98347.2
159288
159179
159228
96469.4
97110.8
97950.5
97716.3
98070.8
97989.7
158830
158774
158758
95929.3
96271.2
96930.9
95967.7
96052.7
96131.3
155072
155297
155343
92882.6
92964.6
93042.2
90927.7
90922
90983.5
147669
147730
147760
89306.3
89370.5
89395.2
84947.2
84964.6
84980.6
135638
135726
135824
87760.7
87556.3
87398.7
)
;

boundaryField
{
    fuel
    {
        type            zeroGradient;
    }
    primary_air
    {
        type            zeroGradient;
    }
    Secondary_air_RHS
    {
        type            zeroGradient;
    }
    Secondary_air_LHS
    {
        type            zeroGradient;
    }
    outlet
    {
        type            totalPressure;
        rho             rho;
        psi             none;
        gamma           1;
        p0              uniform 100000;
        value           nonuniform List<scalar> 
18
(
87115.6
100000
99995.6
86925.4
100000
93816.1
87174.7
100000
88306.3
87359.8
100000
88479.2
87138.1
100000
93853.7
87302.3
100000
99994.7
)
;
    }
    stove_body
    {
        type            zeroGradient;
    }
    frontAndBack
    {
        type            empty;
    }
}


// ************************************************************************* //
