/*--------------------------------*- C++ -*----------------------------------*\
  =========                 |
  \\      /  F ield         | OpenFOAM: The Open Source CFD Toolbox
   \\    /   O peration     | Website:  https://openfoam.org
    \\  /    A nd           | Version:  6
     \\/     M anipulation  |
\*---------------------------------------------------------------------------*/
FoamFile
{
    version     2.0;
    format      ascii;
    class       volScalarField;
    location    "0.0025";
    object      O2;
}
// * * * * * * * * * * * * * * * * * * * * * * * * * * * * * * * * * * * * * //

dimensions      [0 0 0 0 0 0 0];

internalField   nonuniform List<scalar> 
3773
(
0
0
0
0
0
0
0
0
0
0
0
0
0
0
0
0
0
0
0
0
0
0
0
0
0
0
0
0
0
0
0
0
0
0
0
0
0
0
0
0
0
0
0
0
0
0
0
0
0
0
0
0
0
0
0
0
0
0
0
0
0
0
0
0
0
0
0
0
0
0
0
0
0
0
0
0
0
0
0
0
0
0
0
0
0
0
0
0
0
0
0
0
0
0
0
0
0
0
0
0
0
0
0
0
0
0
0
0
0
0
0
0
0
0
0
0
0
0
0
0
0
0
0
0
0
0
0
0
0
0
0
0
0
0
0
0
0
0
0
0
0
0
0
0
0
0
0
0
0
0
0
0
0
0
0
0
0
0
0
0
0
0
0
0
0
0
0
0
0
0
0
0
0
0
0
0
0
0
0
0
0
0
0
0
0
0
0
0
0
0
0
0
0
0
0
0
0
0
0
0
0
0
0
0
0
0
0
0
0
0
0
0
0
0
0
0
0
0
0
0
0
0
0
0
0
0
0
0
0
0
0
0
0
0
0
0
0
0
0
0
0
0
0
0
0
0
0
0
0
0
0
0
0
0
0
0
0
0
0
0
0
0
0
0
0
0
0
0
0
0
0
0
0
0
0
0
0
0
0
0
0
0
0
0
0
0
0
0
0
0
0
0
0
0
0
0
0
0
0
0
0
0
0
0
0
0
0
0
0
0
0
0
0
0
0
0
0
0
0
0
0
0
0
0
0
0
0
0
0
0
0
0
0
0
0
0
0
0
0
0
0
0
0
0.00207697
0.00207795
0.00207609
0.0020758
0.00207547
0.00207533
0.00207345
0.00240186
0.00240283
0.00240163
0.00240099
0.00240051
0.00240059
0.00240006
0.00265303
0.00265356
0.00265388
0.00265407
0.00265397
0.0026541
0.00265407
0.00271798
0.002719
0.00271897
0.00271928
0.00271935
0.00271935
0.00271895
0.00265608
0.0026563
0.00265651
0.00265661
0.00265612
0.00265582
0.00265426
0.00239753
0.00239648
0.00239798
0.00239779
0.00239856
0.00239995
0.00239997
0.00207638
0.00207591
0.00207679
0.00207608
0.0020757
0.00207592
0.002076
1.66294e-06
1.74877e-06
1.60799e-06
1.70039e-06
1.60363e-06
1.54828e-06
1.66029e-06
1.57601e-06
1.61406e-06
1.54501e-06
1.46749e-06
1.55569e-06
1.58277e-06
1.46054e-06
2.2208e-06
2.14183e-06
2.1827e-06
2.10713e-06
2.11818e-06
2.00552e-06
2.09806e-06
1.41965e-06
1.44728e-06
1.44503e-06
1.45024e-06
1.50303e-06
1.53563e-06
1.62527e-06
1.65042e-06
1.6389e-06
1.66844e-06
1.66251e-06
1.88229e-06
2.00529e-06
2.15187e-06
1.31588e-06
1.16601e-06
1.30329e-06
1.17135e-06
1.23733e-06
1.24754e-06
1.25405e-06
1.20464e-06
1.23483e-06
1.39735e-06
1.38813e-06
1.34724e-06
1.37396e-06
1.46319e-06
1.07099e-09
1.18166e-09
1.12603e-09
1.13878e-09
8.52198e-10
4.93659e-10
1.25897e-09
2.03009e-09
1.99647e-09
1.93382e-09
1.72238e-09
1.92224e-09
1.83121e-09
1.73024e-09
2.37654e-09
2.24311e-09
2.21663e-09
1.54519e-09
2.23301e-09
1.89734e-09
1.46778e-09
1.83041e-09
1.92854e-09
1.87778e-09
1.11484e-09
1.73426e-09
1.05943e-09
1.07409e-09
2.79376e-09
2.55176e-09
2.73298e-09
2.29665e-09
2.30929e-09
1.83729e-09
1.592e-09
1.03818e-09
7.35448e-10
9.21293e-10
7.98336e-10
1.078e-09
1.07701e-09
1.01368e-09
4.57065e-10
4.58199e-10
5.44011e-10
6.90074e-10
8.11077e-10
8.79793e-10
8.81019e-10
9.71011e-15
1.69931e-13
1.93945e-13
1.69846e-13
2.95032e-13
1.70342e-13
9.36919e-14
5.72959e-13
6.5323e-13
6.54724e-13
1.01212e-12
9.37887e-13
7.86538e-13
1.15128e-12
1.44852e-12
1.52792e-12
1.44212e-12
1.46896e-12
1.30359e-12
9.06273e-13
1.29393e-12
1.44477e-12
1.22923e-12
1.28495e-12
1.04858e-12
9.38132e-13
6.55649e-13
8.00692e-13
2.24511e-12
1.60476e-12
2.54421e-12
1.22981e-12
1.65577e-12
1.37847e-12
1.24372e-12
2.15999e-13
2.40128e-13
2.27204e-13
2.00036e-13
2.26205e-13
3.84374e-13
3.9164e-13
6.27075e-14
3.25545e-13
1.6852e-13
1.42e-13
1.25151e-13
1.18987e-13
1.71041e-14
0
0
2.19423e-16
2.7472e-16
2.96551e-14
0
0
0
0
7.43128e-16
2.79326e-16
1.87855e-14
3.5686e-17
0
0
2.35096e-17
1.58e-15
1.034e-15
2.44155e-15
2.40056e-14
0
0
6.50208e-16
1.25215e-15
5.98455e-16
1.49435e-15
1.1286e-16
0
0
1.09311e-15
9.7972e-16
5.29565e-16
1.91265e-15
4.22951e-14
0
0
1.19575e-14
2.70819e-15
9.54393e-17
6.78988e-16
4.90608e-17
0
0
3.60124e-13
9.92186e-16
3.44952e-16
2.15158e-14
7.32717e-20
0
0
0
0
5.48311e-16
1.40718e-13
0
0
0
0
1.31093e-15
8.36372e-17
1.35171e-13
0
0
0
0
4.78974e-15
1.10862e-16
9.00024e-15
1.2536e-14
0
0
0
3.71103e-15
2.35168e-17
4.20227e-15
0
0
0
0
1.786e-16
3.22668e-17
1.02873e-14
1.21266e-12
0
0
1.21529e-14
2.01247e-14
5.80858e-17
3.07934e-15
0
0
0
4.33105e-13
3.60408e-15
2.40809e-15
1.7742e-13
0
0
0
0
0
1.83252e-15
1.74108e-13
0
0
0
0
2.26946e-15
1.61083e-16
2.32996e-13
0
0
0
0
8.5619e-15
2.14683e-16
1.46029e-14
0
0
0
0
7.81076e-15
4.38825e-17
5.66717e-15
0
0
0
0
4.33455e-17
6.06396e-17
2.60632e-14
8.75739e-12
0
0
3.54064e-13
3.26087e-14
1.33524e-16
5.72085e-15
0
0
0
6.65228e-13
8.24076e-15
1.23623e-14
6.29042e-13
0
0
0
0
2.01035e-16
2.08685e-18
3.7305e-16
0
0
0
0
7.83377e-17
9.12126e-19
1.55995e-16
0
0
0
8.23543e-19
1.71336e-17
5.50679e-19
1.86754e-17
0
0
0
3.35369e-13
1.47369e-16
3.61504e-19
1.29843e-18
1.50085e-16
0
0
1.88475e-15
3.53514e-18
2.22821e-20
3.84158e-18
0
0
0
0
2.31029e-18
2.66162e-19
2.34499e-17
0
0
0
0
1.59903e-19
8.17314e-19
7.55275e-17
0
0
4.08124e-17
7.28624e-19
2.09524e-20
2.64127e-22
8.56484e-20
2.28038e-18
5.47846e-20
8.5001e-17
8.51104e-19
1.21228e-20
6.80491e-23
1.47882e-20
1.66573e-18
2.33739e-19
5.1808e-17
7.70378e-18
2.73451e-21
1.39195e-23
2.09104e-21
3.27183e-19
9.29124e-19
1.61736e-17
1.41585e-16
7.85352e-20
7.22329e-23
1.13511e-22
3.38466e-20
5.2787e-18
5.46651e-17
4.09811e-18
1.5764e-21
4.42852e-24
1.65883e-21
6.69699e-19
1.89178e-17
9.86914e-17
1.92098e-18
1.44368e-21
4.06324e-23
9.45174e-21
1.3268e-18
4.04981e-18
4.72085e-17
1.28681e-18
1.64755e-21
4.41115e-23
6.25788e-21
1.4771e-19
7.62465e-19
2.82349e-21
2.38064e-23
5.64847e-25
1.20659e-26
2.38654e-24
8.3405e-22
4.24562e-23
2.78951e-20
1.05912e-22
1.00267e-24
2.92602e-27
8.1776e-25
2.32774e-22
3.50396e-23
7.98028e-21
4.85579e-22
9.09124e-25
1.91369e-27
2.06791e-25
2.97533e-23
3.90813e-23
2.13091e-21
2.58798e-20
1.76971e-23
1.56911e-26
1.03938e-26
2.43523e-24
2.27013e-22
3.46658e-21
2.49004e-22
7.75281e-25
1.55398e-27
8.76712e-26
1.8588e-23
5.04498e-22
2.67038e-20
2.13084e-22
3.33084e-25
2.14366e-27
3.63212e-25
4.62715e-23
3.28802e-22
3.94384e-20
4.07629e-22
7.0096e-25
1.32126e-27
2.45533e-25
1.70034e-23
1.08809e-22
1.44105e-25
2.38065e-27
1.01784e-29
1.42501e-31
5.33971e-29
1.73357e-26
2.52594e-27
2.52518e-24
1.24425e-26
5.23157e-29
7.76164e-32
2.68937e-29
6.93342e-27
1.50094e-27
5.08085e-25
2.87326e-26
1.38012e-28
4.32235e-31
1.03377e-29
1.42931e-27
1.74039e-27
2.57727e-25
7.02835e-25
1.77796e-27
5.01787e-30
7.21572e-31
1.08976e-28
3.94681e-26
4.63109e-25
1.75265e-26
8.59527e-29
5.70438e-31
5.7254e-30
5.42423e-28
7.59409e-26
5.65175e-24
1.19669e-25
1.00055e-28
6.15494e-32
1.46072e-29
1.94451e-27
9.46531e-27
3.68562e-24
2.14526e-25
4.14775e-28
7.60635e-32
2.18415e-29
6.68008e-28
1.82037e-26
1.51678e-29
9.12235e-32
4.62917e-34
4.30998e-36
2.49393e-33
3.09676e-31
1.29161e-31
3.95634e-29
1.67917e-31
1.28873e-33
5.09855e-36
1.04651e-33
1.63226e-31
6.18997e-32
1.4617e-29
7.72401e-31
4.9335e-33
5.70709e-35
9.54449e-34
5.02869e-32
3.2462e-31
1.22163e-29
1.50966e-29
7.89333e-32
8.90288e-34
9.52433e-35
6.58839e-33
1.45053e-30
7.54634e-29
6.39458e-31
6.6975e-33
5.91037e-35
4.54732e-34
3.06419e-32
1.41314e-29
4.30052e-28
2.01448e-30
1.93197e-32
1.75236e-35
2.35198e-34
3.83872e-32
4.06701e-30
2.62614e-28
4.02614e-30
8.86631e-33
2.37504e-35
2.27509e-34
4.44153e-32
1.35454e-30
4.22144e-34
1.1187e-36
7.89528e-39
1.27733e-40
2.79811e-38
4.90247e-36
5.24562e-36
1.97994e-33
2.11421e-36
2.53436e-38
6.30853e-40
2.71261e-38
2.46764e-36
6.29759e-36
9.1127e-34
1.28709e-35
1.23686e-37
2.89012e-39
2.62429e-38
1.00241e-36
1.10018e-35
3.67059e-34
2.59991e-34
2.028e-36
4.56138e-38
7.67464e-39
3.33251e-37
6.7865e-35
5.02534e-33
4.89732e-35
1.09276e-36
1.89703e-38
2.99545e-38
1.63466e-36
4.695e-34
1.76852e-32
8.31096e-35
2.68309e-36
4.51597e-38
1.5977e-38
6.88747e-37
1.36774e-34
1.08623e-31
1.65318e-34
4.15918e-36
9.25516e-38
8.34948e-39
5.30234e-37
3.96906e-35
6.37649e-36
4.6916e-37
3.00995e-38
4.63245e-40
2.96527e-40
5.26277e-39
7.31423e-38
8.89048e-36
3.24778e-37
6.43336e-39
4.64374e-41
3.20522e-41
1.2091e-39
2.80008e-38
1.35174e-38
5.72073e-40
4.86092e-41
9.29739e-43
7.15711e-42
1.00361e-40
1.51334e-39
6.54637e-39
3.00667e-39
1.37351e-40
5.12681e-42
4.12773e-42
5.43777e-41
1.77914e-39
1.38886e-37
8.56628e-39
2.20638e-39
6.43966e-41
3.74457e-41
5.3675e-40
9.67811e-39
7.06286e-35
2.79028e-36
1.59236e-37
4.23904e-39
9.92481e-40
4.67451e-38
1.1844e-36
2.22106e-33
1.86086e-34
1.22789e-35
2.18921e-37
2.82858e-39
4.93141e-38
6.17103e-37
0
0
0
1.21084e-15
1.87749e-15
0
0
0
0
0
1.39875e-18
7.22916e-17
0
0
0
0
2.18728e-18
1.48429e-18
1.1639e-16
0
0
0
0
2.76889e-16
2.24493e-18
2.93922e-15
0
0
0
0
0
7.32297e-19
1.61133e-14
7.27811e-12
0
0
8.13338e-12
3.01297e-17
2.52953e-17
0
0
0
0
2.31906e-11
2.86609e-16
1.23296e-14
5.07319e-13
0
0
0
0
0
4.89652e-16
5.7587e-16
0
0
0
0
5.74087e-18
7.54207e-19
7.61074e-18
0
0
0
0
3.08479e-18
1.27322e-18
4.12542e-16
0
0
0
0
2.38261e-16
1.16252e-18
1.23238e-14
0
0
0
0
0
2.39023e-19
4.67942e-15
0
0
0
1.66887e-11
3.04436e-17
2.12476e-17
4.92976e-18
0
0
0
9.58769e-12
6.29814e-16
6.72417e-15
2.1534e-13
0
0
0
0
0
3.41497e-16
4.53038e-16
0
0
0
3.64075e-14
1.04884e-17
8.37523e-19
1.70215e-17
0
0
0
0
3.27408e-18
1.37909e-18
9.03434e-16
0
0
0
0
2.1112e-16
9.66518e-19
2.98931e-14
4.64346e-13
0
0
0
0
8.70689e-20
1.48799e-15
0
0
0
2.4109e-12
1.66813e-17
1.59862e-17
0
0
0
0
0
0
3.57633e-15
1.04121e-13
0
0
0
0
0
1.38013e-16
3.63563e-16
0
0
0
0
1.2804e-17
8.70917e-19
2.37367e-17
0
0
0
0
4.14674e-18
1.45047e-18
1.68933e-15
0
0
0
0
1.8886e-16
7.71381e-19
7.12728e-14
1.25664e-11
0
0
0
1.39029e-17
7.3269e-20
1.43512e-15
0
0
0
8.19898e-12
2.51485e-17
1.29884e-17
0
0
0
0
0
0
2.54129e-15
6.23748e-14
0
0
0
0
0
7.88974e-17
3.38831e-16
0
0
0
5.29471e-14
8.40344e-18
9.40393e-19
2.68807e-17
0
0
0
0
6.4161e-18
1.73654e-18
2.41804e-15
0
0
0
0
1.78099e-16
7.14141e-19
8.35138e-14
1.58755e-11
0
0
1.70326e-12
2.10743e-17
5.13978e-20
2.12987e-15
0
0
0
0
3.39299e-18
6.54523e-18
0
0
0
0
0
0
8.37761e-16
2.53447e-14
0
0
0
0
0
2.18878e-17
3.76258e-16
0
0
0
2.06728e-14
1.51404e-17
9.86313e-19
1.45986e-17
0
0
0
0
1.14835e-17
2.12918e-18
2.48872e-15
0
0
0
0
1.71331e-16
6.46118e-19
7.13875e-14
1.08812e-11
0
0
3.38115e-12
2.04845e-17
4.46843e-20
2.11106e-15
0
0
0
0
3.64254e-19
4.57563e-18
0
0
0
0
0
0
4.36156e-16
1.30265e-14
0
0
0
0
0
1.30859e-17
4.06968e-16
0
0
0
0
3.22222e-17
9.68382e-19
2.4388e-18
0
0
0
0
1.70061e-17
1.99601e-18
1.63586e-15
0
0
0
0
1.69179e-16
5.6934e-19
3.27421e-14
2.23633e-12
0
0
2.87855e-12
1.66791e-17
3.52954e-20
1.2149e-15
0
0
0
0
1.38064e-18
1.87943e-18
2.17901e-17
0
0
0
0
0
2.35079e-16
6.54661e-15
0
0
6.51197e-41
1.68976e-41
2.31283e-42
1.11831e-43
2.45876e-44
1.86546e-43
7.30297e-43
3.37253e-41
6.03568e-42
5.26249e-43
2.12755e-44
3.275e-45
2.57077e-44
1.14667e-43
2.3753e-43
4.53576e-44
4.94297e-45
3.17325e-46
6.15111e-46
5.59699e-45
2.83515e-44
1.51832e-43
4.85144e-44
4.99219e-45
1.83384e-46
4.10551e-46
5.46999e-45
4.31582e-44
2.76783e-42
5.7685e-43
8.69669e-44
1.01251e-44
4.70439e-45
3.90749e-44
1.96188e-43
2.79112e-40
5.57017e-41
6.2059e-42
6.67702e-43
9.6624e-44
9.35816e-43
4.74291e-42
2.34402e-38
7.5844e-39
1.03691e-39
6.0943e-41
2.20996e-43
1.64e-42
6.25521e-42
1.95284e-45
8.10308e-46
1.67675e-46
7.00048e-48
1.45282e-48
8.72478e-48
2.16648e-47
3.35803e-46
1.0261e-46
1.94032e-47
1.05827e-48
2.18388e-49
6.67841e-49
1.41819e-48
8.95663e-48
6.43703e-48
1.09422e-48
6.77189e-50
1.80998e-49
6.26849e-49
1.12266e-48
6.41621e-48
3.42586e-48
1.02382e-48
1.73533e-49
1.53526e-49
6.85035e-49
1.8205e-48
1.14364e-46
1.508e-46
7.04608e-47
1.12641e-47
1.42331e-48
4.99154e-48
8.29753e-48
2.95389e-45
3.85936e-45
1.8393e-45
2.09951e-46
4.64619e-48
1.84387e-47
5.24101e-47
7.52812e-43
3.47935e-43
7.6567e-44
4.58246e-45
1.37832e-47
7.79187e-47
1.89658e-46
8.65316e-47
1.88894e-47
2.91172e-48
1.25777e-49
2.68081e-50
1.98333e-49
9.43915e-49
8.66317e-50
1.65896e-49
7.46088e-50
5.847e-51
5.96627e-52
1.55186e-51
4.78118e-52
3.87158e-52
3.62945e-51
3.33591e-51
2.58299e-52
3.27435e-53
6.53448e-53
6.96367e-53
3.37785e-52
1.3081e-50
1.22087e-50
1.59548e-51
5.28727e-53
7.14569e-53
9.81173e-53
7.00018e-51
1.11156e-48
1.0404e-48
1.78464e-49
5.20695e-52
6.88269e-52
4.97965e-52
1.16998e-48
3.95634e-47
2.06172e-47
2.65798e-48
7.26375e-51
1.37695e-50
1.74609e-50
1.73968e-44
4.00579e-45
6.00625e-46
5.25784e-47
1.88804e-49
1.02325e-48
4.33392e-48
6.28513e-48
1.21054e-48
1.89641e-49
7.02356e-51
1.46147e-51
1.15077e-50
6.5949e-50
8.16881e-52
1.03934e-50
6.7055e-51
4.24434e-52
4.35332e-53
7.92578e-53
6.98024e-54
4.32809e-54
3.55199e-52
3.34352e-52
2.10125e-53
2.31354e-54
2.55429e-54
1.16115e-55
4.76815e-53
2.38669e-51
2.65479e-51
2.17324e-52
1.01068e-54
1.64724e-54
2.33295e-55
1.57343e-51
1.86831e-49
2.62293e-49
1.79054e-50
7.3726e-53
7.25122e-53
2.19516e-54
3.6514e-50
3.64285e-48
3.52362e-48
3.46088e-49
1.0989e-51
1.37343e-51
2.3759e-52
1.27078e-45
2.81313e-46
6.77458e-47
3.89458e-48
2.03095e-50
8.35747e-50
3.39023e-49
3.32941e-49
1.10897e-49
2.66046e-50
1.02722e-51
1.74651e-52
1.01857e-51
3.78915e-51
6.39432e-53
2.27981e-51
1.40851e-51
8.04785e-53
1.11425e-53
1.71914e-53
7.24866e-55
2.78269e-54
1.03771e-52
7.37004e-53
3.68267e-54
7.84759e-55
9.53005e-55
2.93974e-56
4.45524e-53
1.03224e-51
5.9944e-52
4.75109e-53
2.10202e-55
3.82395e-55
3.17376e-56
1.43319e-51
7.89741e-50
5.3271e-50
3.30463e-51
1.61793e-53
2.65601e-53
1.08881e-54
2.47978e-50
1.28164e-48
8.76025e-49
5.62591e-50
2.67781e-52
4.24058e-52
2.96336e-53
1.38002e-46
4.34937e-47
1.23688e-47
5.7504e-49
3.47239e-51
1.17183e-50
2.43085e-50
4.89852e-50
1.92912e-50
3.1818e-51
1.34649e-52
2.45074e-53
1.05192e-52
4.20026e-52
8.82869e-52
9.04504e-52
2.18602e-52
9.87835e-54
2.83776e-54
7.54484e-54
6.61855e-54
1.96466e-53
3.87955e-53
8.1674e-54
4.10493e-55
1.51711e-55
4.90934e-55
1.86879e-55
1.44491e-52
3.73664e-52
1.12636e-52
7.82786e-54
5.25877e-56
1.34335e-55
5.5651e-56
1.16675e-50
3.32135e-50
7.67393e-51
4.66836e-52
2.85773e-54
1.05135e-53
4.06986e-54
4.15203e-49
6.22841e-49
1.57582e-49
1.02671e-50
5.64819e-53
1.89843e-52
1.29544e-52
1.54661e-47
1.0169e-47
1.66921e-48
1.1766e-49
5.62914e-52
2.88185e-51
3.76686e-51
5.95765e-51
1.38655e-51
1.57028e-52
1.09236e-53
2.42129e-54
1.12254e-53
4.36007e-53
3.23606e-52
9.15327e-53
1.54855e-53
8.63739e-55
3.97329e-55
1.42166e-54
3.28202e-54
5.13907e-54
4.35382e-54
6.08779e-55
4.17109e-56
2.1561e-56
6.18426e-56
1.50975e-55
7.7317e-53
5.00985e-53
1.89233e-53
2.2836e-54
8.39077e-57
1.57249e-56
1.53718e-56
3.74777e-51
2.54906e-51
1.17033e-51
1.02493e-52
5.11522e-55
1.44096e-54
1.28281e-54
1.86834e-49
8.63927e-50
1.39244e-50
8.20361e-52
6.35094e-54
2.43541e-53
5.92199e-53
2.41539e-48
1.06038e-48
1.09411e-49
5.84418e-51
6.74242e-53
2.70342e-52
7.00433e-52
4.5511e-48
3.15468e-53
3.54935e-58
7.37218e-59
1.16509e-58
1.53929e-58
1.11004e-58
2.32725e-49
1.38389e-54
9.99922e-60
5.86188e-60
1.05957e-59
1.35373e-59
6.61202e-60
3.07945e-49
2.87093e-54
6.23854e-59
1.83115e-59
2.99147e-61
5.35795e-61
4.09634e-61
4.671e-49
8.74273e-54
2.08331e-57
9.2598e-58
5.3499e-62
5.24232e-62
3.57904e-62
2.2975e-48
2.21695e-53
2.32604e-58
1.38777e-59
5.42569e-60
7.8159e-60
3.34574e-60
1.21968e-47
5.53487e-53
2.4146e-58
7.79361e-59
1.72325e-58
1.9911e-58
1.18661e-58
3.93395e-47
2.74595e-52
3.35398e-57
9.99313e-58
1.58012e-57
2.12657e-57
1.71512e-57
1.25069e-49
2.3347e-54
2.62768e-58
4.66938e-58
6.9356e-58
8.23788e-58
6.28126e-58
2.17689e-51
2.0607e-56
1.61661e-59
3.3972e-59
5.43556e-59
6.12117e-59
3.49024e-59
1.96315e-51
4.70159e-56
4.48769e-60
1.69045e-60
2.03921e-60
3.24873e-60
1.60844e-60
3.21877e-53
9.01741e-58
6.16632e-61
9.13188e-62
9.43679e-62
5.45944e-61
2.14735e-61
1.58651e-50
3.7644e-55
1.63831e-59
1.07085e-59
3.62966e-59
4.94068e-59
2.21076e-59
1.04167e-49
7.58444e-55
2.28393e-58
4.72266e-58
7.9464e-58
9.15645e-58
5.82574e-58
1.33278e-48
1.65477e-53
3.46793e-57
6.52072e-57
8.19608e-57
1.08894e-56
9.39195e-57
4.75031e-51
7.85816e-56
8.07355e-58
1.3369e-57
2.54825e-57
2.97432e-57
3.39766e-57
2.31928e-53
5.37322e-58
2.6151e-59
5.99922e-59
1.1286e-58
1.34252e-58
1.09473e-58
2.62671e-53
8.15576e-58
5.84193e-61
1.18863e-60
4.22951e-60
5.38313e-60
4.67258e-60
1.90207e-56
3.31436e-59
1.04104e-62
5.85609e-62
5.52459e-61
1.8584e-60
1.04725e-60
2.16528e-52
6.56125e-57
6.5369e-60
1.77368e-59
8.00467e-59
1.09789e-58
7.40699e-59
8.62418e-52
1.57262e-56
4.34754e-58
1.09384e-57
2.04706e-57
2.45406e-57
1.87012e-57
3.7099e-50
5.93405e-55
1.61429e-56
2.66808e-56
4.17658e-56
5.58679e-56
5.43003e-56
3.38799e-52
8.00992e-57
2.7681e-57
5.44402e-57
7.98676e-57
8.2587e-57
7.93002e-57
1.0603e-54
2.87647e-59
1.22302e-59
3.31748e-59
6.65633e-59
9.9393e-59
4.7464e-59
5.14423e-55
2.08148e-59
1.54766e-61
3.30597e-61
1.2609e-60
2.05889e-60
1.00265e-60
1.30528e-56
1.96559e-60
1.33025e-62
8.90513e-62
5.69098e-61
1.20967e-60
7.33444e-61
4.12097e-54
1.63591e-58
2.71686e-60
7.20148e-60
3.04316e-59
4.61584e-59
4.09935e-59
2.67995e-53
6.97597e-58
2.19387e-58
6.33022e-58
1.32949e-57
2.06303e-57
1.28018e-57
1.8661e-51
8.35807e-56
4.88516e-56
9.7488e-56
1.66701e-55
1.76721e-55
1.89051e-55
2.62602e-53
7.1914e-57
2.35105e-56
5.99481e-56
5.42624e-56
2.83549e-56
2.48144e-56
4.26905e-56
1.21917e-59
3.22858e-59
8.5778e-59
8.11851e-59
2.88348e-59
1.73462e-59
9.42107e-57
6.48152e-61
1.30922e-62
2.80641e-62
4.97201e-62
9.43977e-62
2.16184e-61
2.23221e-58
7.45069e-62
1.73782e-63
6.00312e-63
1.83028e-62
4.63211e-62
6.02823e-62
7.23448e-56
4.89251e-60
2.00861e-61
5.08119e-61
1.12058e-60
1.70368e-60
3.02822e-60
1.32375e-54
2.07089e-58
4.13446e-58
1.1783e-57
1.18008e-57
4.12065e-58
2.4462e-58
1.255e-52
8.9002e-56
3.27668e-55
7.88006e-55
5.82637e-55
3.19088e-55
3.42361e-55
1.37939e-54
3.2868e-57
2.55137e-55
3.65654e-55
2.50011e-55
8.53861e-56
6.05031e-56
1.32768e-56
4.18997e-59
1.80763e-58
3.36039e-57
1.7693e-57
3.51036e-58
1.03335e-58
2.49013e-58
9.10799e-62
2.24762e-62
1.49175e-61
5.7063e-62
4.17732e-63
3.57883e-63
5.3369e-60
4.04983e-62
4.62428e-63
4.35826e-62
6.42785e-63
8.71989e-64
2.10223e-63
1.74174e-57
7.22631e-61
3.08589e-61
2.10303e-60
8.75035e-61
6.73096e-62
4.6041e-62
6.75358e-55
5.77859e-58
2.02642e-57
3.89466e-56
2.64703e-56
5.19045e-57
1.56516e-57
3.71422e-53
4.88322e-56
3.94242e-54
5.25939e-54
3.46168e-54
1.20818e-54
7.27554e-55
1.51552e-53
8.19202e-54
3.82235e-54
2.12057e-54
1.12808e-54
3.51529e-55
1.18027e-55
1.16799e-54
4.59311e-55
1.53096e-55
6.97317e-56
2.24826e-56
3.81178e-57
4.67428e-58
1.33002e-57
5.90205e-58
1.65978e-58
2.58577e-59
2.80964e-60
1.36065e-61
1.67781e-63
1.09163e-58
5.53621e-58
6.99634e-59
6.84803e-60
5.44992e-61
3.27468e-62
9.49402e-64
1.11401e-56
6.65788e-57
1.82978e-57
3.75759e-58
3.35089e-59
2.02693e-60
2.42352e-62
2.15085e-53
5.94427e-54
1.92455e-54
8.39788e-55
3.4851e-55
5.74871e-56
7.04369e-57
2.83118e-52
1.50923e-52
6.43789e-53
3.26197e-53
1.56235e-53
5.16868e-54
1.78531e-54
2.37069e-57
2.81174e-57
2.32397e-57
1.09538e-57
2.95038e-56
4.29701e-51
4.12357e-46
1.65317e-58
2.27887e-58
1.76104e-58
9.28584e-59
8.96218e-58
1.93353e-52
6.1665e-47
9.53289e-60
9.27629e-60
6.20301e-60
5.33356e-59
7.11399e-58
5.1988e-53
2.53758e-48
1.03406e-58
1.00163e-58
1.76817e-59
1.69505e-57
2.06404e-56
4.62996e-52
2.93886e-48
1.16989e-56
2.28774e-56
1.86143e-56
4.81112e-57
5.39951e-57
3.14532e-52
1.62849e-47
4.12445e-55
6.44229e-55
5.57124e-55
2.40221e-55
1.28821e-55
2.24397e-51
7.10644e-46
6.04179e-54
7.23292e-54
6.15951e-54
3.09032e-54
1.31625e-53
1.60197e-48
1.51361e-43
1.49107e-56
1.50729e-56
1.09335e-56
7.06774e-57
8.04325e-57
2.82026e-52
1.36176e-47
7.22983e-58
1.00161e-57
8.44925e-58
4.55437e-58
2.29928e-58
2.79575e-54
4.91142e-49
3.37838e-59
5.24519e-59
3.32924e-59
1.38332e-59
4.34457e-59
7.43017e-55
1.575e-50
5.85963e-58
1.47304e-57
2.41176e-58
2.50794e-59
6.89934e-60
2.95442e-56
1.50413e-52
6.83979e-56
1.51695e-55
1.03344e-55
2.76619e-56
7.49722e-57
4.39631e-54
1.00285e-49
1.78821e-54
2.75727e-54
2.41533e-54
1.45124e-54
6.30689e-55
3.5256e-53
5.84287e-48
3.11906e-53
3.92091e-53
3.2049e-53
2.07688e-53
1.09904e-53
9.17803e-50
4.59383e-45
5.08031e-56
4.72473e-56
3.93828e-56
1.88056e-56
1.10299e-56
1.16608e-53
3.72239e-49
1.70938e-57
2.05524e-57
1.67696e-57
7.67947e-58
3.04942e-58
5.05912e-56
3.65135e-51
5.38667e-59
6.51144e-59
4.58617e-59
1.1358e-59
5.74861e-60
1.28095e-56
2.13938e-52
2.61762e-57
3.55581e-57
9.72559e-58
9.90051e-59
8.43963e-60
5.28631e-58
3.52921e-55
2.05733e-55
2.16326e-55
1.61554e-55
3.66278e-56
1.12173e-56
7.69243e-56
1.15642e-51
4.87708e-54
5.6659e-54
4.65792e-54
2.33458e-54
8.95057e-55
1.26728e-54
4.36064e-50
1.44576e-52
1.25361e-52
1.05128e-52
5.1716e-53
3.0217e-53
4.26912e-51
2.23147e-46
2.00807e-55
1.8245e-55
1.84347e-55
1.207e-55
5.75062e-56
8.73215e-55
1.81267e-50
1.37755e-57
1.95925e-57
1.18864e-57
5.16782e-58
1.60391e-58
1.45949e-57
9.29679e-53
4.57213e-59
5.13765e-59
2.53379e-59
5.07062e-60
1.99543e-60
3.55611e-58
3.71462e-54
9.55161e-58
2.07631e-57
9.06798e-58
1.32432e-58
1.722e-59
9.40281e-59
6.38517e-56
5.14436e-56
8.72711e-56
5.04031e-56
1.17688e-56
4.40376e-57
4.06672e-57
1.89916e-53
2.36038e-54
4.26145e-54
2.65934e-54
1.18792e-54
4.29641e-55
2.26816e-55
1.24731e-51
3.51497e-52
3.48768e-52
3.07775e-52
1.70567e-52
8.57905e-53
3.00391e-52
1.05724e-47
3.7491e-55
3.6346e-55
8.36675e-55
7.53571e-55
2.96916e-55
1.37862e-55
1.13927e-51
4.84462e-58
6.1254e-58
1.52365e-57
2.25688e-57
7.1568e-58
2.85754e-58
2.2602e-54
5.12185e-60
2.48267e-60
1.00765e-60
4.04952e-61
1.64777e-61
1.49754e-59
6.13925e-56
1.90338e-58
9.94329e-59
3.37113e-59
1.15056e-59
3.04921e-60
2.89375e-59
1.97545e-57
1.33397e-56
4.85401e-57
2.24935e-57
1.01312e-57
3.8664e-58
2.79797e-58
3.66339e-55
9.80367e-55
1.54118e-54
2.75191e-54
2.75839e-54
1.00683e-54
2.94407e-55
4.99341e-53
1.08188e-51
1.12985e-51
1.65164e-51
1.47029e-51
5.18269e-52
2.04616e-52
4.17271e-49
1.23956e-54
1.58666e-54
4.69223e-54
8.85036e-54
1.14175e-53
1.13155e-55
8.01823e-53
1.84556e-57
7.15224e-57
3.78156e-56
7.5509e-56
3.64993e-57
1.1574e-57
6.14134e-55
7.8729e-62
1.20359e-61
2.01888e-60
4.79963e-60
6.89467e-61
3.36559e-60
1.50819e-57
6.18089e-60
2.14353e-60
1.66408e-59
1.19798e-58
1.20059e-59
4.57984e-59
1.9361e-57
2.12116e-58
1.83555e-58
1.89349e-57
4.12727e-57
6.37942e-58
9.0938e-58
1.15106e-55
6.00834e-54
1.86563e-53
5.50449e-53
1.1018e-52
5.84243e-54
1.35109e-54
3.16424e-53
2.69512e-51
3.25854e-51
9.21595e-51
1.54047e-50
1.36659e-50
9.74999e-53
6.81181e-50
2.52767e-54
8.25271e-54
2.36144e-53
6.17289e-53
2.42018e-52
7.88384e-52
1.85073e-51
9.683e-57
8.33204e-56
5.11378e-55
1.72645e-54
4.31538e-54
1.84107e-53
9.64554e-53
4.13484e-62
4.6007e-60
1.01612e-58
9.71036e-58
6.37239e-57
2.21105e-56
4.37048e-56
2.90191e-60
9.23468e-59
1.35693e-57
1.71326e-56
1.66042e-55
6.99542e-55
2.10044e-55
7.51977e-59
4.53426e-57
8.41765e-56
7.26584e-55
5.0763e-54
1.75755e-53
3.85134e-53
2.70254e-53
2.03803e-52
7.03235e-52
2.26417e-51
5.69479e-51
2.15027e-50
6.06718e-50
5.34341e-51
1.59351e-50
4.11194e-50
9.69056e-50
2.23668e-49
4.18055e-49
9.21276e-49
7.869e-74
2.23848e-72
1.99456e-71
1.83292e-70
4.0365e-69
2.36724e-65
2.12879e-61
1.94581e-74
3.24316e-73
3.27067e-72
2.25558e-71
4.0693e-70
1.66165e-66
1.0922e-62
2.55798e-75
1.93434e-74
2.21755e-73
2.72797e-72
2.17304e-71
1.41171e-67
5.62568e-64
5.43393e-74
1.0294e-72
7.49886e-72
7.45465e-71
2.78696e-69
9.50298e-66
4.15282e-62
1.64087e-72
3.8485e-71
2.1988e-70
2.90697e-69
1.06718e-67
4.47403e-64
3.85907e-60
3.17477e-71
4.72545e-70
5.20678e-69
6.5189e-68
1.1357e-66
9.1941e-63
5.6766e-59
2.22564e-70
3.53764e-69
4.30364e-68
4.84014e-67
1.12243e-65
9.46291e-62
6.15202e-58
3.36704e-73
1.31356e-71
9.7299e-71
1.07983e-69
1.26421e-68
1.43792e-64
1.55686e-60
7.89133e-74
1.34455e-72
9.88276e-72
8.41509e-71
9.5986e-70
8.90411e-66
5.98255e-62
8.11384e-75
1.12463e-73
7.90676e-73
7.3081e-72
5.2791e-71
3.83784e-67
2.21463e-63
1.49644e-73
2.79262e-72
2.16399e-71
3.10754e-70
2.02386e-69
1.18191e-65
6.0276e-62
8.76013e-72
1.95843e-70
1.70621e-69
2.34696e-68
1.41119e-67
9.79227e-64
7.80254e-60
1.44042e-70
3.57846e-69
3.1966e-68
3.56211e-67
2.631e-66
2.08758e-62
2.18183e-58
1.17918e-69
2.55355e-68
2.31066e-67
3.11147e-66
3.28556e-65
3.5692e-61
4.24563e-57
1.51683e-72
4.69222e-71
3.33091e-70
2.79403e-69
5.93175e-68
8.99795e-64
6.71455e-60
2.38049e-73
4.98411e-72
3.71644e-71
2.61456e-70
3.84443e-69
4.49655e-65
2.40579e-61
2.41838e-74
3.60017e-73
2.48097e-72
1.51748e-71
2.00742e-70
1.67818e-66
9.19689e-63
6.41543e-73
1.21091e-71
9.37549e-71
8.01179e-70
6.38136e-69
3.52602e-65
2.31308e-61
4.13213e-71
9.74138e-70
7.98606e-69
6.97196e-68
5.46834e-67
2.86602e-63
2.54177e-59
4.23328e-70
1.78084e-68
1.26927e-67
1.25435e-66
1.09489e-65
6.69688e-62
8.18768e-58
3.47086e-69
1.51416e-67
1.09107e-66
1.27995e-65
1.51254e-64
1.21072e-60
2.72843e-56
2.95871e-72
1.04406e-70
1.205e-69
1.01639e-68
1.11062e-67
1.59468e-63
2.94632e-59
5.32142e-73
1.38116e-71
1.28419e-70
8.44392e-70
8.4107e-69
7.26325e-65
4.4329e-61
4.15311e-74
8.0244e-73
7.50554e-72
4.87038e-71
3.34745e-70
2.48737e-66
9.05782e-63
1.22952e-72
3.11806e-71
3.04982e-70
1.85065e-69
1.19373e-68
5.29981e-65
2.36612e-61
9.48697e-71
2.57861e-69
2.64155e-68
1.87072e-67
1.03811e-66
3.28479e-63
1.56391e-59
1.49935e-69
5.33155e-68
3.90661e-67
3.4546e-66
2.74276e-65
1.12844e-61
8.35393e-58
1.17755e-68
3.55255e-67
3.48591e-66
3.89109e-65
3.08152e-64
2.22654e-60
4.99689e-56
7.67184e-72
2.43961e-70
2.83379e-69
1.40806e-68
1.78683e-67
1.73093e-63
3.91059e-59
1.08936e-72
2.83648e-71
2.80282e-70
1.37581e-69
1.31696e-68
6.04753e-65
2.19304e-61
8.32722e-74
1.87336e-72
1.6532e-71
7.89463e-71
7.18893e-70
1.67743e-66
4.74473e-63
3.31e-72
6.41283e-71
3.71546e-70
2.46804e-69
2.93827e-68
6.52444e-65
7.72089e-62
2.79635e-70
6.33951e-69
3.78514e-68
2.92398e-67
2.80894e-66
3.92469e-63
6.42459e-60
3.07993e-69
1.17126e-67
7.35855e-67
6.03993e-66
5.45449e-65
1.25422e-61
5.50025e-58
2.6442e-68
9.47647e-67
5.84785e-66
5.51257e-65
7.25294e-64
3.3969e-60
8.0036e-56
1.08699e-71
3.07273e-70
3.99815e-69
2.00386e-68
2.36129e-67
1.57876e-63
5.08921e-59
1.3167e-72
3.25936e-71
3.4884e-70
1.80192e-69
1.48326e-68
3.51201e-65
1.00175e-61
7.17974e-74
1.26498e-72
1.04248e-71
5.86221e-71
5.3111e-70
8.01193e-67
7.63044e-64
2.32911e-72
6.86719e-71
3.87585e-70
1.87688e-69
2.24182e-68
6.43527e-65
8.55359e-62
1.87473e-70
6.26373e-69
3.94514e-68
2.86076e-67
2.24893e-66
1.82247e-63
1.36515e-60
4.12218e-69
1.40509e-67
9.43396e-67
8.63381e-66
6.34072e-65
7.69677e-62
2.67816e-58
3.32389e-68
1.37946e-66
9.45042e-66
9.62569e-65
1.00855e-63
3.13026e-60
9.67453e-56
1.25437e-71
3.38335e-70
5.46741e-69
2.73551e-68
2.77866e-67
7.56865e-64
4.24719e-59
1.36539e-72
3.42866e-71
4.03292e-70
2.20685e-69
1.58084e-68
2.81507e-65
2.9146e-61
1.21383e-73
2.57441e-72
1.76897e-71
3.32622e-71
4.39504e-70
1.04719e-66
2.60974e-63
4.22064e-72
1.11044e-70
5.07115e-70
2.02681e-69
6.9501e-66
2.59081e-63
1.35113e-61
4.60595e-70
1.14308e-68
4.62982e-68
1.69344e-67
1.75051e-66
2.34426e-63
6.83252e-60
4.54849e-69
1.5104e-67
1.01268e-66
9.97227e-66
7.01495e-65
6.19901e-62
6.9829e-58
4.46908e-68
1.54821e-66
1.17993e-65
1.29397e-64
1.32167e-63
1.56352e-60
8.60343e-56
3.02318e-77
8.15171e-76
1.22581e-72
3.2662e-68
3.1508e-67
4.78697e-66
1.00559e-64
2.02193e-78
5.38603e-77
2.08135e-75
8.41933e-73
1.40626e-72
2.13688e-69
2.67539e-67
1.3907e-75
2.8307e-74
1.86276e-73
8.59291e-73
1.22253e-71
4.65863e-68
8.13913e-65
3.08577e-73
7.93223e-72
3.89724e-71
2.72991e-70
1.63762e-67
7.38139e-65
6.02486e-63
5.12517e-72
1.01873e-70
4.67348e-70
7.85198e-69
4.57878e-68
1.09463e-64
2.26096e-61
6.71537e-75
2.286e-73
1.31401e-71
2.63077e-68
6.62594e-69
5.54251e-66
7.79079e-64
1.37134e-73
4.68205e-72
5.5592e-69
1.31782e-64
1.54633e-63
2.284e-62
3.07648e-61
3.3726e-79
2.20218e-77
1.19569e-75
5.69121e-74
7.84963e-73
8.60614e-72
1.9201e-70
6.29545e-82
5.52981e-80
1.38073e-78
5.50212e-77
1.3381e-75
4.82273e-74
2.11759e-72
2.40195e-77
7.97946e-76
5.49573e-74
3.50573e-72
1.94327e-70
1.34147e-68
1.67181e-66
1.52865e-74
4.02858e-73
2.72325e-72
7.55319e-71
5.31403e-69
1.839e-66
3.17236e-64
9.02999e-74
2.4743e-72
1.35358e-70
1.09727e-68
5.8837e-67
4.07714e-65
5.05874e-63
3.48697e-78
2.97348e-76
6.78152e-75
2.25665e-73
4.10446e-72
1.42506e-70
6.09838e-69
7.55997e-76
4.41201e-74
2.70376e-72
2.00207e-70
2.54897e-69
3.46482e-68
4.20028e-67
6.06968e-85
3.2268e-83
1.5744e-81
6.45856e-80
9.77009e-79
1.17045e-77
2.31837e-76
8.32443e-85
4.76842e-83
3.70406e-81
2.43133e-79
1.6131e-77
9.09585e-76
7.69536e-74
7.21347e-79
4.70345e-77
3.62021e-75
2.32848e-73
1.4979e-71
8.10486e-70
7.51118e-68
9.87112e-76
2.5047e-74
1.86715e-73
5.38316e-72
2.87012e-70
5.81859e-68
1.05187e-65
4.6562e-75
1.25074e-73
8.37387e-72
5.57621e-70
3.92687e-68
1.77868e-66
1.21706e-64
5.20513e-81
1.3172e-79
8.67145e-78
5.27522e-76
4.11375e-74
1.97285e-72
1.27384e-70
1.27138e-81
8.17125e-80
5.56221e-78
2.3102e-76
3.11115e-75
4.57174e-74
7.59108e-73
7.59855e-91
3.73408e-89
1.96401e-87
1.35072e-85
4.75185e-84
1.67313e-82
8.00336e-81
4.95571e-86
1.47334e-84
9.54845e-83
6.66588e-81
4.56268e-79
2.61136e-77
1.86421e-75
3.92719e-80
1.29334e-78
9.10545e-77
6.18929e-75
4.1246e-73
2.35202e-71
1.8359e-69
7.45959e-77
1.70413e-75
1.21795e-74
2.96562e-73
1.33252e-71
2.12375e-69
3.93865e-67
1.26365e-76
3.44927e-75
2.25619e-73
1.3305e-71
1.07218e-69
5.07146e-68
3.06962e-66
1.36389e-82
3.97768e-81
2.56343e-79
1.45316e-77
1.16461e-75
5.54382e-74
3.14042e-72
1.54576e-87
1.07326e-85
6.7269e-84
3.88841e-82
1.0558e-80
3.24314e-79
1.19466e-77
6.20721e-91
1.95938e-89
1.07619e-87
2.36107e-85
1.60075e-83
6.96999e-82
3.32871e-80
2.29562e-87
8.76678e-86
4.31197e-84
3.09551e-82
2.03969e-80
1.01576e-78
8.73367e-77
1.91637e-81
7.33882e-80
4.05455e-78
2.83048e-76
1.75308e-74
8.70976e-73
8.34052e-71
1.19566e-77
2.14113e-76
1.60652e-75
2.91029e-74
9.87483e-73
1.15543e-70
3.07878e-68
5.54424e-78
1.8131e-76
1.10053e-74
6.55279e-73
4.40619e-71
2.04848e-69
1.41786e-67
5.86252e-84
2.14993e-82
1.29291e-80
7.48474e-79
5.24107e-77
2.44614e-75
1.57049e-73
1.89612e-88
5.6343e-86
2.39956e-84
2.93251e-82
3.03138e-80
1.08049e-78
4.48494e-77
2.9593e-94
7.53979e-93
4.03942e-91
2.57696e-89
1.73115e-87
8.37325e-86
8.67465e-84