/*--------------------------------*- C++ -*----------------------------------*\
  =========                 |
  \\      /  F ield         | OpenFOAM: The Open Source CFD Toolbox
   \\    /   O peration     | Website:  https://openfoam.org
    \\  /    A nd           | Version:  6
     \\/     M anipulation  |
\*---------------------------------------------------------------------------*/
FoamFile
{
    version     2.0;
    format      ascii;
    class       volScalarField;
    location    "0.0025";
    object      p;
}
// * * * * * * * * * * * * * * * * * * * * * * * * * * * * * * * * * * * * * //

dimensions      [1 -1 -2 0 0 0 0];

internalField   nonuniform List<scalar> 
3773
(
39900.7
39904.5
39904.3
39903.9
39903.5
39902.2
39899.3
98333.8
98330
98330.8
98331.9
98331.2
98331.5
98333.8
134053
134054
134055
134055
134055
134055
134055
146009
146009
146008
146008
146009
146009
146009
134054
134054
134054
134054
134053
134053
134054
98330
98327.1
98327.4
98328.9
98327.3
98327.5
98329.9
39897.6
39899.9
39901.3
39899.9
39901
39900.7
39897.4
39901.1
39906
39906.4
39906.2
39905.5
39903.4
39899.6
98333
98329.2
98329.3
98330.1
98329.7
98330.6
98333.3
134054
134054
134055
134055
134055
134055
134055
146009
146009
146008
146008
146009
146009
146009
134054
134054
134054
134055
134053
134053
134054
98329.2
98326
98326.1
98327.3
98326.4
98326.8
98329.4
39897.8
39901.1
39902.9
39901.5
39902.8
39902.1
39897.9
39900.8
39906.8
39908.1
39908.4
39907.5
39904.6
39899.2
98332.8
98329
98328.6
98328.7
98328.6
98329.9
98333.6
134054
134054
134055
134056
134056
134055
134056
146009
146009
146009
146008
146009
146009
146009
134055
134055
134055
134055
134054
134054
134054
98329
98325.5
98325.2
98326.3
98326.1
98326.4
98329.8
39897.5
39902.3
39904.3
39903.3
39904.4
39903.4
39898
39899.2
39905.7
39907.5
39908.7
39908
39905
39897.7
98333.7
98330.3
98329.3
98328.7
98328.5
98330
98334.7
134055
134055
134055
134056
134056
134055
134056
146009
146009
146008
146008
146009
146009
146009
134055
134055
134055
134055
134054
134054
134055
98329.8
98326.2
98325.5
98327.2
98327
98326.6
98331
39896.2
39901.8
39904.3
39902.8
39904.3
39903.9
39897
39898.6
39904.2
39905.8
39908.4
39907.9
39905.1
39897.3
98335.1
98332.3
98331.5
98329.9
98329.6
98330.8
98336.1
134055
134055
134055
134056
134056
134055
134056
146009
146009
146008
146008
146009
146009
146008
134056
134056
134055
134055
134054
134054
134055
98331.1
98327.6
98327
98329.7
98329.7
98327.7
98332.5
39895.6
39900.5
39903.7
39901
39902.6
39904.1
39896.9
39899.4
39902.8
39904.2
39908.6
39908.4
39905.4
39898.6
98335.8
98334
98333.4
98330.4
98329.9
98331.4
98336.7
134055
134054
134055
134056
134056
134055
134056
146009
146009
146008
146008
146009
146009
146008
134056
134056
134055
134055
134054
134054
134055
98331.5
98329.2
98327.9
98332.2
98331.5
98328.5
98333.2
39896.7
39899.6
39904
39899.6
39900.9
39904.2
39898.3
39900.8
39901.4
39904.1
39909.1
39909.2
39906
39900.5
98335.5
98335.5
98333.6
98330.3
98329.7
98331.7
98336.3
134054
134054
134055
134056
134056
134055
134056
146009
146009
146008
146008
146008
146009
146008
134056
134056
134055
134055
134054
134055
134055
98331.1
98329.4
98328
98332.6
98332.9
98328.7
98333
39898.6
39900.1
39904.5
39900.2
39899.4
39904.3
39900.2
47082.7
47084.6
47088.4
47093.9
47099.9
47106.9
47114.1
115869
115873
115881
115892
115905
115918
115926
157869
157873
157880
157890
157903
157913
157919
171941
171942
171945
171951
171959
171965
171968
157916
157914
157912
157911
157912
157913
157914
115935
115932
115926
115920
115915
115912
115911
47117.1
47115.3
47110.7
47105.6
47101.5
47098.5
47097
47167.4
47167.4
47170.5
47175.1
47174.7
47157
47179.6
116055
116058
116065
116074
116082
116102
116088
158177
158180
158187
158198
158207
158211
158209
172276
172277
172282
172289
172295
172296
172293
158214
158214
158214
158216
158217
158214
158211
116130
116110
116108
116105
116101
116096
116092
47174.5
47195.4
47193.9
47189.7
47186.2
47183.8
47183
47341
47343.3
47344.9
47365
47351.5
47355.5
47357.5
116640
116641
116648
116637
116652
116637
116622
159005
159011
159019
159030
159028
159023
159021
173199
173204
173210
173217
173220
173218
173211
159027
159029
159033
159038
159039
159035
159029
116683
116682
116685
116686
116685
116681
116675
47358.4
47361.2
47359.1
47357.2
47354.6
47352.4
47350.6
47831.9
47836
47837.8
47838.1
47833
47835.1
47831.8
117821
117832
117843
117844
117835
117814
117805
160575
160584
160595
160596
160594
160591
160582
174898
174908
174912
174917
174915
174916
174920
160595
160590
160591
160597
160598
160595
160597
117854
117836
117851
117852
117849
117846
117844
47852.5
47870.1
47844.7
47841.2
47835.6
47832.3
47827.4
48662.9
48675.4
48674
48675.7
48672.7
48672.7
48659.2
119619
119640
119676
119674
119658
119640
119650
162858
162877
162894
162897
162891
162895
162887
177330
177337
177339
177348
177344
177345
177352
162895
162879
162891
162889
162895
162891
162904
119659
119661
119655
119658
119654
119656
119653
48684.4
48664.2
48677.1
48668.8
48671.3
48646.8
48656.9
49626
49638.4
49646.7
49675.4
49639.1
49626.3
49623.5
121649
121653
121711
121712
121703
121650
121699
165458
165507
165552
165568
165553
165538
165566
180107
180148
180192
180199
180192
180193
180187
165559
165589
165590
165591
165594
165596
165575
121724
121712
121717
121701
121731
121715
121712
49649.9
49633.9
49654.4
49715.2
49734.7
49656.8
49629.2
50483.4
50484.3
50420.5
50457.7
50441.7
50447.3
50452.1
123406
123433
123442
123402
123437
123472
123471
167776
167835
167918
167894
167904
167928
167887
182683
182655
182763
182791
182777
182815
182789
167869
167874
167943
167955
167934
167944
167941
123467
123515
123491
123479
123450
123454
123506
50467.7
50469.8
50465.5
50408.6
50388
50459.2
50455.1
51618.7
51550.9
51549.3
51633.1
51569.2
51533.2
51574.2
125608
125527
125549
125661
125578
125568
125587
170192
170275
170269
170312
170237
170284
170214
184989
185430
185603
185522
185443
185505
185330
170269
170347
170284
170250
170248
170182
170167
125580
125567
125594
125589
125597
125617
125603
51545.7
51503.3
51507.5
51511.3
51555.1
51650
51591
51788.9
51728.1
51762.5
51814.1
51764.9
51724.9
51768.9
126022
126112
126185
126232
126187
126131
126052
170928
170983
171027
171028
171021
170990
170900
185968
186031
185994
185971
185987
185949
185892
170995
171041
171046
171036
171024
170971
170911
126057
126128
126184
126200
126178
126125
126056
51761.6
51717.9
51759
51792
51763.8
51745.9
51756
51733.2
51779.2
51861.4
51922
51865.2
51794.5
51754
126016
126154
126285
126345
126308
126191
126054
170883
170955
171043
171065
171056
170979
170913
185856
185889
185910
185896
185907
185881
185833
170933
170996
171062
171071
171053
170981
170921
126067
126182
126295
126341
126299
126189
126091
51745.7
51790.4
51865.1
51931.7
51872.1
51802.7
51749.4
51429
51613.2
51738.6
51836.5
51756.5
51643.8
51455.6
125526
125720
125883
125939
125913
125771
125575
170184
170261
170336
170367
170372
170303
170221
185028
185081
185094
185097
185101
185093
185042
170222
170305
170339
170393
170371
170297
170214
125572
125753
125935
125945
125910
125764
125577
51452.9
51627.3
51733.9
51837
51756.1
51642.9
51458.6
50651.9
50930.5
51387.4
51676.4
51398.6
50984
50684.4
124156
124468
124840
124956
124859
124511
124197
168709
168825
168860
168888
168893
168858
168737
183513
183524
183457
183469
183488
183551
183531
168734
168860
168915
168918
168897
168834
168713
124194
124509
124847
124965
124862
124525
124180
50682
50966.4
51381.5
51658
51380.9
50974.9
50669.9
48741.9
49326
51453.9
52823.9
51473
49515.1
48782.8
120782
121765
123933
125067
123949
121788
120827
165541
166291
167167
167503
167193
166293
165524
180524
181123
181467
181585
181495
181160
180556
165524
166296
167228
167515
167215
166312
165544
120829
121790
123893
125044
123943
121809
120808
48803.5
49480.8
51587.4
52712
51297.4
49488.2
48783.9
45194.4
48450.4
53921.2
56735.1
53987.8
48375.6
45113.7
115012
119711
126075
129303
126033
119701
115183
160576
164069
167022
167990
166963
164003
160492
176209
178807
180314
180607
180327
178836
176269
160477
164019
166981
168002
167073
164101
160537
115108
119709
126103
129330
126050
119692
115018
45190.3
48399.9
53837.6
56878
54144.6
48348.7
45204.8
50976
51003.9
50978.6
50926.4
50906.2
50893.4
50947.6
124082
124171
124104
124070
124206
124183
124125
168647
168547
168495
168522
168572
168505
168492
183490
183425
183273
183302
183354
183194
183282
168729
168569
168494
168542
168550
168492
168514
124206
124272
124275
124236
124199
124132
124185
50931.4
50897.9
50886.3
50898.7
50904.6
50969.2
50954.8
51040.8
51059.7
51041.4
50992.7
50978.3
50949.4
51010
124182
124262
124181
124183
124316
124292
124230
168743
168621
168567
168588
168645
168572
168560
183575
183488
183326
183345
183399
183231
183316
168822
168643
168561
168604
168611
168549
168575
124314
124364
124380
124347
124283
124264
124287
50989.1
50944.4
50942.7
50966.5
50970.2
51038.2
51016.6
51109.8
51119.2
51106
51057.9
51033.6
51015.7
51073.1
124285
124361
124320
124294
124420
124393
124347
168820
168689
168634
168640
168712
168641
168622
183680
183548
183393
183399
183456
183282
183354
168906
168714
168633
168665
168665
168602
168633
124425
124465
124480
124457
124386
124377
124391
51048.2
50997.1
51001.1
51026.6
51032.5
51092.8
51077.8
51186
51187
51167
51131.4
51109.6
51094.6
51140.9
124382
124472
124515
124402
124517
124484
124460
168902
168756
168705
168708
168785
168711
168687
183800
183630
183493
183481
183536
183370
183424
168991
168787
168711
168732
168730
168670
168694
124532
124584
124593
124560
124495
124460
124495
51115.5
51064.7
51067.7
51089.1
51105.3
51156.4
51146.6
51268.9
51258.8
51232.6
51218.8
51180.8
51180.8
51212.8
124464
124567
124550
124503
124600
124559
124555
168979
168833
168788
168785
168882
168789
168758
183912
183717
183608
183577
183623
183480
183516
169069
168865
168792
168804
168811
168739
168761
124627
124689
124713
124647
124586
124526
124588
51187.2
51122.9
51140.7
51161.8
51184
51233.5
51219.9
51341.2
51301.9
51288
51292.6
51238.6
51261.1
51275.8
124542
124646
124634
124574
124690
124630
124649
169054
168920
168879
168870
168967
168873
168842
184020
183813
183729
183687
183717
183608
183631
169149
168958
168877
168886
168891
168812
168841
124720
124780
124809
124733
124680
124591
124681
51248.7
51174.6
51202.4
51242
51248.2
51309.7
51284.5
51382.8
51338.8
51324.9
51348.6
51268.9
51317
51314.9
124646
124754
124752
124682
124797
124726
124761
169163
169044
169005
168993
169085
168995
168971
184146
183965
183902
183854
183859
183788
183798
169266
169089
169004
169009
169007
168924
168966
124828
124883
124908
124838
124786
124678
124791
51289
51206.8
51238.9
51276.7
51288.9
51365
51327.2
48554.3
51980
57812
61015.5
57887.3
51949.3
48524
119365
123915
130646
134457
130664
123864
119268
162729
165942
168863
170026
168819
165918
162643
176884
179413
180962
181389
180984
179477
176985
162559
165913
168835
170035
168901
165961
162723
119349
123838
130716
134521
130713
123902
119295
48613.3
51947.2
57934.2
61114.7
57944.1
51940.4
48475.6
49879
53133.9
58681.6
61848.9
58750.3
53122.6
49851.6
120969
125368
131914
135603
131922
125306
120828
163642
166738
169542
170729
169515
166725
163586
177335
179849
181328
181806
181350
179918
177442
163489
166707
169507
170723
169576
166765
163659
120946
125267
131964
135708
132001
125343
120894
49927
53118.5
58790.1
61915.4
58801.7
53114.4
49777.4
50580.8
53974.3
59146.2
62038.6
59208.3
53980.1
50584.6
121857
126345
132510
135841
132514
126292
121712
164371
167393
170065
171162
170048
167383
164363
177780
180255
181688
182166
181701
180328
177882
164263
167370
170014
171141
170078
167420
164406
121806
126259
132547
135930
132599
126312
121798
50607.4
53955.9
59229.2
62082.9
59261.8
53965.2
50514.1
50593.7
54573.7
59212
61708.8
59272.4
54557.8
50621.6
122134
126931
132561
135462
132556
126877
122009
164890
167859
170351
171369
170327
167848
164921
178150
180604
182011
182472
182015
180664
178256
164834
167821
170293
171354
170347
167883
164925
122057
126833
132562
135525
132638
126921
122071
50621.6
54548.2
59275.8
61724.2
59309.3
54571.9
50570.2
50398.7
54817
59032.2
61108.6
59075.4
54787.7
50415.2
122249
127214
132368
134871
132355
127165
122140
165209
168118
170483
171453
170435
168095
165262
178404
180843
182245
182724
182240
180894
178503
165155
168080
170415
171452
170460
168131
165243
122154
127147
132343
134892
132414
127215
122203
50416.1
54816.2
59060
61105
59079.2
54825.1
50402.8
50475.5
54922.8
58746.6
60539
58801.5
54869.9
50454.2
122429
127394
132176
134365
132133
127347
122326
165327
168217
170523
171451
170470
168203
165350
178565
180976
182390
182874
182382
181010
178682
165277
168192
170462
171462
170501
168234
165352
122311
127359
132123
134352
132170
127401
122379
50456.4
54926.7
58758.2
60522.5
58767.3
54936.7
50486.3
50567.1
54955.1
58584.6
60264.4
58631.7
54881.1
50512.3
122541
127496
132067
134108
132011
127439
122459
165325
168241
170546
171454
170487
168231
165345
178623
181013
182456
182956
182452
181038
178747
165284
168224
170482
171459
170519
168258
165342
122428
127461
132014
134086
132035
127493
122501
50527.6
54955.9
58585.7
60239.4
58598.7
54968.9
50570.7
48514.1
48790.8
49699.2
52105.6
56775.1
63882.8
72424.8
118755
118768
119273
121263
124445
128922
134993
161119
160064
158981
158186
157888
157838
158134
175217
173994
172573
171038
169413
167717
166027
161116
160053
159011
158221
157905
157886
158194
118751
118770
119317
121278
124362
128925
135167
48473.9
48777.6
49679.8
52106.1
56879.1
64109.1
72766.3
49004.7
48507.3
48666.7
50343.2
53953.1
59952.3
68338.9
119245
118531
118536
119777
122252
126074
131722
161459
160163
159014
158140
157785
157471
157539
175375
174061
172605
171080
169513
167838
166098
161490
160143
159023
158195
157757
157517
157595
119274
118530
118546
119800
122239
126072
131826
48968.8
48492
48661.1
50302.5
53975.2
60007.3
68434.6
48872.7
47648.2
47145
47765.9
49718.8
53893.5
61414.5
119164
117886
117185
117382
118772
121475
126088
161812
160277
158976
158009
157371
156847
156552
175596
174160
172645
171150
169693
168041
166190
161909
160284
158967
158009
157410
156922
156637
119221
117878
117156
117381
118769
121459
126179
48822.8
47607.3
47101.4
47708.7
49666.2
53841.4
61368.7
48133.9
46841.9
46084.2
46030
46780.4
48865.3
54299.1
118863
117271
116110
115538
115963
117553
120832
162092
160389
158915
157731
156946
156244
155506
175826
174270
172712
171255
169855
168226
166253
162247
160439
158929
157774
157001
156327
155613
118921
117279
116093
115542
115957
117578
120898
48095.7
46804.5
46035
45969.3
46684.3
48756.9
54280.3
47635.3
46457.6
45756.6
45564.4
45975.6
46705.1
49568.2
118725
117028
115655
114772
114664
115288
117305
162252
160465
158794
157472
156645
155876
154720
176022
174391
172779
171304
169907
168308
166204
162393
160514
158832
157538
156713
155959
154824
118781
117063
115659
114772
114610
115259
117415
47627.1
46447
45732.1
45519.9
45914.1
46658.3
49511.2
47605.3
46445.6
45888.5
45859.2
46267.6
46617.9
47915
118832
117008
115544
114616
114429
114530
115382
162383
160470
158606
157255
156492
155729
154387
176156
174515
172842
171304
169878
168276
166080
162445
160499
158663
157340
156574
155823
154495
118877
117055
115576
114618
114380
114501
115425
47626.4
46457.9
45900.2
45852.2
46252.2
46632.7
47905.6
47779.4
46729.9
46270
46315.3
46619
46981.7
47406.6
118910
117052
115735
115065
114798
114698
114539
162388
160451
158616
157269
156512
155580
154032
176219
174581
172896
171309
169848
168122
165547
162408
160480
158675
157362
156602
155687
154147
118959
117100
115773
115063
114772
114704
114537
47814.3
46758.3
46288.4
46310.7
46608.8
46976.2
47341.5
72905.4
64223.9
56899.5
52096.8
49682.3
48827
48562.9
135381
129068
124408
121226
119245
118779
118829
157980
157732
157818
158164
158966
160022
161088
165580
167346
169140
170806
172369
173823
175055
158131
157791
157814
158083
158860
159919
160966
136026
129671
124777
121410
119323
118787
118808
73614.3
64922.1
57373.5
52386.1
49858.2
48905.9
48594.5
68685.9
60037.9
53987.5
50296.1
48661.7
48534.2
49050.2
132005
126166
122209
119723
118501
118554
119338
157388
157371
157658
158140
158978
160109
161437
165660
167475
169240
170862
172408
173886
175210
157513
157402
157672
158075
158887
160009
161294
132426
126568
122507
119887
118562
118567
119326
69125.8
60620.3
54375.5
50549.8
48793.5
48595.6
49083.4
61648.5
53988.8
49764.5
47762.9
47157
47674.2
48896.4
126270
121626
118776
117373
117168
117915
119254
156418
156701
157272
157944
158916
160225
161820
165768
167679
169395
170919
172440
173980
175430
156524
156710
157263
157885
158845
160137
161663
126510
121802
118969
117455
117202
117940
119195
61853.3
54273.1
50009.6
47954.1
47272.9
47725.5
48922.1
54342.4
48924.9
46814.6
46038.3
46094.3
46864.6
48150.5
120887
117563
115954
115568
116131
117338
118978
155362
156033
156814
157678
158866
160359
162156
165855
167867
169543
170993
172497
174085
175659
155371
156090
156823
157619
158757
160319
162017
121089
117775
116123
115628
116158
117398
118992
54604.7
49132.1
46979.3
46196.5
46223
46955.9
48205
49552.3
46713.1
45965.6
45544.3
45744.2
46469.7
47657.1
117354
115256
114584
114772
115697
117130
118862
154546
155658
156513
157421
158768
160441
162316
165813
167956
169596
171036
172556
174197
175849
154514
155690
156504
157364
158660
160426
162235
117425
115362
114716
114852
115756
117157
118851
49774.8
46885.9
46114.5
45698.8
45878.8
46550.7
47714.3
48037.1
46688.7
46291.8
45859.6
45909.5
46475.4
47645.1
115452
114519
114361
114612
115609
117136
118959
154178
155528
156371
157204
158590
160440
162383
165698
167927
169574
171038
172616
174318
175980
154161
155532
156348
157168
158508
160387
162325
115371
114512
114445
114711
115670
117130
118900
48070.5
46753.5
46390.7
45987.6
46011.7
46540.4
47674.4
47471.3
47032.9
46672.1
46359
46294.5
46779.2
47832.7
114569
114713
114758
115075
115839
117198
119024
153815
155390
156395
157233
158608
160413
162355
165166
167774
169546
171049
172670
174391
176049
153809
155395
156369
157192
158526
160351
162290
114495
114676
114826
115193
115886
117159
118931
47545.5
47095.6
46732
46439.6
46392.1
46824.9
47841
90293.5
89988.7
89438.2
88996.9
87887.8
84678
79725
156255
155603
154265
152309
149767
145992
141207
160539
160387
160102
159751
159368
158806
158358
160316
160448
160769
161317
162050
162981
164115
160543
160399
160133
159844
159473
158930
158503
156761
156072
154706
152711
150184
146467
141814
90927.6
90544.9
89977.5
89386
88115.2
84862.2
80229.6
88374.6
88055.3
87502.9
86536.9
84248.2
80720.3
75937
154048
153460
151855
149709
146489
142603
137941
159555
159477
159229
158822
158399
158028
157698
159933
160075
160447
161042
161855
162902
164133
159588
159521
159303
158926
158502
158146
157827
154410
153894
152372
150276
147102
143128
138377
89026.8
88709.6
88104.7
87095.5
84662.8
81038.3
76227.7
84835.7
84478.7
83821.8
81918
78308.2
74218.8
69218
149753
149034
147333
144579
140768
136621
131912
157725
157633
157461
157109
156778
156628
156484
159199
159375
159812
160496
161436
162686
164101
157859
157826
157633
157225
156871
156726
156587
150091
149415
147834
145119
141293
137011
132198
85692.6
85239.6
84469.7
82431.8
78856.3
74669.1
69442.5
80578.7
80147.7
78753.2
75729
71677.5
67513.2
62351.9
144436
143610
141616
138130
134100
130021
125664
155355
155258
155098
154774
154600
154766
155015
158190
158399
158888
159683
160807
162334
163985
155617
155528
155285
154861
154653
154821
155041
144738
143885
141971
138574
134515
130287
125901
81379.6
80822.7
79284.8
76084.1
72121.8
67951.7
62652.2
75757.6
75296.8
73415.7
69992.4
66229.5
62012.3
56794.6
138425
137609
135170
131527
128042
124654
121166
152699
152556
152298
152003
152123
152706
153484
156959
157179
157701
158560
159884
161695
163638
152967
152849
152504
152143
152210
152721
153444
138606
137755
135344
131801
128316
124844
121263
76241.7
75659.3
73573.2
70152
66458.7
62482.2
57148.6
70576.7
70219.4
69010
66609.8
62690.2
57977.6
53280.9
132140
131401
129235
126128
123307
120690
118114
150071
149910
149560
149278
149723
150715
152176
155641
155889
156411
157283
158690
160590
163012
150350
150210
149760
149471
149871
150720
152122
132141
131395
129302
126090
123461
120890
118129
70863.5
70269.6
69082.5
66434.9
62548.9
57964.1
53441.9
64715.4
64151.6
64066.7
64186.9
59439.5
54254.5
50356.1
125692
125153
123842
121911
119192
116892
115163
147612
147422
147112
146999
147576
148775
150629
154287
154533
155050
155890
157244
158953
161335
147809
147636
147234
147114
147714
148835
150640
125588
125027
123829
121628
119348
117188
115247
64821.3
64228.1
64428.9
63218.9
58820.8
54206.9
50481.1
42707.5
42469.9
42206.4
41863
41659.9
41353.9
40997.4
105219
104893
104551
104360
104188
103741
103172
138798
138814
138880
139065
139364
139671
139820
149569
149706
149944
150228
150489
150591
150310
138680
138697
138791
138983
139334
139629
139761
105171
104924
104612
104425
104139
103645
103102
42595.9
42616.6
42593.6
42419.7
41725.2
41271.8
40890.5
38883
38887
38869.2
38822.8
38933.7
38968.3
38996.5
93672.4
93747.7
93898.8
94056
94141.6
94224
94335.6
126010
126068
126161
126278
126385
126450
126515
137062
137083
137108
137127
137123
137091
137051
126072
126121
126199
126292
126399
126470
126534
93757.4
93814.1
93961.8
94140.2
94249.1
94338.5
94454.9
38997.8
38932
38819.3
38794.7
38934.1
39032.3
39101.4
37198.5
37239.9
37308.7
37353
37396.7
37440.8
37459
87820.5
87884.2
87987
88103.8
88195.8
88255.9
88276.7
117926
117935
117950
117950
117942
117910
117887
127904
127891
127868
127841
127806
127768
127759
117866
117871
117868
117878
117855
117822
117802
87748.1
87814.4
87915.5
88028.5
88112.4
88165.4
88183
37188.2
37241.9
37312.9
37353.7
37394.6
37428.6
37433.1
36935.8
36948.1
36957.1
36965.4
36976.5
36975.6
36987.5
85095.9
85098.8
85098.1
85100.3
85098.9
85089.4
85076.7
112967
112959
112948
112933
112918
112908
112903
122055
122055
122050
122042
122034
122025
122021
112917
112909
112894
112880
112864
112854
112852
85064.8
85069
85072.5
85081
85083.4
85077.9
85070.9
36957
36964
36964.9
36962.8
36975
36986.3
36999
36586.6
36585
36593.4
36596
36587.9
36574.8
36568.5
83950.9
83944.5
83924.6
83901
83887.1
83885.6
83888
110081
110078
110071
110076
110088
110100
110113
118122
118128
118137
118154
118174
118190
118201
110057
110056
110045
110037
110040
110041
110052
83948.5
83952.5
83952.2
83954.1
83953.5
83947.9
83951.2
36599.4
36594.4
36594.8
36591.8
36582.8
36588.1
36585
38348.4
38349.5
38360.3
38362.8
38367.4
38363
38362.9
84850.1
84849.9
84842.3
84835.5
84836
84842.8
84847.6
107619
107620
107621
107640
107656
107660
107662
114061
114066
114074
114087
114105
114122
114135
107603
107609
107604
107602
107612
107603
107602
84849
84854
84857.7
84865.7
84873.9
84873.6
84878.7
38342.7
38342.9
38359.4
38366.7
38370.2
38380.6
38383.9
49031.6
49031.8
49025.3
49013.1
49001.1
48997.5
48992
84505.3
84508.4
84512.6
84513.3
84513.8
84515.7
84515.2
102902
102907
102915
102923
102927
102925
102922
107941
107947
107953
107961
107968
107975
107982
102899
102902
102909
102915
102920
102920
102918
84497.6
84497.5
84501.4
84507.5
84508.6
84512.7
84512.9
49006.3
49004.4
48998.9
48995
48987
48975.5
48966
79149.7
84022.1
87599.2
89356.8
90124.9
89822.1
88590.7
140910
145914
150206
153346
155422
155807
155153
158526
159010
159640
160069
160453
160708
160787
164597
163463
162528
161817
161325
160995
160886
158591
159044
159614
160031
160412
160665
160752
141122
146052
150070
152788
154687
155386
155020
79591.2
84493.7
87873.1
89139.4
89514.8
89309.6
88379.4
75496.5
80384.4
84197.8
86688.2
87530.7
87468.8
87034.2
137751
142644
146848
150286
152242
153227
153283
157870
158222
158629
159121
159567
159863
159962
164599
163367
162322
161544
161010
160664
160524
157934
158279
158662
159140
159588
159873
159970
137861
142729
146786
149946
151855
153034
153144
75641.2
80543.7
84179.1
86484.1
87247.3
87184.6
86840.2
69171
74472.8
78506.9
81668.6
83310.7
83864.6
84451.2
131853
136689
140950
144569
147046
148703
149793
156655
156796
156927
157308
157768
158152
158340
164547
163127
161881
160969
160331
159944
159781
156747
156908
157074
157474
157931
158284
158456
131888
136741
140960
144586
147088
148705
149696
69048.8
74127.2
78194.9
81643.3
83252.6
83731.4
84194.3
62509.1
67876.8
71960.5
75434.6
77979
79649.2
80957.9
125807
130223
134298
138069
141241
143547
145090
155185
154942
154700
154839
155301
155771
156073
164395
162746
161217
160104
159340
158886
158713
155305
155098
154953
155199
155661
156065
156337
125792
130305
134353
138229
141606
143787
145247
62382
67562.9
71560.8
75323.1
78135.6
79720
80745.8
56818
62090.1
66239.8
69975.1
72952.4
74959.4
76045.5
121154
124882
128310
131689
135116
137687
139175
153687
152908
152313
152104
152419
152955
153410
164036
162076
160247
158925
158087
157605
157416
153781
153031
152488
152465
152897
153359
153761
121288
124800
128254
131786
135404
138024
139543
56911.8
62108.6
66160.5
69831.8
73012.3
75033.9
75929.6
53073.4
57643.4
62233.7
66617.4
69268.9
70210
70187.5
118128
120920
123584
126352
129460
131641
132552
152384
150909
149939
149474
149685
150247
150770
163387
160939
159001
157575
156706
156202
156033
152466
151005
150088
149720
150106
150647
151094
118136
120820
123542
126416
129538
131790
132731
53229.9
57921.3
62662.7
67059
69000.8
69949.5
69975.2
50112.7
53586.3
58100.6
63636
65137.1
64787.4
63768.6
115265
117157
119380
121955
124451
125524
125728
150847
148966
147759
147124
147146
147696
148139
161675
159255
157512
156140
155299
154819
154616
150905
149044
147909
147364
147504
148006
148399
115166
116997
119322
122149
124111
125375
125683
50204.3
53995.2
59128.2
64954.8
64368.5
63993.5
63410.8
41009.4
41157.6
41212.5
41356.3
41908.7
42298.3
42652.3
103334
103837
104249
104469
104618
104903
105185
139932
139805
139525
139190
138978
138923
138879
150454
150721
150606
150336
150043
149808
149673
139899
139769
139490
139156
138960
138898
138871
103271
103791
104203
104376
104551
104901
105201
40959.3
41238
41413.7
41434.1
42123.8
42427.7
42766.3
38975.5
38966
38939.4
38843.4
38851.1
38956.3
39046.4
94357.8
94254.4
94167
94072.1
93940.7
93796.6
93740.1
126577
126511
126444
126329
126213
126131
126083
137137
137169
137193
137188
137163
137139
137127
126521
126458
126393
126284
126164
126079
126027
94360.9
94241.2
94138.2
94038.1
93883.3
93734.9
93679.3
39138.9
39079.8
39002.7
38871.6
38932.1
39023.6
39098.7
37463.3
37437.4
37384.3
37333
37285.7
37215.5
37162.2
88212.5
88189.7
88128.3
88035.9
87920.3
87815.6
87745
117874
117887
117909
117933
117924
117921
117919
127803
127809
127843
127879
127909
127935
127950
117842
117859
117889
117910
117905
117895
117889
88187.5
88169.6
88110
88020.5
87904.2
87801.4
87734
37430.4
37416
37375
37327.1
37285.3
37214.6
37160.4
36972.9
36962.3
36955.4
36939.2
36935.1
36931.2
36921.3
85071.4
85084.4
85095.6
85095.2
85084.3
85078.4
85077.3
112888
112892
112905
112923
112940
112957
112967
122037
122044
122055
122066
122077
122085
122086
112869
112875
112891
112913
112931
112943
112949
85069.2
85079.4
85086.4
85085.9
85078.8
85075.8
85074.3
37011.3
36992
36973.3
36945.5
36935.6
36931.6
36924.3
36560.1
36565.4
36565.5
36566.7
36570.9
36573
36571.2
83954.6
83952.9
83957.5
83963.6
83967
83969.1
83972
110103
110093
110091
110093
110098
110106
110110
118230
118220
118206
118187
118171
118161
118159
110113
110112
110122
110126
110130
110134
110133
83913
83912.1
83919.8
83935.5
83949.4
83959.4
83962
36601.2
36600
36584.6
36567.5
36558.1
36559.3
36562.3
38353.3
38360
38355.2
38344.5
38339
38334.9
38334.4
84866.7
84863.4
84865.1
84865.3
84865.5
84867.1
84870.1
107653
107651
107652
107653
107653
107650
107645
114159
114148
114132
114115
114104
114096
114089
107679
107689
107700
107696
107691
107691
107689
84848.2
84845.1
84850.9
84861.1
84869.6
84873.1
84873.3
38370.5
38375.4
38359.1
38347.5
38337.7
38333.4
38334.8
48985.2
48988.9
48990.2
48995.9
48999
48999.9
48999.4
84496.4
84492.7
84491
84485.5
84480.8
84479.6
84480.8
102923
102923
102923
102920
102916
102911
102907
107985
107982
107978
107975
107971
107965
107960
102927
102930
102932
102928
102923
102919
102916
84510
84506.8
84508.6
84510.7
84511.2
84507.2
84504.7
48994.5
48994.6
49004
49014
49018.8
49017
49013.3
)
;

boundaryField
{
    fuel
    {
        type            zeroGradient;
    }
    primary_air
    {
        type            zeroGradient;
    }
    Secondary_air_RHS
    {
        type            zeroGradient;
    }
    Secondary_air_LHS
    {
        type            zeroGradient;
    }
    outlet
    {
        type            totalPressure;
        rho             rho;
        psi             none;
        gamma           1;
        p0              uniform 100000;
        value           nonuniform List<scalar> 
98
(
44226.8
73126.7
100000
100000
100000
73140.5
44155.6
44137.6
73135.3
100000
100000
100000
73143.5
44145.7
44159.6
73136.5
100000
100000
100000
73131.8
44172.8
44175.6
73125.4
100000
100000
100000
73141.4
44124.9
44159.2
73125.3
100000
100000
100000
73138.5
44125.6
44142.5
73120.7
100000
100000
100000
73139.8
44139.6
44179.8
73122.2
100000
100000
100000
73139.1
44179
44136.7
73122.3
100000
100000
100000
73132.6
44171.6
44105.1
73114.8
100000
100000
100000
73119.7
44165.8
44101.6
73118.5
100000
100000
100000
73134.8
44133.7
44167.7
73115.5
100000
100000
100000
73127.7
44183.1
44127.5
73128.7
100000
100000
100000
73128.4
44186.1
44152.9
73118.1
100000
100000
100000
73133.4
44188.7
44172.9
73126.7
100000
100000
100000
73131
44232.4
)
;
    }
    stove_body
    {
        type            zeroGradient;
    }
    frontAndBack
    {
        type            empty;
    }
}


// ************************************************************************* //
