/*--------------------------------*- C++ -*----------------------------------*\
  =========                 |
  \\      /  F ield         | OpenFOAM: The Open Source CFD Toolbox
   \\    /   O peration     | Website:  https://openfoam.org
    \\  /    A nd           | Version:  6
     \\/     M anipulation  |
\*---------------------------------------------------------------------------*/
FoamFile
{
    version     2.0;
    format      ascii;
    class       surfaceScalarField;
    location    "0.0025";
    object      phi;
}
// * * * * * * * * * * * * * * * * * * * * * * * * * * * * * * * * * * * * * //

dimensions      [1 0 -1 0 0 0 0];

internalField   nonuniform List<scalar> 
10143
(
-6.99227e-07
-4.73416e-05
2.42711e-05
-2.01546e-07
-4.63295e-05
2.07286e-05
4.56133e-07
-4.62915e-05
2.02192e-05
7.32664e-07
-4.64041e-05
2.07378e-05
8.71651e-07
-4.64158e-05
2.08612e-05
9.82084e-07
-4.68346e-05
2.17369e-05
-4.80091e-05
2.51513e-05
1.13998e-06
-4.59078e-05
1.1784e-05
9.64126e-07
-4.63496e-05
1.38831e-05
2.13911e-07
-4.64409e-05
1.51218e-05
-1.95175e-07
-4.61327e-05
1.44641e-05
2.22064e-07
-4.60314e-05
1.32885e-05
-7.49384e-07
-4.6533e-05
1.43229e-05
-4.59802e-05
1.15062e-05
2.84644e-07
-2.10223e-05
1.02085e-05
6.08462e-07
-2.15052e-05
1.07968e-05
1.3818e-07
-2.2091e-05
1.19564e-05
3.51016e-07
-2.20496e-05
1.13817e-05
1.00696e-06
-2.19615e-05
1.11183e-05
-5.19516e-07
-2.21233e-05
1.31274e-05
-2.10484e-05
1.01076e-05
3.39204e-07
2.12367e-05
5.91046e-06
1.37753e-06
2.16656e-05
4.22895e-06
1.51882e-07
2.23421e-05
5.16269e-06
-1.32359e-06
2.22979e-05
5.42239e-06
-2.33979e-06
2.21292e-05
5.37629e-06
-1.43493e-06
2.22877e-05
3.31968e-06
2.14176e-05
4.8455e-06
-1.25648e-07
4.63318e-05
1.0301e-05
5.41005e-09
4.64756e-05
1.02188e-05
-4.91034e-07
4.69834e-05
1.15096e-05
-1.82751e-07
4.65528e-05
1.11881e-05
6.2131e-07
4.64011e-05
1.07989e-05
-3.73323e-07
4.68624e-05
1.22806e-05
4.64322e-05
1.00145e-05
5.95437e-07
4.82968e-05
1.19296e-05
1.06337e-06
4.73762e-05
1.35457e-05
-5.16028e-07
4.7449e-05
1.53136e-05
-4.89827e-07
4.74543e-05
1.32534e-05
-2.11048e-07
4.72131e-05
1.28327e-05
-8.18962e-07
4.72782e-05
1.38701e-05
4.84801e-05
1.14419e-05
-6.01776e-07
2.54741e-05
-5.06672e-07
2.26089e-05
-7.55778e-08
2.21964e-05
-5.86773e-07
2.33726e-05
-1.53984e-07
2.16601e-05
8.28494e-07
2.12046e-05
2.5563e-05
-1.74159e-06
-3.36986e-05
2.67769e-05
-7.34067e-07
-3.4749e-05
2.2099e-05
1.01085e-07
-3.41544e-05
2.06857e-05
8.10998e-07
-3.41731e-05
2.12388e-05
1.28734e-06
-3.472e-05
2.21795e-05
1.57955e-06
-3.57204e-05
2.49595e-05
-3.44049e-05
2.82286e-05
1.45433e-06
-3.59013e-05
8.13329e-06
4.47825e-08
-3.63583e-05
1.17938e-05
1.87469e-07
-3.77493e-05
1.42205e-05
5.89047e-07
-3.74569e-05
1.31731e-05
8.90644e-07
-3.72842e-05
1.12229e-05
-5.55221e-07
-3.68196e-05
1.19988e-05
-3.63037e-05
7.6798e-06
7.3456e-07
-1.75477e-05
1.11827e-05
5.90568e-07
-1.55475e-05
1.003e-05
3.88016e-07
-1.88161e-05
1.31769e-05
8.16908e-07
-1.86111e-05
1.18603e-05
1.27257e-06
-1.82598e-05
1.14732e-05
-4.18714e-07
-1.60502e-05
1.40474e-05
-1.75168e-05
1.16795e-05
7.50545e-08
1.67259e-05
4.45252e-06
1.89485e-06
1.63852e-05
3.29065e-06
1.66247e-07
1.81314e-05
2.6829e-06
-1.58531e-06
1.83055e-05
2.91588e-06
-2.80694e-06
1.81293e-05
3.01963e-06
-1.35923e-06
1.76219e-05
1.21539e-06
1.69906e-05
2.06763e-06
1.60008e-08
3.60559e-05
1.05021e-05
-4.4465e-08
3.73118e-05
9.86524e-06
-3.75203e-07
3.7906e-05
1.16914e-05
2.27888e-07
3.74784e-05
1.11511e-05
7.70853e-07
3.74692e-05
1.07331e-05
-2.33967e-07
3.78439e-05
1.28517e-05
3.61356e-05
1.11241e-05
8.22719e-07
3.45903e-05
8.7087e-06
3.19069e-07
3.46417e-05
1.17578e-05
-7.7876e-07
3.50833e-05
1.49894e-05
3.48737e-07
3.51096e-05
1.04014e-05
3.6872e-07
3.47698e-05
1.09075e-05
-5.49618e-07
3.57023e-05
1.20995e-05
3.46252e-05
7.30426e-06
-1.1645e-06
2.86291e-05
-1.37952e-06
2.399e-05
-1.31797e-07
2.37652e-05
-7.59901e-07
2.67391e-05
6.10101e-08
2.30774e-05
1.42037e-06
2.33333e-05
2.86876e-05
-2.79272e-06
-2.75052e-05
2.06087e-05
-6.06901e-07
-3.2018e-05
1.77009e-05
1.1952e-07
-3.05333e-05
1.52839e-05
8.96619e-07
-3.03591e-05
1.52262e-05
1.79913e-06
-3.10348e-05
1.69419e-05
2.15902e-06
-3.16853e-05
2.1308e-05
-2.8638e-05
2.27671e-05
2.27978e-06
-3.48594e-05
8.22891e-06
-9.25173e-08
-3.49553e-05
1.01132e-05
4.13909e-07
-3.77372e-05
1.55031e-05
5.72562e-07
-3.71345e-05
1.45541e-05
2.75276e-07
-3.64169e-05
1.13837e-05
-1.13454e-06
-3.44319e-05
9.63868e-06
-3.35783e-05
6.23796e-06
7.83153e-07
-1.6798e-05
1.27115e-05
4.5389e-07
-1.42074e-05
1.0213e-05
4.76071e-07
-1.96718e-05
1.53663e-05
8.68959e-07
-1.94819e-05
1.40472e-05
1.11887e-06
-1.8873e-05
1.40488e-05
-3.20062e-07
-1.33245e-05
1.50119e-05
-1.52636e-05
1.33785e-05
-1.66477e-07
1.50032e-05
5.45452e-06
1.8901e-06
1.37616e-05
5.9427e-06
1.18615e-07
1.59914e-05
1.33092e-06
-1.60602e-06
1.65941e-05
9.77554e-07
-3.01705e-06
1.82096e-05
-1.0864e-07
-1.38382e-06
1.74316e-05
1.6746e-06
1.4665e-05
3.66731e-06
1.07881e-07
3.38325e-05
1.18038e-05
-1.39085e-07
3.48825e-05
9.68528e-06
-2.4171e-07
3.46821e-05
1.33854e-05
2.82719e-07
3.46515e-05
1.2752e-05
5.53416e-07
3.69152e-05
1.20437e-05
-5.9828e-08
3.6637e-05
1.46346e-05
3.34637e-05
1.24349e-05
1.26075e-06
2.8284e-05
7.88237e-06
3.10444e-07
3.1361e-05
9.20031e-06
-1.05745e-06
3.15459e-05
1.31897e-05
7.63131e-07
2.75686e-05
1.00307e-05
-2.27226e-07
3.15825e-05
1.14191e-05
-1.03344e-06
3.31479e-05
1.01566e-05
2.85553e-05
5.73515e-06
-1.88818e-06
2.25551e-05
-1.4864e-06
2.05272e-05
3.99313e-07
1.87274e-05
-1.44023e-06
1.98121e-05
2.61241e-07
1.80369e-05
2.18045e-06
2.03469e-05
2.32852e-05
-3.53359e-06
-2.82433e-05
1.46335e-05
-5.44867e-07
-3.60574e-05
1.60215e-05
5.87942e-08
-3.47332e-05
1.54209e-05
1.10285e-06
-3.46519e-05
1.449e-05
2.40875e-06
-3.3682e-05
1.44523e-05
2.49165e-06
-3.13065e-05
1.6907e-05
-2.88245e-05
1.62294e-05
2.76573e-06
-3.51789e-05
8.44392e-06
1.85744e-07
-3.64469e-05
7.16655e-06
5.59875e-07
-3.6919e-05
1.08051e-05
3.12174e-07
-3.67464e-05
1.06448e-05
-6.27069e-07
-3.63037e-05
9.17705e-06
-1.49413e-06
-3.44205e-05
8.72339e-06
-3.44976e-05
6.47862e-06
7.8321e-07
-1.57309e-05
1.28361e-05
5.70116e-07
-1.60644e-05
1.09182e-05
5.42205e-07
-1.72079e-05
1.65128e-05
1.01408e-06
-1.74102e-05
1.49518e-05
9.34324e-07
-1.69241e-05
1.51934e-05
-2.8603e-07
-1.34923e-05
1.46552e-05
-1.43908e-05
1.32172e-05
-2.06004e-08
1.52952e-05
7.01304e-06
1.26746e-06
1.49687e-05
6.22484e-06
2.11909e-08
1.66128e-05
1.23113e-06
-1.80743e-06
1.74912e-05
2.68884e-07
-2.67929e-06
1.63312e-05
1.15383e-08
-1.22054e-06
1.59099e-05
3.53902e-06
1.43289e-05
6.54968e-06
9.02726e-08
3.44716e-05
1.27432e-05
-2.1213e-08
3.44404e-05
1.10661e-05
-1.07127e-07
3.61213e-05
1.42384e-05
3.13144e-07
3.66381e-05
1.33153e-05
5.99083e-07
3.61091e-05
1.22541e-05
-8.98769e-08
3.66536e-05
1.39488e-05
3.45471e-05
1.2252e-05
1.6352e-06
2.84964e-05
8.11906e-06
2.76792e-07
3.11221e-05
6.74478e-06
-1.21103e-06
3.39668e-05
1.0816e-05
1.19896e-06
2.82511e-05
1.08973e-05
-1.12408e-06
3.50094e-05
8.66774e-06
-1.31824e-06
3.3752e-05
8.29299e-06
2.8751e-05
6.08255e-06
-2.21002e-06
1.56855e-05
-1.60814e-06
1.65347e-05
5.62202e-07
1.60279e-05
-1.77497e-06
1.37532e-05
7.64987e-07
1.64884e-05
2.5157e-06
1.77791e-05
1.68077e-05
-3.63723e-06
-2.79468e-05
8.75346e-06
-4.0261e-07
-3.45725e-05
1.47996e-05
-2.34201e-07
-3.30402e-05
1.44187e-05
1.16685e-06
-3.40717e-05
1.34348e-05
2.79251e-06
-3.37116e-05
1.23938e-05
2.58758e-06
-2.95687e-05
1.13847e-05
-2.85417e-05
9.61957e-06
2.7873e-06
-3.57462e-05
9.54043e-06
4.93103e-08
-3.67759e-05
4.9536e-06
7.36527e-07
-3.49844e-05
6.96465e-06
2.70103e-07
-3.59403e-05
6.72772e-06
-1.12405e-06
-3.50422e-05
7.07666e-06
-1.64904e-06
-3.46449e-05
9.05848e-06
-3.60966e-05
8.82387e-06
9.86896e-07
-1.67319e-05
1.31005e-05
7.88249e-07
-1.69424e-05
1.18702e-05
5.97142e-07
-1.47623e-05
1.55603e-05
1.12182e-06
-1.57029e-05
1.45497e-05
6.25055e-07
-1.38013e-05
1.35576e-05
-2.97851e-07
-1.36589e-05
1.38327e-05
-1.59133e-05
1.28743e-05
-1.37924e-07
1.55526e-05
7.33621e-06
5.57517e-07
1.57016e-05
5.39222e-06
-1.24685e-07
1.66113e-05
2.91895e-06
-1.84826e-06
1.6692e-05
1.89806e-06
-2.03195e-06
1.53397e-05
3.48502e-06
-8.21266e-07
1.58484e-05
5.42354e-06
1.59574e-05
6.56049e-06
1.75938e-07
3.53608e-05
1.28574e-05
-9.97116e-08
3.55801e-05
1.20089e-05
-3.33845e-08
3.65761e-05
1.47692e-05
2.79864e-07
3.62568e-05
1.378e-05
5.30872e-07
3.41857e-05
1.20397e-05
-1.83348e-07
3.66606e-05
1.30112e-05
3.58936e-05
1.22259e-05
1.63467e-06
2.87271e-05
9.22098e-06
9.27912e-08
3.12655e-05
5.76318e-06
-7.76189e-07
3.24246e-05
9.20605e-06
9.26189e-07
3.12329e-05
8.48053e-06
-1.66565e-06
3.39208e-05
6.38894e-06
-1.22829e-06
3.03759e-05
8.85146e-06
2.86224e-05
8.27156e-06
-2.09429e-06
9.25959e-06
-1.64969e-06
1.32785e-05
1.68902e-07
1.25216e-05
-1.36994e-06
1.13168e-05
1.20437e-06
1.44326e-05
2.31452e-06
1.23381e-05
1.01665e-05
-2.9877e-06
-2.96405e-05
4.87517e-06
-1.82454e-07
-3.42633e-05
1.29278e-05
-4.62792e-07
-3.28062e-05
8.78405e-06
1.0272e-06
-3.31382e-05
1.08268e-05
2.41132e-06
-3.35829e-05
1.03367e-05
2.5618e-06
-3.17365e-05
8.3692e-06
-2.96901e-05
4.9147e-06
2.12303e-06
-3.75315e-05
1.13966e-05
-2.31059e-07
-3.72206e-05
5.31096e-06
1.01696e-06
-3.76624e-05
9.48494e-06
4.37549e-07
-3.75302e-05
7.29761e-06
-1.26808e-06
-3.63771e-05
7.01266e-06
-1.40122e-06
-3.70648e-05
9.6585e-06
-3.70581e-05
1.11615e-05
1.36411e-06
-1.8804e-05
1.32318e-05
7.52698e-07
-1.69877e-05
1.13455e-05
6.96756e-07
-1.57359e-05
1.25862e-05
9.16641e-07
-1.63136e-05
1.21077e-05
4.94624e-07
-1.4925e-05
1.15576e-05
-3.05416e-07
-1.52606e-05
1.19897e-05
-1.70524e-05
1.25874e-05
-5.23082e-07
1.71717e-05
4.26919e-06
2.07937e-07
1.53509e-05
4.7448e-06
-2.74158e-07
1.60651e-05
3.92848e-06
-1.59804e-06
1.54843e-05
3.62743e-06
-1.69453e-06
1.61683e-05
4.85062e-06
-7.99138e-07
1.76888e-05
4.07503e-06
1.74931e-05
3.81131e-06
5.4309e-07
3.71809e-05
1.23546e-05
-2.65346e-07
3.71643e-05
9.88887e-06
3.10673e-08
3.65932e-05
1.28509e-05
1.90766e-08
3.64194e-05
1.17371e-05
4.07158e-07
3.58519e-05
1.09821e-05
-2.36011e-07
3.8309e-05
1.19499e-05
3.71034e-05
1.23871e-05
1.10904e-06
3.03006e-05
1.10924e-05
2.25156e-08
3.37998e-05
8.57155e-06
-3.52452e-07
3.20084e-05
9.06433e-06
5.75583e-07
3.33935e-05
9.31359e-06
-1.51228e-06
3.46151e-05
4.47799e-06
-7.36181e-07
3.15586e-05
1.0153e-05
2.98508e-05
1.0869e-05
-1.59888e-06
4.83987e-06
-1.59333e-06
9.37514e-06
-2.57586e-08
9.00814e-06
-9.5785e-07
7.34519e-06
9.93892e-07
1.40523e-05
1.92932e-06
8.53378e-06
5.21483e-06
-1.90826e-06
-3.01399e-05
-6.43105e-07
-3.05873e-05
-1.77843e-07
-3.02285e-05
9.78683e-07
-2.94118e-05
1.93233e-06
-2.97395e-05
2.25315e-06
-3.04113e-05
-3.02237e-05
1.44211e-06
-3.42197e-05
3.58744e-07
-3.43467e-05
1.07307e-06
-3.4266e-05
5.82437e-07
-3.42487e-05
-1.10058e-06
-3.38491e-05
-8.873e-07
-3.41444e-05
-3.37746e-05
1.52364e-06
-1.32869e-05
5.81885e-07
-1.30194e-05
9.2902e-07
-1.29875e-05
9.04144e-07
-1.32053e-05
4.89448e-07
-1.276e-05
-1.96872e-07
-1.23583e-05
-1.22302e-05
-5.27017e-07
1.34693e-05
1.30405e-07
1.29894e-05
-3.67297e-07
1.32714e-05
-1.49259e-06
1.32813e-05
-1.8686e-06
1.428e-05
-1.01631e-06
1.29661e-05
1.26334e-05
5.78997e-07
3.43469e-05
-2.36005e-07
3.35373e-05
1.90153e-07
3.46002e-05
1.40661e-08
3.41373e-05
5.62742e-07
3.43795e-05
-1.06014e-07
3.4697e-05
3.40406e-05
7.33624e-07
3.06895e-05
-3.80385e-08
2.91827e-05
1.66186e-07
3.02569e-05
-2.41423e-07
3.06803e-05
-9.65085e-07
2.90158e-05
-3.48728e-07
3.0789e-05
3.05244e-05
-1.11165e-06
-1.55e-06
-3.98799e-07
-1.46621e-08
1.00474e-07
1.38147e-06
-3.22e-06
-0.000720549
-0.000978624
-7.31054e-06
-0.000720513
-0.000977319
-9.15671e-06
-0.000720689
-0.000978343
-8.97009e-06
-0.000719785
-0.0009784
-7.00972e-06
-0.000718172
-0.00097763
-5.44551e-06
-0.000717513
-0.000974067
-0.000716225
-0.000979471
1.17081e-06
-0.000757043
-0.00204009
-1.98099e-07
-0.000756754
-0.00203914
-2.67057e-06
-0.000754727
-0.00204025
-3.63244e-06
-0.000752049
-0.00204153
-5.42888e-06
-0.000750872
-0.00204206
-4.29428e-06
-0.00074759
-0.00204383
-0.000744532
-0.00204286
2.79331e-06
-0.000329474
-0.00253669
1.1679e-07
-0.00032407
-0.00253694
-2.42493e-06
-0.000326746
-0.00253584
-6.81869e-06
-0.000328489
-0.00253521
-8.94174e-06
-0.000327898
-0.0025358
-6.24625e-06
-0.000328448
-0.00253485
-0.000330947
-0.00253232
-1.3844e-06
0.000341663
-0.00269169
2.75053e-06
0.000339581
-0.00269056
3.13788e-06
0.000339514
-0.0026922
6.96712e-07
0.000338841
-0.00269311
-1.44413e-06
0.000337734
-0.0026939
-2.78712e-07
0.000336494
-0.00269403
0.000337948
-0.00269362
1.00459e-05
0.000749649
-0.00252767
1.17836e-05
0.000751766
-0.00252727
9.90556e-06
0.000753905
-0.00252832
5.59828e-06
0.000753864
-0.0025295
7.74224e-07
0.000754435
-0.00253226
-2.36199e-06
0.000757095
-0.00253459
0.00075908
-0.00253731
-5.99765e-07
0.000725254
-0.00205813
3.88139e-07
0.000724223
-0.00205725
-8.68181e-07
0.00072482
-0.00205399
-7.80071e-07
0.000724613
-0.00205497
-1.05782e-06
0.000724322
-0.00205323
-1.25746e-06
0.000724336
-0.00205063
0.000724809
-0.00204916
-2.9253e-06
-0.000979371
-8.15028e-07
-0.000983906
-4.02699e-07
-0.000982054
2.58349e-07
-0.000982296
9.06697e-07
-0.000982306
7.29617e-07
-0.000982152
-0.000981473
-2.63146e-07
-0.000679156
-0.00193146
-5.38393e-06
-0.000678338
-0.00192874
-1.00762e-05
-0.000680424
-0.00192906
-6.04249e-06
-0.000684427
-0.0019325
1.8389e-06
-0.00068312
-0.00193219
-1.67451e-05
-0.000697727
-0.0019383
-0.000685086
-0.00193322
2.03961e-06
-0.000729407
-0.00406028
5.07272e-07
-0.000729857
-0.00405686
-7.06717e-06
-0.000729384
-0.00405689
-3.97988e-06
-0.000727134
-0.00404697
-1.54865e-05
-0.000725876
-0.00405629
-1.42049e-06
-0.000715055
-0.00404848
-0.00071774
-0.00404318
1.76395e-06
-0.000294919
-0.00500543
9.94546e-09
-0.000292284
-0.00500653
1.50826e-06
-0.000294941
-0.00500621
-1.0815e-05
-0.000300559
-0.005011
-9.08095e-06
-0.000300243
-0.00500359
-2.46408e-06
-0.000303262
-0.00499966
-0.000307809
-0.00500102
1.54035e-07
0.000319547
-0.00526611
6.60768e-07
0.000318486
-0.00526776
6.97365e-07
0.000316386
-0.00526997
-9.66676e-09
0.000316575
-0.00527408
2.17779e-07
0.000312861
-0.00527273
1.51443e-06
0.000309533
-0.00527009
0.000311976
-0.00526757
1.29006e-05
0.000717176
-0.00498289
1.04657e-05
0.000723886
-0.00498542
6.22244e-06
0.000724448
-0.00498749
-2.85816e-06
0.000725049
-0.00499132
-8.68112e-06
0.000727148
-0.00499352
-7.9845e-06
0.000730244
-0.00499558
0.000732485
-0.00499726
3.24505e-06
0.000699346
-0.00404769
8.15526e-07
0.000686919
-0.00405227
-1.90734e-06
0.000686503
-0.00405573
9.86694e-07
0.000687596
-0.00405645
-1.16875e-06
0.00068823
-0.00405938
-7.29408e-07
0.000686184
-0.00406245
0.000685449
-0.00406448
-1.35512e-05
-0.00194014
-1.33103e-06
-0.00193704
6.24296e-07
-0.00193486
3.4352e-07
-0.00193455
1.83251e-06
-0.0019333
6.58911e-07
-0.00193193
-0.00192981
1.28261e-06
-0.000607936
-0.00290013
-4.21864e-06
-0.000607823
-0.00289632
-1.9002e-05
-0.000608448
-0.00289738
-2.56256e-06
-0.000608571
-0.00289514
-1.27571e-05
-0.000612374
-0.00289703
-9.96955e-06
-0.000611219
-0.00289568
-0.000607022
-0.0028902
7.22045e-06
-0.000623462
-0.00594875
4.82558e-07
-0.000627431
-0.00594779
8.28354e-06
-0.000634606
-0.00595011
-1.7614e-05
-0.00066138
-0.00595215
-2.716e-07
-0.000634044
-0.0059444
7.08491e-06
-0.000635656
-0.00594303
-0.00066156
-0.00594321
5.00242e-07
-0.000280798
-0.00726993
-1.14261e-06
-0.000277174
-0.00727045
-5.08322e-06
-0.000282369
-0.00727028
7.606e-07
-0.000267994
-0.00727291
1.80566e-06
-0.000286161
-0.00727044
2.49848e-06
-0.000282304
-0.00726677
-0.000271488
-0.00726586
-5.91867e-06
0.000301968
-0.00764974
-3.38739e-06
0.000295351
-0.00765166
-7.78529e-06
0.000297177
-0.00765336
3.50314e-06
0.000292357
-0.00765269
5.22067e-06
0.000293805
-0.0076548
6.35561e-06
0.000295875
-0.00764872
0.000300962
-0.00764338
6.85738e-06
0.000628667
-0.00724819
4.64252e-06
0.000636368
-0.00725078
-2.41778e-06
0.000635952
-0.00725254
-7.70918e-06
0.00063845
-0.00725526
-1.50867e-05
0.000635627
-0.00725633
-9.10824e-06
0.000633955
-0.00725409
0.000630773
-0.00724841
-3.05561e-06
0.000629593
-0.00590115
-8.6935e-06
0.000638941
-0.00590215
-2.51162e-06
0.000636904
-0.00590722
-3.38422e-06
0.000640704
-0.00591117
-1.37261e-06
0.000634427
-0.00591507
4.06375e-07
0.000625691
-0.00592838
0.00061875
-0.00593495
-1.75569e-06
-0.00290024
3.3532e-06
-0.00290288
9.22736e-07
-0.00289887
2.39923e-06
-0.00289716
6.75696e-06
-0.0028957
5.05268e-06
-0.00289379
-0.00289103
9.24257e-06
-0.00053172
-0.00394111
-6.20874e-06
-0.000530976
-0.00392861
-1.59601e-05
-0.000531884
-0.00392784
-5.73734e-06
-0.00053589
-0.00393541
-1.16282e-05
-0.000540011
-0.00392432
-1.31706e-06
-0.000536037
-0.00391981
-0.000533288
-0.00391214
1.06495e-05
-0.000532681
-0.00774127
-1.51283e-07
-0.000531581
-0.00774444
-1.46651e-05
-0.000533593
-0.00775411
1.26489e-05
-0.000536765
-0.00773524
-3.85962e-06
-0.000543636
-0.00773733
5.68977e-07
-0.000547641
-0.00773121
-0.000547202
-0.00772972
-4.76998e-06
-0.000253064
-0.00934035
-2.84595e-06
-0.000250621
-0.00933922
1.6135e-06
-0.000253928
-0.00933279
-3.62418e-06
-0.000261563
-0.00934438
1.17306e-05
-0.000247901
-0.00934396
1.27639e-05
-0.000248439
-0.00934617
-0.000258948
-0.0093496
-1.21034e-05
0.000248492
-0.00978927
-6.79728e-06
0.000252145
-0.00978786
-6.70759e-06
0.000252396
-0.00979277
1.23548e-07
0.000252493
-0.00979909
1.56294e-05
0.000253165
-0.00980238
1.87832e-05
0.000269872
-0.00979963
0.000281924
-0.00980793
7.14582e-06
0.00057925
-0.00932321
3.56008e-06
0.000584044
-0.00932159
-4.50163e-06
0.000575191
-0.00932448
-8.90023e-06
0.000570903
-0.00933341
-1.16938e-05
0.000562878
-0.0093344
4.44806e-06
0.000550802
-0.00933004
0.000535433
-0.00933078
-1.26589e-05
0.000538962
-0.00771265
-2.06464e-05
0.000539298
-0.00770397
-1.29996e-05
0.000555236
-0.00769523
-5.86744e-06
0.000559204
-0.00768872
-1.81516e-05
0.000557357
-0.00769607
-8.94649e-06
0.000546927
-0.00770404
0.000541922
-0.00769955
-4.47996e-06
-0.00391957
1.16924e-05
-0.00391941
3.28523e-06
-0.00391583
5.25758e-06
-0.00391132
9.87973e-06
-0.00390975
8.65471e-06
-0.00390951
-0.00390221
2.49505e-05
-0.000390962
-0.00506609
-1.71558e-05
-0.000388397
-0.00502733
-9.2971e-06
-0.000396032
-0.0050158
1.00641e-05
-0.00041613
-0.00506031
-1.27909e-05
-0.000399933
-0.00500373
1.00674e-05
-0.00040539
-0.00499267
-0.000408221
-0.00497649
-3.8231e-06
-0.000526817
-0.00932373
-1.25534e-06
-0.000524641
-0.00926913
-8.95789e-06
-0.000514279
-0.00927677
3.80722e-05
-0.00052215
-0.00928313
-1.78614e-05
-0.000521153
-0.00926479
1.20832e-05
-0.00052462
-0.0092687
-0.000521695
-0.00926858
-3.63771e-06
-0.000232703
-0.0111759
4.64462e-06
-0.000259383
-0.0111815
-1.78618e-05
-0.000270932
-0.0111854
-1.61097e-06
-0.000265168
-0.0111963
7.9851e-06
-0.000248925
-0.0112139
1.67003e-05
-0.000260282
-0.0112019
-0.000262954
-0.0112188
-1.41987e-05
0.000281767
-0.0117453
-7.45629e-06
0.000280259
-0.0117576
-2.67294e-05
0.000272033
-0.0117787
-2.32556e-06
0.000254653
-0.0117802
1.67861e-05
0.000255081
-0.0117793
6.22607e-06
0.000291746
-0.0117827
0.000269975
-0.0117833
5.90824e-06
0.000531697
-0.0111833
3.63333e-06
0.000540332
-0.0111726
-2.05784e-05
0.000550208
-0.0111865
-3.51704e-06
0.000543769
-0.0111991
-1.26975e-05
0.000537116
-0.0112117
3.66026e-06
0.000543294
-0.0111975
0.000535448
-0.0112028
-1.91913e-05
0.000363452
-0.00922665
1.50782e-06
0.00039208
-0.00920972
-2.00198e-05
0.00040338
-0.00920949
-9.91034e-06
0.000420437
-0.00920936
-4.37676e-05
0.000417755
-0.00924562
3.33885e-06
0.000422323
-0.00928248
0.00042783
-0.00926689
-8.84104e-06
-0.00496825
3.49409e-05
-0.00496236
2.04582e-05
-0.00498805
1.52315e-05
-0.00501852
8.19816e-06
-0.00503647
1.15118e-05
-0.0050188
-0.00498948
7.94776e-05
-0.000780379
-0.00532771
5.72669e-06
-0.000776357
-0.00528656
-5.50754e-05
-0.000800806
-0.00526779
8.88578e-05
-0.000738944
-0.00522638
3.63905e-05
-0.00078387
-0.00522949
2.37929e-05
-0.000793229
-0.00525061
-0.000823208
-0.00522097
4.86756e-05
-0.000608062
-0.010529
-6.61452e-06
-0.00069364
-0.0104205
2.52053e-05
-0.000691386
-0.0104279
3.82119e-05
-0.0006894
-0.0105503
-1.37333e-05
-0.000652111
-0.0104276
-2.00487e-05
-0.000696572
-0.0105066
-0.000686611
-0.0104804
-1.94167e-05
-0.000257385
-0.012803
-1.40349e-05
-0.000276457
-0.012849
-3.01274e-05
-0.000272669
-0.0129027
-2.79896e-05
-0.000287608
-0.0129087
-1.01609e-06
-0.000256832
-0.0128818
-4.51344e-06
-0.000258228
-0.0128743
-0.000247036
-0.0128856
-5.93343e-06
0.000289788
-0.0135143
-4.21609e-05
0.00026367
-0.0135368
-3.89489e-05
0.000281448
-0.0135825
-2.43584e-05
0.000257198
-0.0136265
3.96152e-05
0.000251406
-0.0135952
-1.71117e-06
0.000323426
-0.0135886
0.000262168
-0.0135346
-5.1246e-07
0.000662725
-0.0128497
-4.63174e-06
0.00071237
-0.0128856
-1.86368e-05
0.000714884
-0.0129551
-3.5962e-05
0.000694071
-0.0129613
-1.58552e-05
0.000703456
-0.0129273
6.17994e-06
0.000715042
-0.0129011
0.000714439
-0.0129018
1.19469e-05
0.000780389
-0.0104311
-3.60146e-05
0.000776014
-0.0104812
-1.88353e-05
0.000765947
-0.0104535
-9.07808e-05
0.000755601
-0.0104829
-9.67344e-05
0.000748689
-0.010505
-5.49515e-06
0.00080113
-0.0105817
0.000810194
-0.0104644
-7.96268e-06
-0.00522533
-5.52283e-05
-0.00524379
-2.04858e-06
-0.00522517
-3.33888e-05
-0.00524851
8.99677e-05
-0.0052297
5.6922e-06
-0.00531946
-0.00528477
9.63906e-05
-0.00145588
-0.00474099
8.44355e-05
-0.00140334
-0.00465914
-2.13958e-05
-0.00144397
-0.00461026
6.59496e-05
-0.00150121
-0.00467464
6.37779e-05
-0.00143941
-0.00455729
2.46101e-05
-0.00147077
-0.00470651
-0.00147295
-0.00459808
6.92714e-05
-0.00166065
-0.0115783
-2.27968e-05
-0.001724
-0.0112456
2.93611e-05
-0.00173617
-0.01131
0.000113836
-0.0017433
-0.0116269
-7.04499e-05
-0.0016857
-0.0113384
4.16149e-06
-0.00171987
-0.0114809
-0.0017162
-0.0115533
-7.9857e-05
-0.000788022
-0.0147696
-9.82245e-05
-0.000725308
-0.0148831
-6.13694e-05
-0.00067642
-0.0150445
1.3733e-05
-0.000734992
-0.0149702
-1.45365e-07
-0.000772544
-0.0148198
5.53327e-05
-0.00070842
-0.014984
-0.000672268
-0.0149419
-9.64861e-05
0.000784775
-0.0160467
-0.000177814
0.000672407
-0.0158353
-7.08667e-05
0.000646108
-0.0158687
2.23939e-05
0.000711556
-0.0160435
4.4883e-05
0.000739463
-0.0160392
3.89368e-05
0.000736936
-0.0158354
0.000676477
-0.0157249
-5.76838e-05
0.00164847
-0.0148817
-9.08367e-05
0.0017087
-0.0150241
-2.49324e-05
0.00174957
-0.0151361
7.88195e-06
0.00172883
-0.0150594
5.5261e-05
0.00172021
-0.0149956
6.19226e-05
0.00172033
-0.0149532
0.00170916
-0.0149162
-7.8551e-05
0.00141286
-0.0114142
-5.13428e-05
0.00141777
-0.0114403
-6.38781e-05
0.00140847
-0.0114152
-0.000109307
0.00142508
-0.0113787
-0.000141338
0.00146526
-0.0114972
4.28559e-05
0.0014214
-0.0115614
0.00140599
-0.0113564
-3.57573e-05
-0.00457909
-4.69998e-05
-0.00453049
-6.01149e-05
-0.00454559
6.40923e-06
-0.00447032
-3.16263e-05
-0.00453867
7.47753e-05
-0.00465131
-0.00463511
0.000204291
0.000826093
-0.00585985
0.00394422
1.90613e-05
0.00156815
-0.00593928
0.00364375
-4.26462e-05
0.00150257
-0.00608777
0.00366678
0.000144596
0.00119653
-0.00613025
0.00385521
0.000146234
0.0014827
-0.00610574
0.00364694
-6.23549e-05
0.00137242
-0.00600121
0.00381086
0.00110186
-0.00601306
0.00383524
-0.000102257
0.00044531
-0.0128927
0.012238
-6.80924e-05
0.00164876
-0.0132615
0.0120177
1.51653e-06
0.00157711
-0.013444
0.0120579
0.00011439
0.000937248
-0.0135218
0.0124056
0.000220347
0.00168597
-0.0135544
0.0121511
5.43791e-05
0.00131527
-0.0133046
0.0121869
0.00112891
-0.0130519
0.012088
-0.000470518
0.000176955
-0.0163896
0.0164112
-0.000194802
0.000514052
-0.0165109
0.0163459
0.000112027
0.000606741
-0.0166941
0.016472
-0.000141043
0.000556263
-0.016747
0.016599
0.000303021
0.000707245
-0.016663
0.0161999
0.000186142
0.000666462
-0.0165237
0.0165172
0.000305063
-0.0162342
0.0163207
-0.000343923
-0.000636817
-0.0169149
0.017903
-0.000120149
-0.000630198
-0.0172133
0.0179464
-5.39382e-05
-0.00059069
-0.017396
0.0179318
8.01264e-05
-0.000624615
-0.0174087
0.0179628
0.000352164
-0.000499406
-0.0173219
0.0179238
0.000240031
-0.000275814
-0.0173194
0.0177645
-0.000373465
-0.0170414
0.0174985
-0.000199884
-0.00117074
-0.0162737
0.0164088
-0.000195882
-0.00149843
-0.0164819
0.0165408
-7.63651e-05
-0.00153334
-0.01659
0.0165294
0.000155814
-0.00154126
-0.0166427
0.0165064
0.000348908
-0.0014969
-0.016641
0.0165415
0.00011802
-0.000912555
-0.0165568
0.0164647
-0.00120996
-0.0162284
0.0163447
-0.000150941
-0.00121875
-0.0130817
0.012034
-0.000235491
-0.0015194
-0.0132931
0.0120621
-0.000113162
-0.00150377
-0.0135131
0.0121153
5.20575e-05
-0.00149251
-0.0135561
0.0121289
0.000114829
-0.00150073
-0.0134611
0.0122285
0.0001145
-0.00119528
-0.0131991
0.0123022
-0.00115873
-0.0130496
0.0120514
4.85401e-05
-0.00597389
0.00375376
-6.05561e-05
-0.00596414
0.00366541
-5.24122e-05
-0.00609593
0.00369596
5.49079e-05
-0.00616886
0.00365912
-1.08884e-06
-0.00609545
0.0036875
-8.38242e-06
-0.00593119
0.00380482
-0.00598029
0.00375236
0.000129221
-0.000282905
-0.00651217
-0.000196329
0.000768365
-0.00718265
-0.000112345
0.000746539
-0.00766656
0.000162118
0.000749427
-0.00792118
0.000248927
0.000740422
-0.00769267
-5.15215e-05
0.000747889
-0.0072333
-0.000318438
-0.0065658
-0.000446684
-0.000133529
-0.0133365
-0.000492833
0.000859947
-0.0143501
-0.000216364
0.000888425
-0.0148604
0.000249291
0.000902076
-0.0150389
0.000498752
0.000910289
-0.0149412
0.000492364
0.000861899
-0.0144341
-0.000185229
-0.0133931
-0.0007406
-0.000135471
-0.0161394
-0.000524318
0.000286559
-0.0167179
-0.000169311
0.000317846
-0.0170478
0.00016466
0.000289433
-0.0170566
0.000538489
0.000313592
-0.0170174
0.000715349
0.00032157
-0.0166963
-5.58564e-05
-0.0161132
-0.000748098
7.5823e-05
-0.0166782
-0.000487918
-0.000344562
-0.0172038
-0.000163661
-0.000381953
-0.0174434
0.000165103
-0.00038589
-0.0174819
0.000554771
-0.000351996
-0.0174223
0.000757531
-0.000327403
-0.0172233
4.12719e-05
-0.0167327
-0.000686405
0.000147418
-0.0161095
-0.000505421
-0.000815628
-0.0167271
-0.000163198
-0.000845234
-0.0170571
0.000196018
-0.000845665
-0.017114
0.000554885
-0.00086765
-0.017049
0.000706106
-0.000833416
-0.0167546
0.000167099
-0.0160995
-0.000493675
0.000248401
-0.0134308
-0.000522947
-0.000764299
-0.0143688
-0.000252673
-0.000764022
-0.0148534
0.000160427
-0.000766144
-0.0149443
0.000474708
-0.00074383
-0.0148649
0.000513027
-0.00072882
-0.014322
0.000290893
-0.0133895
3.90561e-05
-0.00655565
-0.000243225
-0.00720704
-0.000138368
-0.00767566
0.000123025
-0.00790554
0.000211568
-0.00768289
-5.03963e-05
-0.00721905
-0.00654274
-0.000484002
-0.000334855
-0.00638509
-0.000812203
0.000994729
-0.00847302
-0.000352385
0.00102854
-0.00969551
0.000377884
0.00104876
-0.0102823
0.00083892
0.00102064
-0.00973077
0.000494386
0.000989407
-0.00851236
-0.000337439
-0.00641744
-0.00129838
-0.000267421
-0.0127531
-0.0012404
0.00122359
-0.0154926
-0.000432151
0.00134295
-0.0168758
0.000452495
0.00133151
-0.0169572
0.00126256
0.00134968
-0.0169277
0.0013102
0.00122295
-0.0155654
-0.000292563
-0.0127872
-0.00139188
-0.000128309
-0.0152406
-0.00100917
0.000463066
-0.0167407
-0.000332205
0.000506085
-0.0173377
0.000329483
0.00051386
-0.017356
0.00100089
0.000511212
-0.0173111
0.00137951
0.000466722
-0.0167208
-0.000132593
-0.0152423
-0.00139459
0.000157773
-0.0157745
-0.000912365
-0.000491342
-0.0169056
-0.000288618
-0.000528293
-0.0172394
0.000289383
-0.000513448
-0.0172509
0.00092064
-0.000514728
-0.0172105
0.00139844
-0.000492651
-0.0168787
0.000125959
-0.0157793
-0.00137601
0.000224243
-0.015218
-0.000998524
-0.00121053
-0.0167591
-0.000294966
-0.00134255
-0.0174124
0.000355137
-0.0013267
-0.0174282
0.00101784
-0.00133805
-0.0173496
0.00137135
-0.00119958
-0.0168139
0.000268273
-0.015223
-0.00127602
0.000319268
-0.0128056
-0.00127569
-0.000989594
-0.0154733
-0.000494694
-0.00104571
-0.0167799
0.000446612
-0.00105852
-0.0168683
0.00127676
-0.00102954
-0.0168344
0.00130353
-0.000967601
-0.0154031
0.000327959
-0.0127975
-0.000517635
-0.00639396
-0.000833159
-0.00846984
-0.000378105
-0.00968788
0.00037693
-0.0102658
0.00081929
-0.00970856
0.000491851
-0.00848436
-0.00639583
-0.00177543
0.00027216
-0.00544422
-0.00186499
0.00121694
-0.00987588
-0.00078578
0.00129858
-0.0122425
0.00080859
0.00125512
-0.0134858
0.00188325
0.00129299
-0.0123082
0.00178764
0.00122193
-0.0099483
0.000279364
-0.00548241
-0.00289019
0.000375785
-0.0105708
-0.00257287
0.00158681
-0.0166866
-0.000828541
0.00184042
-0.0197579
0.000836013
0.00177125
-0.0196994
0.00255224
0.00182165
-0.0197077
0.00287846
0.0015867
-0.0167542
0.000358296
-0.0106037
-0.0022534
0.000156668
-0.0129642
-0.00172195
0.000633751
-0.0165705
-0.000539258
0.000709509
-0.0176769
0.000527683
0.000701904
-0.0176599
0.00170195
0.000712404
-0.0176983
0.00225084
0.000620647
-0.0165572
0.000137425
-0.0129802
-0.00190749
-0.000136558
-0.0136106
-0.0013517
-0.000649639
-0.0161889
-0.000408577
-0.000722155
-0.0167711
0.00041352
-0.000702459
-0.0167261
0.00135136
-0.000704447
-0.0167764
0.00191364
-0.000637884
-0.0161774
-0.00013974
-0.0136083
-0.00225434
-0.000413472
-0.0129335
-0.00172764
-0.00160207
-0.0165381
-0.0005011
-0.00182766
-0.017731
0.000566239
-0.00179134
-0.0176882
0.00171334
-0.00183524
-0.0176795
0.00224121
-0.00158209
-0.0166209
-0.000398138
-0.0129305
-0.00286077
-0.000284724
-0.0106051
-0.00255349
-0.00123572
-0.0166835
-0.000873401
-0.00132987
-0.0196624
0.000813021
-0.00126016
-0.0196528
0.00256599
-0.00129928
-0.0196531
0.00285452
-0.00119646
-0.0165827
-0.000284751
-0.0105992
-0.00179057
-0.0054383
-0.00186747
-0.00987738
-0.000815625
-0.0122586
0.000799548
-0.0134572
0.00187389
-0.012278
0.0017904
-0.00989156
-0.00544536
-0.00293181
-8.16623e-05
-0.00268408
-0.00329117
0.000933902
-0.0101875
-0.00145396
0.000684589
-0.0143746
0.00150309
-5.33819e-05
-0.0165373
0.00332808
0.000651869
-0.014472
0.0029656
0.000963667
-0.0103067
-5.80093e-05
-0.00275024
-0.00505893
8.56097e-05
-0.00580127
-0.00492863
0.000990505
-0.0167254
-0.00178745
0.00114466
-0.0233753
0.00179569
0.000874126
-0.0247462
0.00485562
0.00110853
-0.0232576
0.00502126
0.00100382
-0.0167952
8.22103e-05
-0.00583791
-0.00393573
0.000105611
-0.00896466