/*--------------------------------*- C++ -*----------------------------------*\
  =========                 |
  \\      /  F ield         | OpenFOAM: The Open Source CFD Toolbox
   \\    /   O peration     | Website:  https://openfoam.org
    \\  /    A nd           | Version:  6
     \\/     M anipulation  |
\*---------------------------------------------------------------------------*/
FoamFile
{
    version     2.0;
    format      ascii;
    class       volScalarField;
    location    "0.0025";
    object      T;
}
// * * * * * * * * * * * * * * * * * * * * * * * * * * * * * * * * * * * * * //

dimensions      [0 0 0 1 0 0 0];

internalField   nonuniform List<scalar> 
3773
(
216.748
216.213
216.271
216.308
216.258
216.24
216.729
277.696
277.439
277.384
277.369
277.358
277.46
277.8
312.276
312.528
312.535
312.533
312.529
312.519
312.35
322.169
322.237
322.265
322.267
322.263
322.26
322.179
312.366
312.407
312.595
312.592
312.581
312.569
312.397
277.949
277.608
277.603
277.577
277.554
277.601
277.917
216.7
216.402
216.364
216.392
216.365
216.293
216.76
211.304
210.59
210.293
210.222
210.451
210.713
210.367
271.715
275.322
275.32
275.228
275.113
275.526
272.753
313.818
311.885
311.822
311.932
312.203
311.824
313.853
324.559
324.615
324.597
324.631
324.635
324.538
325.092
314.144
313.883
312.439
312.336
312.221
312.12
314.134
272.144
271.863
274.844
275.02
275.06
275.514
272.421
210.77
211.027
210.318
210.325
210.265
210.568
210.384
209.997
210.396
209.517
209.58
210.043
210.857
209.929
269.952
273.091
271.145
270.693
270.7
273.341
270.432
314.083
312.159
314.239
314.255
314.047
311.806
314.077
325.238
324.55
324.864
325.302
325.333
324.603
325.232
314.08
311.777
313.083
314.017
314.136
312.969
314.075
270.185
273.268
272.496
270.647
271.253
272.349
270.421
209.845
210.78
209.588
209.332
209.492
210.504
209.884
209.817
211.145
210.643
210.701
210.493
210.731
209.866
270.006
274.537
273.871
273.441
271.671
273.787
270.181
314.108
311.153
311.98
312.248
313.38
310.999
314.045
325.247
324.424
324.784
325.068
324.937
324.801
325.21
314.117
310.722
313.226
314.474
313.535
310.924
314.054
270.077
274.409
271.986
270.34
272.05
274.087
270.168
209.773
210.843
210.549
209.225
210.269
210.744
209.824
209.839
210.518
210.382
209.927
210.282
210.483
209.794
270.107
274.358
274.483
274.647
274.588
274.179
270.187
314.162
311.746
311.301
311.997
311.551
310.587
314.107
325.261
324.343
324.725
324.636
324.585
324.857
325.231
314.149
311.196
311.753
312.846
312.946
310.906
314.113
270.186
274.445
274.148
272.743
272.94
273.947
270.211
209.835
210.527
210.421
209.725
209.953
210.575
209.786
209.886
210.57
208.778
210.682
210.777
210.462
209.841
270.418
274.716
275.776
274.456
274.635
274.572
270.448
314.275
311.367
311.505
310.924
310.909
310.713
314.202
325.287
324.368
324.382
324.599
324.309
324.877
325.263
314.252
311.789
311.191
311.493
311.148
311.958
314.209
270.515
275.671
274.806
275.81
274.676
273.395
270.458
209.884
208.995
210.498
208.797
211.034
210.496
209.839
210.62
208.526
210.396
210.386
210.394
210.53
210.608
274.22
275.431
274.406
274.085
274.109
274.365
274.223
311.565
312.053
311.087
311.456
310.971
311.432
311.056
325.388
326.046
325.837
325.851
326.153
325.38
326.203
311.561
314.941
311.491
311.067
315.572
311.518
311.044
274.25
269.402
274.21
274.4
270.721
274.362
274.242
210.706
210.084
210.466
210.447
208.271
210.6
210.667
219.947
219.876
219.891
219.91
219.93
219.944
219.976
285.153
285.116
285.14
285.167
285.143
285.132
285.184
328.216
328.189
328.186
328.176
328.2
328.195
328.163
340.033
340.034
340.034
340.04
340.038
340.043
340.039
328.213
328.233
328.218
328.209
328.191
328.203
328.22
285.129
285.107
285.143
285.144
285.169
285.167
285.185
219.901
219.941
219.931
219.91
219.896
219.883
219.929
220.92
220.85
220.861
220.897
220.969
220.871
220.962
287.138
287.007
287.146
287.565
287.127
287.294
287.725
326.627
326.674
326.613
326.273
326.568
326.424
326.136
340.002
340.005
339.986
340.021
339.956
339.973
339.983
327.048
326.794
326.707
326.612
326.507
326.621
326.621
287.023
286.82
286.945
287.133
287.343
287.229
287.217
220.164
220.982
220.965
220.903
220.9
220.835
220.902
220.135
220.077
219.992
220.292
220.447
221.001
220.291
284.872
284.777
284.894
287.076
285.29
285.556
287.473
329.135
329.174
329.252
327.352
328.691
328.109
326.967
340.678
340.593
340.616
340.747
340.583
340.653
340.888
328.218
327.374
327.677
327.252
327.748
328.52
328.877
285.994
287.157
286.719
287.53
286.825
285.883
285.159
220.394
220.497
220.393
220.177
220.165
219.94
220.039
221.37
221.367
221.285
221.186
221.351
221.611
221.36
285.718
285.133
285.313
285.981
286.475
286.644
286.737
328.956
329.323
329.575
329.18
328.572
328.288
328.191
341.651
341.582
341.432
341.596
341.44
341.659
341.721
327.864
327.454
327.338
327.336
327.446
328.734
329.302
287.861
288.548
288.776
288.883
288.225
286.581
285.625
220.973
221.074
220.774
220.656
221.078
220.999
221.101
223.104
222.791
223.323
223.074
222.775
223.497
223.22
288.593
287.572
287.755
290.104
288.017
289.515
289.648
328.935
329.67
330.231
328.87
329.545
328.866
328.006
342.849
343.371
342.768
343.166
342.806
343.176
343.158
330.536
329.581
329.094
328.534
328.395
329.246
328.199
286.792
289.15
289.735
290.684
289.539
289.309
290.12
223.454
223.779
222.148
222.11
222.661
222.448
222.687
231.702
228.021
229.403
230.715
230.353
229.554
229.482
294.146
297.099
297.975
295.874
294.28
294.852
297.498
333.513
332.326
331.589
331.658
334.02
332.8
331.848
345.43
345.039
344.957
344.782
345.423
344.993
345.746
332.041
332.186
331.768
331.512
332.133
333.933
331.674
295.104
294.622
296.89
296.109
296.456
294.594
298.115
230.755
231.023
231.249
229.433
229.951
229.033
229.564
244.37
241.799
241.234
248.611
243.566
240.936
242.639
307.158
303.358
305.477
303.738
301.603
304.921
304.221
334.857
336.556
334.283
334.971
336.538
336.143
335.48
346.838
346.552
346.437
346.476
346.847
346.856
346.92
335.229
335.761
334.455
334.385
335.574
336.39
335.491
301.562
301.82
302.743
302.85
302.342
304.092
304.483
245.73
244.569
245.518
248.471
248.316
244.353
239.136
225.959
225.869
226.293
226.412
226.276
225.593
225.509
288.949
283.234
286.134
283.553
280.979
285.1
284.872
329.693
331.452
329.652
333.208
332.514
331.121
331.954
347.448
346.402
346.513
346.819
347.727
347.476
346.827
329.368
329.582
331.636
331.35
331.706
331.697
332.204
286.4
286.711
283.41
284.512
283.008
285.469
284.355
226.66
226.308
226.598
226.545
226.646
226.248
225.621
227.352
227.475
227.761
227.814
227.505
226.854
225.491
291.608
286.742
287.567
285.835
284.455
284.311
292.313
330.839
332.276
331.72
334.137
333.573
333.96
332.004
348.289
347.387
347.349
347.531
348.554
348.494
347.668
333.592
332.253
332.151
332.506
331.466
330.418
332.818
288.288
287.545
287.146
288.483
287.639
289.085
291.315
227.274
227.349
227.729
227.804
227.743
227.45
225.929
227.956
229.594
229.727
229.535
229.379
228.749
226.103
291.947
284.205
285.24
287.617
284.421
283.528
292.768
331.491
332.904
331.714
333.03
332.109
333.379
332.349
348.008
347.26
347.158
347.4
348.163
348.19
347.622
334.893
332.619
331.885
332.38
331.368
330.206
333.416
287.745
285.109
284.759
288.045
285.631
287.783
290.964
227.777
229.308
229.628
229.721
229.495
229.191
226.896
229.436
234.072
233.726
231.947
232.77
232.583
227.295
290.66
283.857
283.065
290.049
284.839
284.502
291.746
330.953
332.966
331.669
331.35
330.074
332.4
331.377
347.192
346.789
346.471
346.981
347.156
347.459
346.936
333.056
333.842
331.163
331.854
331.064
330.393
333.284
287.986
282.941
283.019
288.516
283.923
287.275
288.581
229.065
233.721
233.396
232.43
232.942
233.137
228.516
233.55
242.835
241.04
234.615
238.85
240.157
230.674
291.504
288.927
284.588
290.349
287.332
289.652
292.852
331.218
332.435
330.765
331.863
328.384
332.148
331.282
346.426
346.361
345.583
346.455
345.661
346.685
346.35
332.381
333.853
330.433
332.475
329.35
332.087
333.771
289.973
287.325
283.963
288.568
286.201
290.168
288.969
232.853
242.346
240.026
235.349
239.123
241.053
232.018
242.837
256.842
253.719
238.601
249.767
253.832
238.147
296.803
296.525
286.076
284.817
289.452
298.178
299.568
333.099
332.506
329.206
330.458
325.719
332.106
332.984
346.178
345.844
344.366
345.191
344.185
345.951
346.168
334.072
333.874
329.3
330.975
327.8
332.92
334.453
296.379
295.124
284.762
283.49
286.984
297.428
296.653
241.709
257.172
251.457
239.119
249.315
255.273
240.099
279.478
282.26
274.439
252.084
268.659
276.768
273.02
309.509
305.479
291.009
278.016
292.959
308.007
314.257
330.578
330.043
326.904
325.03
323.413
330.123
330.87
344.142
344.225
342.85
342.655
342.326
344.151
344.185
332.892
331.197
327.088
325.116
324.01
330.268
330.917
308.385
304.416
289.407
277.209
291.82
306.904
311.778
278.029
280.7
275.117
253.538
270.969
278.338
276.008
259.711
245.87
254.977
260.033
255.58
247.635
253.956
301.124
297.802
300.018
299.256
295.41
300.835
295.877
333.868
335.577
332.67
335.144
336.149
334.295
335.528
347.72
346.633
346.563
346.714
347.551
347.392
347.03
332.383
332.869
333.862
333.327
335.436
335.158
335.669
298.416
297.759
297
297.864
295.494
300.994
297.264
259.095
257.569
256.001
261.627
259.327
253.371
252.446
254.852
243.231
249.628
252.612
249.574
240.48
246.019
297.819
293.835
296.672
297.031
292.482
298.393
293.807
333.392
334.481
332.022
334.951
335.875
333.267
334.578
347.728
346.592
346.522
346.662
347.597
347.372
346.972
331.99
332.282
333.671
333.123
335
334.775
335.019
296.145
295.791
294.083
295.452
291.974
298.886
294.463
253.766
250.877
250.446
253.036
250.111
244.93
246.775
249.531
236.321
242.542
248.883
243.864
238.356
243.426
296.643
291.628
294.341
293.264
287.938
294.608
291.538
332.093
334.089
331.545
334.499
335.587
332.78
334.258
347.746
346.476
346.446
346.59
347.597
347.328
346.89
331.521
331.849
333.368
332.861
334.813
334.353
334.315
293.798
293.817
290.887
291.764
290.247
295.025
291.905
248.251
247.453
245.227
245.93
246.285
241.008
244.691
243.083
233.242
239.827
241.095
239.846
236.346
236.64
294.556
289.347
291.919
291.26
286.634
293.183
289.857
331.646
333.288
331.123
334.373
334.862
332.503
333.496
347.787
346.44
346.384
346.568
347.594
347.243
346.8
331.072
331.458
333.258
332.662
334.302
333.728
333.893
291.664
291.874
289.485
290.629
288.43
292.942
289.736
242.051
238.597
239.813
240.614
238.135
237.401
236.624
235.806
231.706
232.349
236.946
236.691
232.455
234.378
293.327
287.351
289.582
287.821
284.605
289.859
287.368
331.114
333.112
330.855
333.973
334.129
332.108
333.28
347.837
346.431
346.318
346.557
347.605
347.217
346.69
330.406
330.662
333.059
332.36
333.357
332.965
333.518
290.171
290.369
287.307
287.662
286.838
290.171
287.842
234.446
236.192
234.711
234.118
235.367
231.637
234.308
233.598
227.202
229.59
231.617
229.178
229.071
231.017
291.637
284.794
288.141
286.617
282.212
288.755
286.637
330.382
332.384
330.479
333.689
333.789
331.755
332.869
347.845
346.433
346.285
346.544
347.651
347.198
346.686
330.042
330.254
332.491
331.942
332.87
332.713
332.962
288.522
288.925
285.944
286.801
284.632
288.442
285.447
232.142
228.726
230.7
229.302
229.524
230.173
231.006
228.591
225.776
226.206
227.937
226.083
225.863
225.628
290.213
283.807
287.029
285.16
281.474
286.527
285.429
330.161
332.023
330.108
333.473
333.202
331.443
332.482
347.713
346.449
346.28
346.544
347.71
347.279
346.732
329.674
330
332.126
331.746
332.284
332.238
332.642
287.078
287.617
284.124
285.234
283.853
286.714
284.88
226.632
226.173
226.478
226.44
226.579
227.431
225.657
304.892
308.541
304.453
272.463
299.705
308.045
303.244
294.15
299.08
298.2
280.437
298.579
299.644
294.365
313.286
321.717
323.127
318.307
320.619
321.528
313.676
337.845
341.039
340.985
339.587
340.199
340.831
337.784
313.563
322.052
323.027
317.729
321.088
321.431
313.268
293.197
298.286
297.24
279.543
297.581
298.691
293.09
304.7
309.253
302.824
274.084
299.764
307.622
303.574
325.57
326.004
314.637
272.091
308.405
327.109
326.574
309.215
307.449
300.71
277.322
299.951
308.195
309.981
315.058
321.53
321.333
315.716
319.391
321.113
315.443
337.96
340.619
339.937
338.18
339.127
340.424
337.865
315.089
321.587
320.732
314.438
319.473
321.089
315.254
310.198
307.034
300.083
276.984
299.084
307.381
308.907
326.45
327.638
313.222
273.196
308.03
324.562
323.58
330.895
331.134
316.592
270.768
309.904
333.033
331.264
310.227
307.467
300.088
275.522
298.538
308.731
311.245
316.754
322.801
321.19
315.687
319.993
322.189
317.69
338.139
340.327
339.756
338.099
339.343
340.394
337.884
317.18
321.887
320.341
314.15
319.749
322.134
316.912
311.187
308.064
299.477
275.592
297.786
308.062
311.168
331.156
332.657
311.723
275.554
310.416
331.713
331.074
325.006
326.538
308.922
262.679
302.644
327.494
326.38
305.512
304.384
295.558
270.702
293.55
305.182
306.636
320.07
323.446
321.141
315.604
319.976
323.08
319.897
338.43
340.631
339.766
338.015
340.113
341.049
338.157
319.602
322.658
320.044
314.402
319.576
322.605
319.484
305.896
304.024
294.496
270.557
292.811
304.833
306.28
325.789
325.17
309.181
262.985
302.815
326.195
324.367
313.79
309.733
291.455
253.046
284.88
312.257
313.613
303.44
298.292
287.488
266.755
285.047
298.87
304.264
322.653
324.266
321.438
316.102
319.919
323.323
322.519
339.274
341.136
339.952
338.026
340.789
341.902
339.704
322.288
323.223
320.528
314.733
319.815
323.283
322.013
303.204
298.859
285.584
266.262
284.383
299.487
304.123
316.545
314.337
288.183
251.533
284.089
314.391
315.21
305.836
292.647
263.333
242.881
256.613
293.444
305.025
299.141
291.326
278.761
264.993
276.875
289.22
300.192
326.851
326.215
323.781
317.321
322.455
325.574
327.162
341.295
341.934
340.24
337.957
340.928
342.587
341.878
327.042
325.723
322.367
314.66
321.211
325.392
327.101
298.276
290.176
277.685
267.381
277.833
290.481
299.558
303.74
298.095
256.796
243.996
258.969
293.812
303.841
265.427
250.981
241.664
239.253
241.426
248.319
263.779
285.748
286.106
279.874
266.033
278.189
281.485
288.163
329.436
326.215
324.67
317.949
324.706
328.335
326.934
341.977
342.268
340.373
337.719
340.361
342.718
342.666
329.872
329.561
319.497
310.045
318.456
324.875
329.053
284.585
281.256
284.712
278.634
285.522
285.64
285.193
260.977
251.976
241.883
239.313
242.987
248.464
262.044
307.866
309.943
312.298
316.057
322.954
332.685
348.096
295.813
299.741
304.518
310.304
316.899
323.405
333.177
302.451
298.657
296.22
295.483
296.416
298.351
300.77
332.64
329.766
325.993
321.695
317.205
312.908
307.084
302.627
298.933
296.485
295.333
295.836
296.758
298.765
294.472
298.875
304.229
310.611
320.985
324.685
334.876
308.455
310.465
312.664
316.656
323.716
333.794
349.046
326.802
326.239
326.511
330.488
334.362
338.925
347.586
317.394
322.036
325.972
331.658
333.546
336.759
346.447
307.03
304.769
304.086
304.846
307.167
309.676
313.579
333.451
330.883
327.685
323.593
319.538
315.424
311.206
306.818
304.417
303.54
304.054
307.076
308.771
312.816
315.798
320.593
325.203
331.456
333.452
336.718
346.427
325.889
325.816
326.253
329.761
331.769
337.792
351.848
330.421
327.094
325.778
325.274
327.309
334.029
336.886
317.327
318.802
321.68
325.423
326.755
329.6
336.765
309.602
308.428
307.58
307.729
309.923
311.509
315.266
333.855
331.48
329.874
325.958
320.119
317.975
314.248
309.115
307.848
306.875
306.779
308.982
310.7
314.851
316.605
317.861
320.448
324.281
325.973
329.067
336.976
330.216
326.811
325.516
324.859
325.749
329.104
339.761
322.518
320.182
318.281
316.293
318.701
322.71
331.478
309.57
310.126
311.97
313.94
315.569
317.348
325.769
312.005
309.942
308.39
307.621
308.365
309.624
313.285
333.802
331.508
330.547
326.437
321.65
320.036
316.638
311.43
309.531
307.838
307.007
307.864
309.116
312.839
309.376
310.047
311.972
314.387
315.919
318.081
326.142
319.397
316.364
313.816
311.271
312.719
322.851
327.938
308.176
301.13
292.133
288.753
291.617
300.034
315.927
305.221
305.543
307.566
308.093
310.375
313.974
320.905
314.653
312.411
310.587
308.254
307.877
308.406
309.846
334.976
332.532
331.502
328.842
325.276
321.81
319.981
314.841
312.203
310.168
307.709
307.396
307.86
309.297
305.146
305.383
307.143
308.025
310.563
313.785
320.437
308.537
304.78
298.549
296.11
299.989
308.259
320.577
295.908
287.954
284.199
275.147
273.096
281.2
309.707
304.388
305.356
308.001
307.67
307.536
308.883
314.862
323.485
320.405
318.084
316.12
313.991
310.692
307.781
339.109
336.625
335.601
333.861
331.188
328.224
324.437
323.586
320.675
318.237
315.832
314.114
310.512
307.55
304.338
305.269
307.923
307.756
307.427
308.477
314.702
300.073
290.388
286.014
275.336
269.358
273.067
312.186
266.571
265.637
262.977
262.043
262.815
265.15
295.397
292.63
293.188
293.746
294.906
299.053
302.238
312.198
328.206
325.485
325.608
326.832
326.84
319.618
310.789
339.982
338.143
337.792
338.449
337.505
334.364
328.798
327.933
326.153
325.457
326.904
327.074
319.543
310.639
291.427
292.869
293.107
295.727
298.809
301.893
311.968
266.346
265.508
262.779
262.139
262.992
267.28
294.742
348.848
332.024
326.542
315.715
312.98
311.502
309.99
328.721
322.569
316.165
309.875
304.528
299.791
295.835
300.889
298.081
296.308
295.444
296.245
298.651
302.382
307.695
312.98
318.041
322.571
326.661
330.21
332.902
299.778
296.451
295.53
294.816
295.995
298.685
302.607
332.367
323.762
320.107
309.935
303.792
298.792
294.717
346.097
335.077
329.025
317.196
313.112
310.797
308.973
348.568
335.826
331.007
327.663
325.75
325.713
326.312
346.103
336.051
333.081
331.167
324.684
320.336
315.892
312.618
308.812
306.58
303.73
303.298
304.2
306.611
311.231
315.664
318.101
324.338
328.565
331.144
333.497
312.562
308.794
306.743
304.085
303.89
304.813
307.161
346.707
337.22
333.708
331.564
325.235
321.47
317.172
352.799
337.864
333.364
329.271
325.754
325.691
326.588
340.677
333.619
330.431
327.104
326.907
327.555
330.712
336.165
328.111
325.253
323.959
320.672
317.922
316.548
315.138
310.729
309.103
306.875
306.78
307.605
308.759
314.414
318.212
320.166
325.006
330.511
331.792
333.918
314.306
310.865
309.125
306.938
306.911
307.882
309.491
338.286
330.3
327.146
325.47
321.524
318.998
317.462
337.806
335.302
329.155
326.276
326.217
326.998
330.058
327.421
318.855
313.568
312.015
314.929
317.565
320.493
326.981
318.218
316.074
313.913
311.258
309.326
308.681
312.552
309.329
307.928
307.121
307.856
309.262
310.906
316.378
319.973
321.547
325.848
330.939
331.559
333.944
312.506
308.931
307.767
306.914
307.546
309.39
311.942
326.465
317.725
315.644
313.331
312.648
309.456
308.56
332.882
324.563
320.88
317.931
319.639
321.414
324.002
321.455
308.742
299.751
298.824
300.864
306.118
310.665
319.62
312.791
309.984
307.401
306.779
304.932
304.668
309.54
308.126
307.609
308.048
310.686
312.389
315.082
320.043
321.507
325.167
328.027
331.468
332.105
334.775
309.269
307.957
307.515
307.715
309.788
312.515
315.197
320.487
314.125
309.652
307.733
307.498
305.484
304.729
316.019
300.407
291.738
292.681
298.76
303.597
307.592
304.128
273.33
273.29
273.212
285.805
291.846
299.472
315.855
308.879
306.98
307.273
307.484
304.608
303.467
307.596
310.525
313.936
316.298
318.394
321.053
324.288
324.337
327.985
331.033
333.655
335.282
336.276
338.686
307.529
310.292
313.956
315.316
317.795
320.221
323.295
314.355
308.56
307.396
307.359
307.838
304.689
303.366
309.315
281.957
269.58
273.078
286.14
290.296
299.46
295.373
265.674
263.563
261.479
262.336
265.863
267.513
311.729
301.082
297.824
293.935
292.859
292.163
290.833
310.637
319.392
326.84
327.095
326.003
325.95
328.401
328.817
334.311
337.394
338.215
337.245
338.024
339.903
310.301
319.662
326.845
327.027
326.118
325.965
328.256
311.514
301.305
298.839
293.363
292.239
291.921
290.757
295.307
265.751
264.127
263.185
264.957
265.031
266.108
356.532
352.922
356.827
359.67
362.787
359.993
353.527
337.48
335.3
340.427
337.971
341.728
338.156
334.31
306.885
299.559
300.57
304.469
302.166
303.63
302.834
300.994
300.144
300.504
301.512
302.523
303.388
305.332
302.721
302.115
300.531
300.26
303.59
301.275
301.441
343.028
331.543
337.529
338.965
338.303
338.506
334.533
359.769
353.263
355.812
358.073
361.988
359.374
353.825
374.559
372.858
372.268
371.662
369.867
367.042
357.099
363.415
362.323
361.315
361.089
359.281
355.764
349.916
317.649
314.634
316.586
318.003
317.241
315.849
313.852
307.303
306.355
307.243
307.793
308.324
309.092
310.148
317.464
314.768
316.1
317.564
317.179
316.028
313.997
359.997
361.186
360.585
360.915
359.607
356.146
349.874
374.956
374.69
373.511
374.223
371.818
367.532
358.934
369.369
368.691
369.024
365.479
357.42
353.328
348.351
362.112
361.179
359.504
356.936
351.799
345.312
338.44
325.968
323.644
323.323
322.777
320.935
318.335
316.608
310.051
309.601
310.417
311.165
311.14
311.834
313.178
328.993
322.504
322.536
322.435
320.812
318.786
316.144
356.363
360.12
359.299
358.369
353.39
347.173
341.016
371.484
370.07
369.409
366.955
359.723
354.711
345.911
364.767
362.416
356.08
347.347
349.391
344.536
338.591
354.646
353.339
350.132
345.791
341.698
338.253
332.219
324.126
323.09
322.752
321.343
318.666
316.73
314.214
312.287
311.764
312.263
312.384
312.796
313.998
315.267
323.073
321.894
321.984
321.032
318.475
316.392
314.006
353.204
353.618
350.866
347.696
342.763
337.128
332.26
361.231
364.583
356.837
350.886
350.795
346.529
340.74
350.327
350.005
345.687
339.575
333.701
334.675
332.709
346.091
345.329
341.617
339.035
333.895
329.577
324.314
322.526
321.672
320.682
318.488
316.85
314.452
312.113
313.654
312.822
313.251
313.851
314.532
315.057
316.632
325.969
321.384
319.299
318.095
316.472
314.126
311.516
344.205
344.568
341.786
339.489
334.492
331.581
325.055
351.991
348.769
349.723
343.961
333.404
334.95
332.224
343.386
346.126
341.129
329.079
328.779
329.321
325.887
339.523
338.201
335.414
332.325
328.832
327.029
322.728
316.728
315.528
313.982
312.607
311.724
309.8
308.343
314.263
314.095
314.842
314.993
315.924
317.558
320.767
316.662
315.65
313.868
312.281
311.532
309.855
308.203
339.871
337.897
335.81
332.754
328.958
326.479
322.73
346.161
342.403
338.536
332.798
327.879
327.208
325.284
338.435
338.061
333.648
325.057
325.761
321.943
319.816
336.112
334.948
332.526
329.98
326.89
324.341
321.299
319.053
318.077
315.867
310.1
308.715
308.35
307.33
315.469
315.58
315.871
316.278
315.769
318.342
322.443
322.97
319.629
316.361
310.732
308.935
308.431
307.328
335.43
334.618
332.601
330.375
327.052
324.389
321.233
337.774
337.487
335.815
327.651
325.427
322.247
318.827
330.541
330.002
328.295
322.878
322.511
318.203
314.771
328.908
327.795
326.765
324.932
323.39
322.665
320.423
314.665
313.062
310.848
307.532
305.45
306.122
306.317
312.974
312.438
312.121
312.372
312.222
313.423
315.677
314.605
312.918
310.786
308.157
305.409
306.135
306.164
328.991
327.917
326.974
325.029
323.443
322.518
320.216
330.27
330.066
329.774
313.426
323.181
318.755
315.207
293.363
292.979
294.662
292.497
292.437
291.643
291.722
316.615
316.288
315.918
316.215
316.52
315.972
316.642
308.428
306.949
306.074
304.847
304.658
305.796
304.427
306.087
307.575
307.301
307.67
308.81
309.699
311.139
306.579
306.801
305.987
304.876
304.487
305.626
304.429
316.679
316.433
316.07
316.314
316.537
316.084
316.811
293.76
293.639
294.509
292.386
292.676
291.748
292.014
281.934
281.857
282.26
282.021
282.265
282.77
282.828
309.051
309.281
309.162
309.261
309.473
309.161
309.286
301.724
302.821
303.093
302.997
303.696
304.045
303.454
304.681
303.049
302.931
302.881
303.446
303.87
308.115
303.096
302.137
302.722
302.36
303.215
303.921
302.932
308.974
309.199
309.142
309.253
309.362
309.107
309.329
281.939
282.03
282.263
282.094
282.429
282.799
282.981
278.363
278.295
278.374
278.781
278.693
278.823
278.851
304.992
304.913
304.9
304.801
304.947
304.848
305.112
301.44
302.749
302.85
302.743
303.097
302.994
303.164
301.994
302.857
302.805
302.633
302.833
303.052
302.045
302.653
301.973
302.448
302.2
302.549
303.062
302.664
304.905
304.83
304.893
304.826
304.878
304.826
305.147
278.324
278.452
278.284
278.661
278.908
278.765
279.018
276.623
276.534
276.573
276.886
276.613
276.88
276.7
303.213
303.226
303.208
303.071
303.093
303.044
303.209
300.153
300.924
300.659
300.568
300.459
299.996
300.313
300.519
302.057
302.102
301.738
301.164
300.932
300.646
300.855
300.715
300.652
300.382
300.102
300.15
300.047
303.251
303.175
303.226
303.151
303.113
303.097
303.334
276.631
276.787
276.526
276.812
276.816
276.831
276.92
277.5
277.455
277.467
277.788
277.488
277.796
277.53
303.201
303.21
303.201
303.105
303.174
303.125
303.196
303.104
303.388
303.166
303.113
303.066
302.818
302.649
298.9
300.608
300.613
300.241
299.585
299.254
295.819
303.436
303.509
303.301
303.022
302.848
302.857
302.661
303.199
303.126
303.197
303.136
303.14
303.142
303.154
277.492
277.748
277.435
277.788
277.791
277.815
277.857
292.725
292.727
292.725
292.083
292.712
292.07
292.684
305.104
305.105
305.107
304.993
305.096
304.996
305.096
302.437
302.525
302.381
302.362
302.338
302.215
301.92
288.52
289.681
289.48
289.26
288.859
288.555
287.466
302.51
302.748
302.588
302.272
302.187
302.23
301.997
305.083
304.974
305.079
304.976
304.971
304.974
304.973
292.688
292.075
292.706
292.076
292.075
292.065
292.058
352.918
358.917
363.123
363.349
364.196
358.887
342.988
336.401
339.474
344.589
344.155
341.828
338.993
328.129
301.251
303.86
302.204
303.629
306.833
300.12
305.16
305.151
303.402
302.441
301.974
301.477
300.684
301.667
299.54
300.689
301.529
302.104
302.343
300.377
302.666
337.632
341.506
343.87
343.3
343.643
336.532
331.885
353.196
359.57
363.069
361.623
360.779
356.416
343.383
357.913
365.314
370.514
374.399
375.634
375.057
368.841
350.239
355.853
359.839
362.586
363.119
362.222
357.183
314.871
317.226
318.699
319.715
319.004
316.565
316.159
310.156
309.182
308.485
308.155
307.461
306.616
307.507
314.446
316.756
318.481
319.825
319.587
318.493
324.932
349.824
355.503
359.176
361.173
361.789
361.418
353.836
356.876
366.529
370.073
372.793
373.625
374.137
370.234
347.234
357.116
357.468
361.215
367.838
368.022
368.049
339.239
346.144
351.622
356.689
358.422
358.707
356.86
316.487
319.35
322.158
324.355
324.147
323.177
322.297
313.024
312.065
311.555
311.371
311.117
310.502
311.65
316.274
319.456
322.001
324.247
324.887
324.722
324.752
339.204
345.223
351.572
356.228
359.197
360.071
358.693
348.73
353.108
357.139
361.663
366.913
368.876
368.656
338.533
342.326
346.766
354.48
355.305
359.397
365.193
331.12
335.736
340.581
345.675
349.811
352.035
350.288
314.723
317.443
319.749
321.944
324.34
325.687
328.891
315.694
314.188
312.933
312.76
312.623
312.496
313.18
314.165
316.762
319.283
320.843
323.003
324.307
323.416
331.874
337.103
340.93
346.167
350.792
352.716
355.186
340.412
346.604
345.055
354.828
359.602
359.062
365.831
330.224
335.229
335.457
340.544
345.999
348.6
353.918
326.029
331.76
334.795
337.842
341.486
345.756
346.9
312.394
315.001
317.761
319.834
321.724
324.392
327.607
316.791
315.288
314.813
314.066
313.833
313.256
313.719
311.684
314.254
316.69
318.963
320.279
321.163
321.025
325.237
331.448
334.278
337.777
342.024
345.571
346.179
330.646
337.506
337.315
338.716
346.83
353.818
355.395
325.569
329.364
331.224
334.656
342.198
344.221
348.323
323.132
327.285
329.471
333.241
336.125
338.379
342.849
308.607
310.416
312.109
313.605
314.272
316.275
318.129
320.736
317.605
316.039
315.127
314.824
314.256
314.423
308.239
309.905
311.421
312.766
313.874
316.547
319.318
323.015
327.074
329.107
333.271
335.983
338.065
338.507
326.267
326.394
327.596
333.311
342.645
341.402
344.034
318.877
321.957
324.337
330.955
335.774
336.553
338.197
321.715
324.786
327.405
331.086
333.407
335.17
336.245
307.533
308.71
309.335
311.446
315.159
318.465
320.453
322.407
318.367
315.887
316.334
315.807
315.364
315.362
307.356
308.474
309.01
310.53
315.564
318.085
318.837
321.507
324.579
327.129
331.263
332.981
335.131
335.331
319.124
322.391
324.518
331.581
335.594
337.088
338.53
315.138
318.178
321.19
326.503
328.348
329.078
328.546
320.683
322.878
323.768
325.765
327.43
328.29
328.836
306.319
306.174
305.619
308.065
311.238
313.635
314.84
317.752
313.414
312.187
312.373
312.195
312.521
313.459
306.188
306.251
305.478
307.277
310.739
313.077
315.913
320.499
322.741
323.57
325.672
326.922
328.212
327.965
314.736
318.438
321.097
327.993
327.898
329.257
328.998
291.76
291.526
292.492
292.506
294.025
293.382
294.149
316.618
316.071
316.504
316.298
316.093
316.447
316.802
304.37
305.283
304.076
304.539
305.818
306.704
307.347
307.49
309.428
308.569
307.448
306.935
307.115
305.566
304.902
305.582
304.767
304.926
305.889
306.957
306.469
316.673
316.13
316.523
316.32
315.991
316.345
316.848
292.15
291.896
292.838
292.408
294.891
292.776
293.854
283.023
282.616
282.211
282.013
282.268
281.955
282.104
309.174
309.197
309.386
309.305
309.045
309.138
309.066
303.282
303.523
302.56
301.928
302.159
302.333
303.498
305.778
303.582
303.183
302.897
303.006
303.203
303.912
302.148
303.598
303.521
303.21
303.323
303.122
302.49
309.337
309.196
309.363
309.274
309.121
309.184
309.037
282.875
282.637
282.399
281.879
282.255
281.843
281.977
278.961
278.504
278.626
278.645
278.478
278.44
278.475
305.036
304.914
304.902
304.788
304.796
304.885
304.935
302.994
302.792
302.169
301.827
301.965
302.154
302.577
302.14
302.817
302.6
302.695
303.006
303.162
300.776
302.139
302.746
302.84
302.936
303.183
303.099
301.803
305.066
304.893
304.886
304.922
304.906
304.836
304.906
278.848
278.583
278.909
278.434
278.265
278.191
278.276
276.893
276.537
276.527
276.768
276.755
276.74
276.822
303.282
303.189
303.148
303.153
303.16
303.195
303.324
300.228
300.178
300.352
300.23
300.219
300.313
299.906
300.342
300.945
301.08
301.749
302.296
302.438
299.919
300.364
300.078
300.185
300.565
301.093
301.159
299.792
303.303
303.12
303.075
303.215
303.226
303.22
303.256
276.723
276.624
276.858
276.514
276.48
276.471
276.569
277.854
277.461
277.451
277.753
277.731
277.71
277.771
303.14
303.223
303.2
303.137
303.136
303.136
303.153
302.585
302.934
303.098
302.985
302.96
302.972
302.596
298.506
299.354
299.519
300.058
300.554
300.691
295.927
302.953
302.881
302.888
303.084
303.452
303.489
302.687
303.167
303.183
303.111
303.204