/*--------------------------------*- C++ -*----------------------------------*\
  =========                 |
  \\      /  F ield         | OpenFOAM: The Open Source CFD Toolbox
   \\    /   O peration     | Website:  https://openfoam.org
    \\  /    A nd           | Version:  6
     \\/     M anipulation  |
\*---------------------------------------------------------------------------*/
FoamFile
{
    version     2.0;
    format      ascii;
    class       volVectorField;
    location    "0.0025";
    object      U;
}
// * * * * * * * * * * * * * * * * * * * * * * * * * * * * * * * * * * * * * //

dimensions      [0 1 -1 0 0 0 0];

internalField   nonuniform List<vector> 
3773
(
(26.5749 -0.0893298 0.136548)
(26.473 -0.00736308 0.0995911)
(26.4853 0.0358068 0.0804418)
(26.4923 0.00944965 0.0872909)
(26.4824 0.0174378 0.0890574)
(26.477 0.0372504 0.0877086)
(26.5861 0.0749066 0.12606)
(9.42318 0.0198985 0.044005)
(9.40388 -0.0348298 0.0531496)
(9.40256 -0.0281921 0.0649467)
(9.40189 0.020615 0.0645868)
(9.4011 0.0256596 0.0659514)
(9.40518 0.027738 0.0870539)
(9.42812 -0.00388924 0.0922193)
(3.9457 0.0389949 0.0311452)
(3.9441 -0.00835982 0.041089)
(3.94406 -0.0280863 0.052253)
(3.94393 0.0183215 0.0500811)
(3.94394 0.0299276 0.0521516)
(3.94387 0.0147749 0.0706642)
(3.94665 -0.0157354 0.0554425)
(2.41954e-05 0.00874522 0.0424334)
(8.39924e-06 0.0256002 0.0395166)
(-5.1811e-05 0.0250438 0.0421232)
(-4.88958e-05 -0.0121653 0.0413768)
(-0.000147244 -0.0416284 0.0389022)
(-0.000138712 -0.0436604 0.0285729)
(-8.02388e-05 -0.0218652 0.0328689)
(-3.94712 0.0303326 0.0341823)
(-3.94477 -0.0168031 0.0383592)
(-3.94517 -0.0352689 0.0458286)
(-3.94496 0.00656075 0.0455471)
(-3.94499 0.0191172 0.0475666)
(-3.94489 0.0103649 0.0631884)
(-3.94753 -0.0135216 0.0496783)
(-9.43313 0.00953134 0.035133)
(-9.41267 -0.0440383 0.0518384)
(-9.41156 -0.0320408 0.0677542)
(-9.41027 0.00888102 0.0597194)
(-9.40915 0.0171409 0.0636685)
(-9.41052 0.0288384 0.0843877)
(-9.43269 -0.000881081 0.0927415)
(-26.5757 -0.0627476 0.148784)
(-26.4941 -0.0135255 0.108211)
(-26.4999 0.00251071 0.103594)
(-26.5059 -0.0183543 0.114372)
(-26.5015 -0.0198723 0.0988679)
(-26.4869 0.00757293 0.0930588)
(-26.5907 0.055971 0.140016)
(25.0392 -0.0974176 0.396371)
(24.9047 -0.0416432 0.328264)
(24.8689 0.0083894 0.303732)
(24.8595 0.0140067 0.310951)
(24.8875 0.0252444 0.318916)
(24.9211 0.0517921 0.345814)
(24.9173 0.0850983 0.40133)
(8.86113 0.0220601 0.0415659)
(8.97208 -0.03952 0.0678643)
(8.97265 -0.0414539 0.0948537)
(8.96919 0.0233125 0.0896569)
(8.96544 0.0459356 0.0824445)
(8.97999 0.0444445 0.113165)
(8.89508 -0.000468953 0.0946999)
(3.8 0.0429406 0.0534011)
(3.77572 -0.000186067 0.0564622)
(3.7751 -0.0262576 0.0806683)
(3.7761 0.0186686 0.0738569)
(3.77925 0.0413919 0.072907)
(3.77562 0.0198164 0.0986942)
(3.8003 -0.0206029 0.0762474)
(2.77014e-05 0.00564261 0.0443978)
(3.06012e-05 0.0282632 0.0367992)
(-4.53825e-05 0.0295931 0.0367231)
(-5.29328e-05 -0.0148458 0.0370991)
(-0.000149974 -0.048037 0.0352065)
(-0.0001308 -0.0460373 0.0179807)
(-8.27632e-05 -0.0194662 0.0246963)
(-3.80418 0.032611 0.0508633)
(-3.79802 -0.0141569 0.0518212)
(-3.78271 -0.035062 0.0682234)
(-3.781 0.00774394 0.0657781)
(-3.77955 0.0297259 0.0654553)
(-3.77896 0.0139563 0.0871333)
(-3.80394 -0.0185254 0.0681531)
(-8.87604 0.0195567 0.0378102)
(-8.8577 -0.044358 0.0685416)
(-8.95778 -0.0483424 0.101292)
(-8.96267 0.0103561 0.0748451)
(-8.9632 0.0378315 0.081517)
(-8.97968 0.0446091 0.113267)
(-8.88463 0.00177166 0.0931177)
(-24.9773 -0.0670977 0.418364)
(-24.9657 -0.0443683 0.353353)
(-24.8752 -0.0192582 0.344587)
(-24.8793 -0.015899 0.371947)
(-24.8689 -0.0186495 0.333683)
(-24.901 0.0218951 0.335005)
(-24.9211 0.0675305 0.416474)
(24.7814 -0.114734 0.354358)
(24.7837 -0.0608213 0.2957)
(24.6771 0.010619 0.259978)
(24.6871 0.0183393 0.262433)
(24.7425 0.0340824 0.287502)
(24.8414 0.0710703 0.352023)
(24.7718 0.0987123 0.390054)
(8.79465 0.0261186 0.0774877)
(8.88781 -0.0280764 0.103296)
(8.82426 -0.0354034 0.131599)
(8.80956 0.0167212 0.124166)
(8.80999 0.0424573 0.103291)
(8.89623 0.0376379 0.0984907)
(8.81071 -0.00600635 0.0617206)
(3.80008 0.0407286 0.0936189)
(3.77378 0.000822578 0.0771479)
(3.79854 -0.0235929 0.106089)
(3.79872 0.0151564 0.0968719)
(3.79645 0.0432032 0.0938774)
(3.76942 0.0213623 0.10295)
(3.79987 -0.0233228 0.0896506)
(4.23892e-05 0.0054204 0.0372131)
(3.82204e-05 0.0253755 0.0341079)
(-3.70092e-05 0.0276395 0.0165762)
(-6.13132e-05 -0.0143336 0.0162947)
(-0.000158114 -0.0508881 0.0129819)
(-0.000119277 -0.0482008 0.0116646)
(-8.59197e-05 -0.0194766 0.0203256)
(-3.80037 0.0315991 0.0833725)
(-3.76946 -0.012531 0.0724796)
(-3.78518 -0.0335831 0.0923914)
(-3.79627 0.0057904 0.0881928)
(-3.79761 0.0313506 0.0825131)
(-3.78346 0.0150855 0.0960635)
(-3.80019 -0.0207145 0.083549)
(-8.80284 0.0193526 0.0859614)
(-8.89412 -0.0339728 0.10082)
(-8.86945 -0.0466062 0.129411)
(-8.80927 0.00229634 0.100085)
(-8.82827 0.0397037 0.104357)
(-8.86414 0.0375903 0.103357)
(-8.81071 -0.00547884 0.058951)
(-24.7604 -0.0883311 0.384127)
(-24.832 -0.0606715 0.333934)
(-24.6865 -0.00603535 0.309532)
(-24.662 -0.0193985 0.341844)
(-24.6753 -0.0325092 0.299731)
(-24.7975 0.0410726 0.328038)
(-24.7678 0.0894039 0.398348)
(24.7497 -0.126146 0.249386)
(24.8597 -0.0728099 0.236933)
(24.8009 0.00825343 0.211842)
(24.8073 0.0218702 0.201306)
(24.7855 0.0508028 0.215819)
(24.817 0.086691 0.273762)
(24.755 0.105352 0.284586)
(8.7958 0.0281939 0.0746308)
(8.93448 -0.0153435 0.0770137)
(8.91259 -0.0277564 0.111005)
(8.8986 0.00997241 0.105343)
(8.8411 0.0332914 0.0855498)
(8.91026 0.0268794 0.0743047)
(8.80206 -0.0102019 0.0501249)
(3.80026 0.0368312 0.0952479)
(3.76124 0.00343646 0.0788728)
(3.77121 -0.018899 0.116345)
(3.7745 0.0134092 0.107378)
(3.78835 0.0449032 0.10727)
(3.75958 0.020136 0.10558)
(3.79912 -0.0250028 0.0957137)
(5.38516e-05 0.00810742 0.0422745)
(5.78592e-05 0.0208561 0.0412008)
(-4.12949e-05 0.0202178 0.0109156)
(-7.2759e-05 -0.0161396 0.00610263)
(-0.000157365 -0.0501823 0.00141976)
(-9.86374e-05 -0.0439254 0.0184806)
(-8.3293e-05 -0.0181237 0.0338093)
(-3.80066 0.0286873 0.0891009)
(-3.75639 -0.00963615 0.076135)
(-3.78665 -0.0290452 0.100277)
(-3.80157 0.00383514 0.0942766)
(-3.79032 0.0338028 0.0878311)
(-3.75856 0.0165764 0.100631)
(-3.79969 -0.023484 0.0873043)
(-8.79884 0.0193883 0.0762602)
(-8.93151 -0.0245507 0.0742036)
(-8.85196 -0.0435763 0.103467)
(-8.79839 -0.00163378 0.0917307)
(-8.85374 0.037622 0.0863012)
(-8.91986 0.0267859 0.076341)
(-8.80199 -0.0115352 0.049245)
(-24.7454 -0.0993935 0.274442)
(-24.8317 -0.0683177 0.2672)
(-24.7934 -0.00250908 0.243576)
(-24.6432 -0.0234544 0.231336)
(-24.7572 -0.0320431 0.242638)
(-24.816 0.0567415 0.27514)
(-24.7506 0.100472 0.291832)
(24.753 -0.120387 0.163758)
(24.788 -0.0723514 0.219996)
(24.7724 0.000921366 0.208802)
(24.7165 0.0185591 0.192337)
(24.762 0.0618264 0.185252)
(24.7901 0.0952045 0.200407)
(24.7483 0.103885 0.187812)
(8.79919 0.02727 0.080148)
(8.9289 -0.0116111 0.054755)
(8.93279 -0.0239797 0.079711)
(8.93813 0.00618001 0.0786339)
(8.93608 0.0298987 0.0727839)
(8.92311 0.0221387 0.076658)
(8.80202 -0.015131 0.0651999)
(3.8006 0.0340033 0.0939273)
(3.76818 0.00903385 0.0829373)
(3.76283 -0.0132446 0.11818)
(3.77146 0.0117174 0.10799)
(3.76617 0.0444515 0.105235)
(3.75433 0.0169599 0.102581)
(3.79956 -0.0266143 0.094447)
(6.88215e-05 0.00689739 0.0481176)
(8.37169e-05 0.0134048 0.0383091)
(-2.7786e-05 0.0122873 0.0140059)
(-7.12081e-05 -0.017635 0.00720283)
(-0.000147578 -0.0450869 0.0117379)
(-8.1666e-05 -0.0349521 0.0289598)
(-7.57414e-05 -0.0132984 0.0420326)
(-3.80095 0.0259503 0.0919748)
(-3.76194 -0.00762591 0.083732)
(-3.7687 -0.0264021 0.10544)
(-3.78167 0.00129689 0.0988691)
(-3.78309 0.0344339 0.0873364)
(-3.75828 0.0152067 0.095266)
(-3.80008 -0.0258233 0.0863573)
(-8.80237 0.0187242 0.0775033)
(-8.93261 -0.0201474 0.0558578)
(-8.92236 -0.0383032 0.0900618)
(-8.87661 -0.0045969 0.0850133)
(-8.88303 0.0322065 0.069941)
(-8.91537 0.0219668 0.0776299)
(-8.80318 -0.0162123 0.0651387)
(-24.753 -0.0942234 0.174485)
(-24.7953 -0.0676848 0.207007)
(-24.7825 -0.0121375 0.197068)
(-24.7003 -0.0211059 0.168331)
(-24.7215 -0.0177643 0.217933)
(-24.8005 0.0611028 0.216179)
(-24.7469 0.0971421 0.194714)
(24.7562 -0.103459 0.0650884)
(24.7955 -0.0551733 0.17844)
(24.5871 -0.00267987 0.13912)
(24.8065 0.0132692 0.148553)
(24.818 0.0516571 0.136723)
(24.7858 0.0881812 0.117796)
(24.7523 0.100595 0.0754295)
(8.80902 0.0189539 0.099652)
(8.9402 -0.0150496 0.0679098)
(8.97423 -0.018393 0.106313)
(8.93145 0.00721707 0.101857)
(8.93737 0.0283376 0.102458)
(8.93535 0.0230181 0.11921)
(8.81009 -0.0156075 0.116883)
(3.8017 0.0320527 0.103816)
(3.76347 0.0142004 0.0893808)
(3.76496 -0.00880322 0.11279)
(3.75827 0.00815563 0.108433)
(3.7583 0.0414751 0.104112)
(3.75563 0.0152702 0.104211)
(3.80065 -0.0285944 0.101136)
(8.23169e-05 0.00310887 0.0429195)
(9.29416e-05 0.0060333 0.0370446)
(-3.5452e-05 0.00752148 0.0243722)
(-6.89452e-05 -0.0163952 0.0189887)
(-0.000129555 -0.0403831 0.0272612)
(-4.61003e-05 -0.0312792 0.0311974)
(-6.39461e-05 -0.0110137 0.0370051)
(-3.80195 0.0248365 0.097121)
(-3.76903 -0.00422637 0.081487)
(-3.76183 -0.0234444 0.108966)
(-3.76516 -0.00332401 0.103732)
(-3.76104 0.03131 0.0958012)
(-3.77095 0.013533 0.100712)
(-3.80105 -0.0272252 0.09972)
(-8.8128 0.0111946 0.0968512)
(-8.97182 -0.0172737 0.0838596)
(-8.94368 -0.031381 0.113718)
(-8.97618 -0.00928557 0.114453)
(-8.9394 0.0342687 0.0894996)
(-8.89729 0.0240678 0.118731)
(-8.81078 -0.0166746 0.108036)
(-24.7568 -0.0852044 0.0738331)
(-24.6139 -0.0564999 0.140494)
(-24.7895 -0.0160797 0.12703)
(-24.591 -0.014615 0.104188)
(-24.8501 -0.0148786 0.180088)
(-24.7896 0.0470321 0.121091)
(-24.7516 0.0927615 0.0792765)
(24.8079 -0.0822273 0.112724)
(24.5604 -0.0397981 0.175836)
(24.7795 -0.00860846 0.149418)
(24.7754 0.0166066 0.160346)
(24.7763 0.0429271 0.156968)
(24.7943 0.0732494 0.1514)
(24.8072 0.0916972 0.11793)
(8.92441 0.0122374 0.03063)
(8.96382 -0.00928833 0.0186733)
(8.93039 -0.00926657 0.0509057)
(8.91995 0.00410552 0.0429348)
(8.92075 0.0333102 0.042264)
(8.92903 0.0310641 0.0569288)
(8.92459 -0.0140207 0.0543951)
(3.766 0.0290112 0.0430515)
(3.77188 0.0141428 0.0315255)
(3.76024 -0.00506969 0.0402043)
(3.76493 0.00865727 0.0419336)
(3.75918 0.0424089 0.0406213)
(3.76464 0.0154648 0.0401425)
(3.75966 -0.0298785 0.0401999)
(9.12234e-05 0.00298684 0.00561081)
(0.000113722 0.00454013 0.00726707)
(-3.12331e-05 0.00583673 0.0018565)
(-6.69725e-05 -0.0162325 3.81552e-05)
(-0.000110777 -0.0420414 0.00330164)
(-1.82225e-05 -0.0331756 0.00102288)
(-5.14473e-05 -0.0113491 0.00285773)
(-3.76627 0.0204216 0.0368416)
(-3.80726 -0.0036792 0.0214446)
(-3.76557 -0.0180484 0.0397984)
(-3.76009 -0.00416613 0.0378695)
(-3.81458 0.0339734 0.0377168)
(-3.76591 0.0169461 0.041064)
(-3.75982 -0.0277221 0.0427208)
(-8.92611 0.0111583 0.0300476)
(-8.76842 -0.0166792 0.0382595)
(-8.92452 -0.0251029 0.0455287)
(-8.93069 -0.0149111 0.0515064)
(-8.81096 0.0346101 0.0322409)
(-8.92935 0.0300129 0.0511958)
(-8.92552 -0.0181228 0.0432511)
(-24.8183 -0.073725 0.119784)
(-24.7434 -0.0480387 0.162023)
(-24.7863 -0.0231149 0.151489)
(-24.7872 -0.000110981 0.138705)
(-24.5312 -0.0163763 0.186021)
(-24.8026 0.0180208 0.144723)
(-24.8135 0.0860806 0.118154)
(25.8893 -0.0547885 -3.34933)
(25.8807 -0.0227115 -3.32922)
(25.8822 -0.017624 -3.33563)
(25.884 -0.0491391 -3.33757)
(25.8861 -0.02756 -3.33385)
(25.8869 -0.038264 -3.31602)
(25.8893 -0.0103253 -3.33541)
(9.26961 0.0188785 -3.63527)
(9.26823 0.0151842 -3.63)
(9.26865 -0.00813006 -3.63375)
(9.26906 -0.0155807 -3.63718)
(9.26781 -0.00574807 -3.63733)
(9.26671 -0.00897197 -3.64092)
(9.26756 -0.0144496 -3.64702)
(3.96328 0.0149094 -3.83143)
(3.96263 0.00393116 -3.83655)
(3.9621 -0.00788399 -3.83345)
(3.96135 -0.00674937 -3.83054)
(3.96097 -0.0167939 -3.83314)
(3.96015 -0.0155978 -3.8334)
(3.95925 -0.008667 -3.83277)
(0.00316539 -0.00829371 -3.87837)
(0.00279087 -0.00229711 -3.87474)
(0.00215646 0.0104761 -3.87766)
(0.00140816 0.00311879 -3.87911)
(0.000624502 -0.00205898 -3.87954)
(-1.25014e-05 -0.000172328 -3.87924)
(-0.000336904 0.000536121 -3.87627)
(-3.9574 0.0144114 -3.81945)
(-3.95796 0.0251478 -3.81526)
(-3.95849 0.0229784 -3.81726)
(-3.95927 0.0129763 -3.8197)
(-3.95989 0.00488775 -3.82522)
(-3.96065 0.00138753 -3.82993)
(-3.96117 -0.00268758 -3.8374)
(-9.26465 0.0313087 -3.66454)
(-9.26418 0.00119111 -3.67258)
(-9.26601 -0.0180408 -3.66451)
(-9.26689 0.00797269 -3.66645)
(-9.26848 -0.000136292 -3.66476)
(-9.26902 -0.0104511 -3.66237)
(-9.26988 -0.0142398 -3.66744)
(-25.8809 0.0134149 -3.32068)
(-25.8858 0.00105353 -3.35559)
(-25.8856 -0.0277408 -3.3465)
(-25.8842 0.0102292 -3.34609)
(-25.8834 -0.000773032 -3.34602)
(-25.8825 -0.00595306 -3.34715)
(-25.8882 0.0206551 -3.34573)
(26.0064 -0.0268373 -9.91304)
(25.9986 -0.0025855 -9.89248)
(25.9996 -0.0290518 -9.89772)
(26.0034 -0.046779 -9.91346)
(26.0135 0.00409385 -9.90991)
(26.0128 -0.0403335 -9.91756)
(26.0116 -0.0380463 -9.92157)
(9.34078 0.0262684 -10.9668)
(9.3366 0.0180907 -10.9536)
(9.34094 -0.016776 -10.9622)
(9.35423 -0.0203257 -10.9654)
(9.34015 -0.0119613 -10.9623)
(9.34563 -0.0233447 -10.9545)
(9.35886 -0.0232261 -10.9729)
(3.94811 0.00691958 -11.346)
(3.94849 0.00037582 -11.3535)
(3.9474 0.000737788 -11.3483)
(3.94288 -0.00595054 -11.3418)
(3.94604 -0.020709 -11.3424)
(3.94292 -0.0158297 -11.3323)
(3.94029 -0.00836915 -11.3189)
(0.00253965 -0.00322017 -11.4463)
(0.00231908 -0.00142831 -11.4474)
(0.00182606 0.00390495 -11.4519)
(0.00123637 9.42413e-05 -11.4592)
(0.000665897 -0.00206029 -11.456)
(0.000248766 0.00485648 -11.4526)
(0.000134318 0.00491858 -11.4464)
(-3.947 0.0215025 -11.3075)
(-3.94537 0.028772 -11.3024)
(-3.94483 0.015669 -11.3044)
(-3.94437 0.000322012 -11.3096)
(-3.94379 -0.0109398 -11.3131)
(-3.94558 -0.0166752 -11.3254)
(-3.94578 -0.0136455 -11.3336)
(-9.33341 0.0201304 -10.9766)
(-9.32673 0.0016583 -10.9818)
(-9.33117 -0.00937359 -10.986)
(-9.33802 0.00788448 -10.9967)
(-9.34556 0.00503976 -11.007)
(-9.3422 -0.0160639 -11.0027)
(-9.34193 -0.0224689 -11.0049)
(-25.9268 -0.0360733 -9.91862)
(-26.0113 -0.0342242 -9.95739)
(-26.0098 -0.0129657 -9.94031)
(-26.0035 0.0127296 -9.93735)
(-26.004 -4.57369e-05 -9.93251)
(-25.9965 -0.00369801 -9.92288)
(-26.004 0.0238836 -9.9125)
(25.9385 -0.0256055 -16.2841)
(25.9309 0.0014554 -16.2653)
(25.9216 -0.044959 -16.2642)
(25.9468 -0.0600831 -16.2778)
(25.9731 -0.0195778 -16.3082)
(26.0341 -0.0566431 -16.3674)
(25.9474 -0.0248933 -16.2708)
(9.27458 0.0311062 -17.7517)
(9.27172 0.0236473 -17.7424)
(9.27552 -0.000298529 -17.7489)
(9.34694 -0.0173921 -17.8742)
(9.28821 -0.0062865 -17.7647)
(9.29741 0.00278841 -17.772)
(9.36091 -0.0157957 -17.8725)
(3.98135 0.00663715 -18.4636)
(3.98198 -0.00102838 -18.4685)
(3.9827 -0.00943365 -18.4739)
(3.96058 -0.000500316 -18.3765)
(3.97604 0.0024134 -18.4358)
(3.97006 -0.00126985 -18.3886)
(3.95684 -0.00227803 -18.328)
(0.00140623 -0.00937186 -18.4621)
(0.00119261 -0.0115614 -18.466)
(0.000911796 -0.00708068 -18.4713)
(0.000523039 -0.00502227 -18.483)
(0.000731737 0.00533374 -18.4744)
(0.000825228 0.0150246 -18.4672)
(0.000568337 0.00953012 -18.4679)
(-3.96676 0.0139924 -18.3481)
(-3.95689 0.0156493 -18.3087)
(-3.96071 0.00126377 -18.3312)
(-3.9558 -0.0125753 -18.3135)
(-3.96204 -0.0211936 -18.3456)
(-3.9716 -0.0246614 -18.3876)
(-3.97607 -0.0157334 -18.3981)
(-9.30795 0.0119285 -17.7181)
(-9.34577 -0.0156719 -17.7956)
(-9.33173 -0.0226088 -17.7842)
(-9.35876 0.0010238 -17.8449)
(-9.33615 0.000677363 -17.8092)
(-9.30572 -0.0129531 -17.7749)
(-9.28236 -0.0175289 -17.7362)
(-25.9692 -0.00515123 -16.3672)
(-25.9801 0.00667078 -16.361)
(-25.9693 -0.0035946 -16.3327)
(-25.9447 0.0174619 -16.3107)
(-25.944 0.0166268 -16.2966)
(-25.9176 0.0213127 -16.2662)
(-25.929 0.0375867 -16.2556)
(26.0796 -0.000510736 -22.9281)
(26.0794 0.016702 -22.8876)
(26.0706 -0.0484564 -22.8992)
(26.059 -0.0576057 -22.8775)
(26.079 -0.0250858 -22.8767)
(26.1054 -0.0331632 -22.8936)
(26.0759 -0.000401907 -22.8314)
(9.29754 0.0347924 -24.0579)
(9.27814 0.0263692 -24.0205)
(9.28395 -0.0259999 -24.0473)
(9.30555 -0.00931864 -24.079)
(9.32274 0.0201322 -24.1096)
(9.32937 -0.0046089 -24.1215)
(9.33272 -0.0170944 -24.1176)
(3.9763 0.00115327 -24.6854)
(3.98048 -0.00828344 -24.7107)
(3.9827 -0.00227174 -24.7165)
(3.97819 0.000615731 -24.7136)
(3.9714 0.00700318 -24.6533)
(3.96946 0.0200043 -24.6348)
(3.96949 0.00617025 -24.6282)
(0.00136067 -0.0149205 -24.7284)
(0.000431311 -0.0198054 -24.725)
(-0.000221712 -0.0105613 -24.719)
(7.56901e-05 -0.00791439 -24.743)
(0.000289959 0.0137533 -24.7394)
(0.000261767 0.0358411 -24.7417)
(0.000996956 0.0197967 -24.7473)
(-3.96026 0.0144265 -24.5441)
(-3.95741 0.0149626 -24.5245)
(-3.95517 -0.000785634 -24.5174)
(-3.95526 -0.0167825 -24.5346)
(-3.95666 -0.019352 -24.5396)
(-3.9726 -0.00516052 -24.63)
(-3.97989 -0.00127444 -24.6587)
(-9.3649 0.000449506 -24.0981)
(-9.38681 -0.0416041 -24.1512)
(-9.39506 -0.0501821 -24.1544)
(-9.39921 -0.0126439 -24.1648)
(-9.37864 -0.0225554 -24.1207)
(-9.32534 -0.0432288 -24.0341)
(-9.2949 -0.0254425 -23.9577)
(-26.0301 -0.013917 -22.8336)
(-26.0317 0.0180326 -22.8672)
(-26.0092 0.0205915 -22.7966)
(-25.9967 0.032018 -22.7485)
(-26.0481 0.0312627 -22.7815)
(-26.0394 0.0334469 -22.7764)
(-26.0531 0.0455959 -22.7779)
(26.2406 0.0494209 -29.9292)
(26.2001 0.0333808 -29.7373)
(26.2693 -0.0706904 -29.7297)
(26.2447 -0.00255439 -29.8802)
(26.2043 0.0136813 -29.6581)
(26.2859 -0.014267 -29.6427)
(26.2602 0.0249846 -29.5644)
(9.36904 0.0253029 -29.9581)
(9.33459 0.00888802 -29.7896)
(9.33917 -0.0258179 -29.8511)
(9.41552 0.0328639 -29.9797)
(9.34902 0.034522 -29.8071)
(9.39936 -0.010712 -29.9094)
(9.40348 -0.00373996 -29.9743)
(3.96357 0.00265259 -30.1028)
(3.97101 0.00394624 -30.1734)
(3.97509 -0.0141652 -30.215)
(3.95936 -0.0220908 -30.1141)
(3.96847 0.00807857 -30.2118)
(3.96152 0.0224304 -30.153)
(3.95116 0.00757599 -30.1053)
(0.00247979 -0.0153021 -30.2521)
(0.000187831 -0.0216804 -30.2767)
(-0.000192599 -0.0307681 -30.2635)
(-0.000508817 -0.0302342 -30.3037)
(0.000267325 0.0137061 -30.2991)
(-0.000237132 0.0259461 -30.3071)
(0.00109598 0.00571831 -30.3257)
(-3.97925 0.0143456 -30.2171)
(-3.96845 0.0145843 -30.1221)
(-3.96291 -0.0181378 -30.1018)
(-3.95655 -0.0275543 -30.0667)
(-3.95484 -0.0154662 -30.0953)
(-3.96508 -0.0069937 -30.1619)
(-3.95279 -0.000812753 -30.0641)
(-9.30874 -0.0123811 -29.5569)
(-9.38528 -0.027803 -29.7233)
(-9.40473 -0.0257091 -29.8048)
(-9.43563 -0.0202287 -29.8438)
(-9.39934 -0.06554 -29.8395)
(-9.39325 -0.0646082 -29.8688)
(-9.42009 -0.00937238 -29.9777)
(-26.2826 -0.0269991 -29.5272)
(-26.3256 0.0506367 -29.5524)
(-26.1286 0.11002 -29.529)
(-26.1309 0.0929081 -29.5572)
(-26.1951 0.0504652 -29.6944)
(-26.175 0.0374373 -29.5475)
(-26.1952 0.0470383 -29.5394)
(27.1135 0.246596 -37.735)
(26.6802 0.268183 -36.834)
(26.849 -0.206813 -36.8935)
(26.991 0.0768731 -37.2965)
(26.9618 0.339516 -36.8654)
(26.8661 0.109238 -36.7783)
(26.8675 0.0758154 -36.6249)
(9.5223 0.0961062 -35.0896)
(9.62063 0.0721989 -35.1763)
(9.64745 -0.0116358 -35.2639)
(9.57878 0.0843952 -35.2266)
(9.5293 0.0485352 -34.8011)
(9.55201 -0.0563168 -35.057)
(9.63617 -0.0348495 -35.2169)
(4.00656 -0.0181803 -34.6615)
(3.99356 -0.0345922 -34.5883)
(3.98274 -0.0365288 -34.566)
(3.98358 -0.0654073 -34.6138)
(4.01239 -0.0253124 -34.857)
(4.00181 -0.00116858 -34.6786)
(3.98592 -0.0212107 -34.5884)
(0.00659925 -0.0139318 -34.548)
(0.00531639 -0.0536901 -34.5965)
(0.00248181 -0.0752264 -34.6704)
(0.00151928 -0.0504561 -34.6928)
(0.0026232 0.0112434 -34.6913)
(0.00379568 0.034369 -34.6934)
(0.000640265 0.00542209 -34.7008)
(-3.98128 0.0140609 -34.5844)
(-3.98594 0.00516278 -34.5915)
(-3.98362 -0.029541 -34.6461)
(-3.98203 -0.0611776 -34.6765)
(-3.98685 -0.0434417 -34.7085)
(-4.00958 -0.00663817 -34.8033)
(-3.98272 -0.00430796 -34.5668)
(-9.55402 0.0242925 -34.7833)
(-9.54353 -0.0381081 -34.8298)
(-9.61484 -0.0714916 -35.0301)
(-9.58599 -0.119272 -35.0625)
(-9.59303 -0.232719 -35.1341)
(-9.54052 -0.124508 -35.0869)
(-9.6556 -0.00251619 -35.2818)
(-27.0129 -0.0323552 -36.8238)
(-27.0458 -0.140495 -36.8955)
(-27.0631 -0.152191 -36.82)
(-26.8288 -0.0910474 -36.9682)
(-26.8845 0.114172 -37.0095)
(-26.8038 0.245911 -37.1804)
(-26.8718 0.083708 -36.7231)
(28.4712 0.41682 -41.2533)
(28.1775 0.580103 -39.9109)
(28.1427 -0.0684825 -40.0733)
(28.9755 0.124288 -40.962)
(28.4032 0.37012 -40.0938)
(28.1031 0.177824 -40.0045)
(28.2991 0.148293 -39.7856)
(9.89384 0.141217 -39.7097)
(9.77511 0.107329 -38.8095)
(9.85548 -0.104458 -39.0778)
(9.79596 0.223382 -39.5086)
(9.72772 0.110451 -38.5035)
(9.8326 -0.147508 -39.2126)
(9.80675 0.0321183 -38.7274)
(4.01105 -0.0989113 -38.0316)
(4.02592 -0.169976 -38.3086)
(4.00343 -0.11079 -38.1608)
(4.01692 -0.130698 -38.2713)
(4.03231 0.0350316 -38.5254)
(4.02705 0.122494 -38.0627)
(4.01852 -0.0132983 -37.9271)
(0.00599309 -0.171759 -37.6345)
(0.00247235 -0.334846 -38.0762)
(0.00162323 -0.21084 -38.372)
(0.00391371 0.0401349 -38.2623)
(0.00196903 0.0445891 -38.0125)
(0.00101188 0.0317849 -38.3399)
(0.00348542 0.0592917 -38.3016)
(-4.00918 -0.0064197 -38.2306)
(-4.00999 -0.101693 -38.134)
(-4.00153 -0.162137 -38.0757)
(-4.00326 -0.0450838 -38.2025)
(-4.01903 0.107754 -38.1687)
(-4.03085 0.121156 -38.1643)
(-4.01491 0.0412788 -37.9354)
(-9.71951 -0.0795763 -38.7344)
(-9.72503 -0.154843 -38.8742)
(-9.76468 -0.141499 -38.8505)
(-9.77244 -0.191456 -38.9679)
(-9.75759 -0.35241 -38.9648)
(-9.80706 -0.112589 -39.3887)
(-9.81883 0.118614 -38.9288)
(-28.6498 -0.119476 -40.3365)
(-28.5204 -0.175074 -40.2317)
(-28.6286 -0.246697 -40.087)
(-28.9912 -0.138896 -40.4038)
(-28.9802 -0.138772 -40.4991)
(-28.4867 0.138223 -40.559)
(-27.8955 0.327412 -39.7339)
(26.3569 0.370253 -30.8299)
(26.4074 0.392179 -31.7514)
(26.4626 0.0757051 -32.139)
(26.4656 0.21118 -31.1048)
(26.4541 0.668213 -32.0929)
(26.3912 0.20315 -30.9966)
(26.3115 -0.193137 -32.5329)
(9.20935 -0.148622 -40.8915)
(9.13008 -0.266606 -41.1414)
(9.22226 0.00446813 -41.6624)
(9.07264 0.0837855 -40.7135)
(9.04886 0.348061 -41.5298)
(9.13412 0.420167 -40.571)
(9.14069 0.0862018 -41.2045)
(3.8811 -0.477077 -45.9602)
(3.94927 -0.704449 -46.4707)
(3.9381 -0.180479 -46.5704)
(3.95616 0.069617 -46.9228)
(3.98408 0.169832 -46.7963)
(3.94731 0.437431 -46.475)
(3.94082 0.319187 -46.1624)
(0.00493861 -0.365435 -47.2641)
(0.00458665 -0.438794 -47.3522)
(0.000923106 -0.171709 -47.2955)
(-0.00393283 -0.033715 -47.4099)
(0.000696558 0.414171 -47.6867)
(-0.00643352 0.662877 -46.9042)
(-0.00295599 0.308549 -46.4893)
(-3.87779 -0.28765 -46.0334)
(-3.92268 -0.433517 -46.4698)
(-3.95824 -0.251665 -46.8859)
(-3.95071 0.0957077 -46.8138)
(-3.94902 0.479034 -46.8397)
(-3.95326 0.501255 -46.557)
(-3.94927 0.200707 -46.2756)
(-9.19663 -0.227195 -41.5821)
(-9.24929 -0.471233 -41.5504)
(-9.1353 -0.461069 -41.8869)
(-9.16819 -0.0856181 -42.1876)
(-9.11593 0.327562 -41.3386)
(-9.12178 0.249306 -40.5889)
(-9.11791 0.0905422 -41.3136)
(-26.4528 0.104014 -32.6963)
(-26.4812 -0.051485 -31.8689)
(-26.5185 -0.301591 -32.4848)
(-26.5103 0.0179293 -32.5753)
(-26.5087 0.204485 -32.0797)
(-26.4361 -0.0506984 -30.7353)
(-26.3235 -0.0971463 -32.604)
(26.3924 0.174469 -40.9999)
(26.5833 -0.164106 -42.1929)
(26.6133 -0.818315 -43.8296)
(26.6065 0.110537 -44.8182)
(26.5816 1.06254 -43.9504)
(26.5142 0.467719 -42.696)
(26.1865 -0.0423956 -41.1212)
(9.33957 -0.693453 -45.2614)
(9.21751 -1.18599 -46.0534)
(9.23937 -0.897647 -47.1432)
(9.17617 0.0367146 -47.5183)
(9.13847 0.928478 -46.8564)
(9.13869 1.2426 -46.0618)
(9.35851 0.748736 -45.5307)
(3.92925 -0.887765 -46.2184)
(3.95819 -1.36918 -47.1362)
(3.94371 -0.740328 -47.6949)
(3.95747 0.00632142 -48.1327)
(3.96095 0.714208 -47.8892)
(3.97138 1.38303 -47.3558)
(3.946 0.916887 -46.2479)
(0.0042173 -0.914697 -46.129)
(0.00365117 -1.313 -46.8149)
(0.00119864 -0.618368 -47.3509)
(0.000446998 -0.00121847 -47.498)
(0.000191799 0.673332 -47.4583)
(-0.00118911 1.41273 -47.1141)
(0.000643989 0.935353 -46.2032)
(-3.95798 -0.872065 -46.4481)
(-3.95547 -1.31089 -47.0803)
(-3.94848 -0.644822 -47.6743)
(-3.95039 0.0290488 -47.9342)
(-3.94078 0.713744 -47.6541)
(-3.93008 1.38792 -46.9756)
(-3.96075 0.915447 -46.3078)
(-9.23747 -0.719782 -44.9481)
(-9.24714 -1.30832 -46.3667)
(-9.22756 -0.971761 -47.1156)
(-9.26582 -0.106344 -47.532)
(-9.24179 0.808224 -47.2926)
(-9.28509 1.27984 -46.5847)
(-9.32799 0.748282 -45.3515)
(-26.3971 0.00174536 -41.2997)
(-26.5734 -0.507873 -42.4072)
(-26.6096 -0.996339 -43.8796)
(-26.6097 -0.0193667 -44.616)
(-26.6097 0.875813 -43.9668)
(-26.5759 0.383376 -42.5674)
(-26.2457 -0.0279664 -40.9787)
(26.5414 -1.15019 -42.0918)
(26.8137 -3.46853 -49.9517)
(26.816 -2.93017 -54.4458)
(26.7796 0.0436677 -56.4811)
(26.7775 3.06883 -54.5159)
(26.7148 3.53976 -49.9092)
(26.3236 1.14315 -42.0197)
(9.38372 -1.66473 -44.7486)
(9.12516 -3.39817 -48.5937)
(9.15006 -2.00643 -51.0187)
(9.21853 0.00739187 -51.8984)
(9.12268 2.05798 -51.1854)
(9.1015 3.43961 -48.7162)
(9.40812 1.68527 -44.973)
(3.94505 -1.5315 -44.8764)
(3.95328 -2.76398 -47.342)
(3.93104 -1.28853 -48.1899)
(3.9412 0.00493046 -48.2872)
(3.93371 1.27739 -48.0795)
(3.95526 2.73656 -47.2979)
(3.95047 1.52292 -44.9648)
(0.00321393 -1.49487 -44.8187)
(0.00260037 -2.52249 -46.3176)
(0.00123154 -1.09881 -46.9004)
(0.000341664 -0.000823362 -46.9861)
(-0.000186191 1.11185 -46.9609)
(0.000127796 2.54024 -46.4063)
(0.00054382 1.49768 -44.8378)
(-3.9811 -1.5284 -45.2137)
(-3.94713 -2.72438 -47.3657)
(-3.93196 -1.24703 -48.3775)
(-3.93371 0.0640896 -48.5152)
(-3.92565 1.32136 -48.2044)
(-3.91791 2.71816 -47.147)
(-3.96068 1.51611 -45.1021)
(-9.24706 -1.63063 -44.3411)
(-9.1539 -3.43208 -48.679)
(-9.13495 -2.11656 -50.7305)
(-9.23215 -0.0495358 -51.5949)
(-9.16141 2.07323 -50.9328)
(-9.23697 3.48357 -48.9159)
(-9.34759 1.66934 -44.7094)
(-26.523 -1.21722 -42.24)
(-26.78 -3.60014 -49.8811)
(-26.8034 -3.04824 -54.3822)
(-26.7956 0.00311643 -56.4909)
(-26.7869 3.00171 -54.3898)
(-26.7637 3.48805 -49.8205)
(-26.4231 1.16401 -42.0092)
(26.8388 -4.11337 -37.2418)
(27.3235 -9.86421 -57.8343)
(27.2511 -6.95711 -71.3709)
(26.9816 0.0352545 -77.2829)
(27.1382 7.05161 -71.3644)
(27.1466 9.87746 -57.8011)
(26.5859 4.07838 -37.096)
(9.34709 -3.37227 -39.0088)
(9.10261 -7.56526 -51.0082)
(9.06238 -4.16026 -58.2498)
(9.2775 -0.0106577 -60.0452)
(9.11765 4.19042 -58.5894)
(9.11999 7.54075 -51.2951)
(9.37926 3.36442 -39.2374)
(3.93122 -2.15771 -39.676)
(3.94491 -4.89573 -46.158)
(3.91932 -2.15444 -48.5752)
(3.91128 -0.00253389 -48.9263)
(3.89811 2.10166 -48.3678)
(3.93457 4.85545 -46.0854)
(3.933 2.16895 -39.7228)
(0.00245596 -1.72891 -39.7367)
(0.00276182 -3.87132 -44.2869)
(0.000174782 -1.49955 -45.7667)
(0.00165304 0.0038365 -45.9287)
(-5.37988e-05 1.5057 -45.8189)
(-0.000402793 3.88662 -44.3198)
(-0.000427389 1.73671 -39.7114)
(-3.95217 -2.17697 -39.828)
(-3.95203 -4.90689 -46.2689)
(-3.90974 -2.12435 -48.6949)
(-3.91624 0.0671209 -49.0211)
(-3.90999 2.1565 -48.4852)
(-3.91146 4.84741 -46.0263)
(-3.95581 2.15231 -39.8646)
(-9.25853 -3.31328 -38.7482)
(-9.073 -7.50511 -50.7458)
(-9.05786 -4.16241 -57.8373)
(-9.23005 -0.0637215 -59.5728)
(-9.08857 4.14757 -58.2241)
(-9.20864 7.56063 -51.2096)
(-9.27593 3.33198 -38.8347)
(-26.7931 -4.12696 -37.1796)
(-27.2816 -9.89649 -57.7447)
(-27.2215 -7.02306 -71.2372)
(-27.0398 -0.0538302 -77.2723)
(-27.1573 6.97918 -71.2267)
(-27.2108 9.89574 -57.6646)
(-26.7276 4.14857 -37.0839)
(27.3614 -6.81108 -20.9462)
(28.3963 -16.1029 -70.6288)
(28.0599 -12.7801 -98.8907)
(26.9712 0.0891839 -108.546)
(27.8063 12.9184 -98.5963)
(28.0703 16.11 -70.5351)
(27.0187 6.7946 -20.8938)
(9.40685 -5.67592 -21.7914)
(9.29391 -13.8826 -55.4489)
(9.06284 -8.86286 -75.5692)
(9.21781 -0.0268568 -79.2538)
(9.15054 8.91665 -76.0471)
(9.31177 13.7798 -55.915)
(9.44664 5.63114 -22.023)
(3.95011 -3.02562 -26.5875)
(3.94382 -10.3347 -46.0726)
(3.89513 -4.85235 -53.9802)
(3.90433 -0.0169668 -54.5856)
(3.86756 4.72345 -53.6756)
(3.93869 10.2546 -45.9236)
(3.94858 3.02231 -26.6568)
(0.00158584 -1.56368 -28.9411)
(0.00226873 -8.01851 -42.8931)
(0.0034733 -3.05061 -47.2412)
(0.001919 -0.0268684 -47.37)
(0.000256545 3.03591 -47.2788)
(-0.00152423 8.06224 -42.9104)
(-0.0015253 1.5983 -28.9188)
(-3.96074 -3.01814 -26.555)
(-3.95698 -10.3258 -46.0541)
(-3.88966 -4.82214 -54.0291)
(-3.91024 0.031986 -54.7376)
(-3.87863 4.79277 -53.7124)
(-3.93724 10.3351 -46.0188)
(-3.98008 3.04038 -26.6458)
(-9.35409 -5.6438 -21.8071)
(-9.23929 -13.8476 -55.2616)
(-9.04752 -8.81714 -75.1135)
(-9.16526 0.0345935 -78.6093)
(-9.11697 8.92381 -75.5513)
(-9.32621 13.7805 -55.4391)
(-9.32203 5.56443 -21.6882)
(-27.2745 -6.81433 -20.8471)
(-28.3325 -16.0623 -70.6064)
(-27.9471 -12.8097 -98.73)
(-27.0642 -0.0773779 -108.651)
(-27.8445 12.7699 -98.5204)
(-28.1816 16.0949 -70.3889)
(-27.1791 6.85036 -20.8883)
(28.6156 -8.22388 -8.08511)
(30.1996 -4.16904 -94.0759)
(29.3066 -6.94407 -121.204)
(27.0672 0.193657 -121.62)
(28.8519 7.22512 -119.995)
(29.7652 4.25567 -93.2957)
(28.0571 8.38565 -8.48105)
(9.72735 -8.15148 -9.82538)
(9.66418 -13.441 -70.6693)
(9.03307 -10.7413 -92.2496)
(8.76832 0.0185886 -96.3668)
(9.13886 10.8033 -92.6537)
(9.69951 13.3417 -71.0992)
(9.8088 8.10774 -10.0259)
(4.07268 -3.08741 -20.5205)
(4.02237 -14.9459 -52.4729)
(3.83241 -9.19584 -65.3643)
(3.76525 -0.056436 -65.7776)
(3.7942 9.08461 -65.1138)
(4.01862 14.9516 -52.478)
(4.0707 3.08658 -20.6341)
(-0.00107282 0.475971 -25.6009)
(0.000309861 -12.0381 -46.5928)
(0.00389106 -5.89227 -54.3028)
(0.000743529 -0.0621474 -53.9148)
(0.00142206 5.84087 -54.3523)
(0.00121646 12.0885 -46.6369)
(0.00133318 -0.419531 -25.5885)
(-4.0818 -3.09753 -20.4734)
(-4.03699 -14.9959 -52.5581)
(-3.83598 -9.17682 -65.3892)
(-3.77246 0.0303462 -65.8166)
(-3.81992 9.19581 -65.1195)
(-4.02629 14.9504 -52.397)
(-4.08963 3.1186 -20.512)
(-9.70311 -8.11592 -9.81846)
(-9.60423 -13.4547 -70.3722)
(-8.98968 -10.7495 -92.0027)
(-8.73947 0.106773 -96.0993)
(-9.07822 10.8264 -92.3157)
(-9.67761 13.4676 -70.7251)
(-9.71666 8.12345 -9.76307)