/*--------------------------------*- C++ -*----------------------------------*\
  =========                 |
  \\      /  F ield         | OpenFOAM: The Open Source CFD Toolbox
   \\    /   O peration     | Website:  https://openfoam.org
    \\  /    A nd           | Version:  6
     \\/     M anipulation  |
\*---------------------------------------------------------------------------*/
FoamFile
{
    version     2.0;
    format      ascii;
    class       volScalarField;
    location    "4.5";
    object      O2;
}
// * * * * * * * * * * * * * * * * * * * * * * * * * * * * * * * * * * * * * //

dimensions      [0 0 0 0 0 0 0];

internalField   nonuniform List<scalar> 
297
(
0
0
0
0
0
0
0
0
0
0
0
0
0
0
0
0
0
0
0
0
0
0
0
0
0
0
0
0.102932
0.176761
0.109769
0.195336
0.218508
0.197904
0.102712
0.176838
0.110263
0
0.0491469
0
0.0399684
0.165504
0.0430708
0
0.049171
0
0
0.0465758
0
0.0259997
0.0403458
0.0264742
0
0.0465885
0
0.00713437
0.0193212
0.00709547
0
0.00314518
0
0.00724619
0.0193163
0.00721197
4.20239e-07
3.84529e-07
7.73835e-07
1.09761e-06
3.09805e-07
2.18182e-06
4.23389e-07
3.85571e-07
7.78235e-07
7.10159e-12
1.5434e-11
1.91086e-11
1.98815e-11
1.27197e-11
4.0738e-11
7.15472e-12
1.54887e-11
1.91829e-11
0
0.0457007
0
0
0.00314581
0
0
0.0457106
0
0
0.0452757
0
0
0.00314529
0
0
0.0452848
0
0
0.0438771
0
0
0.00314521
0
0
0.0438856
0
2.09246e-16
9.71488e-16
5.98108e-16
3.97611e-16
3.606e-16
8.30293e-16
2.31713e-16
9.43936e-16
6.1062e-16
2.84341e-20
2.74513e-19
1.01652e-19
3.53016e-20
6.09392e-20
4.58994e-20
2.31732e-20
2.57245e-19
8.70222e-20
2.40147e-23
9.78936e-20
8.15443e-23
9.70062e-24
2.41219e-20
1.03564e-23
2.02956e-23
9.1507e-20
6.87668e-23
1.12468e-20
3.59906e-25
5.50718e-30
1.15477e-20
1.75689e-25
2.85864e-30
1.14908e-20
3.67919e-25
5.63288e-30
1.79113e-24
7.65426e-29
2.99193e-33
1.29118e-24
6.49367e-27
2.80948e-31
1.52782e-24
7.95865e-29
3.50344e-33
6.74492e-27
1.79708e-29
2.25576e-33
7.17153e-28
2.85195e-28
2.46239e-32
5.65254e-27
1.78491e-29
2.24721e-33
1.00849e-30
6.64058e-26
3.94426e-21
1.16231e-30
7.59464e-26
5.54038e-21
2.25572e-30
7.38619e-26
4.36706e-21
1.1226e-33
2.04315e-29
5.33596e-25
1.20868e-31
2.90828e-27
8.26019e-25
1.66261e-33
3.45961e-29
8.24233e-25
1.47758e-33
4.01928e-30
2.01932e-27
1.88198e-32
6.35325e-29
4.85915e-28
1.54783e-33
6.41522e-30
1.79875e-27
1.125e-43
1.72557e-39
4.47937e-35
6.35913e-43
3.48668e-39
3.10235e-35
7.45587e-43
7.34445e-39
1.00242e-34
2.25158e-46
2.38422e-42
5.4897e-38
8.24892e-45
8.19413e-41
2.45148e-36
1.76656e-45
3.22597e-42
7.34887e-38
1.67034e-46
7.17815e-43
3.16371e-38
4.04225e-45
1.92859e-41
4.91185e-37
1.48787e-45
9.50223e-43
3.6014e-38
1.95936e-46
2.66641e-45
1.33922e-43
5.68136e-45
2.94853e-41
4.55451e-40
1.39542e-45
8.10593e-45
2.75601e-43
7.2549e-48
2.58621e-46
4.57361e-45
8.46384e-43
3.06142e-41
4.80357e-40
7.4575e-48
3.97126e-46
4.75835e-45
1.47495e-48
5.45096e-47
9.24522e-46
4.24428e-43
1.47887e-41
2.53723e-40
2.57997e-48
9.93687e-47
1.67464e-45
1.29943e-34
9.28666e-39
9.23658e-43
7.71871e-35
3.86143e-39
8.98375e-43
2.47394e-34
9.75878e-39
9.72294e-43
1.19364e-37
5.16493e-42
6.93808e-46
5.64523e-36
1.86064e-40
1.73593e-44
1.38575e-37
4.95828e-42
5.10103e-45
5.44644e-38
1.25507e-42
5.48713e-46
6.51219e-37
2.7802e-41
7.37353e-45
5.27715e-38
1.42212e-42
4.62835e-45
2.46065e-43
5.34747e-45
6.33833e-46
1.46439e-39
5.67725e-41
9.91772e-45
4.3346e-43
2.4113e-44
4.38566e-45
6.74019e-45
4.01587e-46
8.22579e-48
1.19464e-39
5.60463e-41
1.49522e-42
9.3434e-45
4.05911e-46
1.14677e-47
1.76661e-45
8.09362e-47
2.2399e-48
5.19999e-40
2.34137e-41
6.79529e-43
2.98922e-45
1.39969e-46
3.81273e-48
)
;

boundaryField
{
    fuel
    {
        type            fixedValue;
        value           uniform 0;
    }
    primary_air
    {
        type            fixedValue;
        value           uniform 0.23;
    }
    Secondary_air_RHS
    {
        type            fixedValue;
        value           uniform 0.23;
    }
    Secondary_air_LHS
    {
        type            fixedValue;
        value           uniform 0.23;
    }
    outlet
    {
        type            inletOutlet;
        inletValue      uniform 0;
        value           nonuniform List<scalar> 
18
(
0
5.19999e-40
0
0
2.34137e-41
0
0
6.79529e-43
0
0
4.24428e-43
0
0
1.47887e-41
0
0
2.53723e-40
0
)
;
    }
    stove_body
    {
        type            fixedValue;
        value           uniform 0;
    }
    frontAndBack
    {
        type            empty;
    }
}


// ************************************************************************* //
