/*--------------------------------*- C++ -*----------------------------------*\
  =========                 |
  \\      /  F ield         | OpenFOAM: The Open Source CFD Toolbox
   \\    /   O peration     | Website:  https://openfoam.org
    \\  /    A nd           | Version:  6
     \\/     M anipulation  |
\*---------------------------------------------------------------------------*/
FoamFile
{
    version     2.0;
    format      ascii;
    class       volScalarField;
    location    "4.5";
    object      p;
}
// * * * * * * * * * * * * * * * * * * * * * * * * * * * * * * * * * * * * * //

dimensions      [1 -1 -2 0 0 0 0];

internalField   nonuniform List<scalar> 
297
(
111538
111538
111538
185857
185857
185857
111538
111538
111538
111538
111538
111538
185857
185857
185857
111538
111538
111538
111538
111538
111538
185857
185857
185857
111538
111538
111538
97620.5
97515.5
97610.2
162337
162272
162339
97621.2
97515.6
97609.4
97842
97024.1
97871.9
161744
161696
161768
97844.2
97024.6
97871.2
95230.3
94670.7
95498.5
154106
158266
154421
95233.5
94670.4
95496.4
92838.7
95117.7
92581.6
157884
156860
157778
92835.5
95117.8
92587.2
96936.8
97021.3
96860.1
161662
160813
161662
96935.7
97020.5
96860.1
97036.5
97256.9
97003.9
161603
161981
161687
97034.1
97255.9
97003.8
78128.7
92575.4
78401.7
127941
154109
127112
78103.7
92574.3
78396.2
78068.6
92485
78142.7
126674
154147
125435
78043.9
92483.8
78137.9
80071.9
92763
79998.9
128895
155114
127369
80052.7
92761.8
79995
97400.8
97486.5
97393
162159
162341
162159
97401.3
97488
97395.3
97469.7
97487.6
97460.1
162316
162396
162305
97470.8
97489.7
97463.1
97470.7
97482.8
97462.4
162392
162414
162375
97472
97485.3
97465.9
97525.9
97631.6
97891.5
162264
162332
162477
97528
97633.6
97893
97470.7
97493.8
97658.3
162275
162282
162344
97472.7
97495.7
97659.8
97410.9
97331.5
97261.5
162333
162284
162255
97412.7
97333.2
97262.8
97905.2
97641.2
97530.6
162489
162344
162275
97907.3
97643.3
97532.9
97667.4
97500.4
97475.4
162355
162295
162290
97669.5
97502.7
97477.8
97263.9
97338.6
97417.4
162268
162298
162349
97265.8
97341
97419.9
98437
98342.7
98169
162949
162859
162701
98438.1
98344.5
98171.2
98316.5
98183.9
97974.9
162774
162691
162535
98317.4
98185.4
97977
98172.2
98020.9
97752.8
162536
162444
162329
98172.5
98021.7
97754.5
97202.1
97156.2
97055.6
161293
161257
161172
97199.3
97153.9
97054.4
92245.4
92257
92293.8
153001
153005
153005
92245.5
92256.9
92293.4
85039.8
85040
85043.5
137127
137129
137122
85039.8
85040
85043.6
98163
98343.1
98438.6
162696
162855
162935
98164.2
98344.3
98440
97968
98182.6
98307.5
162531
162686
162757
97968.6
98183
98308.1
97748.7
98019.7
98154.3
162323
162438
162517
97748.6
98019.2
98154
97055.9
97162.9
97212.4
161150
161233
161273
97050.7
97158.5
97208.5
92253.2
92217.3
92205.3
152927
152928
152925
92254.6
92218.4
92206.1
84998.3
84995.1
84995.2
137051
137058
137055
84998.5
84995.4
84995.6
)
;

boundaryField
{
    fuel
    {
        type            zeroGradient;
    }
    primary_air
    {
        type            zeroGradient;
    }
    Secondary_air_RHS
    {
        type            zeroGradient;
    }
    Secondary_air_LHS
    {
        type            zeroGradient;
    }
    outlet
    {
        type            totalPressure;
        rho             rho;
        psi             none;
        gamma           1;
        p0              uniform 100000;
        value           nonuniform List<scalar> 
18
(
88613.2
100000
88613.1
88587.3
100000
88587.3
88585.1
100000
88585
88624.3
100000
88624.4
88625.9
100000
88626
88652.1
100000
88652.1
)
;
    }
    stove_body
    {
        type            zeroGradient;
    }
    frontAndBack
    {
        type            empty;
    }
}


// ************************************************************************* //
