/*--------------------------------*- C++ -*----------------------------------*\
  =========                 |
  \\      /  F ield         | OpenFOAM: The Open Source CFD Toolbox
   \\    /   O peration     | Website:  https://openfoam.org
    \\  /    A nd           | Version:  6
     \\/     M anipulation  |
\*---------------------------------------------------------------------------*/
FoamFile
{
    version     2.0;
    format      ascii;
    class       surfaceScalarField;
    location    "4.5";
    object      phi;
}
// * * * * * * * * * * * * * * * * * * * * * * * * * * * * * * * * * * * * * //

dimensions      [1 0 -1 0 0 0 0];

internalField   nonuniform List<scalar> 
675
(
1.07805e-05
-3.51096e-05
0.000142571
-1.08545e-05
5.52477e-06
0.000134352
-3.50764e-05
0.000142463
-1.65603e-05
3.51021e-05
0.000142918
1.66369e-05
-5.52789e-06
0.00017443
3.50718e-05
0.000143058
1.07837e-05
0.00014256
-1.08516e-05
0.000134349
0.000142461
6.66191e-06
-5.82285e-05
0.000194267
-6.77794e-06
4.93007e-06
0.000142991
-5.79751e-05
0.000193789
-2.8002e-05
5.81978e-05
5.42476e-05
2.85386e-05
-4.93313e-06
0.000127515
5.79745e-05
5.54019e-05
6.6696e-06
0.000194218
-6.77364e-06
0.000142988
0.000193792
3.71058e-06
7.25869e-05
-4.78732e-06
3.3506e-05
7.10312e-05
2.18109e-06
-7.25036e-05
-3.40426e-07
-3.35093e-05
-7.10617e-05
3.74458e-06
-4.75904e-06
0.00327437
0.00389668
-0.00395902
-0.00298895
0.00520508
0.00426856
0.00373161
-0.00350887
0.00537993
-0.00389607
0.00775955
-0.00522874
-0.00520575
0.0263702
-0.00372434
0.00757417
0.00329069
-0.00397456
-0.00296629
0.00426175
-0.0034788
0.00874934
0.00833641
-0.0210439
-0.00823497
-0.00483344
0.0260873
0.00798123
-0.0197243
0.00280208
-0.00835763
0.0216532
-0.00357298
0.00482995
0.0230858
-0.00794623
0.0199302
0.00872566
-0.0210569
-0.00823446
0.0260529
-0.0196586
0.000385172
0.0176337
-0.0390624
-0.000690448
-0.00712868
0.034292
0.0174988
-0.0379132
-0.0431938
-0.0176362
0.100118
0.0433014
0.00712495
-0.077661
-0.017464
0.0981954
0.000417155
-0.0391097
-0.000663111
0.0342587
-0.0377853
-0.0244743
-0.0222999
-0.0184891
0.0652631
0.0241266
0.00879189
-0.0316163
-0.0257767
-0.0231318
-0.0173529
0.0646112
-0.00226393
0.0223108
0.0178359
-0.0601823
0.00434967
-0.00878688
-0.0904119
0.101377
0.0231076
0.017974
-0.0598637
-0.024493
-0.0184853
0.0652893
0.0240761
-0.0316061
-0.0257497
-0.0173051
0.0644887
0.00541483
-0.00773774
-0.0161685
-0.0090001
0.0117764
-0.028982
-0.0109642
-0.01539
0.0179923
0.00771898
-0.0156132
-0.010909
-0.0117874
-0.0379482
0.0109466
-0.0148465
0.0054125
-0.0161784
-0.00901164
-0.0289705
-0.0153716
-0.00126944
0.002651
-0.0175553
-0.0129829
0.000201032
-0.0174726
-0.0102371
-0.0181306
0.0184355
-0.00267163
-0.0287012
0.00953829
-0.000208158
-0.0286319
0.0102325
-0.0257804
-0.00128633
-0.0175464
-0.0129843
-0.0174692
-0.0181288
-0.00162373
-0.000417127
-0.0472983
0.00153108
-0.000123207
0.0312604
-0.000327786
-0.0463669
-0.00285041
0.00041856
0.0853039
0.00317438
0.000123503
-0.0839324
0.000329856
0.0839924
-0.00162815
-0.0473364
0.0015244
0.0312297
-0.0462429
-0.00150465
0.000208492
-0.0562709
0.00146612
-0.000523322
0.028813
0.000310877
-0.0554902
-0.00314752
-0.000207429
0.0722052
0.00323815
0.000523564
-0.0913649
-0.000306057
0.0713483
-0.00150672
-0.0563026
0.0014616
0.028785
-0.0553653
-0.00215604
0.000615902
0.00210645
-0.0012262
0.000704702
-0.00370053
-0.000614989
0.00385982
0.00122596
-0.000704369
-0.00215815
0.00210311
0.00615526
-0.000738458
-0.00881789
-0.0141497
-0.00549664
-0.00069349
-0.00512414
-0.000812534
-0.00867137
-0.0141383
0.00621387
0.000735795
-0.0175018
-0.0188802
-0.00822456
0.00069276
-0.0155777
0.000812901
-0.0167482
-0.0188834
0.00615573
-0.00881373
-0.0141444
-0.00549021
-0.00512425
-0.00867256
-0.0141324
0.00266061
0.000252888
-0.00212617
-0.00959997
-0.00327795
0.000470074
0.000348805
0.000144368
-0.0025399
-0.00954828
0.00442535
-0.000254762
-0.00704933
-0.0143646
-0.00427631
-0.000470838
-0.0059336
-0.000142836
-0.00627157
-0.0144683
0.00266414
-0.00212623
-0.00959789
-0.00327381
0.000349596
-0.00254296
-0.00954542
0.000362499
0.000188971
-0.00267261
-3.33071e-05
0.000750028
0.000239687
-0.00280736
0.0016961
-0.000190512
-0.00836218
-0.00273626
-0.00075017
-0.000238809
-0.00853339
0.000364728
-0.00267335
-2.93432e-05
-0.0028108
-0.0129126
-6.74788e-05
-0.0011568
-0.013251
0.00156605
-0.00122584
0.00192287
-0.0047816
-0.0103921
-0.0178854
6.69814e-05
-0.00113293
-0.0159117
-0.00156609
0.00115861
-0.00192145
0.00186392
-0.0139316
-0.0129085
-0.00115729
-0.013248
-0.00122593
-0.00476989
-0.0103996
-0.0099558
-8.82176e-05
-0.000659263
-0.0100786
0.00102659
-0.00212758
0.000491974
-0.00545844
-0.00989292
-0.0154641
8.78503e-05
-0.000313961
-0.0130721
-0.00102766
0.000820763
-0.000495222
0.00272091
-0.0129419
-0.00995296
-0.000661568
-0.0100753
-0.00213024
-0.00544726
-0.00989292
-0.00334589
-0.000118551
-0.00493791
-0.000533219
-0.00113248
-0.00926174
-0.00908413
0.000117472
-0.00932842
0.000531858
0.0011306
-0.00887011
-0.00335386
-0.00495092
-0.00926655
0.0132767
0.0019471
-0.00495531
-0.0102663
0.0129256
0.00156761
-0.00121642
-7.25494e-05
-0.00114951
0.0158757
-0.00194703
0.00191907
-0.0138898
0.0178248
-0.0015677
0.00119302
7.18412e-05
-0.00119388
0.0132754
-0.0049559
-0.0102643
0.0129226
-0.00121397
-0.00114746
0.0101244
0.000443974
-0.0055909
-0.00993057
0.00997878
0.00101092
-0.00208042
-9.11187e-05
-0.000676426
0.0129872
-0.000444322
0.00278268
-0.0129522
0.0153737
-0.00101139
0.000835824
9.02863e-05
-0.00036042
0.0101222
-0.00559278
-0.00992739
0.00997629
-0.00207766
-0.000675204
0.00472971
-0.00116305
-0.00915526
0.0032008
-0.000548621
-0.00014384
0.00925748
0.00116282
-0.0087911
0.00900406
0.000547737
0.00014301
0.00472782
-0.00915545
0.00320094
0.00431912
0.00170684
-0.0060255
0.00679426
0.00161559
-0.00408903
0.00167356
-0.00514387
0.00631501
-0.00170609
-0.00289005
0.0101193
-0.00161535
-0.000561325
-0.0016736
-0.000413313
0.00431695
-0.00602181
0.00678979
-0.00408596
-0.00514625
0.00334527
0.00152234
-0.0108934
0.00664121
0.00147592
-0.00886008
0.00108389
-0.00951572
0.00459877
-0.00152188
-0.00443297
0.00907601
-0.00147667
-0.00207457
-0.00108333
-0.0021128
0.00334036
-0.0108837
0.00663545
-0.0088565
-0.00952003
0.00445713
0.0030748
-0.018427
0.00506614
0.00178554
-0.0112554
0.000966691
-0.0145703
0.00502767
-0.00307362
-0.00330122
0.00848841
-0.00178918
-0.00195019
-0.000969456
-0.000470591
0.00445238
-0.0184109
0.0050611
-0.0112548
-0.0145825
-0.00512189
0.0113227
-0.0246583
-0.00113618
0.0101453
-0.0254076
0.00975434
-0.0254661
0.000850578
-0.0113176
0.0185214
-0.000915776
-0.0101424
0.0201297
-0.00975765
0.0181459
-0.00510686
-0.0246518
-0.00112137
-0.025406
-0.0254709
0.000657697
0.00639071
-0.0317118
0.00102007
0.00635374
-0.0321312
0.00689784
-0.0313544
-0.000730364
-0.00639187
0.0320369
-0.000528446
-0.00635401
0.0326355
-0.00689788
0.0314097
0.000661867
-0.0317113
0.0010248
-0.0321308
-0.0313548
2.23495e-05
0.0191217
-0.000300896
0.019045
0.0191476
-0.000182008
-0.0191223
0.00015668
-0.0190456
-0.0191481
2.26217e-05
-0.000300357
-0.00698324
0.0016762
-0.00508538
-0.00444676
0.00160943
-0.00414618
0.00169071
-0.00613792
-0.0101349
-0.00167656
-0.000444225
-0.00626022
-0.00160996
-0.000655265
-0.00169031
-0.00287933
-0.00699664
-0.0050794
-0.00445604
-0.00414999
-0.00614573
-0.00663205
0.00110807
-0.00945494
-0.00334611
0.00144073
-0.00887376
0.00148442
-0.0109693
-0.00896626
-0.00111048
-0.00220165
-0.00453957
-0.00143905
-0.0022027
-0.00148356
-0.00445163
-0.00663451
-0.00944882
-0.0033512
-0.00887287
-0.0109808
-0.00497638
0.00109184
-0.0148328
-0.00434961
0.0018344
-0.0113363
0.00293248
-0.0182524
-0.00838431
-0.00110025
-0.000495836
-0.00484184
-0.00184179
-0.00206994
-0.00293347
-0.00342868
-0.00497286
-0.0148437
-0.00435345
-0.0113353
-0.0182686
0.000932278
0.00992778
-0.0256988
0.00496424
0.0101419
-0.0255152
0.0113705
-0.024664
0.000939683
-0.00992472
0.0184107
-0.00102195
-0.0101419
0.0201666
-0.0113766
0.0182875
0.000940131
-0.0257114
0.00498621
-0.0255231
-0.024657
-0.00110675
0.00690225
-0.0314969
-0.000732678
0.00635196
-0.0322438
0.00638451
-0.0317842
0.000712045
-0.00690259
0.0314867
0.000926276
-0.00635207
0.0326409
-0.00638424
0.0319682
-0.00110997
-0.031501
-0.000738319
-0.0322464
-0.031782
0.00027236
0.0191082
-5.21207e-05
0.0190079
0.019095
-6.31061e-05
-0.0191071
0.000278741
-0.0190067
-0.0190944
0.000269359
-5.6053e-05
)
;

boundaryField
{
    fuel
    {
        type            calculated;
        value           nonuniform List<scalar> 
36
(
0.000118112
0.000196812
0.000118112
0.000118112
0.000196812
0.000118112
0.000118112
0.000196812
0.000118112
-0.000118112
-0.000196812
-0.000118112
-0.000118112
-0.000196812
-0.000118112
-0.000118112
-0.000196812
-0.000118112
0
0
0
0
0
0
0
0
0
0
0
0
0
0
0
0
0
0
)
;
    }
    primary_air
    {
        type            calculated;
        value           nonuniform List<scalar> 9(-0.00321014 -0.00533829 -0.00321017 -0.00320669 -0.00533615 -0.0032067 -0.00320981 -0.00533834 -0.00320978);
    }
    Secondary_air_RHS
    {
        type            calculated;
        value           nonuniform List<scalar> 9(0.0103126 0.0167198 0.0103119 0.0102786 0.0164991 0.0102779 0.0105227 0.0167535 0.0105222);
    }
    Secondary_air_LHS
    {
        type            calculated;
        value           nonuniform List<scalar> 9(0.0102767 0.0168288 0.0102734 0.0102688 0.0166622 0.0102656 0.0105323 0.0169543 0.0105298);
    }
    outlet
    {
        type            calculated;
        value           nonuniform List<scalar> 
18
(
-0.0508823
0.069764
-0.0508825
-0.050932
0.0703122
-0.0509321
-0.0509361
0.0704345
-0.0509363
-0.0508598
0.0704547
-0.0508596
-0.0508569
0.0703792
-0.0508567
-0.0508066
0.0698534
-0.0508064
)
;
    }
    stove_body
    {
        type            calculated;
        value           uniform 0;
    }
    frontAndBack
    {
        type            empty;
        value           nonuniform 0();
    }
}


// ************************************************************************* //
