/*--------------------------------*- C++ -*----------------------------------*\
  =========                 |
  \\      /  F ield         | OpenFOAM: The Open Source CFD Toolbox
   \\    /   O peration     | Website:  https://openfoam.org
    \\  /    A nd           | Version:  6
     \\/     M anipulation  |
\*---------------------------------------------------------------------------*/
FoamFile
{
    version     2.0;
    format      ascii;
    class       volVectorField;
    location    "4.5";
    object      U;
}
// * * * * * * * * * * * * * * * * * * * * * * * * * * * * * * * * * * * * * //

dimensions      [0 1 -1 0 0 0 0];

internalField   nonuniform List<vector> 
297
(
(12.4072 0.0176985 0.274303)
(12.4078 -0.000177814 0.249321)
(12.4072 -0.0178833 0.27401)
(1.19409e-08 -0.0238437 0.252086)
(1.29418e-08 8.49046e-05 0.249299)
(1.37655e-08 0.0239151 0.252058)
(-12.4072 0.0177085 0.274289)
(-12.4078 -0.000165371 0.249318)
(-12.4072 -0.0178751 0.274007)
(12.4068 0.0128309 0.297029)
(12.4079 -0.000245173 0.259705)
(12.4069 -0.0131484 0.297174)
(1.19901e-08 -0.0706207 0.0596603)
(1.29919e-08 0.001381 0.228095)
(1.38634e-08 0.071445 0.0636008)
(-12.4068 0.0128569 0.29703)
(-12.4079 -0.000218753 0.259701)
(-12.4069 -0.0131351 0.297163)
(11.3368 0.0263624 0.445584)
(12.3931 -0.00446227 0.398238)
(11.4295 -0.0278136 0.447189)
(8.38197e-09 0.099932 0.207473)
(1.29625e-08 -0.0110195 0.0923078)
(1.03747e-08 -0.0831463 0.204208)
(-11.3471 0.0264449 0.445754)
(-12.393 -0.00419637 0.398229)
(-11.4265 -0.027777 0.447113)
(54.9352 -7.04138 12.5975)
(29.5895 0.448948 16.8843)
(55.3541 7.21983 10.5554)
(3.65495e-05 -0.798258 16.7807)
(2.3629e-06 0.235982 10.3117)
(-4.11995e-05 0.404427 16.0221)
(-55.0095 -7.09462 12.5031)
(-29.6097 0.545381 16.8718)
(-55.4417 7.14448 10.6086)
(89.1004 -34.8484 51.9281)
(75.1053 2.01874 127.087)
(94.3287 36.3246 59.4334)
(0.000392172 8.08125 210.256)
(4.16899e-05 -1.08128 130.63)
(-0.000123011 -6.93227 213.09)
(-89.0977 -34.9635 51.8266)
(-75.2753 1.92002 127.24)
(-94.8233 36.2216 59.9936)
(87.1994 -88.0071 -50.5157)
(68.3534 -1.23707 167.091)
(92.2694 99.0317 -41.7778)
(0.000472949 -59.9168 269.997)
(-1.6914e-05 1.31971 -23.3112)
(-0.000320098 60.8549 279.869)
(-87.1947 -88.1645 -50.2434)
(-68.4905 -0.886036 167.315)
(-92.7539 99.1953 -42.0395)
(54.7822 -55.393 -212.94)
(38.1023 -3.57202 -28.5793)
(57.7228 63.6373 -217.539)
(-0.000723245 -106.378 -23.431)
(7.73025e-06 0.770568 -120.624)
(0.00127489 114.707 -24.0242)
(-54.7999 -55.3914 -213.015)
(-38.1528 -3.7252 -28.6226)
(-57.7557 63.6171 -217.762)
(25.2571 46.0337 -132.245)
(15.3556 -8.63018 -89.6815)
(30.5958 -38.0544 -140.433)
(-0.000145083 -0.900547 -115.293)
(-4.5718e-05 6.5035 -100.451)
(-4.09341e-06 7.61134 -121.885)
(-25.2345 46.0354 -132.277)
(-15.358 -8.65966 -89.6754)
(-30.5929 -38.0432 -140.304)
(8.46398 23.154 -21.13)
(8.46482 -8.68627 -16.7696)
(8.46745 -21.9862 -21.5326)
(-4.65961e-05 20.5999 -19.5602)
(-1.9521e-05 7.90777 -22.097)
(-1.1818e-06 -16.5425 -18.1657)
(-8.46587 23.1315 -21.1243)
(-8.46502 -8.69004 -16.7638)
(-8.46831 -21.9848 -21.5276)
(77.0516 -85.633 -516.122)
(65.2608 -5.34408 211.709)
(80.4445 100.928 -519.97)
(-0.00491179 -80.6138 401.926)
(-7.55644e-05 5.47864 -151.038)
(-0.001127 85.566 423.413)
(-76.931 -85.8467 -516.109)
(-65.3907 -5.31539 211.931)
(-80.9689 101.043 -521.825)
(69.0311 -64.0065 -411.984)
(59.2195 -5.45383 206.773)
(66.7705 75.3827 -414.444)
(-0.00523142 -76.3825 454.572)
(-7.91493e-05 4.88095 -152.709)
(-0.00113197 80.1357 482.768)
(-69.0705 -64.0872 -412.222)
(-59.3315 -5.45316 206.987)
(-67.0425 75.4015 -415.492)
(61.7513 -68.3095 -358.138)
(59.5226 -4.85998 189.345)
(64.3437 78.9907 -360.614)
(-0.004747 -107.481 500.566)
(-8.60641e-05 3.75016 -143.546)
(-0.00101937 117.795 530.301)
(-61.7827 -68.4536 -358.351)
(-59.634 -4.88711 189.528)
(-64.615 78.9775 -361.392)
(8.43146 36.7055 -10.3549)
(8.45684 1.66806 -10.3924)
(8.43243 -36.4973 -10.598)
(1.08901e-05 28.4245 -11.2343)
(2.95516e-05 -3.11539 -11.2365)
(4.44396e-05 -28.8326 -10.3446)
(-8.43315 36.6991 -10.351)
(-8.45669 1.67722 -10.3924)
(-8.43354 -36.4791 -10.5983)
(8.46441 19.8529 -3.87587)
(8.47545 -2.2335 -2.03815)
(8.46586 -19.1084 -4.00203)
(2.15615e-05 19.057 -4.8287)
(4.18472e-05 0.479108 -5.56643)
(5.91814e-05 -19.5845 -4.56029)
(-8.46493 19.8533 -3.87698)
(-8.47562 -2.21864 -2.03655)
(-8.46605 -19.1104 -4.00765)
(8.47583 -0.765925 -4.93864)
(8.47694 0.569123 0.436288)
(8.47657 0.979332 -5.15616)
(2.56806e-05 9.08881 -2.72445)
(4.83476e-05 -1.85799 -2.18807)
(6.95121e-05 -9.45842 -2.24495)
(-8.47624 -0.761289 -4.93523)
(-8.47716 0.57345 0.437109)
(-8.47628 0.983587 -5.15178)
(8.42788 -39.4371 -4.50638)
(8.45168 -35.8286 -6.59462)
(8.44188 -30.7915 -9.07868)
(4.06346e-05 -31.4365 -3.75201)
(3.92081e-05 -29.4149 -3.73145)
(2.98112e-05 -24.8665 -4.07495)
(-8.4289 -39.4186 -4.50664)
(-8.45272 -35.8298 -6.59002)
(-8.44298 -30.823 -9.0596)
(8.45394 -29.5819 -2.108)
(8.46695 -30.8436 -7.36699)
(8.43859 -27.025 -14.0988)
(3.96282e-05 -26.1568 -0.0462861)
(3.88214e-05 -26.15 0.984098)
(2.92163e-05 -21.8357 1.92311)
(-8.45434 -29.5653 -2.11095)
(-8.46735 -30.8336 -7.35717)
(-8.43917 -27.0335 -14.0689)
(8.48084 -6.38937 -4.55326)
(8.48036 -17.3226 -12.9267)
(8.44804 -23.5477 -20.572)
(3.66978e-05 -15.1676 2.56122)
(3.27352e-05 -15.9909 3.39707)
(2.6931e-05 -16.7088 3.15427)
(-8.48077 -6.39918 -4.55447)
(-8.48039 -17.3571 -12.942)
(-8.44814 -23.5554 -20.5509)
(8.44013 30.3214 -9.3113)
(8.44998 35.8115 -6.63828)
(8.42673 39.5418 -4.47771)
(4.15386e-05 24.6345 -4.19104)
(4.22939e-05 29.3546 -3.7657)
(4.49602e-05 31.4909 -3.81505)
(-8.44164 30.3238 -9.3088)
(-8.4518 35.8195 -6.63005)
(-8.42837 39.5353 -4.47229)
(8.43608 26.8852 -14.4758)
(8.46611 31.0152 -7.44847)
(8.45372 29.6744 -2.11662)
(4.15036e-05 21.6302 2.17644)
(4.52252e-05 26.0289 1.24529)
(4.75724e-05 26.1005 0.0159976)
(-8.43642 26.88 -14.4781)
(-8.46642 31.0125 -7.44089)
(-8.454 29.6669 -2.11241)
(8.44644 23.4055 -20.8061)
(8.47894 16.825 -12.6444)
(8.48006 5.93867 -4.60312)
(3.84812e-05 16.5748 2.95124)
(4.78016e-05 15.9987 3.13865)
(4.81818e-05 14.9825 2.42066)
(-8.44674 23.4044 -20.8183)
(-8.47913 16.8284 -12.6467)
(-8.48025 5.93966 -4.60527)
(8.42635 9.26467 -15.5807)
(8.42565 13.8427 -11.2669)
(8.43208 21.5086 -13.2435)
(2.2723e-05 7.84841 -7.84623)
(3.43021e-05 12.542 -4.3634)
(4.34792e-05 18.1409 -5.17866)
(-8.42875 9.26645 -15.5822)
(-8.42777 13.8391 -11.2705)
(-8.43344 21.4986 -13.2509)
(8.42981 3.62651 -22.0409)
(8.43242 12.3807 -17.2518)
(8.42873 22.2988 -21.7357)
(1.77604e-05 5.56227 -4.97155)
(2.85742e-05 9.83577 -1.02937)
(4.00732e-05 16.9704 -1.29744)
(-8.43146 3.63217 -22.0287)
(-8.43337 12.364 -17.2344)
(-8.42921 22.2858 -21.7398)
(8.45858 2.22971 -26.6201)
(8.43617 14.6998 -25.9694)
(8.43401 14.2575 -32.1151)
(6.57845e-06 4.30163 -7.87323)
(1.59452e-05 10.8583 -4.56798)
(3.37167e-05 13.4458 -0.650658)
(-8.46052 2.23031 -26.6007)
(-8.43694 14.6895 -25.9609)
(-8.43444 14.2399 -32.1364)
(8.45068 -2.21699 -43.875)
(8.44713 -2.22612 -44.8198)
(8.44951 -9.9591 -48.8068)
(-5.56519e-05 -2.69028 17.677)
(-4.42764e-05 3.31446 21.5328)
(-2.43752e-05 -9.84772 18.8985)
(-8.45227 -2.22262 -43.8544)
(-8.44737 -2.2053 -44.8179)
(-8.44974 -9.9646 -48.8383)
(8.34938 1.10443 -111.533)
(8.34515 -1.01576 -113.615)
(8.3478 4.62416 -110.389)
(1.1636e-06 -0.770065 61.5156)
(-3.17143e-06 0.991054 63.1544)
(-8.29901e-06 -1.66988 59.9677)
(-8.34911 1.10733 -111.528)
(-8.34507 -1.01621 -113.61)
(-8.34723 4.62794 -110.382)
(8.0037 -0.00487326 -149.415)
(8.00397 -0.0634829 -149.404)
(8.00477 -0.0731881 -149.21)
(8.79803e-08 -0.303354 180.395)
(2.64711e-07 0.372753 180.223)
(4.41528e-07 -0.524889 179.027)
(-8.0037 -0.00480545 -149.414)
(-8.00397 -0.0633102 -149.403)
(-8.00477 -0.0730666 -149.209)
(8.43372 -21.7766 -13.2009)
(8.42714 -14.1256 -11.5923)
(8.42607 -9.73784 -15.9169)
(2.27312e-05 -18.1234 -5.09035)
(2.2853e-05 -12.3102 -4.34526)
(2.61617e-05 -8.17365 -7.77822)
(-8.43514 -21.7973 -13.1882)
(-8.42896 -14.1525 -11.6028)
(-8.42837 -9.77171 -15.9329)
(8.43059 -22.0579 -21.8012)
(8.43433 -11.9986 -17.5237)
(8.42962 -4.14696 -22.661)
(1.24195e-05 -16.857 -1.36914)
(6.9415e-06 -9.5691 -1.27588)
(1.06338e-05 -5.90593 -5.04992)
(-8.43143 -22.0556 -21.797)
(-8.43563 -11.9995 -17.5492)
(-8.43202 -4.17057 -22.7113)
(8.43988 -14.5074 -31.8532)
(8.43946 -13.2682 -25.79)
(8.45689 -2.99266 -27.1616)
(-3.58767e-06 -13.8408 -0.956958)
(-9.08297e-06 -10.0855 -4.87521)
(-4.91956e-06 -4.66906 -7.95294)
(-8.44017 -14.5191 -31.8301)
(-8.44031 -13.2224 -25.7592)
(-8.45896 -2.97487 -27.1842)
(8.45023 10.0716 -49.7021)
(8.44473 1.9413 -45.1713)
(8.44765 2.77999 -44.1493)
(-0.000103324 9.56468 19.5306)
(-8.73115e-05 -3.11773 21.6856)
(-7.57592e-05 2.72699 17.0175)
(-8.4504 10.0833 -49.74)
(-8.44499 1.93704 -45.2056)
(-8.44946 2.80024 -44.1433)
(8.34765 -4.60945 -110.935)
(8.34564 0.92724 -113.978)
(8.34942 -1.21461 -111.657)
(2.95482e-05 1.70462 60.3696)
(2.26415e-05 -0.926478 63.2323)
(1.64285e-05 0.781571 61.3198)
(-8.34773 -4.61131 -110.959)
(-8.34499 0.921649 -113.984)
(-8.34981 -1.21392 -111.648)
(8.00529 0.0663849 -149.498)
(8.00448 0.0494084 -149.69)
(8.00419 -0.00249004 -149.706)
(5.34583e-06 0.552589 178.824)
(6.73449e-06 -0.340891 180.089)
(8.28079e-06 0.320894 180.388)
(-8.00529 0.0656511 -149.498)
(-8.00447 0.0477175 -149.69)
(-8.00418 -0.00345609 -149.707)
)
;

boundaryField
{
    fuel
    {
        type            fixedValue;
        value           uniform (0 0 0.25);
    }
    primary_air
    {
        type            fixedValue;
        value           uniform (0 0 2.5);
    }
    Secondary_air_RHS
    {
        type            fixedValue;
        value           uniform (0 100 0);
    }
    Secondary_air_LHS
    {
        type            fixedValue;
        value           uniform (0 -100 0);
    }
    outlet
    {
        type            pressureInletOutletVelocity;
        value           nonuniform List<vector> 
18
(
(0 0 -149.498)
(5.34583e-06 0.552589 178.824)
(0 0 -149.498)
(0 0 -149.69)
(6.73449e-06 -0.340891 180.089)
(0 0 -149.69)
(0 0 -149.706)
(8.28079e-06 0.320894 180.388)
(0 0 -149.707)
(0 0 -149.415)
(8.79803e-08 -0.303354 180.395)
(0 0 -149.414)
(0 0 -149.404)
(2.64711e-07 0.372753 180.223)
(0 0 -149.403)
(0 0 -149.21)
(4.41528e-07 -0.524889 179.027)
(0 0 -149.209)
)
;
    }
    stove_body
    {
        type            noSlip;
    }
    frontAndBack
    {
        type            empty;
    }
}


// ************************************************************************* //
