/*--------------------------------*- C++ -*----------------------------------*\
  =========                 |
  \\      /  F ield         | OpenFOAM: The Open Source CFD Toolbox
   \\    /   O peration     | Website:  https://openfoam.org
    \\  /    A nd           | Version:  6
     \\/     M anipulation  |
\*---------------------------------------------------------------------------*/
FoamFile
{
    version     2.0;
    format      ascii;
    class       volScalarField;
    location    "3.5";
    object      p;
}
// * * * * * * * * * * * * * * * * * * * * * * * * * * * * * * * * * * * * * //

dimensions      [1 -1 -2 0 0 0 0];

internalField   nonuniform List<scalar> 
297
(
118251
118251
118251
197049
197049
197049
118251
118251
118251
118252
118252
118252
197057
197057
197056
118252
118252
118252
118252
118252
118252
197066
197066
197065
118252
118252
118252
98805.3
97228.4
96200.3
165512
162703
161386
98308.4
97133.5
96899.1
96889.6
95986
95576
161998
159082
157843
96780.4
95439.9
94936
94123.9
91766.9
90695.4
157857
153324
150181
96615.1
93609.2
89544.3
89363.2
91240.1
94751.7
150841
153584
158840
86073.9
91032
95879.4
93693.4
95404
97401.9
159085
159866
161547
96008.8
96760.4
97845.6
97890.5
98301.3
98644.7
163879
163343
163336
97833.3
98596.4
98548.1
89535.5
88236.7
85611.1
138399
146150
149094
88416
88938
86124.6
89595.7
87985.2
85536.4
137433
145678
148227
88144.6
88543
86237.7
90223.8
88081.6
86076.9
138270
146083
148329
88573.4
88553.4
86928.8
97138.6
97341.7
98010
161617
160919
161326
97255.5
97201.5
97362.6
96819
96860
97618.4
160955
160026
160802
97144.4
96680.5
97107.9
96644.8
96547
97206.4
160591
159415
160544
97091
96398.4
97037.3
97268.3
97268.2
97904.3
161347
162115
163345
97524.4
97837
98351.4
97018.2
97096.2
97631.5
161251
162028
163140
97388.8
97636.2
98023.1
96881.3
96906.4
97286.5
161210
161996
162995
97287.8
97451.9
97635.1
98308.7
97609
97232.6
163395
162413
161730
97988.2
97556.2
97306.7
98172.2
97591
97132.5
163185
162302
161540
97708.8
97450.1
97271.5
98064.2
97568.1
97083.1
162938
162187
161438
97516.7
97407.6
97278.8
99708.9
99619.1
99117.4
164858
164604
164135
100271
99592
98657
99342.9
99244.9
98827.6
164326
164053
163717
99484.7
98651.1
98021.9
98811.7
98725.4
98421.2
163454
163203
162950
98505.1
97849.5
97421.8
96350.8
96339.7
96366.4
158703
158656
158496
94200.4
94199.1
94137.3
91579.2
91543.8
91530
151300
151273
151216
90709.9
90682.9
90571.4
85366.5
85359.6
85355.5
138873
138826
138757
87182.8
87306.3
87433.5
98688.2
99194.4
99425
164422
165036
165270
98738
98905.1
98921.3
98421.1
98994.6
99231.5
164100
164664
164876
98472.6
98742.4
98773.1
98156.6
98742
98910.7
163683
164149
164253
98205.2
98539.5
98526.1
96918.6
96964.5
97012.5
161567
161656
161642
96789.5
96840.5
96897.8
92481.4
92467.6
92509.5
153445
153448
153456
92528.7
92516.1
92560.7
85839.3
85839.1
85846
138295
138310
138323
85819.5
85819.2
85826.1
)
;

boundaryField
{
    fuel
    {
        type            zeroGradient;
    }
    primary_air
    {
        type            zeroGradient;
    }
    Secondary_air_RHS
    {
        type            zeroGradient;
    }
    Secondary_air_LHS
    {
        type            zeroGradient;
    }
    outlet
    {
        type            totalPressure;
        rho             rho;
        psi             none;
        gamma           1;
        p0              uniform 100000;
        value           nonuniform List<scalar> 
18
(
89284.1
100000
89269.4
89266.6
100000
89251.7
89302.5
100000
89288.1
88561.3
100000
89655.8
88529.2
100000
93696.6
88523.5
100000
99998.8
)
;
    }
    stove_body
    {
        type            zeroGradient;
    }
    frontAndBack
    {
        type            empty;
    }
}


// ************************************************************************* //
