/*--------------------------------*- C++ -*----------------------------------*\
  =========                 |
  \\      /  F ield         | OpenFOAM: The Open Source CFD Toolbox
   \\    /   O peration     | Website:  https://openfoam.org
    \\  /    A nd           | Version:  6
     \\/     M anipulation  |
\*---------------------------------------------------------------------------*/
FoamFile
{
    version     2.0;
    format      ascii;
    class       volVectorField;
    location    "3.5";
    object      U;
}
// * * * * * * * * * * * * * * * * * * * * * * * * * * * * * * * * * * * * * //

dimensions      [0 1 -1 0 0 0 0];

internalField   nonuniform List<vector> 
297
(
(20.1662 -0.00488545 0.26948)
(20.1662 0.00368363 0.269209)
(20.1662 0.00816377 0.265393)
(-1.20533e-07 0.00764909 0.252659)
(-4.22719e-08 -0.00326759 0.252363)
(1.98507e-08 -0.0102526 0.250345)
(-20.1662 -0.00487197 0.269484)
(-20.1662 0.00369866 0.269207)
(-20.1662 0.00816553 0.265392)
(20.1669 -0.00288091 0.290084)
(20.1669 0.000505583 0.289913)
(20.167 0.0047563 0.28692)
(-1.33438e-07 0.0258625 0.014546)
(-4.47528e-08 -0.0200505 0.0147904)
(2.74238e-08 -0.0389991 0.0362947)
(-20.1669 -0.00286598 0.290089)
(-20.1669 0.00052443 0.289908)
(-20.167 0.00476033 0.286917)
(20.1712 -0.0191205 0.479378)
(20.1713 0.0094234 0.478854)
(20.1716 0.0379966 0.473112)
(-1.14939e-07 0.0400025 0.278906)
(-3.91906e-08 -0.0140347 0.275548)
(2.72676e-08 0.0158423 0.260649)
(-20.1712 -0.0191018 0.479383)
(-20.1713 0.00944875 0.478847)
(-20.1716 0.0380063 0.47311)
(44.1693 22.8607 -29.915)
(41.3735 36.3871 -12.7592)
(34.3725 48.8545 25.5591)
(-0.05279 4.53789 -86.5008)
(-0.00995963 36.7854 -50.8242)
(0.0625433 51.7923 24.1242)
(-43.5847 22.3426 -28.4059)
(-41.4609 35.1121 -11.0631)
(-34.1585 47.7792 25.5321)
(55.2214 12.3877 -5.47919)
(52.3859 60.0891 69.3419)
(39.8664 28.9251 100.735)
(-0.0124771 -26.4471 -148.849)
(-0.0642076 54.4652 -19.125)
(-0.0635365 33.6688 95.6648)
(-50.6297 14.2123 -7.45558)
(-48.7685 57.8784 63.0715)
(-40.239 28.9625 100.501)
(59.0462 -33.6989 -30.4219)
(57.4554 42.2235 34.5588)
(47.8123 92.6152 207.699)
(0.289233 -43.2412 -188.272)
(0.233963 67.6882 30.8346)
(-0.126136 65.2072 129.739)
(-50.657 -20.028 -37.5064)
(-52.0211 45.2576 23.2952)
(-44.9321 85.9244 204.246)
(45.3491 -59.581 -137.805)
(57.9636 -94.9264 -58.3269)
(59.8343 55.9151 123.098)
(-0.336252 -21.858 -279.644)
(-0.0269801 -71.4666 -46.872)
(0.145006 43.2925 109.788)
(-40.4436 -53.3034 -131.175)
(-55.9668 -87.9377 -63.9706)
(-57.1369 59.494 111.265)
(42.0541 -40.3304 -118.082)
(58.8221 -63.0682 -27.0152)
(60.2287 19.6993 63.2087)
(0.191578 -51.4167 -96.7168)
(0.160706 -51.684 -65.7147)
(0.0568182 -4.3558 21.6793)
(-35.3898 -17.6036 -111.278)
(-54.7135 -60.0468 -38.3197)
(-57.5238 18.1955 51.9464)
(25.5575 -10.4691 -34.788)
(55.2516 -39.3261 -29.1526)
(60.3499 -6.70197 43.8621)
(-0.00289757 -5.67357 -43.8103)
(0.0267272 -34.7378 -35.1327)
(-0.0104829 -23.783 3.06776)
(-22.1838 8.23119 -35.8018)
(-47.491 -38.2886 -36.7852)
(-57.4727 -8.32604 32.1613)
(49.7964 -67.6687 -186.365)
(56.025 -59.1069 -68.4687)
(56.1066 70.325 236.821)
(-0.12227 -61.094 -323.82)
(0.0911357 33.0523 56.4657)
(0.0617644 59.924 169.7)
(-43.6718 -56.8854 -181.978)
(-51.2135 -62.0619 -77.9692)
(-52.9366 69.2417 228.386)
(44.8637 -67.8745 -155.725)
(55.8285 -64.8368 -73.7061)
(55.0768 68.8961 246.993)
(-0.16221 -56.0304 -308.267)
(0.0726963 16.4877 51.6355)
(0.0835821 57.8821 183.144)
(-40.2268 -53.9558 -156.483)
(-51.697 -62.2713 -83.5044)
(-52.1616 67.2682 237.338)
(46.7608 -68.9005 -141.863)
(53.38 -80.896 -71.5623)
(53.4889 74.9867 265.134)
(-0.200422 -56.3383 -297.258)
(0.0614601 -9.74928 65.3711)
(0.1057 56.77 211.6)
(-41.6785 -54.744 -142.1)
(-52.2561 -72.7527 -82.7621)
(-51.3119 74.047 249.872)
(16.8484 1.05704 -12.4783)
(24.2401 -35.9667 -3.8711)
(23.5943 -35.2335 2.57703)
(0.0038408 -12.1433 -11.5838)
(-0.00458542 -27.0633 -8.14697)
(-0.0207567 -29.6673 -6.63581)
(-13.7212 25.6023 -16.078)
(-15.9411 -34.9293 -5.22971)
(-16.4821 -36.1783 -2.95533)
(16.5829 -24.174 -2.96853)
(16.8443 -32.0468 1.87806)
(16.8656 -32.0444 5.69274)
(0.0109198 -7.56262 -6.90266)
(-0.00590731 -16.3067 -2.88194)
(-0.0163928 -19.7382 1.37886)
(-13.8506 2.18082 1.80306)
(-14.1092 -28.9573 1.51581)
(-13.9935 -29.2904 1.93343)
(15.5935 -1.53749 -0.553945)
(15.1405 -15.0198 0.971796)
(15.0664 -15.7749 4.63653)
(0.0151258 -7.76619 -2.24362)
(-0.00498807 -6.33274 -2.62211)
(-0.00547311 -4.35278 -2.71734)
(-13.8654 -11.9688 -0.274102)
(-13.9234 -11.9589 3.23901)
(-13.8238 -2.82979 3.13726)
(13.6038 -35.8434 -6.98479)
(13.677 -32.1214 -9.74349)
(13.6757 -24.7969 -14.2161)
(0.00813929 -29.4468 -6.05159)
(0.0180413 -26.1889 -7.09864)
(0.0140972 -19.7683 -7.40365)
(-13.6083 -37.4727 -7.907)
(-13.6662 -33.0305 -10.3592)
(-13.6674 -25.4934 -15.1924)
(13.6532 -28.7666 0.772246)
(13.7021 -28.7348 -5.09178)
(13.661 -24.1246 -13.6131)
(0.0117825 -23.3222 2.03104)
(0.0171557 -22.303 2.05133)
(0.0123787 -16.7115 1.99945)
(-13.6458 -28.3411 -0.463493)
(-13.6918 -30.1779 -6.03645)
(-13.6483 -24.2811 -14.5356)
(13.6777 -2.9461 -1.17922)
(13.7216 -14.8638 -14.3316)
(13.6742 -20.3625 -19.9101)
(0.0129674 -6.67889 0.467572)
(0.0173488 -8.90419 2.18494)
(0.0110328 -10.4156 0.926701)
(-13.6771 0.884253 -2.86831)
(-13.7041 -14.0084 -14.0454)
(-13.6596 -20.9368 -20.6783)
(13.7817 22.1855 -11.909)
(14.0901 22.198 -9.3412)
(14.053 27.1526 -6.71823)
(-0.0101372 6.98586 -3.57109)
(-0.00168443 6.07792 -2.61949)
(0.00237749 10.3866 -0.582005)
(-13.5981 42.4349 -10.7275)
(-13.5833 39.5833 -9.77163)
(-13.5548 39.0009 -7.57296)
(14.1561 11.9262 -3.69557)
(16.5848 -12.2267 4.74596)
(16.5779 -19.9831 1.02636)
(-0.0156404 -7.88583 5.5654)
(-0.00491428 -13.7047 2.31016)
(0.00481127 -9.5938 -3.10266)
(-13.7892 31.0509 4.12416)
(-13.76 25.3745 6.71535)
(-13.6761 25.2573 7.22304)
(13.9334 9.19301 2.15234)
(16.1699 -2.99482 5.38135)
(16.3697 6.30033 5.5349)
(-0.0186778 -22.9068 5.64111)
(-0.00562841 -11.544 2.53098)
(0.00678399 -7.40482 1.08533)
(-13.9826 -24.42 4.64555)
(-13.8986 -18.8957 2.58532)
(-13.8219 -13.2533 2.05294)
(13.7381 -5.61952 -6.96381)
(13.7141 0.910318 -19.9381)
(13.7063 6.4271 -17.6658)
(0.0175837 5.45313 -6.96567)
(-0.000849863 4.27629 -4.77339)
(-0.0144653 6.97925 -4.39213)
(-13.502 19.0983 -29.7762)
(-13.517 24.277 -22.5755)
(-13.6356 40.4294 -17.2488)
(13.7479 -5.02321 2.292)
(13.7066 0.815055 -29.6537)
(13.6988 2.07648 -22.2658)
(0.00445239 0.394224 6.7782)
(-0.0187002 3.68889 6.69848)
(-0.025507 3.92125 11.1808)
(-13.5517 4.64655 -46.4628)
(-13.6262 17.8406 -26.7896)
(-13.749 30.6972 -5.19946)
(13.7308 -2.5078 4.66694)
(13.781 0.594173 -36.9925)
(13.7158 -0.779326 -26.4896)
(-0.00967409 -1.28152 5.17337)
(-0.0282065 -11.5978 16.9924)
(-0.0330949 -20.3624 17.386)
(-13.7231 1.47861 -57.9486)
(-13.7024 15.6487 -17.9627)
(-13.9279 -22.9264 17.0386)
(13.6089 1.7837 -16.6685)
(13.6103 1.2855 -55.9992)
(13.5758 -0.443741 -57.7849)
(-0.0695277 0.0530477 51.5276)
(-0.0704562 -2.55121 33.0599)
(-0.0742186 -7.37363 33.2819)
(-13.7105 -10.2753 -86.425)
(-13.7988 14.3111 33.3318)
(-13.8415 -6.57148 64.1081)
(13.479 0.838589 -115.649)
(13.4768 1.6497 -120.317)
(13.4413 1.06116 -120.724)
(-0.0293732 1.84894 77.9543)
(-0.0295087 2.74551 64.0828)
(-0.0331941 0.3263 66.2704)
(-13.4119 2.6649 -123.26)
(-13.4484 -1.69005 -66.0981)
(-13.5851 -0.218529 102.24)
(13.0499 0.12171 -149.881)
(13.0451 0.192735 -150.118)
(13.009 0.0713588 -150.16)
(0.063998 0.430562 180.781)
(0.0686735 0.419698 182.084)
(0.0727019 -0.178145 207.259)
(-12.8252 -2.93252 -141.657)
(-12.841 -6.17975 -108.17)
(-13.3456 -3.80608 -1.43753)
(13.7009 -14.1506 -23.1879)
(13.7262 -2.7855 -20.59)
(13.73 5.12553 -8.11871)
(0.00156099 -11.5971 -10.1745)
(-0.00904886 -2.94969 -9.21813)
(-0.0157263 4.28848 0.526272)
(-13.7122 -15.4824 -24.2219)
(-13.7505 -3.2127 -21.1064)
(-13.7651 4.51901 -8.60416)
(13.6928 -16.2925 -25.8894)
(13.7184 -4.02331 -23.3631)
(13.7203 -0.382171 6.6378)
(0.00161823 -11.4173 -6.22248)
(-0.00789029 -4.06951 -6.68059)
(-0.0143383 2.27494 11.9334)
(-13.6988 -17.4558 -26.7432)
(-13.7401 -4.78184 -23.9459)
(-13.7492 -1.14487 7.04157)
(13.7295 -10.5978 -32.303)
(13.8208 -2.73755 -26.9353)
(13.7016 -2.20911 -0.813669)
(0.00153235 -5.78768 -7.07736)
(-0.00634586 -4.27155 -11.0812)
(-0.0120544 2.2786 16.1676)
(-13.7346 -11.605 -33.0418)
(-13.8438 -4.89565 -27.8039)
(-13.7218 -2.45989 -1.18008)
(13.6972 9.95781 -53.9319)
(13.7224 -1.94826 -37.4815)
(13.6907 -4.76977 -4.84744)
(-0.00412961 11.784 15.4637)
(-0.00395349 -1.63426 25.366)
(-0.00363517 -1.99943 49.0459)
(-13.7191 10.0823 -54.5855)
(-13.7338 -2.00336 -38.313)
(-13.6991 -4.89812 -5.26537)
(13.5076 -6.06993 -106.943)
(13.4978 -0.559184 -111.436)
(13.5033 -0.300096 -105.245)
(0.0015802 -0.580692 55.237)
(0.00161356 -1.94044 63.3323)
(0.0016994 -1.68509 74.2248)
(-13.5044 -6.18864 -107.24)
(-13.4909 -0.495333 -111.741)
(-13.4997 -0.302192 -105.544)
(12.955 0.0458109 -144.479)
(12.9548 -0.119481 -144.612)
(12.9619 -0.12963 -144.341)
(-0.000699571 -0.47578 184.97)
(-0.000703108 -1.27973 185.477)
(-0.000704355 -0.993623 181.515)
(-12.957 0.0492119 -144.591)
(-12.9568 -0.115504 -144.724)
(-12.9639 -0.128027 -144.45)
)
;

boundaryField
{
    fuel
    {
        type            fixedValue;
        value           uniform (0 0 0.25);
    }
    primary_air
    {
        type            fixedValue;
        value           uniform (0 0 2.5);
    }
    Secondary_air_RHS
    {
        type            fixedValue;
        value           uniform (0 52.7778 0);
    }
    Secondary_air_LHS
    {
        type            fixedValue;
        value           uniform (0 -52.7778 0);
    }
    outlet
    {
        type            pressureInletOutletVelocity;
        value           nonuniform List<vector> 
18
(
(0 0 -144.479)
(-0.000699571 -0.47578 184.97)
(0 0 -144.591)
(0 0 -144.612)
(-0.000703108 -1.27973 185.477)
(0 0 -144.724)
(0 0 -144.341)
(-0.000704355 -0.993623 181.515)
(0 0 -144.45)
(0 0 -149.881)
(0.063998 0.430562 180.781)
(0 0 -141.657)
(0 0 -150.118)
(0.0686735 0.419698 182.084)
(0 0 -108.17)
(0 0 -150.16)
(0.0727019 -0.178145 207.259)
(0 0 -1.43753)
)
;
    }
    stove_body
    {
        type            noSlip;
    }
    frontAndBack
    {
        type            empty;
    }
}


// ************************************************************************* //
