/*--------------------------------*- C++ -*----------------------------------*\
  =========                 |
  \\      /  F ield         | OpenFOAM: The Open Source CFD Toolbox
   \\    /   O peration     | Website:  https://openfoam.org
    \\  /    A nd           | Version:  6
     \\/     M anipulation  |
\*---------------------------------------------------------------------------*/
FoamFile
{
    version     2.0;
    format      ascii;
    class       volScalarField;
    location    "4";
    object      O2;
}
// * * * * * * * * * * * * * * * * * * * * * * * * * * * * * * * * * * * * * //

dimensions      [0 0 0 0 0 0 0];

internalField   nonuniform List<scalar> 
297
(
0
0
0
0
0
0
0
0
0
0
0
0
0
0
0
0
0
0
0
0
0
0
0
0
0
0
0
0.0859563
0.152359
0.0857675
0.188953
0.209051
0.183399
0.0852261
0.152208
0.0863207
0
0.028781
0
0.0364141
0.148186
0.0351655
0
0.0286659
0
0
0.0303131
0
0.0236757
0.0365714
0.0234625
0
0.030226
0
0.00476188
0.0130417
0.00463996
0
0.00178147
0
0.00485774
0.0129848
0.00472859
1.57222e-07
1.78369e-07
2.87795e-07
3.33757e-07
1.21662e-07
8.37985e-07
1.59519e-07
1.78135e-07
2.89528e-07
1.83221e-12
4.39588e-12
4.58092e-12
4.60886e-12
3.06304e-12
1.0768e-11
1.86296e-12
4.40029e-12
4.59803e-12
0
0.030221
0
0
0.00178185
0
0
0.0301336
0
0
0.0299849
0
0
0.00178152
0
0
0.0298978
0
0
0.029116
0
0
0.00178148
0
0
0.0290308
0
3.46174e-17
2.29342e-16
1.14786e-16
7.58445e-17
6.88078e-17
1.77208e-16
4.84796e-17
2.10495e-16
1.21482e-16
4.00179e-21
6.50705e-20
1.85322e-20
5.16151e-21
1.35034e-20
8.06692e-21
4.04951e-21
5.7531e-20
1.92893e-20
5.22516e-24
3.74254e-20
8.00284e-21
9.86023e-25
9.6156e-22
1.00578e-22
4.77787e-24
3.09592e-20
6.54046e-21
1.72523e-21
4.40511e-26
5.39626e-31
1.95622e-21
2.32539e-26
2.96798e-31
1.83344e-21
4.70129e-26
5.78397e-31
2.8503e-25
1.65585e-29
8.42754e-34
1.78915e-25
8.73067e-28
2.99034e-32
2.94289e-25
1.86064e-29
8.84842e-34
7.41171e-25
4.25314e-29
1.29484e-33
2.33433e-27
3.93289e-29
2.6141e-33
6.06091e-25
3.52969e-29
1.10881e-33
8.51235e-32
7.01164e-27
5.22369e-22
1.12009e-31
9.15803e-27
8.42345e-22
2.44797e-31
9.9672e-27
7.33328e-22
1.13926e-34
2.08118e-30
6.24536e-26
1.15024e-32
3.48404e-28
9.87377e-26
1.89284e-34
4.3123e-30
1.19206e-25
1.8363e-34
1.13817e-30
4.69141e-28
2.10541e-33
1.58274e-29
4.55582e-29
1.99023e-34
1.72014e-30
4.46058e-28
4.50529e-45
1.68704e-40
3.00527e-36
3.19891e-44
2.24807e-40
2.39656e-36
4.08641e-44
5.05927e-40
8.68331e-36
1.74326e-47
2.35995e-43
4.97273e-39
3.54796e-46
5.05384e-42
1.89821e-37
9.85369e-47
2.66219e-43
7.28815e-39
2.28846e-47
8.56387e-44
3.47532e-39
1.28046e-46
1.18524e-42
4.51791e-38
8.92726e-47
9.35336e-44
4.07044e-39
3.79025e-47
2.45701e-46
1.29989e-44
7.5588e-47
2.55277e-44
4.40838e-43
8.71116e-47
7.55315e-46
2.60269e-44
1.39736e-50
2.0971e-49
2.0532e-48
1.73632e-45
2.66771e-44
2.70233e-43
1.35707e-50
3.10586e-49
2.01893e-48
2.85406e-51
4.32824e-50
3.95517e-49
8.39295e-46
1.24821e-44
1.16101e-43
4.82232e-51
7.38635e-50
6.67674e-49
1.02344e-35
5.92311e-40
4.76155e-44
6.32308e-36
2.49512e-40
4.69383e-44
2.04986e-35
6.59095e-40
5.38212e-44
3.50959e-38
1.75825e-42
3.16398e-46
4.88736e-37
1.30015e-41
1.31804e-45
3.6283e-38
1.17448e-42
7.78237e-46
2.86852e-38
8.61326e-43
3.06549e-46
5.79033e-38
1.65555e-42
6.77688e-46
2.34407e-38
5.42422e-43
7.40534e-46
1.0707e-43
1.9987e-45
3.11907e-46
7.58404e-43
4.74297e-44
5.98243e-46
1.49697e-43
6.38195e-45
7.28037e-46
2.58938e-48
3.8148e-49
1.93426e-50
4.65778e-43
4.81037e-44
3.39477e-45
3.64929e-48
3.7757e-49
2.74159e-50
6.80422e-49
7.79741e-50
5.56024e-51
1.99739e-43
2.25083e-44
1.6344e-45
1.14824e-48
1.32958e-49
9.38849e-51
)
;

boundaryField
{
    fuel
    {
        type            fixedValue;
        value           uniform 0;
    }
    primary_air
    {
        type            fixedValue;
        value           uniform 0.23;
    }
    Secondary_air_RHS
    {
        type            fixedValue;
        value           uniform 0.23;
    }
    Secondary_air_LHS
    {
        type            fixedValue;
        value           uniform 0.23;
    }
    outlet
    {
        type            inletOutlet;
        inletValue      uniform 0;
        value           nonuniform List<scalar> 
18
(
0
1.99739e-43
0
0
2.25083e-44
0
0
1.6344e-45
0
0
8.39295e-46
0
0
1.24821e-44
0
0
1.16101e-43
0
)
;
    }
    stove_body
    {
        type            fixedValue;
        value           uniform 0;
    }
    frontAndBack
    {
        type            empty;
    }
}


// ************************************************************************* //
