/*--------------------------------*- C++ -*----------------------------------*\
  =========                 |
  \\      /  F ield         | OpenFOAM: The Open Source CFD Toolbox
   \\    /   O peration     | Website:  https://openfoam.org
    \\  /    A nd           | Version:  6
     \\/     M anipulation  |
\*---------------------------------------------------------------------------*/
FoamFile
{
    version     2.0;
    format      ascii;
    class       volScalarField;
    location    "4";
    object      p;
}
// * * * * * * * * * * * * * * * * * * * * * * * * * * * * * * * * * * * * * //

dimensions      [1 -1 -2 0 0 0 0];

internalField   nonuniform List<scalar> 
297
(
121037
121037
121037
201676
201676
201676
121036
121037
121037
121037
121037
121037
201676
201676
201676
121036
121037
121037
121037
121037
121037
201676
201676
201676
121036
121037
121037
97208.7
97150.2
97228.3
161613
161568
161620
97210.2
97151.2
97229.7
97309.1
96605.1
97334.5
160881
161032
160950
97320.5
96605.9
97328.9
94083.1
93888.7
94237.4
151946
157020
152238
94085.6
93888.4
94237.8
91589.1
94393.9
91332.5
156223
155683
156210
91580.7
94392.5
91338.6
96291.3
96505
96191.2
160615
159875
160580
96291.2
96504.8
96192.7
96358.7
96727.4
96334.3
160500
161068
160562
96358.4
96726.4
96335
74140.7
91615.5
74513
122023
152727
121438
74070
91613.7
74520.4
74045.6
91501.5
74272.7
120372
152763
119529
73971
91499.8
74279.5
76315.9
91811.1
76442.2
122702
153825
121602
76249.6
91809.2
76446.7
96934.4
97062.7
96931.1
161345
161637
161321
96933.4
97061.8
96930.9
97040.9
97064
97029.9
161580
161715
161551
97039.9
97063.6
97029.6
97047.8
97060.2
97040.1
161694
161731
161661
97046.9
97059.7
97039.8
97158.4
97343.9
97756.4
161504
161634
161878
97157.5
97342.4
97753.2
97074.6
97136.8
97397.8
161522
161553
161666
97074
97136
97396
96995.5
96889.7
96780.6
161608
161549
161521
96995.2
96889.6
96780.9
97755.9
97344.6
97160.4
161887
161648
161524
97753.9
97343.4
97159.2
97398
97136.9
97075.9
161676
161568
161544
97396.9
97136.1
97074.9
96783.3
96891.1
96997.7
161533
161564
161630
96783.2
96890.8
96996.9
98629.2
98470.5
98180.3
162650
162506
162236
98620
98463.3
98175.9
98401.2
98202.6
97875.8
162356
162232
161972
98393.9
98197.4
97873
98125.1
97909.7
97510.9
161983
161846
161651
98119.5
97906.1
97509.4
96661.5
96586.2
96443.4
160233
160159
160058
96662.6
96587.6
96445
91050.6
91077.5
91125.1
151014
151016
151016
91053.2
91079.7
91127.1
83567
83567.2
83569.5
134757
134758
134750
83568.5
83568.7
83571
98181.8
98472.7
98632
162230
162502
162647
98176.2
98464.6
98622
97876.7
98203.9
98402.9
161965
162227
162352
97872.7
98197.8
98394.9
97510.3
97909.6
98125.4
161643
161840
161978
97508
97905.3
98119.2
96437.3
96580.4
96655.7
160047
160148
160222
96439.1
96581.9
96657
91112.6
91065
91038.1
150996
150996
150994
91115.2
91067.7
91041.2
83554.5
83552.1
83551.9
134726
134734
134734
83556.3
83554
83553.7
)
;

boundaryField
{
    fuel
    {
        type            zeroGradient;
    }
    primary_air
    {
        type            zeroGradient;
    }
    Secondary_air_RHS
    {
        type            zeroGradient;
    }
    Secondary_air_LHS
    {
        type            zeroGradient;
    }
    outlet
    {
        type            totalPressure;
        rho             rho;
        psi             none;
        gamma           1;
        p0              uniform 100000;
        value           nonuniform List<scalar> 
18
(
87318.4
100000
87320.6
87286.9
100000
87289.2
87277.7
100000
87280.2
87291.6
100000
87293.6
87300.7
100000
87302.6
87332.2
100000
87334
)
;
    }
    stove_body
    {
        type            zeroGradient;
    }
    frontAndBack
    {
        type            empty;
    }
}


// ************************************************************************* //
