/*--------------------------------*- C++ -*----------------------------------*\
  =========                 |
  \\      /  F ield         | OpenFOAM: The Open Source CFD Toolbox
   \\    /   O peration     | Website:  https://openfoam.org
    \\  /    A nd           | Version:  6
     \\/     M anipulation  |
\*---------------------------------------------------------------------------*/
FoamFile
{
    version     2.0;
    format      ascii;
    class       surfaceScalarField;
    location    "4";
    object      phi;
}
// * * * * * * * * * * * * * * * * * * * * * * * * * * * * * * * * * * * * * //

dimensions      [1 0 -1 0 0 0 0];

internalField   nonuniform List<scalar> 
675
(
-3.98903e-07
-2.57652e-05
0.000153916
-7.45445e-07
-2.62768e-05
0.000154909
-2.5812e-05
0.000153788
-2.67724e-06
2.58021e-05
0.000163277
1.73502e-07
2.62453e-05
0.000157902
2.57125e-05
0.000163278
-8.08128e-07
0.000153884
-1.21004e-06
0.000154893
0.000153743
-3.66579e-07
-4.80032e-05
0.000201855
-7.90647e-07
-3.61497e-05
0.00019161
-4.77643e-05
0.000201305
-4.75144e-06
4.78523e-05
7.0796e-05
2.43899e-06
3.61025e-05
7.82533e-05
4.76992e-05
7.13632e-05
-7.5654e-07
0.000201583
-1.24533e-06
0.000191572
0.000201265
-3.82819e-06
7.7073e-05
2.17409e-06
5.75912e-05
7.59202e-05
8.99249e-06
-7.6475e-05
-1.12769e-05
-5.76119e-05
-7.61712e-05
-4.01097e-06
1.89586e-06
0.00380021
0.00475424
-0.0053582
-0.00383103
0.00661891
0.004207
0.00474425
-0.00537855
0.00479334
-0.00471522
0.00999543
-0.00564953
-0.00663208
0.0290108
-0.00480864
0.00922084
0.00391301
-0.00543214
-0.00371162
0.00418711
-0.00532342
0.0125234
0.0104331
-0.0283151
-0.0127112
-0.00390295
0.0333446
0.00974448
-0.0278334
0.00414614
-0.0105054
0.0267879
-0.00369826
0.00387838
0.029072
-0.00969544
0.0249626
0.0124253
-0.0283631
-0.0127785
0.0332694
-0.0277965
-0.000499396
0.0214609
-0.049276
0.000254098
-0.00819574
0.0407884
0.0209574
-0.0485401
-0.0527797
-0.0214612
0.122491
0.0531631
0.00821261
-0.09328
-0.0209273
0.120004
-0.000429903
-0.0493938
0.000323899
0.0407298
-0.0484032
-0.0300704
-0.0269623
-0.0234937
0.0805258
0.0293435
0.0086395
-0.0370076
-0.0310466
-0.0283304
-0.0228232
0.080499
-0.00149075
0.0270041
0.0220504
-0.0745261
0.00391017
-0.00862164
-0.10886
0.120722
0.0283056
0.02102
-0.0737303
-0.0301388
-0.0234145
0.0805566
0.0292697
-0.0370384
-0.0309928
-0.0228027
0.08038
0.00659155
-0.00955228
-0.0205333
-0.0107406
0.0138149
-0.0334895
-0.0130317
-0.0205331
0.0221978
0.00955464
-0.0192523
-0.0149288
-0.0137998
-0.0441198
0.0129993
-0.019938
0.0066578
-0.0205178
-0.0107024
-0.033477
-0.0205071
0.00140057
-0.00013786
-0.0217948
-0.0117179
0.00089704
-0.0212667
-0.010022
-0.0222287
0.0150361
0.000160553
-0.0345884
0.00780303
-0.000848236
-0.0351424
0.00996018
-0.0321203
0.00140984
-0.0217658
-0.0116541
-0.0212599
-0.0222008
-0.00179778
-0.000513958
-0.0591543
0.00168145
-0.000146183
0.0374554
-0.000410813
-0.0586969
-0.00328267
0.000520279
0.104676
0.00357239
0.000146877
-0.100428
0.00041178
0.102683
-0.00180461
-0.0592475
0.00167213
0.0374
-0.0585695
-0.00180802
0.000272668
-0.0697935
0.00173508
-0.000585807
0.0344982
0.000392898
-0.0695687
-0.00380196
-0.000252358
0.0892114
0.00385351
0.000585984
-0.109257
-0.000387072
0.0878544
-0.00181018
-0.0698519
0.00172804
0.0344478
-0.0694438
-0.00244877
0.00063333
0.00239889
-0.00139613
0.000762454
-0.00423068
-0.000625495
0.00444104
0.00139621
-0.00076229
-0.00245768
0.00239352
0.00776938
-0.000942932
-0.0109527
-0.0176684
-0.00672239
-0.000941677
-0.00583299
-0.00086482
-0.0104005
-0.0176857
0.00789508
0.000945649
-0.0205225
-0.02385
-0.0105394
0.000945915
-0.0185963
0.000863945
-0.0203354
-0.024054
0.00775905
-0.010957
-0.017622
-0.006688
-0.00586664
-0.0103946
-0.0176303
0.00283811
3.96448e-05
-0.00249771
-0.0113327
-0.00342074
-8.30791e-05
0.00050906
0.000157813
-0.00271042
-0.0112686
0.0058216
-2.7447e-05
-0.0080128
-0.018265
-0.00590195
9.27111e-05
-0.00704928
-0.000156352
-0.00740515
-0.0185189
0.00284567
-0.00251188
-0.0113181
-0.00340116
0.000473093
-0.00270782
-0.0112442
0.000185696
-0.000178672
-0.0025046
0.000606645
8.81134e-05
0.000123624
-0.00222732
0.0026093
0.000206032
-0.0110078
-0.00427607
-7.65048e-05
-0.000119512
-0.011439
0.00020102
-0.00250667
0.000597691
-0.00222963
-0.0161942
-1.86161e-05
-0.00147289
-0.0165634
0.00200244
-0.00163336
0.00246069
-0.00606692
-0.0129573
-0.0227492
1.88281e-05
-0.00134257
-0.0202343
-0.00199825
0.00148549
-0.00245485
0.00237277
-0.0176919
-0.0161413
-0.00147021
-0.01651
-0.00162969
-0.00605841
-0.0129065
-0.0120614
-3.48934e-05
-0.000645219
-0.0121139
0.00135314
-0.00293401
0.000608551
-0.00672274
-0.0120668
-0.0196037
3.55907e-05
-0.000328618
-0.0165255
-0.00135041
0.00111057
-0.000604756
0.0033585
-0.0162983
-0.0120363
-0.000642592
-0.0120893
-0.0029272
-0.00671431
-0.0120383
-0.0028506
-2.19934e-05
-0.00522678
-0.000557949
-0.00129879
-0.0106509
-0.0118131
2.31588e-05
-0.0118183
0.000557505
0.00129837
-0.0110573
-0.00284914
-0.00521896
-0.0106351
0.0165506
0.00244511
-0.00605526
-0.0129405
0.0161705
0.00197399
-0.00159402
-4.61865e-05
-0.00145168
0.0201517
-0.00244131
0.00237002
-0.0176357
0.0226014
-0.00197052
0.00149457
4.71917e-05
-0.00134216
0.0165054
-0.00605653
-0.0128903
0.0161253
-0.00159044
-0.00144957
0.0121268
0.000594533
-0.00672186
-0.0120548
0.0121005
0.0013097
-0.00287754
-8.8673e-05
-0.000595164
0.0164466
-0.000589185
0.00335299
-0.0162462
0.0194441
-0.00130716
0.00111377
9.15584e-05
-0.000343471
0.0121117
-0.0067254
-0.0120322
0.0120872
-0.00287316
-0.000588945
0.00524046
-0.00131395
-0.0106486
0.00298522
-0.000622392
-0.000114546
0.0117157
0.00131413
-0.0109911
0.0115841
0.000622728
0.000118123
0.00522805
-0.0106396
0.00297751
0.00561533
0.00213986
-0.00775535
0.0086928
0.0020271
-0.00510469
0.00212325
-0.00637105
0.0080636
-0.00213154
-0.00379269
0.0129762
-0.00201899
-0.000866915
-0.00211601
-0.000420611
0.0055816
-0.00771334
0.00864416
-0.00508172
-0.00636227
0.00434307
0.00180356
-0.0139021
0.00812064
0.001761
-0.0106434
0.00134555
-0.0116509
0.00596507
-0.00179691
-0.00615778
0.0114891
-0.00175569
-0.0028747
-0.00133825
-0.00249429
0.00432286
-0.0138333
0.00809567
-0.0106104
-0.0116372
0.0053384
0.00352714
-0.0227678
0.005796
0.00191271
-0.0130138
0.00110359
-0.0176072
0.00652174
-0.00351521
-0.00563759
0.0105369
-0.00191042
-0.00306716
-0.00110433
-0.000740842
0.00530895
-0.0226576
0.00578078
-0.0129928
-0.0176004
-0.00635386
0.0123154
-0.0287292
-0.00120987
0.0106435
-0.0288012
0.0103211
-0.0291381
0.00134767
-0.0123179
0.0176475
-0.0013503
-0.0106681
0.0209419
-0.0103433
0.0185728
-0.00630038
-0.0286749
-0.00117613
-0.028785
-0.0291196
0.000446045
0.00579975
-0.0349748
0.00098677
0.00588947
-0.0352312
0.00660999
-0.0347611
-0.00198106
-0.00582369
0.0312518
-0.00138755
-0.00590961
0.0321473
-0.00662724
0.0304223
0.000462829
-0.0349613
0.000992448
-0.035224
-0.0347543
-4.6424e-06
0.0183919
-0.000194238
0.0183044
0.0183351
-0.000482373
-0.0183982
0.000213355
-0.01831
-0.0183406
-1.09114e-06
-0.000192447
-0.0087006
0.00213117
-0.00638794
-0.00562583
0.00203343
-0.00510833
0.00214502
-0.00777099
-0.0130065
-0.00212292
-0.000431501
-0.00808787
-0.00202483
-0.000860684
-0.00213574
-0.00380743
-0.00865625
-0.00637329
-0.00559193
-0.00508927
-0.0077278
-0.0081249
0.00134716
-0.0116771
-0.00434869
0.00176854
-0.0106532
0.00180922
-0.013929
-0.0115203
-0.00134138
-0.0025212
-0.00598013
-0.00176287
-0.00286976
-0.00180168
-0.00617697
-0.00810113
-0.0116519
-0.00432747
-0.0106259
-0.0138571
-0.00579225
0.00111597
-0.0176518
-0.00534704
0.00191679
-0.0130153
0.00353382
-0.02281
-0.0105503
-0.00111465
-0.000797805
-0.00653848
-0.00191438
-0.00305074
-0.00352078
-0.00566111
-0.00578085
-0.0176209
-0.00531964
-0.0130016
-0.0226976
0.00119613
0.0103333
-0.0291812
0.00636472
0.0106496
-0.0288333
0.0123259
-0.028771
0.00132197
-0.010353
0.0185658
-0.00135148
-0.010674
0.0209456
-0.0123292
0.0176419
0.00117573
-0.0291496
0.00631347
-0.0288131
-0.0287131
-0.000991279
0.0066026
-0.0347924
-0.000443945
0.00588182
-0.0352625
0.00579398
-0.0350089
0.00138797
-0.00662522
0.0304053
0.00198239
-0.00590723
0.0321399
-0.00582199
0.0312399
-0.000991828
-0.0347829
-0.000458873
-0.0352533
-0.034994
0.000194864
0.018328
6.40148e-06
0.0182968
0.0183844
-0.000214465
-0.0183348
0.000484028
-0.0183037
-0.0183919
0.000193579
3.36924e-06
)
;

boundaryField
{
    fuel
    {
        type            calculated;
        value           nonuniform List<scalar> 
36
(
0.000128171
0.000213563
0.00012817
0.000128171
0.000213563
0.000128171
0.000128171
0.000213564
0.000128171
-0.000128171
-0.000213563
-0.00012817
-0.000128171
-0.000213563
-0.000128171
-0.000128171
-0.000213564
-0.000128172
0
0
0
0
0
0
0
0
0
0
0
0
0
0
0
0
0
0
)
;
    }
    primary_air
    {
        type            calculated;
        value           nonuniform List<scalar> 9(-0.0031966 -0.00531445 -0.00319665 -0.00319468 -0.00531299 -0.00319471 -0.00319725 -0.0053147 -0.00319729);
    }
    Secondary_air_RHS
    {
        type            calculated;
        value           nonuniform List<scalar> 9(0.0122514 0.0199667 0.0122526 0.0122119 0.0196529 0.012213 0.0125686 0.0199938 0.0125693);
    }
    Secondary_air_LHS
    {
        type            calculated;
        value           nonuniform List<scalar> 9(0.0121902 0.020063 0.0121786 0.0121746 0.0197915 0.0121623 0.0125478 0.0201747 0.0125369);
    }
    outlet
    {
        type            calculated;
        value           nonuniform List<scalar> 
18
(
-0.0533151
0.0672831
-0.0533111
-0.0533707
0.0680425
-0.0533666
-0.0533867
0.0685007
-0.0533823
-0.0533619
0.0685247
-0.0533582
-0.0533459
0.0680665
-0.0533426
-0.0532903
0.0673117
-0.0532871
)
;
    }
    stove_body
    {
        type            calculated;
        value           uniform 0;
    }
    frontAndBack
    {
        type            empty;
        value           nonuniform 0();
    }
}


// ************************************************************************* //
