/*--------------------------------*- C++ -*----------------------------------*\
  =========                 |
  \\      /  F ield         | OpenFOAM: The Open Source CFD Toolbox
   \\    /   O peration     | Website:  https://openfoam.org
    \\  /    A nd           | Version:  6
     \\/     M anipulation  |
\*---------------------------------------------------------------------------*/
FoamFile
{
    version     2.0;
    format      ascii;
    class       volScalarField;
    location    "4";
    object      Qdot;
}
// * * * * * * * * * * * * * * * * * * * * * * * * * * * * * * * * * * * * * //

dimensions      [1 -1 -3 0 0 0 0];

internalField   nonuniform List<scalar> 
297
(
0.000130181
0.000130181
0
0.000655184
0.000260361
0
0.000197411
0
0.000327592
0.000327592
0.000197411
0.000197411
0.000394823
0
0.000655184
0
0.000197411
0
0
0
-4.75197e-10
0
0
0
0.000197411
0
0.000197411
0
-9.50394e-10
0
0
2.79407e-10
0
0
-9.50394e-10
0
0
-4.75197e-10
0
-9.50394e-10
-9.50394e-10
0
0
0
0
0
8.73148e-12
0
-9.41662e-10
-1.90079e-09
0
0
0
0
0
0
-4.75197e-10
0
2.18287e-12
-4.75197e-10
0
-9.50394e-10
0
0
-1.90079e-09
-9.50394e-10
0
1.33232e-16
0
0
0
-9.50394e-10
0
0
8.13183e-21
0
0
3.25273e-20
-3.80157e-09
8.13183e-21
0
0
0
0
0
0
-9.50394e-10
0
-4.66465e-10
-2.37598e-10
0
0
0
0
0
0
0
-4.75197e-10
0
-4.75197e-10
0
-4.75197e-10
0
-1.90079e-09
0
0
0
-4.75197e-10
-3.80157e-09
-3.80157e-09
-3.80157e-09
0
0
0
6.20409e-26
0
2.48164e-25
7.57335e-30
0
0
1.51467e-29
3.02934e-29
0
0
0
-3.80157e-09
-3.80157e-09
0
-3.80157e-09
-7.60315e-09
0
2.36667e-31
7.39585e-33
-3.80157e-09
0
0
5.77801e-35
0
0
0
8.81654e-40
-3.80157e-09
0
8.81654e-40
4.62241e-34
0
1.72198e-42
0
0
0
-3.80157e-09
2.82129e-38
-3.80157e-09
0
0
0
0
1.12852e-37
0
9.24482e-34
5.64259e-38
0
0
0
-3.80157e-09
4.40827e-40
0
-7.60315e-09
0
0
0
0
0
-3.80157e-09
0
0
2.3112e-34
-3.80157e-09
0
0
0
0
-3.80157e-09
0
0
-7.60315e-09
0
0
0
6.26453e-54
0
-3.80157e-09
1.00233e-52
0
-7.60315e-09
5.01163e-53
-3.80157e-09
1.3453e-44
0
0
0
7.83066e-55
0
4.20406e-46
0
0
0
-3.80157e-09
0
-3.80157e-09
0
0
0
0
0
6.56884e-48
0
0
0
0
0
1.60372e-51
0
1.56613e-54
0
0
0
3.05885e-57
-3.80157e-09
-3.80157e-09
0
0
-3.80157e-09
3.05885e-57
-3.80157e-09
4.77946e-59
0
1.56613e-54
0
0
5.97432e-60
0
7.64713e-58
0
0
1.00233e-52
-7.60315e-09
0
1.00233e-52
0
8.21105e-49
0
-3.80157e-09
3.20744e-51
-3.80157e-09
0
0
0
-3.80157e-09
1.60372e-51
-3.80157e-09
0
0
0
2.10203e-46
0
0
0
8.0186e-52
1.56613e-54
0
3.13227e-54
-3.80157e-09
0
0
0
0
0
0
0
7.64713e-58
2.38973e-59
-3.80157e-09
0
0
0
-3.80157e-09
4.77946e-59
7.64713e-58
0
0
-3.80157e-09
5.01163e-53
-3.80157e-09
0
0
0
)
;

boundaryField
{
    fuel
    {
        type            calculated;
        value           uniform 0;
    }
    primary_air
    {
        type            calculated;
        value           uniform 0;
    }
    Secondary_air_RHS
    {
        type            calculated;
        value           uniform 0;
    }
    Secondary_air_LHS
    {
        type            calculated;
        value           uniform 0;
    }
    outlet
    {
        type            calculated;
        value           uniform 0;
    }
    stove_body
    {
        type            calculated;
        value           uniform 0;
    }
    frontAndBack
    {
        type            empty;
    }
}


// ************************************************************************* //
