/*--------------------------------*- C++ -*----------------------------------*\
  =========                 |
  \\      /  F ield         | OpenFOAM: The Open Source CFD Toolbox
   \\    /   O peration     | Website:  https://openfoam.org
    \\  /    A nd           | Version:  6
     \\/     M anipulation  |
\*---------------------------------------------------------------------------*/
FoamFile
{
    version     2.0;
    format      ascii;
    class       volVectorField;
    location    "4";
    object      U;
}
// * * * * * * * * * * * * * * * * * * * * * * * * * * * * * * * * * * * * * //

dimensions      [0 1 -1 0 0 0 0];

internalField   nonuniform List<vector> 
297
(
(13.7462 -0.00495935 0.27031)
(13.7472 -0.00278219 0.271595)
(13.7465 0.0021748 0.2701)
(-1.47524e-05 0.00270293 0.25127)
(-9.87373e-08 -0.00366503 0.247954)
(1.39702e-05 -0.006349 0.251023)
(-13.7464 -0.00594945 0.270263)
(-13.7472 -0.00491175 0.271572)
(-13.7463 0.00104051 0.270045)
(13.746 -0.00571284 0.29476)
(13.7471 -0.00276969 0.286033)
(13.7462 0.00283019 0.294695)
(-1.48098e-05 0.00858566 0.0854618)
(-9.08672e-08 -0.00330826 0.119361)
(1.40338e-05 -0.0117301 0.0871616)
(-13.7461 -0.00659136 0.294821)
(-13.747 -0.00483143 0.285996)
(-13.746 0.00176406 0.294534)
(12.7974 -0.0240875 0.439349)
(13.7369 -0.00436786 0.459664)
(12.8949 0.0203883 0.440594)
(-1.19473e-05 -0.0362681 0.213486)
(-8.13263e-08 -0.00362243 0.170252)
(1.13422e-05 0.0331166 0.212004)
(-12.868 -0.0244226 0.440391)
(-13.7369 -0.00516797 0.459587)
(-12.8704 0.0197576 0.439997)
(49.018 5.29182 16.6002)
(31.9905 -0.307286 22.9333)
(50.8646 -3.62488 15.1344)
(7.27197e-05 1.66546 18.1483)
(3.41903e-05 -0.372448 10.8754)
(7.59368e-05 -2.12076 17.3825)
(-49.2319 5.3125 16.1327)
(-32.0647 0.123125 23.0597)
(-50.8859 -3.47084 15.4581)
(70.6399 -0.667617 35.415)
(64.9412 -3.45972 110.268)
(73.3292 6.30736 33.6327)
(0.00163519 36.6691 188.616)
(5.39734e-05 -0.528476 133.055)
(-0.000836657 -31.1997 190.369)
(-70.6574 -0.627477 35.4382)
(-65.1013 -4.48026 110.022)
(-73.5997 6.73247 33.6072)
(69.05 -42.5847 -51.0776)
(57.9304 0.788528 153.242)
(71.6329 45.5291 -50.8136)
(0.000298911 -50.8943 252.282)
(-1.5977e-05 1.28738 -22.5492)
(5.72334e-05 50.8202 257.873)
(-69.071 -43.5523 -51.2076)
(-58.0337 1.89741 153.495)
(-71.8924 44.9416 -50.9062)
(45.222 -49.5102 -212.188)
(33.8629 -3.42331 -25.7026)
(46.8523 53.9761 -212.962)
(-0.00150984 -55.7819 -19.7293)
(-8.34386e-05 1.71851 -116.487)
(0.00110525 58.5406 -27.0778)
(-45.2645 -49.5709 -212.489)
(-33.8857 -3.65014 -25.8911)
(-46.8622 53.9126 -213.15)
(21.8405 50.9447 -125.272)
(14.165 -7.57528 -87.8717)
(24.1769 -44.1952 -128.223)
(-5.06087e-06 13.2476 -112.583)
(-1.07525e-05 6.05537 -98.563)
(0.000159163 -10.7007 -115.54)
(-21.8553 50.8884 -125.428)
(-14.1718 -7.44077 -87.9109)
(-24.1694 -44.2225 -128.151)
(9.4184 30.1746 -25.4912)
(9.42462 -6.72047 -19.5471)
(9.42174 -28.103 -25.7908)
(-6.73867e-06 25.4404 -23.6392)
(-2.22409e-05 6.4861 -24.8692)
(1.52698e-05 -21.9257 -22.4646)
(-9.42774 30.1101 -25.4781)
(-9.42946 -6.66107 -19.5515)
(-9.42919 -28.0689 -25.785)
(60.6909 -34.2655 -486.265)
(56.5293 -4.47832 199.536)
(62.0698 40.5014 -486.449)
(-0.0118125 -50.3328 374.397)
(-0.000100358 4.50558 -144.345)
(0.00126958 52.3189 387.786)
(-60.572 -34.9458 -486.629)
(-56.6285 -4.52869 199.616)
(-62.4155 40.2697 -487.864)
(55.7262 -40.359 -391.328)
(51.0893 -4.69607 195.174)
(53.3987 45.6293 -389.68)
(-0.0134087 -52.1191 421.199)
(-9.58528e-05 4.15531 -145.788)
(0.00133043 53.2294 440.392)
(-55.7581 -40.6448 -392.415)
(-51.1795 -4.82839 195.248)
(-53.545 45.4821 -390.455)
(50.1859 -39.1264 -343.788)
(51.4707 -4.62351 179.896)
(51.4962 44.5963 -342.597)
(-0.0135387 -52.3616 467.642)
(-0.000123202 3.49971 -137.415)
(0.00096029 57.2729 484.498)
(-50.249 -39.4835 -344.52)
(-51.5595 -4.90206 179.94)
(-51.6516 44.4548 -343.175)
(9.36451 46.138 -13.0231)
(9.41377 2.8647 -12.6391)
(9.36269 -46.0975 -13.0907)
(-2.07347e-05 36.808 -13.5922)
(-1.8375e-05 -4.24968 -13.5494)
(-3.75993e-06 -37.361 -12.9348)
(-9.374 46.066 -13.0174)
(-9.41694 2.92372 -12.6445)
(-9.37408 -46.0068 -13.0862)
(9.42469 22.5386 -5.12477)
(9.4407 -2.52599 -2.30799)
(9.42216 -21.4114 -5.08857)
(-2.24427e-05 25.8149 -5.52908)
(-1.07847e-05 -0.12268 -6.90302)
(-5.3472e-06 -26.3135 -5.49825)
(-9.42794 22.5301 -5.15652)
(-9.44559 -2.45076 -2.33938)
(-9.42924 -21.3832 -5.0945)
(9.44397 -2.13618 -5.38113)
(9.44252 0.532927 1.14404)
(9.43795 4.03648 -5.01726)
(-1.84822e-05 14.2407 -3.18092)
(-1.0899e-05 -3.07476 -3.28003)
(-7.64304e-06 -15.3456 -2.64245)
(-9.44553 -1.95558 -5.34522)
(-9.44729 0.503099 1.06325)
(-9.44245 4.01119 -5.02197)
(9.3524 -49.9049 -5.70987)
(9.38793 -44.7083 -8.26495)
(9.37159 -38.4867 -11.2207)
(-1.91293e-05 -40.4364 -4.62116)
(-3.20141e-05 -37.4224 -4.55434)
(-6.86182e-05 -31.8023 -4.94043)
(-9.36434 -49.8126 -5.68982)
(-9.4003 -44.6126 -8.24091)
(-9.38446 -38.3973 -11.1976)
(9.39919 -36.0373 -2.94255)
(9.41751 -37.3788 -9.32401)
(9.36919 -32.8181 -17.7044)
(-1.19496e-05 -33.5042 0.202093)
(-1.69905e-05 -33.1538 1.53126)
(-3.88387e-05 -27.8501 2.4235)
(-9.40725 -35.9934 -2.95295)
(-9.42589 -37.3278 -9.32439)
(-9.37831 -32.7745 -17.7017)
(9.44484 -3.35416 -3.81096)
(9.43875 -18.0585 -16.6939)
(9.39129 -27.6706 -25.2338)
(-6.89905e-06 -19.9224 2.62627)
(-1.00752e-06 -20.7621 3.48182)
(5.05728e-06 -21.1717 3.3648)
(-9.44976 -3.36862 -3.79)
(-9.44418 -18.0401 -16.6631)
(-9.3975 -27.6406 -25.2028)
(9.37368 38.429 -11.2175)
(9.38927 44.6746 -8.2544)
(9.35395 49.8348 -5.68069)
(-4.53911e-05 31.6796 -4.93959)
(-2.5875e-05 37.2818 -4.52834)
(-2.61394e-05 40.1976 -4.62436)
(-9.38444 38.3348 -11.1916)
(-9.40039 44.5838 -8.22553)
(-9.36442 49.7608 -5.65447)
(9.37418 32.8061 -17.7208)
(9.42221 37.4285 -9.29468)
(9.40335 36.1178 -2.92499)
(-2.42986e-05 27.7129 2.41637)
(-1.69139e-05 32.9999 1.54791)
(-2.21801e-05 33.2316 0.239878)
(-9.37829 32.7559 -17.7367)
(-9.42595 37.3873 -9.30645)
(-9.40692 36.0855 -2.94748)
(9.39565 27.7045 -25.2243)
(9.4426 18.1088 -16.4602)
(9.44837 4.02194 -3.47576)
(-2.91253e-06 21.0143 3.40954)
(-6.96873e-06 20.538 3.54568)
(-1.71309e-05 19.4917 2.6853)
(-9.39741 27.673 -25.2165)
(-9.44422 18.0697 -16.4291)
(-9.44992 3.99164 -3.4139)
(9.34306 11.9765 -19.5558)
(9.34613 17.7223 -13.8205)
(9.35981 27.5276 -15.9965)
(-0.000200328 10.2072 -9.83816)
(-0.000157859 15.863 -5.24725)
(-9.69548e-05 23.4809 -6.13909)
(-9.36311 11.9385 -19.4786)
(-9.36316 17.6736 -13.7519)
(-9.37198 27.4395 -15.9479)
(9.35119 5.1637 -29.3705)
(9.36433 15.5771 -21.9208)
(9.35872 27.4285 -26.9702)
(-0.000159091 7.63272 -7.23843)
(-0.000113349 12.5514 -2.32464)
(-6.12613e-05 21.5311 -2.19906)
(-9.36868 5.17317 -29.2647)
(-9.37389 15.549 -21.8516)
(-9.36424 27.3976 -26.9419)
(9.39393 4.20402 -35.9883)
(9.37111 17.6003 -32.8662)
(9.37231 16.3335 -40.792)
(-0.000121586 6.11305 -11.9725)
(-7.91554e-05 13.9089 -7.02663)
(-3.4138e-05 16.4735 -1.39067)
(-9.41112 4.21232 -35.8737)
(-9.37637 17.6022 -32.8041)
(-9.37443 16.3082 -40.7723)
(9.3904 -4.35389 -57.4287)
(9.39611 -3.45831 -54.7586)
(9.40231 -10.2718 -59.5125)
(2.53656e-05 -5.01765 10.6706)
(3.1e-05 2.86322 19.0737)
(3.59321e-05 -9.52855 16.1389)
(-9.4035 -4.29922 -57.3199)
(-9.39583 -3.42432 -54.757)
(-9.40327 -10.2778 -59.4834)
(9.2751 1.82821 -123.72)
(9.27147 -1.08749 -125.052)
(9.26956 4.816 -123.837)
(6.01857e-05 -1.79129 62.6743)
(4.97573e-05 0.921735 65.5524)
(4.72012e-05 -2.01285 60.5151)
(-9.27492 1.80578 -123.662)
(-9.27129 -1.08179 -125.027)
(-9.2694 4.82313 -123.808)
(8.87486 -0.0116018 -159.127)
(8.8758 -0.0410848 -159.061)
(8.8769 -0.056862 -158.835)
(3.88565e-05 -0.579503 176.72)
(3.77098e-05 0.418613 175.583)
(3.70593e-05 -0.567762 173.802)
(-8.87474 -0.0106869 -159.112)
(-8.87569 -0.0398129 -159.048)
(-8.87679 -0.0563915 -158.822)
(9.35741 -27.5472 -16.0213)
(9.34576 -17.751 -13.8243)
(9.34198 -11.987 -19.5858)
(-0.000122419 -23.5333 -6.16841)
(-0.000177203 -15.9283 -5.24831)
(-0.00021831 -10.185 -9.87065)
(-9.37209 -27.4651 -15.9807)
(-9.36333 -17.7047 -13.7697)
(-9.36326 -11.9537 -19.513)
(9.3534 -27.4573 -26.9903)
(9.3607 -15.5826 -21.9341)
(9.34781 -5.16269 -29.4257)
(-8.70041e-05 -21.5666 -2.21816)
(-0.000133016 -12.631 -2.32507)
(-0.000175174 -7.62028 -7.27754)
(-9.36427 -27.4237 -26.9623)
(-9.37433 -15.5533 -21.8901)
(-9.36899 -5.17317 -29.3219)
(9.3674 -16.3225 -40.8884)
(9.36905 -17.6239 -32.8941)
(9.39382 -4.20683 -36.0656)
(-5.10673e-05 -16.4361 -1.48173)
(-9.59778e-05 -14.0114 -7.00544)
(-0.000134749 -6.11024 -12.0084)
(-9.37466 -16.3115 -40.8314)
(-9.37623 -17.611 -32.8509)
(-9.41142 -4.21348 -35.9511)
(9.39715 10.2832 -59.6372)
(9.39534 3.44531 -54.8445)
(9.39058 4.35721 -57.5569)
(4.00193e-05 9.5728 16.071)
(3.40116e-05 -2.89934 19.0288)
(2.90088e-05 5.03919 10.602)
(-9.40369 10.288 -59.5802)
(-9.39628 3.42295 -54.8369)
(-9.40396 4.30817 -57.4391)
(9.26982 -4.82579 -123.947)
(9.27174 1.09465 -125.161)
(9.27533 -1.83309 -123.849)
(6.05016e-05 2.04295 60.5251)
(6.17931e-05 -0.943605 65.5732)
(7.06888e-05 1.80388 62.6769)
(-9.26962 -4.82729 -123.91)
(-9.27151 1.08725 -125.13)
(-9.27512 -1.81073 -123.787)
(8.87701 0.057093 -158.934)
(8.87593 0.0416399 -159.16)
(8.87499 0.0120416 -159.226)
(4.55182e-05 0.57625 173.761)
(4.59778e-05 -0.424993 175.54)
(4.69447e-05 0.584061 176.672)
(-8.87688 0.0567236 -158.918)
(-8.87579 0.0406287 -159.144)
(-8.87485 0.0112508 -159.208)
)
;

boundaryField
{
    fuel
    {
        type            fixedValue;
        value           uniform (0 0 0.25);
    }
    primary_air
    {
        type            fixedValue;
        value           uniform (0 0 2.5);
    }
    Secondary_air_RHS
    {
        type            fixedValue;
        value           uniform (0 125 0);
    }
    Secondary_air_LHS
    {
        type            fixedValue;
        value           uniform (0 -125 0);
    }
    outlet
    {
        type            pressureInletOutletVelocity;
        value           nonuniform List<vector> 
18
(
(0 0 -158.934)
(4.55182e-05 0.57625 173.761)
(0 0 -158.918)
(0 0 -159.16)
(4.59778e-05 -0.424993 175.54)
(0 0 -159.144)
(0 0 -159.226)
(4.69447e-05 0.584061 176.672)
(0 0 -159.208)
(0 0 -159.127)
(3.88565e-05 -0.579503 176.72)
(0 0 -159.112)
(0 0 -159.061)
(3.77098e-05 0.418613 175.583)
(0 0 -159.048)
(0 0 -158.835)
(3.70593e-05 -0.567762 173.802)
(0 0 -158.822)
)
;
    }
    stove_body
    {
        type            noSlip;
    }
    frontAndBack
    {
        type            empty;
    }
}


// ************************************************************************* //
