/*--------------------------------*- C++ -*----------------------------------*\
  =========                 |
  \\      /  F ield         | OpenFOAM: The Open Source CFD Toolbox
   \\    /   O peration     | Website:  https://openfoam.org
    \\  /    A nd           | Version:  6
     \\/     M anipulation  |
\*---------------------------------------------------------------------------*/
FoamFile
{
    version     2.0;
    format      ascii;
    class       volScalarField;
    location    "4.5";
    object      O2;
}
// * * * * * * * * * * * * * * * * * * * * * * * * * * * * * * * * * * * * * //

dimensions      [0 0 0 0 0 0 0];

internalField   nonuniform List<scalar> 
297
(
0
0
0
0
0
0
0
0
0
0
0
0
0
0
0
0
0
0
0
0
0
0
0
0
0
0
0
0.0292425
0.075826
0.0461092
0.0915121
0.137167
0.113259
0.0292736
0.0759024
0.0461441
0
0.0130226
0
0.0158823
0.0648289
0.0307009
0
0.0130454
0
0
0.0100059
0
0.0107114
0.0157676
0.0128538
0
0.0100285
0
0.00202772
0.00604959
0.00202971
0
0.00080501
0
0.00203224
0.00606052
0.00203469
0
2.01189e-08
0
0
0
0
0
2.01513e-08
0
2.2652e-14
7.64393e-14
0
0
0
0
8.22493e-15
7.67117e-14
0
0
0.0100054
0
0
0.000828312
0
0
0.0100249
0
0
0.0099658
0
0
0.000806384
0
0
0.00999539
0
0
0.00986204
0
0
0.000806375
0
0
0.00990229
0
4.93344e-19
2.33081e-18
0
0
5.48278e-20
0
1.29244e-19
2.28214e-18
0
6.61112e-23
4.54441e-22
2.66321e-24
5.92237e-24
1.7817e-22
4.16449e-24
1.88328e-23
4.33814e-22
1.7412e-23
2.44033e-23
4.53474e-22
2.31076e-23
5.89072e-24
2.61748e-22
4.12592e-24
2.14595e-23
4.32072e-22
2.06112e-23
0
3.73366e-34
8.83787e-38
0
6.93572e-33
4.11897e-37
0
0
2.36757e-37
5.82394e-29
1.13479e-32
7.82525e-37
6.92761e-29
2.12998e-32
5.22403e-37
1.88108e-28
1.49848e-32
7.72246e-37
1.49442e-27
6.27976e-32
1.39862e-36
1.2505e-28
7.43156e-33
6.03111e-37
1.33628e-27
5.63771e-32
1.26721e-36
7.68572e-34
7.33937e-29
6.30753e-24
1.31366e-34
7.65752e-30
0
4.10853e-34
1.94441e-29
1.66109e-24
1.64538e-36
4.74857e-32
1.52184e-27
1.57806e-35
4.8404e-31
6.29197e-29
1.4865e-36
2.97371e-32
4.72067e-28
1.75791e-36
6.94275e-32
1.62029e-27
2.89126e-36
1.89169e-32
1.75771e-28
2.34682e-36
9.67555e-32
1.42612e-27
3.18193e-47
1.16721e-42
2.31625e-38
4.5339e-47
3.8323e-43
3.75008e-39
4.52574e-47
6.35088e-43
1.24813e-38
1.77391e-49
2.57154e-45
5.02961e-41
8.79206e-49
5.68959e-45
2.42275e-40
6.1319e-49
2.91237e-45
6.53534e-41
2.42649e-49
9.04332e-46
3.53967e-41
6.87989e-49
1.38827e-45
6.08991e-41
7.95507e-49
9.37171e-46
4.53447e-41
3.61215e-49
2.19573e-48
1.24079e-46
6.50378e-49
8.46175e-47
8.48404e-46
7.73032e-49
7.244e-48
2.68356e-46
7.1465e-53
7.06396e-52
4.59909e-51
8.33034e-48
8.31135e-47
5.38411e-46
6.12644e-53
9.32984e-52
4.16195e-51
2.24617e-53
2.19689e-52
1.29072e-51
4.00308e-48
3.84889e-47
2.3141e-46
2.24557e-53
2.19663e-52
1.29088e-51
8.6137e-42
1.19241e-45
4.65083e-49
1.54677e-41
1.04385e-45
1.04867e-48
2.13359e-41
1.01588e-45
7.91331e-49
3.50846e-41
1.96674e-45
4.82006e-49
1.62129e-41
8.74324e-46
6.28647e-49
3.43047e-41
1.74036e-45
6.75664e-49
2.84108e-41
7.41704e-46
4.15737e-49
1.6183e-41
4.47675e-46
5.68485e-49
2.4547e-41
5.05918e-46
6.30277e-49
1.29856e-46
2.30203e-48
3.80277e-49
3.53856e-46
3.83107e-47
5.4608e-49
1.45755e-46
5.86816e-48
6.20358e-49
1.47978e-51
3.22069e-52
1.93799e-53
2.24027e-46
3.7742e-47
2.92491e-48
1.77181e-51
2.78968e-52
2.28357e-53
5.32412e-52
9.91297e-53
8.41078e-54
9.57645e-47
1.74792e-47
1.45706e-48
5.32497e-52
9.92039e-53
8.32033e-54
)
;

boundaryField
{
    fuel
    {
        type            fixedValue;
        value           uniform 0;
    }
    primary_air
    {
        type            fixedValue;
        value           uniform 0.23;
    }
    Secondary_air_RHS
    {
        type            fixedValue;
        value           uniform 0.23;
    }
    Secondary_air_LHS
    {
        type            fixedValue;
        value           uniform 0.23;
    }
    outlet
    {
        type            inletOutlet;
        inletValue      uniform 0;
        value           nonuniform List<scalar> 
18
(
0
9.57645e-47
0
0
1.74792e-47
0
0
1.45706e-48
0
0
4.00308e-48
0
0
3.84889e-47
0
0
2.3141e-46
0
)
;
    }
    stove_body
    {
        type            fixedValue;
        value           uniform 0;
    }
    frontAndBack
    {
        type            empty;
    }
}


// ************************************************************************* //
