/*--------------------------------*- C++ -*----------------------------------*\
  =========                 |
  \\      /  F ield         | OpenFOAM: The Open Source CFD Toolbox
   \\    /   O peration     | Website:  https://openfoam.org
    \\  /    A nd           | Version:  6
     \\/     M anipulation  |
\*---------------------------------------------------------------------------*/
FoamFile
{
    version     2.0;
    format      ascii;
    class       volScalarField;
    location    "4.5";
    object      p;
}
// * * * * * * * * * * * * * * * * * * * * * * * * * * * * * * * * * * * * * //

dimensions      [1 -1 -2 0 0 0 0];

internalField   nonuniform List<scalar> 
297
(
115640
115640
115640
192451
192451
192451
115640
115640
115640
115640
115640
115640
192451
192451
192451
115640
115640
115640
115640
115640
115640
192451
192451
192451
115640
115640
115640
96776.9
96794.3
96780.9
160635
160698
160695
96773.4
96793.9
96776.5
97102.6
96588.6
96931.6
160526
160949
160475
97105
96591
96934.8
93491.6
93565.6
93836.6
150338
155951
150776
93504.5
93549.9
93849.6
90195.4
93400.5
89788
153907
153545
153407
90201.9
93394
89795.7
95783.5
96188.4
95609
159707
159225
159751
95781.6
96182.8
95608.4
95745
96189.2
95662.6
159074
159799
159430
95746.2
96186.1
95667
70214
91385.4
71068.5
115530
148622
116093
70203.4
91378.5
71054.4
68717.7
91252.4
69550.6
111485
148042
111977
68704.7
91220.8
69534.5
71038.6
91406.8
71726.6
114279
148390
114647
71022.8
91352.2
71708.4
96544.2
96707.6
96523
160154
160408
160198
96541.7
96700.6
96522.5
96671.4
96707.7
96647.2
160477
160542
160478
96668.1
96700.3
96645.7
96674.4
96695.3
96651.2
160627
160610
160607
96670.7
96687.6
96649.3
96810.6
97046.3
97619.6
160429
160553
160808
96811.2
97047
97617.6
96675.5
96747.1
97143.5
160480
160488
160556
96676.7
96748.9
97143.7
96549.4
96408.5
96332.6
160610
160524
160398
96551
96411.6
96335.7
97624.6
97062.5
96830.6
160836
160580
160444
97623.8
97063
96830.2
97156.5
96769
96699.2
160587
160518
160504
97157.3
96770.3
96699.1
96359.2
96435.3
96574.9
160433
160557
160638
96362.1
96437.6
96575.1
98867.7
98637.7
98223.5
161850
161662
161281
98855.2
98628.7
98219
98550.7
98279.1
97831.4
161483
161291
160927
98540.8
98272.9
97828.9
98147
97862.8
97332.8
161011
160777
160512
98138.5
97857.5
97331.2
96173.1
96077.7
95906.2
158803
158684
158576
96170
96075.1
95904.1
90201.6
90242
90296.3
149014
149013
149010
90209.9
90249.6
90303.8
82821.8
82822.8
82825.1
132612
132608
132597
82824.9
82825.8
82828
98231.7
98654.8
98888.8
161260
161648
161840
98223.7
98640.8
98871.6
97831.9
98288.4
98564.3
160900
161270
161468
97826.9
98278.5
98550.9
97322.8
97862.2
98151.5
160476
160746
160987
97319.5
97854.5
98140.2
95868.3
96041.8
96138.4
158506
158615
158735
95866.5
96039.4
96135.6
90231.4
90176.8
90135.6
148901
148904
148905
90240
90185.5
90144.9
82756.3
82754
82752.9
132493
132505
132510
82760
82757.7
82756.8
)
;

boundaryField
{
    fuel
    {
        type            zeroGradient;
    }
    primary_air
    {
        type            zeroGradient;
    }
    Secondary_air_RHS
    {
        type            zeroGradient;
    }
    Secondary_air_LHS
    {
        type            zeroGradient;
    }
    outlet
    {
        type            totalPressure;
        rho             rho;
        psi             none;
        gamma           1;
        p0              uniform 100000;
        value           nonuniform List<scalar> 
18
(
86330.9
100000
86336.2
86280.9
100000
86286.2
86266.6
100000
86272.6
86335.8
100000
86340.9
86349.2
100000
86353.7
86398.9
100000
86403.3
)
;
    }
    stove_body
    {
        type            zeroGradient;
    }
    frontAndBack
    {
        type            empty;
    }
}


// ************************************************************************* //
