/*--------------------------------*- C++ -*----------------------------------*\
  =========                 |
  \\      /  F ield         | OpenFOAM: The Open Source CFD Toolbox
   \\    /   O peration     | Website:  https://openfoam.org
    \\  /    A nd           | Version:  6
     \\/     M anipulation  |
\*---------------------------------------------------------------------------*/
FoamFile
{
    version     2.0;
    format      ascii;
    class       surfaceScalarField;
    location    "4.5";
    object      phi;
}
// * * * * * * * * * * * * * * * * * * * * * * * * * * * * * * * * * * * * * //

dimensions      [1 0 -1 0 0 0 0];

internalField   nonuniform List<scalar> 
675
(
-6.57511e-07
-4.42595e-05
0.000167248
-2.25131e-07
-4.42525e-05
0.000166147
-4.4327e-05
0.000166425
-3.82927e-06
4.42594e-05
0.000119293
4.58105e-06
4.42524e-05
0.000107062
4.43268e-05
0.000119896
-6.56926e-07
0.000167247
-2.24681e-07
0.000166147
0.000166425
1.60317e-06
-7.25826e-05
0.000238107
-1.99002e-06
-7.87073e-05
0.000248325
-7.32239e-05
0.000237531
9.65724e-06
7.25838e-05
-3.53316e-05
-4.60801e-06
7.87071e-05
-3.58855e-05
7.32229e-05
-3.09759e-05
1.60397e-06
0.000238107
-1.98935e-06
0.000248325
0.000237531
4.4796e-06
0.000111072
-5.8131e-06
0.000136059
0.000109156
-1.66519e-05
-0.00011107
1.61622e-05
-0.000136059
-0.000109157
4.48126e-06
-5.81163e-06
0.0130856
0.0119054
-0.0218722
-0.00228786
0.0125561
0.00588659
0.0135508
-0.0127156
0.00920101
-0.0118837
0.0200425
-0.00322327
-0.0125343
0.0429109
-0.0135197
0.029325
0.0130699
-0.0218471
-0.00228287
0.00589372
-0.0127094
0.0398688
0.0287933
-0.0905068
-0.0370894
-0.0129333
0.0958316
0.0294807
-0.0792701
0.0170015
-0.028777
0.0606278
-0.0211302
0.0129386
0.0550856
-0.0294614
0.0671179
0.0398252
-0.090468
-0.037072
0.0958124
-0.0792615
0.0070407
0.0669185
-0.164453
-0.00704408
0.00295538
0.107092
0.0702665
-0.15655
-0.120806
-0.0669315
0.314666
0.118148
-0.00305549
-0.178219
-0.0702828
0.325247
0.0069183
-0.164238
-0.00692679
0.107474
-0.156354
-0.0665922
-0.0751489
-0.0527677
0.194123
0.0643085
0.014234
-0.0558927
-0.0889022
-0.0770292
-0.0460543
0.186992
0.00954444
0.0751495
0.0981974
-0.257927
0.0057802
-0.0141394
-0.177075
0.210955
0.0770171
0.121558
-0.269767
-0.0664629
-0.0527526
0.193936
0.0642065
-0.055896
-0.0888592
-0.0460623
0.186807
0.00587672
-0.0285681
-0.0302128
-0.0206168
0.0105064
-0.0398853
-0.0410075
-0.0257582
0.0605856
0.0285876
-0.0195088
-0.0475704
-0.0104749
-0.0478333
0.0409642
-0.00791245
0.00593409
-0.0301502
-0.0206268
-0.0398275
-0.0257345
-0.00949293
0.0037011
-0.0243696
-0.0228868
-0.000512936
-0.0259988
-0.0235522
-0.0250649
0.0285202
-0.00366744
-0.0406526
0.019695
0.000560071
-0.0402136
0.0234641
-0.0352532
-0.00943065
-0.0243267
-0.0227759
-0.0259475
-0.0249976
-0.00233409
-0.00165188
-0.174298
0.00239345
0.000428328
0.101831
-0.00156863
-0.166587
-0.0072284
0.00165293
0.295815
0.00764319
-0.000428031
-0.192348
0.00156972
0.306853
-0.00233256
-0.174093
0.00239037
0.102205
-0.166402
-0.00224088
-0.000617346
-0.184971
0.00222429
-0.00059168
0.0980467
-0.000529667
-0.177529
-0.00322229
0.000618473
0.275842
0.00357038
0.000590994
-0.200585
0.00053085
0.287281
-0.00223765
-0.184778
0.00222021
0.0982551
-0.177345
-0.0052823
0.000449096
0.00519592
-0.00114654
0.000536669
-0.00371587
-0.000445337
0.00402487
0.00114609
-0.000532582
-0.00528875
0.00520136
0.00916902
-0.0020994
-0.0106385
-0.0207888
-0.00870347
-0.00147257
-0.0066574
-0.00243593
-0.0103743
-0.0209488
0.00875573
0.00210374
-0.026919
-0.0266947
-0.011638
0.00148164
-0.0228067
0.00243635
-0.025172
-0.0265954
0.00913551
-0.0106394
-0.0207068
-0.00866645
-0.00666769
-0.0103626
-0.020853
0.00519784
0.000201546
-0.00156088
-0.0144655
-0.00622603
0.00177081
0.00299196
-7.0717e-05
-0.00188723
-0.0146319
0.00515285
-0.000190188
-0.0124158
-0.0192675
-0.00514473
-0.00176028
-0.00901107
7.99233e-05
-0.0111044
-0.0193659
0.00518065
-0.00157212
-0.0144265
-0.00620658
0.00295543
-0.00189322
-0.0145839
-0.00017444
0.00178187
-0.00315697
0.000173679
0.00263993
0.00161098
-0.00331316
0.00136299
-0.00176467
-0.0102361
-0.00241294
-0.00262849
-0.00159579
-0.0103143
-0.00016095
-0.00316477
0.000161656
-0.00331539
-0.0190343
-0.000625953
-0.00128535
-0.0196716
0.00222431
-0.00158652
0.00269013
-0.00682965
-0.0155347
-0.0257027
0.00062769
-0.00214554
-0.0225979
-0.00221484
0.00133473
-0.0026789
0.00314492
-0.0203724
-0.0189407
-0.00128086
-0.0195751
-0.00157865
-0.00681132
-0.0154432
-0.0145276
-0.000703141
-0.000681945
-0.0146914
0.00149195
-0.00291038
0.000191438
-0.00762755
-0.0140822
-0.021531
0.000705539
-0.00138747
-0.0178006
-0.00148513
0.000582613
-0.000185964
0.00394258
-0.0182213
-0.0144803
-0.000675283
-0.0146476
-0.00289477
-0.00761202
-0.0140334
-0.00412035
0.000130057
-0.00672421
-0.000302751
-0.00211745
-0.0122323
-0.0114462
-0.000125326
-0.0114675
0.0003016
0.00211717
-0.0117601
-0.00411243
-0.00670383
-0.0121992
0.0194935
0.00267226
-0.00677228
-0.0153924
0.0188732
0.00222354
-0.00160077
-0.00059336
-0.00131834
0.0224368
-0.00266264
0.00309168
-0.0201952
0.0255384
-0.00221483
0.00133592
0.000595889
-0.00234594
0.0194137
-0.00676304
-0.0153138
0.0187935
-0.00159332
-0.00131424
0.0145782
0.000189435
-0.00755846
-0.0139804
0.0144168
0.00150259
-0.00293943
-0.00066416
-0.00069903
0.0176759
-0.000181411
0.00387648
-0.0180914
0.0214389
-0.00149548
0.00057011
0.000667585
-0.00150669
0.0145403
-0.00755027
-0.013935
0.0143774
-0.0029246
-0.000692702
0.00668785
-0.00209886
-0.0121463
0.00401553
-0.000264508
0.000163391
0.0113812
0.00209961
-0.0117046
0.0114221
0.000263909
-0.000157702
0.00667162
-0.0121231
0.00401216
0.00671898
0.00221169
-0.00893097
0.0103874
0.00195032
-0.00561891
0.00228168
-0.0072866
0.00946328
-0.00219771
-0.00505499
0.0152986
-0.00193824
-0.00194802
-0.00226932
-0.000346841
0.00666324
-0.00886253
0.0103161
-0.00559258
-0.00726818
0.00500636
0.00192185
-0.0158593
0.0093165
0.00177635
-0.0117054
0.00122396
-0.0131742
0.0071046
-0.00191092
-0.00832782
0.0134314
-0.00176796
-0.0047316
-0.00121275
-0.00257124
0.00497417
-0.015749
0.00927809
-0.0116659
-0.0131389
0.00603468
0.00413583
-0.0260293
0.0065965
0.00205539
-0.0143223
0.000845925
-0.0195693
0.00777018
-0.00411618
-0.00784661
0.0124324
-0.00205583
-0.00528333
-0.000843999
-0.000154499
0.00599035
-0.0258567
0.00657287
-0.0143051
-0.019534
-0.007305
0.0131269
-0.031855
-0.00121853
0.0110547
-0.0314674
0.0107918
-0.0315836
0.00178336
-0.0131277
0.0166265
-0.00244664
-0.0110947
0.0210979
-0.0108161
0.0190086
-0.00721774
-0.0317659
-0.00117996
-0.0314369
-0.0315295
0.000162758
0.00560867
-0.0376269
0.000697841
0.00569107
-0.0376941
0.00630162
-0.0371879
-0.00295914
-0.00564983
0.0308459
-0.00190941
-0.00573229
0.0314733
-0.00633733
0.0297398
0.000186061
-0.0376014
0.00069502
-0.0376778
-0.0371714
-9.84167e-05
0.0176745
-0.000266058
0.0176553
0.0176468
-0.0004633
-0.0176857
0.000202107
-0.0176662
-0.0176577
-9.31718e-05
-0.000263658
-0.0104798
0.00229396
-0.00734931
-0.0067797
0.00195918
-0.00565303
0.00223086
-0.0090123
-0.0154369
-0.00228003
-0.000361428
-0.00956027
-0.00194607
-0.00198006
-0.00221602
-0.00511463
-0.0104011
-0.00732356
-0.0067202
-0.0056289
-0.00893849
-0.00938294
0.00123223
-0.0132804
-0.00504919
0.00178999
-0.0117774
0.0019385
-0.016001
-0.0135521
-0.00122479
-0.00257767
-0.0071729
-0.00178216
-0.00478934
-0.00192689
-0.00842358
-0.00934561
-0.0132374
-0.00501448
-0.011744
-0.0158819
-0.00663939
0.000843424
-0.0197164
-0.00608281
0.00207351
-0.0144078
0.00416621
-0.0262505
-0.0125557
-0.000842569
-9.58385e-05
-0.00784318
-0.00207386
-0.00535503
-0.00414386
-0.00795804
-0.00661623
-0.0196642
-0.00603541
-0.0144002
-0.026063
0.0012251
0.0108129
-0.031759
0.00736002
0.0110868
-0.0316342
0.0131934
-0.0320882
0.00248256
-0.0108346
0.0190717
-0.00179767
-0.0111273
0.021142
-0.0131873
0.0166277
0.00119397
-0.0316907
0.00727508
-0.0316066
-0.0319732
-0.000690548
0.00628119
-0.0373496
-0.000135483
0.00566657
-0.0378559
0.00558327
-0.037807
0.00198243
-0.00632434
0.0296962
0.00306622
-0.00571673
0.0314416
-0.00563154
0.0309102
-0.000685043
-0.0373297
-0.000171212
-0.0378369
-0.0377757
0.000269679
0.0175964
0.000105511
0.0176052
0.017618
-0.000234108
-0.0176097
0.000394199
-0.0176187
-0.0176317
0.000266813
9.85683e-05
)
;

boundaryField
{
    fuel
    {
        type            calculated;
        value           nonuniform List<scalar> 
36
(
0.000122456
0.000203794
0.000122456
0.000122456
0.000203794
0.000122456
0.000122456
0.000203794
0.000122456
-0.000122457
-0.000203794
-0.000122457
-0.000122457
-0.000203794
-0.000122457
-0.000122457
-0.000203794
-0.000122457
0
0
0
0
0
0
0
0
0
0
0
0
0
0
0
0
0
0
)
;
    }
    primary_air
    {
        type            calculated;
        value           nonuniform List<scalar> 9(-0.0031824 -0.00528232 -0.00318229 -0.00318298 -0.00528437 -0.00318296 -0.00318254 -0.0052843 -0.00318239);
    }
    Secondary_air_RHS
    {
        type            calculated;
        value           nonuniform List<scalar> 9(0.0140221 0.0229055 0.0140193 0.0137226 0.0220934 0.0137194 0.0141519 0.0226203 0.0141483);
    }
    Secondary_air_LHS
    {
        type            calculated;
        value           nonuniform List<scalar> 9(0.0138535 0.0227945 0.0138514 0.0135583 0.0219965 0.0135557 0.0140162 0.0225477 0.014013);
    }
    outlet
    {
        type            calculated;
        value           nonuniform List<scalar> 
18
(
-0.055216
0.0651361
-0.0552072
-0.0552972
0.066038
-0.0552883
-0.0553198
0.0665537
-0.0553098
-0.0552029
0.0666683
-0.0551945
-0.0551816
0.0661283
-0.0551741
-0.0551007
0.0652455
-0.0550933
)
;
    }
    stove_body
    {
        type            calculated;
        value           uniform 0;
    }
    frontAndBack
    {
        type            empty;
        value           nonuniform 0();
    }
}


// ************************************************************************* //
