/*--------------------------------*- C++ -*----------------------------------*\
  =========                 |
  \\      /  F ield         | OpenFOAM: The Open Source CFD Toolbox
   \\    /   O peration     | Website:  https://openfoam.org
    \\  /    A nd           | Version:  6
     \\/     M anipulation  |
\*---------------------------------------------------------------------------*/
FoamFile
{
    version     2.0;
    format      ascii;
    class       volScalarField;
    location    "4.5";
    object      Qdot;
}
// * * * * * * * * * * * * * * * * * * * * * * * * * * * * * * * * * * * * * //

dimensions      [1 -1 -3 0 0 0 0];

internalField   nonuniform List<scalar> 
297
(
-7.56941e-05
-0.00012561
-7.56941e-05
-0.000251219
-0.000251219
0
-0.00012561
-0.00012561
-0.00012561
0
-7.56941e-05
-0.00012561
-9.98311e-05
-0.000251219
-0.000151388
-0.00012561
-4.99155e-05
0
-4.99155e-05
-0.00012561
-4.99155e-05
1.45765e-09
-1.56983e-05
0
-7.56941e-05
-0.00012561
0
1.45765e-09
1.40408e-09
0
-1.07134e-10
1.45765e-09
1.35052e-09
1.45765e-09
1.40408e-09
1.43087e-09
1.45765e-09
1.45765e-09
1.45765e-09
0
0
2.9153e-09
0
1.45765e-09
1.45765e-09
1.45765e-09
1.45765e-09
1.45765e-09
-1.33918e-11
2.9153e-09
0
1.45765e-09
1.45765e-09
0
0
1.4543e-09
-1.67397e-12
0
0
0
1.45765e-09
0
1.45598e-09
0
1.45765e-09
1.45765e-09
0
0
2.9153e-09
0
0
1.45765e-09
0
0
0
0
0
0
0
0
0
0
0
0
1.45765e-09
-8.36985e-13
1.45765e-09
1.45765e-09
0
0
1.45765e-09
-6.69588e-12
0
0
0
1.45765e-09
1.45765e-09
0
1.45765e-09
0
1.45765e-09
1.45765e-09
0
-8.36985e-13
0
1.45765e-09
1.45765e-09
0
0
1.45765e-09
0
0
-4.6462e-29
0
-9.2924e-29
-1.48678e-27
0
0
-3.62984e-31
1.45765e-09
-5.67163e-33
2.9153e-09
2.9153e-09
1.45765e-09
0
-1.13433e-32
1.45765e-09
1.45765e-09
0
0
2.9153e-09
-5.67163e-33
1.45765e-09
0
-1.13433e-32
1.45765e-09
1.45765e-09
1.45765e-09
2.9153e-09
-1.05642e-41
2.9153e-09
1.45765e-09
0
-1.61197e-46
0
-5.28212e-42
0
-8.65422e-38
-2.11285e-41
2.9153e-09
1.45765e-09
-1.05642e-41
0
0
-4.22569e-41
0
-1.73084e-37
0
2.9153e-09
1.45765e-09
1.45765e-09
1.45765e-09
0
1.45765e-09
1.45765e-09
0
0
0
1.45765e-09
-1.08178e-38
1.45765e-09
1.45765e-09
0
1.45765e-09
2.9153e-09
2.9153e-09
2.9153e-09
0
1.45765e-09
1.45765e-09
-1.28958e-45
0
1.45765e-09
-2.57916e-45
2.9153e-09
2.9153e-09
0
0
-6.92338e-37
-1.87659e-56
1.45765e-09
-2.01497e-47
2.9153e-09
2.9153e-09
-5.03742e-48
1.45765e-09
-3.0746e-52
0
1.45765e-09
1.45765e-09
0
2.9153e-09
-4.80406e-54
0
-2.93216e-58
1.45765e-09
1.45765e-09
1.45765e-09
1.45765e-09
-1.96774e-50
2.9153e-09
0
0
1.45765e-09
-6.00507e-55
0
1.45765e-09
1.45765e-09
0
1.45765e-09
1.45765e-09
1.45765e-09
1.45765e-09
1.45765e-09
1.45765e-09
-3.5793e-62
0
1.45765e-09
1.45765e-09
1.45765e-09
1.45765e-09
0
1.45765e-09
1.45765e-09
0
-1.43172e-61
1.45765e-09
1.45765e-09
1.45765e-09
1.45765e-09
0
-1.43172e-61
-5.72688e-61
1.45765e-09
-6.00507e-55
1.45765e-09
-1.96774e-50
0
2.9153e-09
1.45765e-09
1.45765e-09
-5.86433e-58
1.45765e-09
-1.20101e-54
1.45765e-09
-1.96774e-50
2.9153e-09
-5.86433e-58
-1.96774e-50
-1.20101e-54
1.45765e-09
0
0
0
-1.96774e-50
0
2.9153e-09
1.45765e-09
1.45765e-09
-5.86433e-58
-7.50634e-56
1.45765e-09
1.45765e-09
0
-3.75317e-56
1.45765e-09
1.45765e-09
0
0
1.45765e-09
1.45765e-09
1.45765e-09
1.45765e-09
1.45765e-09
-2.34573e-57
1.45765e-09
0
1.45765e-09
0
0
-4.47413e-63
-7.50634e-56
-1.87659e-56
1.45765e-09
1.45765e-09
1.45765e-09
0
)
;

boundaryField
{
    fuel
    {
        type            calculated;
        value           uniform 0;
    }
    primary_air
    {
        type            calculated;
        value           uniform 0;
    }
    Secondary_air_RHS
    {
        type            calculated;
        value           uniform 0;
    }
    Secondary_air_LHS
    {
        type            calculated;
        value           uniform 0;
    }
    outlet
    {
        type            calculated;
        value           uniform 0;
    }
    stove_body
    {
        type            calculated;
        value           uniform 0;
    }
    frontAndBack
    {
        type            empty;
    }
}


// ************************************************************************* //
