/*--------------------------------*- C++ -*----------------------------------*\
  =========                 |
  \\      /  F ield         | OpenFOAM: The Open Source CFD Toolbox
   \\    /   O peration     | Website:  https://openfoam.org
    \\  /    A nd           | Version:  6
     \\/     M anipulation  |
\*---------------------------------------------------------------------------*/
FoamFile
{
    version     2.0;
    format      ascii;
    class       volScalarField;
    location    "4.5";
    object      T;
}
// * * * * * * * * * * * * * * * * * * * * * * * * * * * * * * * * * * * * * //

dimensions      [0 0 0 1 0 0 0];

internalField   nonuniform List<scalar> 
297
(
292.711
292.708
292.711
293.038
293.035
293.039
292.711
292.708
292.711
292.82
292.775
292.836
293.647
293.275
293.727
292.82
292.775
292.836
293.119
292.91
293.173
293.898
290.382
294.878
293.119
292.91
293.173
269.068
274.296
267.52
278.473
286.328
280.48
269.194
274.401
267.595
265.671
264.889
261.225
264.27
269.965
261.369
265.813
264.997
261.316
265.949
263.579
261.824
263.281
278.381
260.274
266.095
263.696
261.919
264.222
276.861
261.967
261.794
277.761
261.14
264.34
277.054
262.054
283.984
292.47
275.486
272.166
280.107
263.298
284.216
292.769
275.6
303.815
303.909
303.993
304.654
304.475
304.754
304.318
304.332
304.298
252.613
262.818
249.913
257.118
277.234
253.877
252.735
262.597
249.968
254.361
263.027
254.293
254.226
276.712
249.115
254.494
262.999
254.376
258.757
263.189
256.727
250.61
276.264
247.153
258.892
263.337
256.813
303.039
304.349
303.062
304.605
305.064
304.685
303.573
304.878
303.645
303.821
304.263
304.059
305.298
305.15
305.284
304.266
304.707
304.503
304.312
304.24
304.249
305.585
305.083
305.581
304.617
304.659
304.655
302.725
302.757
302.996
304.24
304.266
304.543
303.443
303.569
303.854
303.927
303.71
303.847
305.118
305.061
305.216
304.421
304.205
304.297
304.425
304.3
304.029
305.782
305.789
305.742
304.833
304.708
304.456
303.045
302.807
302.74
304.384
304.148
304.119
303.786
303.528
303.423
303.734
303.62
303.843
305.188
304.989
305.077
304.235
304.114
304.305
304.083
304.343
304.468
305.813
305.86
305.839
304.4
304.647
304.771
303.341
303.58
303.25
305.465
305.216
304.749
304.616
304.594
304.094
303.487
303.801
303.505
305.992
305.813
305.529
304.501
304.501
304.102
303.397
303.779
303.515
306.234
305.976
305.908
304.277
304.143
303.886
303.34
303.765
303.345
307.073
306.026
306.431
303.978
303.787
303.697
300.034
300.112
300.109
303.607
303.503
305.212
300.036
300.111
300.11
292.633
292.667
292.713
292.766
292.818
293.145
292.632
292.666
292.712
303.274
303.721
303.561
304.948
305.368
305.547
304.174
304.691
304.74
303.641
304.098
303.688
305.474
305.804
306.093
304.171
304.566
304.546
303.456
303.94
303.604
305.836
305.958
306.294
303.958
304.222
304.347
303.156
303.76
302.997
306.783
306.192
307.069
303.763
303.856
304.049
300.151
300.155
300.07
305.508
303.596
303.597
300.15
300.153
300.071
292.73
292.684
292.653
293.311
292.944
292.848
292.729
292.682
292.651
)
;

boundaryField
{
    fuel
    {
        type            fixedValue;
        value           uniform 293;
    }
    primary_air
    {
        type            fixedValue;
        value           uniform 293;
    }
    Secondary_air_RHS
    {
        type            fixedValue;
        value           uniform 293;
    }
    Secondary_air_LHS
    {
        type            fixedValue;
        value           uniform 293;
    }
    outlet
    {
        type            inletOutlet;
        inletValue      uniform 293;
        value           nonuniform List<scalar> 
18
(
293
293.311
293
293
292.944
293
293
292.848
293
293
292.766
293
293
292.818
293
293
293.144
293
)
;
    }
    stove_body
    {
        type            fixedValue;
        value           uniform 293;
    }
    frontAndBack
    {
        type            empty;
    }
}


// ************************************************************************* //
