/*--------------------------------*- C++ -*----------------------------------*\
  =========                 |
  \\      /  F ield         | OpenFOAM: The Open Source CFD Toolbox
   \\    /   O peration     | Website:  https://openfoam.org
    \\  /    A nd           | Version:  6
     \\/     M anipulation  |
\*---------------------------------------------------------------------------*/
FoamFile
{
    version     2.0;
    format      ascii;
    class       volVectorField;
    location    "4.5";
    object      U;
}
// * * * * * * * * * * * * * * * * * * * * * * * * * * * * * * * * * * * * * //

dimensions      [0 1 -1 0 0 0 0];

internalField   nonuniform List<vector> 
297
(
(35.8038 -0.0204777 0.289314)
(35.8035 -0.00293323 0.298937)
(35.8038 0.0205567 0.290067)
(-1.15058e-10 0.0166088 0.298453)
(6.39482e-10 0.00164121 0.317664)
(1.31739e-09 -0.0157873 0.302918)
(-35.8038 -0.0204769 0.289311)
(-35.8035 -0.00293148 0.298937)
(-35.8038 0.0205574 0.290068)
(35.8142 -0.00192153 0.305523)
(35.8079 0.00041025 0.311235)
(35.816 -0.000531673 0.304481)
(-4.6345e-10 0.0820911 -0.23692)
(2.10786e-10 0.0139348 -0.326044)
(8.36216e-10 -0.0843215 -0.241248)
(-35.8141 -0.0019193 0.305525)
(-35.8079 0.000413981 0.311235)
(-35.816 -0.000529766 0.304481)
(35.851 -0.00389566 0.55031)
(35.8235 -0.00181075 0.562871)
(35.8576 -0.00418414 0.547907)
(-7.65818e-10 0.0329076 0.44973)
(-2.30681e-10 0.00495297 0.498835)
(1.88004e-10 -0.057619 0.460485)
(-35.851 -0.0038895 0.550308)
(-35.8235 -0.00180146 0.562871)
(-35.8576 -0.00417903 0.547908)
(21.6551 9.14375 1.24722)
(21.9672 5.36635 6.86559)
(21.5098 -9.21625 8.40828)
(-0.000182827 5.4687 2.00284)
(-2.29735e-05 2.70415 1.56063)
(-0.00023051 -5.93199 4.56909)
(-21.6657 9.14254 1.26603)
(-21.9754 5.36259 6.87028)
(-21.5164 -9.21525 8.42019)
(21.4016 11.0496 9.07001)
(21.4397 2.53311 37.5114)
(21.0955 -12.2805 15.9838)
(0.00012003 23.0485 71.4302)
(0.000122126 -0.0177417 67.774)
(0.0001578 -26.0476 75.0959)
(-21.4128 11.0424 9.08412)
(-21.4481 2.52474 37.5245)
(-21.1026 -12.2794 15.9823)
(20.8662 -0.62887 -17.4946)
(21.4486 3.75945 57.117)
(20.5423 -1.27125 -0.89247)
(0.000687786 -20.2463 110.053)
(-0.000838117 0.620025 -8.96147)
(0.000677635 17.8371 113.953)
(-20.8762 -0.663949 -17.4387)
(-21.4601 3.7587 57.2214)
(-20.5482 -1.23981 -0.857688)
(21.6454 -16.4653 -119.501)
(21.908 -3.81177 -8.05561)
(21.4913 18.9487 -110.567)
(0.000332349 -3.61256 2.33383)
(-0.000361138 3.87468 -76.9571)
(0.000396898 1.49405 14.651)
(-21.6542 -16.4472 -119.535)
(-21.9252 -3.79442 -8.08436)
(-21.4972 18.9251 -110.595)
(22.9778 36.6386 -81.3305)
(23.4796 -13.3847 -72.5246)
(22.3233 -28.3659 -72.8724)
(-9.73072e-05 16.8462 -44.3125)
(-0.000298952 1.10277 -57.6981)
(-2.99184e-05 -10.9372 -29.1207)
(-22.9968 36.6272 -81.3384)
(-23.5044 -13.3398 -72.5639)
(-22.3324 -28.3846 -72.8803)
(24.5454 27.9294 -26.6021)
(24.5113 -17.1847 -22.8459)
(24.5963 -33.0061 -26.3073)
(6.65914e-05 28.5531 -27.8144)
(-0.000176922 12.4976 -28.7536)
(0.00025298 -16.9458 -30.8438)
(-24.5859 27.9083 -26.5884)
(-24.546 -17.1099 -22.8304)
(-24.6204 -32.9391 -26.2916)
(15.4451 2.80401 -173.115)
(20.6414 -0.500742 77.7086)
(15.4753 -2.41818 -162.746)
(-0.000713835 -11.8158 154.68)
(-0.000340173 2.85315 -95.4423)
(-0.000940155 9.31613 157.82)
(-15.4573 2.8696 -173.017)
(-20.6236 -0.510647 77.9371)
(-15.4842 -2.48888 -162.632)
(16.3931 -2.46369 -176.639)
(18.5213 -0.86981 77.1164)
(16.4933 3.50736 -166.536)
(-0.000731848 -6.18679 172.262)
(-0.00152573 2.9768 -98.3759)
(-0.0008795 3.56694 175.128)
(-16.4067 -2.39967 -176.572)
(-18.4867 -0.874262 77.3618)
(-16.5036 3.43694 -166.452)
(20.4222 -8.2816 -160.47)
(18.6917 -1.19976 74.66)
(20.192 10.0924 -150.842)
(-0.000810436 -0.795465 168.527)
(-0.00301827 3.09352 -98.7524)
(-0.000907643 -1.79225 171.664)
(-20.4373 -8.23099 -160.451)
(-18.6803 -1.1991 74.7947)
(-20.2014 10.0344 -150.804)
(24.1599 55.8949 -14.3055)
(24.3433 1.42426 -15.6994)
(24.1663 -56.2555 -14.6202)
(-0.000143716 39.4291 -16.3455)
(-0.000398935 -4.21581 -16.4205)
(-2.7381e-05 -40.3059 -13.9688)
(-24.2033 55.7903 -14.3043)
(-24.387 1.42505 -15.7004)
(-24.2134 -56.1279 -14.5998)
(24.475 35.7226 -4.4175)
(24.5754 -2.94884 -1.30763)
(24.4973 -36.0338 -4.47102)
(-0.000188875 20.795 -8.44803)
(-0.000430241 0.898065 -7.18723)
(-8.5696e-05 -21.9611 -8.04436)
(-24.5116 35.6606 -4.44249)
(-24.6126 -2.94995 -1.33688)
(-24.5336 -35.9599 -4.49967)
(24.6242 -3.95464 -5.00239)
(24.6268 -0.679429 3.4168)
(24.6193 4.41611 -5.25655)
(-0.000214041 5.90069 -5.65492)
(-0.000447004 -1.68176 -1.91579)
(-0.000109842 -6.15941 -4.63819)
(-24.6495 -3.8857 -5.01176)
(-24.6622 -0.678489 3.386)
(-24.6525 4.3543 -5.24435)
(24.1288 -58.9212 -5.9578)
(24.4282 -53.4167 -9.35302)
(24.3361 -45.6663 -12.7083)
(3.61564e-05 -45.6781 -5.5382)
(3.94115e-05 -43.7207 -5.09492)
(-0.000114762 -36.5248 -5.22196)
(-24.1866 -58.7879 -5.92206)
(-24.4937 -53.2779 -9.30776)
(-24.4055 -45.5354 -12.6621)
(24.3563 -43.9971 -2.71938)
(24.5588 -45.4964 -10.996)
(24.2315 -38.4598 -20.4696)
(6.82016e-05 -37.051 -0.434775)
(0.000107161 -37.4226 1.5025)
(8.18228e-06 -31.3981 3.68927)
(-24.3963 -43.9368 -2.741)
(-24.5987 -45.4074 -11.0012)
(-24.2678 -38.3908 -20.467)
(24.6575 -8.63382 -5.14466)
(24.66 -24.2009 -18.4525)
(24.259 -33.0498 -29.1321)
(9.29703e-05 -19.3635 1.99721)
(0.000178349 -20.5479 4.43519)
(0.000175489 -22.6985 4.36108)
(-24.6904 -8.65689 -5.09635)
(-24.6932 -24.1616 -18.388)
(-24.2935 -33.0001 -29.0945)
(24.3426 45.2811 -12.6043)
(24.4323 52.9316 -9.2719)
(24.131 58.4368 -5.93795)
(-4.43555e-05 36.4014 -5.22687)
(2.99782e-05 43.2187 -5.02913)
(-2.67156e-05 45.7722 -5.59379)
(-24.4024 45.1695 -12.5784)
(-24.4905 52.818 -9.24022)
(-24.1862 58.3353 -5.91101)
(24.2257 38.1098 -20.2845)
(24.5508 45.2034 -10.9333)
(24.3502 43.5077 -2.78137)
(4.86475e-05 31.179 3.59601)
(7.69783e-05 37.1874 1.58587)
(-4.55181e-06 36.9664 -0.649599)
(-24.2653 38.055 -20.2942)
(-24.5906 45.1359 -10.9391)
(-24.3877 43.4734 -2.79708)
(24.2655 32.776 -28.8574)
(24.663 24.1203 -18.5384)
(24.6593 8.03375 -5.17822)
(0.000166238 22.5382 4.30439)
(0.000131324 20.486 4.33698)
(1.20149e-05 19.2956 1.90492)
(-24.2911 32.7401 -28.8397)
(-24.6879 24.0936 -18.4816)
(-24.6839 8.06866 -5.13813)
(24.1524 14.1622 -22.1403)
(24.165 21.0785 -15.2034)
(24.2604 32.8198 -17.7907)
(-0.000710213 13.6119 -11.1518)
(-0.000512097 18.3107 -6.14434)
(-0.000256513 27.7938 -6.43796)
(-24.2565 14.1176 -22.0342)
(-24.2476 21.024 -15.1214)
(-24.3286 32.713 -17.7378)
(24.2225 5.55259 -34.0093)
(24.2543 18.279 -24.1129)
(24.1679 31.6297 -30.5103)
(-0.00056597 9.24554 -10.386)
(-0.000357938 14.3874 -5.13781)
(-0.000140671 25.3918 -3.17014)
(-24.3055 5.56983 -33.8662)
(-24.3116 18.2589 -24.0652)
(-24.215 31.576 -30.4861)
(24.5766 4.67439 -42.523)
(24.322 20.2051 -37.7324)
(24.2175 18.4149 -46.9509)
(-0.000482733 7.47476 -16.4597)
(-0.000301418 15.0887 -11.5138)
(-9.19596e-05 20.6937 -0.605429)
(-24.6485 4.68806 -42.3729)
(-24.3534 20.181 -37.6985)
(-24.2479 18.385 -46.9055)
(24.4756 -5.69807 -67.8995)
(24.4754 -4.43345 -63.1674)
(24.4873 -10.1832 -67.3956)
(-0.000178514 -6.33262 4.55561)
(-0.000152497 1.58625 17.7273)
(-0.000123056 -7.74097 14.7229)
(-24.5274 -5.62853 -67.7491)
(-24.478 -4.39877 -63.1628)
(-24.5161 -10.1855 -67.2933)
(24.0548 2.47449 -132.52)
(24.0432 -1.14731 -132.99)
(24.0347 4.59629 -131.716)
(0.000512618 -1.99139 64.3418)
(0.000473961 0.141396 66.7314)
(0.000469459 -1.81711 61.0367)
(-24.0534 2.43903 -132.416)
(-24.0419 -1.13489 -132.939)
(-24.0334 4.59468 -131.656)
(22.8703 -0.100735 -165.913)
(22.8728 -0.0176733 -165.818)
(22.8751 -0.18123 -165.469)
(0.000202476 -0.59006 171.885)
(0.000198549 0.31927 170.508)
(0.0001962 -0.50669 168.395)
(-22.8697 -0.0981512 -165.877)
(-22.8722 -0.0165078 -165.787)
(-22.8745 -0.180195 -165.438)
(24.2585 -33.1161 -17.9351)
(24.1706 -21.2759 -15.3194)
(24.1639 -14.28 -22.349)
(-0.000453702 -28.1687 -6.48249)
(-0.000804687 -18.488 -6.20154)
(-0.000986155 -13.7806 -11.2505)
(-24.3317 -32.9886 -17.8616)
(-24.2507 -21.2056 -15.2219)
(-24.2612 -14.2281 -22.2146)
(24.1726 -31.8261 -30.7623)
(24.2729 -18.4824 -24.2686)
(24.2336 -5.58274 -34.3465)
(-0.000284583 -25.6194 -3.20925)
(-0.000564152 -14.5066 -5.19635)
(-0.000764402 -9.32444 -10.5238)
(-24.2159 -31.7587 -30.7316)
(-24.3126 -18.4393 -24.226)
(-24.3048 -5.59664 -34.1726)
(24.2067 -18.5338 -47.3611)
(24.3314 -20.3342 -38.0662)
(24.5923 -4.71027 -42.9572)
(-0.000189665 -20.9408 -0.60244)
(-0.000442973 -15.1654 -11.6915)
(-0.000646141 -7.55987 -16.6577)
(-24.2482 -18.5018 -47.2943)
(-24.3569 -20.298 -38.0422)
(-24.6534 -4.71847 -42.7803)
(24.4708 10.1931 -67.9271)
(24.4734 4.47354 -63.6415)
(24.4472 5.78021 -68.5882)
(-0.000106157 7.67125 14.6975)
(-0.000139831 -1.55025 17.6246)
(-0.000169118 6.3896 3.92966)
(-24.5201 10.1971 -67.8014)
(-24.4819 4.44923 -63.6732)
(-24.5323 5.70775 -68.4064)
(24.0368 -4.58593 -132.273)
(24.0455 1.16348 -133.539)
(24.0571 -2.51805 -133.185)
(0.000536783 1.81776 61.1064)
(0.000535723 -0.0828369 66.7975)
(0.000577425 2.01861 64.7358)
(-24.0353 -4.58001 -132.202)
(-24.044 1.14213 -133.483)
(-24.0555 -2.47967 -133.055)
(22.8764 0.183005 -165.947)
(22.8741 0.0191469 -166.299)
(22.872 0.104693 -166.399)
(0.000244636 0.496152 168.212)
(0.000247589 -0.330048 170.352)
(0.000253077 0.583115 171.641)
(-22.8757 0.181617 -165.91)
(-22.8734 0.0177172 -166.261)
(-22.8713 0.101468 -166.357)
)
;

boundaryField
{
    fuel
    {
        type            fixedValue;
        value           uniform (0 0 0.25);
    }
    primary_air
    {
        type            fixedValue;
        value           uniform (0 0 2.5);
    }
    Secondary_air_RHS
    {
        type            fixedValue;
        value           uniform (0 150 0);
    }
    Secondary_air_LHS
    {
        type            fixedValue;
        value           uniform (0 -150 0);
    }
    outlet
    {
        type            pressureInletOutletVelocity;
        value           nonuniform List<vector> 
18
(
(0 0 -165.947)
(0.000244636 0.496152 168.212)
(0 0 -165.91)
(0 0 -166.299)
(0.000247589 -0.330048 170.352)
(0 0 -166.261)
(0 0 -166.399)
(0.000253077 0.583115 171.641)
(0 0 -166.357)
(0 0 -165.913)
(0.000202476 -0.59006 171.885)
(0 0 -165.877)
(0 0 -165.818)
(0.000198549 0.31927 170.508)
(0 0 -165.787)
(0 0 -165.469)
(0.0001962 -0.50669 168.395)
(0 0 -165.438)
)
;
    }
    stove_body
    {
        type            noSlip;
    }
    frontAndBack
    {
        type            empty;
    }
}


// ************************************************************************* //
