/*--------------------------------*- C++ -*----------------------------------*\
  =========                 |
  \\      /  F ield         | OpenFOAM: The Open Source CFD Toolbox
   \\    /   O peration     | Website:  https://openfoam.org
    \\  /    A nd           | Version:  6
     \\/     M anipulation  |
\*---------------------------------------------------------------------------*/
FoamFile
{
    version     2.0;
    format      ascii;
    class       volScalarField;
    location    "4";
    object      O2;
}
// * * * * * * * * * * * * * * * * * * * * * * * * * * * * * * * * * * * * * //

dimensions      [0 0 0 0 0 0 0];

internalField   nonuniform List<scalar> 
297
(
0
0
0
0
0
0
0
0
0
0
0
0
0
0
0
0
0
0
0
0
0
0
0
0
0
0
0
0.127044
0.0487795
0.126245
0.186955
0.171485
0.185295
0.127218
0.0486736
0.126703
0.0320514
0.0003463
0.0322525
0.11321
0.116098
0.112898
0.032132
0.000297907
0.0321113
0
0
0
0.0757193
0.0195246
0.0754091
0
0
0
0
7.87319e-11
0
0
0
0
0
0
0
5.47975e-17
4.24808e-15
0
4.94693e-19
3.00405e-14
7.95371e-19
2.33295e-15
4.84897e-15
2.37592e-15
2.66452e-15
2.12341e-15
2.74977e-15
6.02756e-15
1.95327e-14
6.14084e-15
2.68913e-15
1.95218e-15
2.73834e-15
0
0
0
0.0296577
2.22557e-07
0.0293386
0
0
0
0
0
0
0.0126205
0
0.0121802
0
0
0
0
0
0
0
0
0
0
0
0
1.94047e-15
1.38854e-15
1.97307e-15
5.82656e-15
1.06334e-15
5.90142e-15
1.96062e-15
1.38769e-15
1.9693e-15
1.05078e-15
9.67328e-16
1.05467e-15
5.27141e-15
1.0607e-15
5.40179e-15
1.0124e-15
1.00785e-15
1.05477e-15
8.71337e-16
8.86038e-16
8.94199e-16
1.38752e-15
1.0818e-15
1.34051e-15
8.48755e-16
8.88085e-16
9.08919e-16
1.13778e-15
6.46302e-16
2.3258e-16
5.89851e-15
5.89919e-15
5.90109e-15
1.13935e-15
6.46767e-16
2.32146e-16
1.0641e-15
2.88738e-16
1.68087e-16
4.46584e-15
4.51412e-15
5.27476e-15
1.05804e-15
2.88553e-16
1.67939e-16
8.74973e-16
2.77665e-16
1.94424e-16
1.27208e-15
1.16565e-15
3.16256e-15
8.91212e-16
2.77589e-16
1.94109e-16
3.36457e-16
5.37861e-16
1.12483e-15
5.82225e-15
5.82447e-15
5.82475e-15
2.48427e-16
4.5465e-16
1.14433e-15
1.78908e-16
2.88365e-16
1.04149e-15
5.23203e-15
4.42356e-15
4.37523e-15
1.55052e-16
2.68069e-16
1.04505e-15
2.28842e-16
2.88588e-16
8.43404e-16
2.9665e-15
1.13327e-15
1.30184e-15
1.7822e-16
2.48583e-16
8.04112e-16
1.24628e-18
2.0265e-17
2.07496e-17
3.39901e-18
3.41176e-18
2.00525e-15
1.44155e-18
2.48214e-17
2.50398e-17
3.72883e-18
5.56149e-17
6.92609e-17
3.90008e-18
4.55412e-18
3.24341e-15
4.13914e-18
6.6038e-17
7.58977e-17
3.75471e-18
1.00074e-16
2.10054e-16
4.08725e-18
1.36427e-15
3.19901e-15
4.13646e-18
1.2034e-16
1.72815e-16
3.75244e-18
1.8428e-17
1.07907e-16
4.07692e-18
6.03687e-16
2.01959e-15
4.13368e-18
1.298e-17
8.75089e-17
4.27496e-18
1.98096e-17
4.28105e-17
3.69008e-17
4.9448e-16
1.34862e-15
4.44499e-18
1.37818e-17
3.46815e-17
2.91787e-22
2.12055e-21
4.12672e-21
3.77079e-17
2.42737e-16
5.45445e-16
5.36051e-22
2.10448e-21
4.1049e-21
2.22024e-17
2.20043e-17
4.30132e-18
2.05495e-15
4.6197e-18
4.51306e-18
2.21842e-17
2.19869e-17
4.55649e-18
7.06669e-17
5.73932e-17
4.3037e-18
3.2901e-15
5.02833e-18
4.53895e-18
7.03332e-17
5.69267e-17
4.55635e-18
2.03315e-16
1.03814e-16
4.30357e-18
3.25794e-15
1.38546e-15
4.55258e-18
2.05443e-16
1.02837e-16
4.5544e-18
1.02984e-16
1.59904e-17
4.30031e-18
1.80731e-15
4.51469e-16
4.52519e-18
1.0427e-16
1.59661e-17
4.55203e-18
4.07398e-17
1.82422e-17
4.30184e-18
1.3883e-15
4.46639e-16
3.61924e-17
4.13125e-17
1.81396e-17
4.54683e-18
4.35973e-21
2.1028e-21
2.86931e-22
5.79548e-16
2.37597e-16
3.68813e-17
4.36166e-21
2.10296e-21
5.28379e-22
)
;

boundaryField
{
    fuel
    {
        type            fixedValue;
        value           uniform 0;
    }
    primary_air
    {
        type            fixedValue;
        value           uniform 0.23;
    }
    Secondary_air_RHS
    {
        type            fixedValue;
        value           uniform 0.23;
    }
    Secondary_air_LHS
    {
        type            fixedValue;
        value           uniform 0.23;
    }
    outlet
    {
        type            inletOutlet;
        inletValue      uniform 0;
        value           nonuniform List<scalar> 
18
(
0
5.79548e-16
0
0
2.37597e-16
0
0
3.68813e-17
0
0
3.77079e-17
0
0
2.42737e-16
0
0
5.45445e-16
0
)
;
    }
    stove_body
    {
        type            fixedValue;
        value           uniform 0;
    }
    frontAndBack
    {
        type            empty;
    }
}


// ************************************************************************* //
