/*--------------------------------*- C++ -*----------------------------------*\
  =========                 |
  \\      /  F ield         | OpenFOAM: The Open Source CFD Toolbox
   \\    /   O peration     | Website:  https://openfoam.org
    \\  /    A nd           | Version:  6
     \\/     M anipulation  |
\*---------------------------------------------------------------------------*/
FoamFile
{
    version     2.0;
    format      ascii;
    class       volScalarField;
    location    "4";
    object      p;
}
// * * * * * * * * * * * * * * * * * * * * * * * * * * * * * * * * * * * * * //

dimensions      [1 -1 -2 0 0 0 0];

internalField   nonuniform List<scalar> 
297
(
110670
110670
110670
181554
181554
181554
110670
110670
110670
110669
110669
110669
181554
181554
181554
110669
110669
110669
110669
110669
110669
181555
181555
181555
110669
110669
110669
97263.7
97284.2
97264.7
159760
159745
159760
97264
97284.5
97264.6
97217
97237.4
97218
159558
159592
159558
97217.2
97236.2
97217.8
97116.3
97253.4
97121.5
158212
158962
158215
97117.5
97251.3
97120.8
97021.5
97144.9
97019.4
159420
159172
159417
97021.6
97145.2
97020.1
96985.7
97098.5
96982.3
159434
159401
159434
96985
97099.2
96984.4
96890.3
97087.7
96887.3
159213
159293
159213
96890.2
97088.7
96888.9
96759.8
97358.7
96757.9
155516
158404
155512
96759.1
97358.1
96758.2
96695.3
97348.5
96692.3
155221
158484
155216
96694.8
97349.7
96692.9
96661.4
97322.1
96657.8
155492
158667
155487
96661.3
97326.4
96658.7
97336.3
97397.6
97335.4
159245
159295
159244
97337.2
97398.6
97334.9
97429.8
97463.3
97429.7
159331
159314
159330
97431.1
97464.3
97428.7
97472
97478.1
97472.9
159377
159349
159375
97473.6
97479.3
97471.4
97483.3
97384.5
97320.6
159016
159157
159344
97479.6
97380.5
97316.1
97398
97249.7
97131.9
159159
159201
159342
97394.2
97245.4
97127.4
97361.6
97210
97101.7
159219
159177
159171
97357.6
97205.5
97097.4
97315.7
97381
97480.7
159344
159159
159019
97316.5
97382.5
97482.6
97127.9
97246.9
97395.6
159342
159205
159162
97128.1
97247.4
97396.9
97097.5
97207.1
97359
159173
159181
159223
97098
97207.5
97360.1
98598.9
98228.4
97628.6
159380
159352
159386
98602.3
98231.3
97630.2
98185.7
97706.4
97288
159212
159119
159248
98189.4
97709.2
97289.2
97763.6
97316.4
97040
158982
158792
158875
97767.3
97318.7
97041.2
96319.8
96228
96208.6
157529
157431
157371
96320.9
96228.9
96209.5
94774.3
94834.7
94906.8
153354
153342
153341
94772.1
94832.6
94904.9
91447.1
91522.2
91592
141607
141630
141662
91442.8
91517.8
91587.6
97636.8
98240.5
98612.6
159387
159355
159383
97631.6
98234.9
98607.2
97295
97716.5
98196.4
159249
159121
159215
97290.3
97711.9
98193.3
97045.9
97323.4
97767.9
158876
158794
158985
97042.7
97321.6
97770.9
96211.9
96230.7
96323.2
157373
157433
157531
96216.1
96234.6
96326.1
94888.6
94817.3
94758.6
153323
153324
153337
94888
94816.7
94757.4
91582.4
91512.4
91437
141660
141629
141606
91584.5
91514.6
91439.3
)
;

boundaryField
{
    fuel
    {
        type            zeroGradient;
    }
    primary_air
    {
        type            zeroGradient;
    }
    Secondary_air_RHS
    {
        type            zeroGradient;
    }
    Secondary_air_LHS
    {
        type            zeroGradient;
    }
    outlet
    {
        type            totalPressure;
        rho             rho;
        psi             none;
        gamma           1;
        p0              uniform 100000;
        value           nonuniform List<scalar> 
18
(
93088
100000
93089.5
92746.2
100000
92748.7
91821.2
100000
91836.4
91825
100000
91816.3
92758.4
100000
92757.7
93098.3
100000
93095.3
)
;
    }
    stove_body
    {
        type            zeroGradient;
    }
    frontAndBack
    {
        type            empty;
    }
}


// ************************************************************************* //
