/*--------------------------------*- C++ -*----------------------------------*\
  =========                 |
  \\      /  F ield         | OpenFOAM: The Open Source CFD Toolbox
   \\    /   O peration     | Website:  https://openfoam.org
    \\  /    A nd           | Version:  6
     \\/     M anipulation  |
\*---------------------------------------------------------------------------*/
FoamFile
{
    version     2.0;
    format      ascii;
    class       surfaceScalarField;
    location    "4";
    object      phi;
}
// * * * * * * * * * * * * * * * * * * * * * * * * * * * * * * * * * * * * * //

dimensions      [1 0 -1 0 0 0 0];

internalField   nonuniform List<scalar> 
675
(
-1.47085e-06
-0.000209295
0.000327965
1.53028e-06
-0.00021727
0.000331466
-0.000209074
0.000327805
7.79966e-06
0.000209296
-0.000234129
-8.48572e-06
0.000217271
-0.000226
0.000209075
-0.000234371
-1.47087e-06
0.000327966
1.53031e-06
0.000331467
0.000327806
-1.65707e-06
1.63122e-05
0.000313316
1.74233e-06
1.10223e-05
0.000317049
1.63917e-05
0.000313161
3.07454e-06
-1.63103e-05
-0.000204582
-3.15261e-06
-1.10202e-05
-0.000197746
-1.63896e-05
-0.000204744
-1.65707e-06
0.000313319
1.74242e-06
0.000317052
0.000313165
-5.32855e-06
0.000201452
5.53579e-06
0.000188991
0.000201504
6.05058e-06
-0.000201455
-5.98984e-06
-0.000188994
-0.000201507
-5.32854e-06
5.53593e-06
-0.00617364
0.00600919
0.00336389
0.00623456
0.00276682
-0.0119754
0.00600816
0.00342426
0.000831151
-0.00600296
0.0164367
-0.000825224
-0.00273468
0.0124117
-0.0060041
0.01644
-0.00621377
0.0034107
0.00624893
-0.0119982
0.00344317
-0.000172271
0.00851806
-0.00498328
-0.000171444
0.00435185
-0.016368
0.00852919
-0.00527621
-0.00168976
-0.00852777
0.0351725
0.001435
-0.00446832
0.0181072
-0.00852947
0.0349361
-0.000117369
-0.00499874
-0.000150769
-0.0163918
-0.00523513
0.00420177
0.0169149
-0.0261019
-0.00369378
0.00843358
-0.0169746
0.0170665
-0.0260371
-0.0364758
-0.0169468
0.105513
0.0364367
-0.00851865
-0.0378505
-0.017028
0.105472
0.00413502
-0.0260756
-0.00381574
-0.0168878
-0.0260734
-0.0041192
-0.0089546
-0.0210741
0.0341519
0.00422092
0.00800679
-0.0307735
0.0144165
-0.00894521
-0.0209001
0.0340671
0.0193061
0.00894416
0.0429869
-0.0801857
-0.0193852
-0.0080123
0.00280289
0.0519114
0.00894272
0.0429458
-0.0802173
-0.00414927
-0.0210255
0.0341222
0.00421291
-0.0307648
0.0144041
-0.0209455
0.0341016
0.00154014
-0.00578431
-0.0168278
-0.00146981
-0.00277145
-0.0249923
-0.00574374
-0.0166273
0.00882165
0.00576368
0.0226165
-0.00883137
0.0027593
0.0149228
0.00574915
0.0226182
0.00151945
-0.016784
-0.00148518
-0.0250036
-0.0166828
0.00248356
-0.00289931
-0.0164183
-0.00290526
-0.0010065
-0.0185997
-0.0030821
-0.0164506
-0.0101269
0.00294229
0.0268904
0.0104046
0.00100258
-0.00762163
0.00303633
0.0269086
0.00258656
-0.0164361
-0.00280521
-0.0186094
-0.0164456
0.000696415
-0.00244883
-0.0285931
-0.000665013
-0.00183075
-0.0137814
-0.00241703
-0.0285288
-0.00327683
0.00244382
0.0970786
0.00327281
0.00174805
-0.0479788
0.0024236
0.0970857
0.000694881
-0.0285675
-0.000672897
-0.0137702
-0.0285635
0.000191773
-0.00127959
-0.0317455
-0.000168733
-0.00107508
-0.0123387
-0.00126387
-0.0316741
-0.00151129
0.00127788
0.0892269
0.00150715
0.00104167
-0.0531106
0.00126609
0.0892576
0.000190855
-0.031719
-0.000173995
-0.0123689
-0.03171
9.53535e-05
-0.00192673
-7.72538e-05
0.00225422
-0.00192217
-0.00162779
0.00192497
0.0016226
-0.00219756
0.00192352
9.00365e-05
-7.70592e-05
0.00452127
-0.003528
-0.00479993
-0.0126124
-0.00462969
-0.000945782
-0.00850273
-0.00358116
-0.00485504
-0.0126437
-0.00128777
0.00354197
0.00945489
0.0116518
0.00133848
0.000945678
-0.0121383
0.00356894
0.00937878
0.0117216
0.00455198
-0.00481614
-0.012631
-0.00460209
-0.00850979
-0.00484213
-0.0126337
0.00436123
0.000168642
0.00102354
-0.010354
-0.00450377
0.00164329
-0.00128074
0.000148774
0.000882452
-0.0103892
-0.000828591
-0.000166028
0.0007404
0.00987651
0.000853202
-0.00164396
-0.0105312
-0.000153098
0.000597943
0.0099399
0.00439092
0.000998601
-0.0103724
-0.00447988
-0.00127998
0.000910252
-0.0103815
0.00227186
0.0024299
-0.00367877
-0.0021318
0.00312337
0.00244016
-0.00368881
0.00219407
-0.00243461
0.00340993
-0.00208552
-0.00312628
-0.00243958
0.00339639
0.00224417
-0.00368084
-0.00216038
-0.00368582
-0.0122801
-0.00190091
0.00153785
-0.0131234
-0.000736329
0.00157965
-0.000784995
0.00141287
-0.0137524
0.007991
0.00189991
-6.89678e-05
0.00650208
0.000736502
1.64367e-05
0.000786414
0.00345159
0.00147736
-0.0122725
0.0015389
-0.013118
0.00158077
0.00141369
-0.0137474
-0.010063
-0.00187993
0.00309224
-0.0103024
-0.000446556
0.00226569
-0.00016293
0.000827169
-0.0095548
0.00901266
0.00187926
-0.00289961
0.00749912
0.000446088
0.000637532
0.000163762
0.00620757
0.00441638
-0.0100577
0.00309469
-0.0102988
0.00226704
0.000830592
-0.00955378
-0.000915315
0.000319559
0.000517772
0.000832838
0.000479647
0.000864673
0.00113636
-0.00031872
0.00343875
-0.000831702
-0.000475393
0.0105992
-0.000909435
0.000525312
0.000879164
0.0130985
-0.00078919
0.00141065
-0.0137202
0.012258
-0.000732673
0.0015729
-0.00189312
0.00153835
-0.00644661
0.000786014
0.00341725
0.00145388
-0.00790512
0.000731584
-6.16013e-06
0.00189758
-4.4528e-05
0.0131218
0.00140579
-0.0137419
0.012277
0.00157601
0.00154315
0.0102833
-0.000162704
0.000828681
-0.00953882
0.0100404
-0.000442574
0.00225818
-0.00187368
0.00309805
-0.00744864
0.00015695
0.00616931
0.0043766
-0.00895065
0.000441043
0.000611757
0.00187844
-0.00287131
0.0102963
0.000816652
-0.00955058
0.0100539
0.00225901
0.00310265
-0.000529733
0.000474867
0.000883412
0.000898565
0.000829665
0.000317592
-0.00344398
-0.000478352
0.0105661
-0.00117359
-0.000829435
-0.000317885
-0.000532735
0.000870713
0.000896446
0.00845525
0.000575721
-0.00903118
0.0138079
-0.000763769
-0.00458889
0.000190272
-0.000102687
0.00604104
-0.000576574
-0.00488888
0.00238968
0.000758699
0.00212887
-0.000190431
0.00422416
0.00846241
-0.00903908
0.0138236
-0.00460261
-0.000108962
0.00607226
0.000446433
-0.0155495
0.00927092
-0.000413072
-0.00737436
0.000527398
-0.000897997
0.00494175
-0.000451647
-0.00893253
3.67143e-05
0.000413391
0.00620737
-0.000527987
0.00969275
0.00607311
-0.0155639
0.00927538
-0.00739162
-0.000912342
0.00550592
0.00275709
-0.0238125
0.00494052
-0.00100902
-0.00579994
-8.83487e-05
0.00501429
0.00186783
-0.00276705
-0.00527622
-0.00598536
0.00101739
0.0120341
8.43003e-05
0.0141008
0.00550494
-0.023836
0.00495897
-0.00582836
0.00500148
0.00242389
0.00776181
-0.0339983
0.00571748
0.00343946
-0.0125331
0.0029107
0.00782103
0.0102096
-0.00777449
5.06182e-05
0.01062
-0.00344616
0.0185094
-0.00292089
0.0305525
0.00240179
-0.034012
0.00573022
-0.0126027
0.00781104
-0.0141758
0.00994586
-0.0297682
-0.0132277
0.00658114
-0.020062
0.00648586
-0.0118924
-0.00141566
-0.00995219
0.0213645
-0.00481634
-0.00656968
0.0350611
-0.00647913
0.0387014
-0.014175
-0.029789
-0.013242
-0.0201051
-0.0119099
-0.007509
0.0218079
-0.00672413
0.0209669
0.0223261
-0.00809879
-0.0217991
-0.00823796
-0.0209393
-0.0223128
-0.00750023
-0.00672836
-0.0138376
0.000191055
-0.000107088
-0.0084722
-0.000755313
-0.00461117
0.000579501
-0.00905173
-0.00238
-0.000189141
0.00423574
-0.00604805
0.000760837
0.00214954
-0.000577107
-0.0048938
-0.0138335
-0.000105041
-0.00847002
-0.00460485
-0.00904936
-0.00928428
0.00052962
-0.000908003
-0.00607711
-0.000411378
-0.00740621
0.000455568
-0.0155785
-3.03381e-05
-0.000528342
0.00973823
-0.00495311
0.000412588
0.00624579
-0.000451394
-0.00894173
-0.00928561
-0.000903238
-0.00607902
-0.00740089
-0.0155825
-0.00497388
-8.33003e-05
0.00501417
-0.00550949
-0.0010193
-0.00584742
0.00277133
-0.0238495
0.00599121
8.74053e-05
0.0141742
-0.00187851
0.00101437
0.0120796
-0.00276898
-0.00528054
-0.00495929
0.00502161
-0.00551376
-0.00583295
-0.0238636
-0.00576351
0.00295545
0.00781734
-0.00244114
0.0034458
-0.0126205
0.00779003
-0.0340567
-0.0106135
-0.00295357
0.0306722
-0.0102209
-0.00344793
0.0185686
-0.00778733
5.76046e-05
-0.00574668
0.00782133
-0.00243892
-0.0125869
-0.0340607
0.0132714
0.0064802
-0.0119294
0.0142071
0.00657171
-0.020129
0.00992113
-0.0298197
0.00493542
-0.00648262
0.0387324
0.0015172
-0.00657656
0.0350575
-0.00990298
0.0214395
0.01326
-0.0119247
0.0142024
-0.0201063
-0.0297925
0.00674755
0.0222911
0.00752836
0.0209327
0.0217828
0.0082345
-0.0222968
0.00815628
-0.0209456
-0.0217752
0.0067428
0.00752796
)
;

boundaryField
{
    fuel
    {
        type            calculated;
        value           nonuniform List<scalar> 
36
(
0.000117193
0.000192256
0.000117193
0.000117193
0.000192256
0.000117193
0.000117193
0.000192256
0.000117193
-0.000117193
-0.000192255
-0.000117193
-0.000117193
-0.000192255
-0.000117193
-0.000117193
-0.000192255
-0.000117193
0
0
0
0
0
0
0
0
0
0
0
0
0
0
0
0
0
0
)
;
    }
    primary_air
    {
        type            calculated;
        value           nonuniform List<scalar> 9(-0.00319841 -0.00525353 -0.00319842 -0.00319909 -0.00525306 -0.0031991 -0.00319844 -0.00525353 -0.00319844);
    }
    Secondary_air_RHS
    {
        type            calculated;
        value           nonuniform List<scalar> 9(0.00424237 0.00681847 0.00424239 0.0042395 0.0068055 0.00423952 0.00423798 0.00681738 0.00423802);
    }
    Secondary_air_LHS
    {
        type            calculated;
        value           nonuniform List<scalar> 9(0.00424245 0.00681864 0.00424243 0.00423963 0.00680569 0.0042396 0.00423814 0.00681759 0.00423814);
    }
    outlet
    {
        type            calculated;
        value           nonuniform List<scalar> 
18
(
-0.0409698
0.0750857
-0.0409654
-0.0418451
0.0770262
-0.0418385
-0.0440769
0.0731583
-0.0440414
-0.0440672
0.0730702
-0.0440879
-0.0418139
0.0771063
-0.0418163
-0.0409426
0.0751022
-0.0409511
)
;
    }
    stove_body
    {
        type            calculated;
        value           uniform 0;
    }
    frontAndBack
    {
        type            empty;
        value           nonuniform 0();
    }
}


// ************************************************************************* //
