/*--------------------------------*- C++ -*----------------------------------*\
  =========                 |
  \\      /  F ield         | OpenFOAM: The Open Source CFD Toolbox
   \\    /   O peration     | Website:  https://openfoam.org
    \\  /    A nd           | Version:  6
     \\/     M anipulation  |
\*---------------------------------------------------------------------------*/
FoamFile
{
    version     2.0;
    format      ascii;
    class       volVectorField;
    location    "4";
    object      U;
}
// * * * * * * * * * * * * * * * * * * * * * * * * * * * * * * * * * * * * * //

dimensions      [0 1 -1 0 0 0 0];

internalField   nonuniform List<vector> 
297
(
(118.242 0.00537847 0.266324)
(118.364 -0.000199502 0.264581)
(118.239 -0.00487102 0.266352)
(-1.98975e-07 0.0934665 -0.545248)
(-1.99535e-07 -0.00154453 -0.549482)
(-1.98953e-07 -0.0935833 -0.544727)
(-118.242 0.00537851 0.266325)
(-118.364 -0.00019945 0.264582)
(-118.239 -0.00487107 0.266353)
(118.106 -0.0153917 0.599497)
(118.28 -5.6236e-07 0.609408)
(118.104 0.0160835 0.599163)
(-1.69087e-07 -0.012173 -0.307706)
(-1.6921e-07 -0.000363598 -0.305032)
(-1.69226e-07 0.0136997 -0.307763)
(-118.106 -0.0153917 0.599501)
(-118.28 -2.90541e-07 0.609411)
(-118.104 0.0160837 0.599168)
(111.024 -0.0556977 0.926332)
(111.784 0.000257208 0.94014)
(111.02 0.056972 0.925876)
(-1.66726e-07 -0.0256853 0.523052)
(-1.67183e-07 -0.000291829 0.534972)
(-1.66882e-07 0.0272709 0.52245)
(-111.023 -0.0556971 0.926333)
(-111.783 0.000257556 0.940141)
(-111.02 0.0569716 0.925877)
(79.4417 -3.04841 -5.41574)
(81.5257 0.0261149 -8.93643)
(79.4487 3.11075 -5.4684)
(5.24494e-05 -1.50779 2.96586)
(5.24913e-05 -0.0100538 3.11483)
(-8.01623e-06 1.53908 2.98796)
(-79.4561 -3.07756 -5.51701)
(-81.5674 0.013895 -8.97466)
(-79.4607 3.12013 -5.52825)
(83.261 3.85374 12.042)
(82.9114 0.106997 -14.9784)
(83.3313 -4.39529 11.8125)
(3.93847e-05 2.33864 29.3076)
(-0.000230679 0.0692004 16.8027)
(-3.57195e-05 -2.679 29.2523)
(-83.2875 3.92622 12.0784)
(-82.7597 0.0702666 -15.0286)
(-83.3413 -4.33356 11.9071)
(83.6189 15.4444 -7.20036)
(82.3853 0.217523 -15.9293)
(83.6852 -15.2296 -6.98137)
(0.000243957 -1.48806 36.104)
(-0.000395271 0.030823 0.352495)
(-0.000140716 1.43825 36.0947)
(-83.6338 15.3912 -7.15468)
(-82.2677 0.153109 -15.9659)
(-83.6807 -15.2911 -7.09232)
(81.9388 5.33854 -27.921)
(81.5556 -0.140209 -18.9638)
(81.9776 -5.00672 -27.8561)
(3.4899e-05 3.04245 -1.21448)
(6.27634e-05 -0.0395549 -10.0703)
(0.000148109 -3.08049 -1.19095)
(-81.95 5.26096 -27.8977)
(-81.5461 -0.0741773 -18.9668)
(-81.9759 -5.07728 -27.8871)
(81.9796 11.4315 -18.5816)
(81.2781 -0.180209 -24.7494)
(82.0239 -11.0881 -18.4338)
(-0.000136554 3.12913 2.54293)
(0.000158459 0.00881671 1.17454)
(0.000423961 -3.204 2.54013)
(-81.9847 11.3602 -18.5488)
(-81.2789 -0.0988241 -24.76)
(-82.0147 -11.1733 -18.4767)
(81.5109 18.07 -26.5854)
(80.8709 -0.363442 -26.3048)
(81.5472 -17.8866 -26.503)
(-9.40728e-06 0.323349 11.2735)
(0.000212173 0.0889451 3.04271)
(0.000338878 -0.301267 11.2706)
(-81.5307 18.0451 -26.5848)
(-80.871 -0.193669 -26.3187)
(-81.5465 -17.9334 -26.5347)
(76.3434 18.9071 -22.7157)
(77.965 0.05795 -12.7867)
(76.4463 -18.5352 -22.6779)
(-0.000128363 -0.480717 45.6644)
(-0.000107619 0.00729068 -24.8198)
(6.11341e-05 0.434148 45.6881)
(-76.3616 18.8211 -22.7024)
(-75.6337 0.0633411 -12.747)
(-76.4283 -18.6042 -22.6997)
(74.2215 11.3248 -27.4857)
(79.0102 -0.012516 -10.3275)
(74.1141 -10.9349 -27.3996)
(-8.92949e-05 0.232132 49.2947)
(0.000224757 0.00243187 -23.6861)
(9.0288e-05 -0.277941 49.3334)
(-74.238 11.2403 -27.4659)
(-77.8399 0.0223297 -10.3702)
(-74.0992 -11.0103 -27.4328)
(69.5799 9.05948 -27.3019)
(80.514 -0.03534 -11.7819)
(69.6419 -8.71091 -27.2283)
(-5.56336e-06 0.793137 47.9768)
(0.000885266 -0.00116915 -19.8705)
(0.000139077 -0.838594 48.02)
(-69.5886 8.97805 -27.2811)
(-82.2819 0.00394952 -11.8005)
(-69.6176 -8.78119 -27.2577)
(79.2638 29.9216 -6.70616)
(79.9106 -0.297315 -9.0837)
(79.2712 -29.9822 -6.77092)
(0.000192018 -7.81464 11.3262)
(0.000182512 0.0249941 -6.6433)
(-0.000109445 7.96268 11.3193)
(-79.2781 29.9688 -6.72924)
(-79.9091 -0.147831 -9.09004)
(-79.2779 -29.9692 -6.75524)
(79.9547 25.3783 -1.71458)
(80.284 -0.388715 -4.25404)
(79.9617 -25.4637 -1.74506)
(0.000261991 -9.42341 3.04381)
(0.00020775 -0.00508106 -5.1638)
(-0.000202191 9.56681 3.01005)
(-79.9366 25.4171 -1.71707)
(-80.3139 -0.257884 -4.25626)
(-79.9639 -25.4498 -1.74037)
(80.5136 5.91064 2.53843)
(80.6801 0.230921 -1.26287)
(80.5385 -5.6583 2.4373)
(0.000312252 -1.68321 -1.70202)
(0.000224964 0.254622 -1.29639)
(-0.000282935 1.57491 -1.84817)
(-80.5 5.84404 2.52123)
(-80.6816 0.132129 -1.2643)
(-80.5474 -5.70676 2.46076)
(77.6863 -31.81 -1.32104)
(78.8953 -39.2968 -5.23308)
(78.9951 -41.6523 -7.38662)
(-0.00073979 17.8961 9.0605)
(-0.000795428 15.0372 7.93436)
(-0.000900812 12.6777 10.3385)
(-77.7017 -31.7896 -1.31322)
(-78.9027 -39.2866 -5.22224)
(-79.001 -41.6469 -7.37469)
(77.9686 -26.3664 4.44152)
(79.3187 -32.0665 3.59101)
(79.9035 -33.3724 0.721161)
(-0.000748628 16.442 -3.88591)
(-0.000829233 15.2402 -4.74459)
(-0.00086982 15.78 2.86289)
(-77.9705 -26.3477 4.4424)
(-79.3177 -32.0547 3.59049)
(-79.8992 -33.3649 0.719153)
(80.0877 -7.8693 8.59663)
(80.4141 -4.27396 9.34067)
(80.3726 6.82207 10.6827)
(-0.000775397 2.3998 -4.33928)
(-0.000882915 2.21389 3.36383)
(-0.000841325 16.6753 6.95619)
(-80.0976 -7.84834 8.5985)
(-80.4161 -4.25134 9.33741)
(-80.3717 6.80655 10.6804)
(79.0488 41.5541 -7.34138)
(78.8198 39.2113 -5.21341)
(77.681 31.7307 -1.30984)
(0.000163157 -12.6109 10.3227)
(0.000296967 -14.8946 7.94469)
(0.000389733 -17.7816 9.09819)
(-78.991 41.6097 -7.3788)
(-78.7789 39.2671 -5.24329)
(-77.6999 31.7779 -1.32013)
(79.8976 33.3007 0.71371)
(79.3104 31.9963 3.57634)
(77.9585 26.2899 4.43831)
(4.78805e-05 -15.6964 2.82606)
(0.00010884 -15.1431 -4.75813)
(0.000250018 -16.3419 -3.84173)
(-79.8815 33.346 0.690995)
(-79.2999 32.0456 3.57555)
(-77.9542 26.3309 4.44734)
(80.3848 -6.78144 10.6471)
(80.4035 4.20393 9.29879)
(80.0624 7.79388 8.59589)
(9.40766e-05 -16.6153 6.8825)
(6.92095e-05 -2.24939 3.29813)
(0.000218387 -2.44243 -4.27081)
(-80.3454 -6.84746 10.6724)
(-80.3845 4.22696 9.32915)
(-80.0494 7.8076 8.61707)
(77.65 18.2558 -22.1739)
(76.7565 23.2218 -15.7978)
(79.0661 37.8313 -12.7545)
(0.000639566 9.40331 -7.52069)
(0.000555067 7.70084 -0.491395)
(0.000309363 5.66645 6.25598)
(-77.675 18.2833 -22.2076)
(-76.7761 23.2531 -15.8364)
(-79.082 37.8682 -12.7898)
(78.1383 5.32941 -36.6138)
(78.0128 14.0701 -21.7777)
(80.0689 27.4279 -3.33739)
(0.000701029 4.06247 -11.5371)
(0.000522977 6.12763 3.57325)
(0.000240144 1.12503 12.7562)
(-78.1695 5.34838 -36.6279)
(-78.0144 14.052 -21.8147)
(-80.0724 27.4434 -3.34803)
(81.3052 2.30832 -46.0756)
(77.5837 7.7645 -15.9465)
(79.5549 13.6836 4.38065)
(0.000698928 3.45276 -15.4958)
(0.000440757 -4.55996 17.0356)
(0.000225068 -14.3456 17.4518)
(-81.3232 2.31976 -46.0865)
(-77.5541 7.73103 -16.0131)
(-79.5377 13.8109 4.3353)
(80.4643 -8.35733 -60.9969)
(79.9168 -0.600731 -5.53012)
(79.3671 10.532 63.5545)
(0.000220366 -7.58408 9.73854)
(0.000179017 7.30258 35.8036)
(0.000178507 -2.63756 58.899)
(-80.4883 -8.36913 -61.0018)
(-79.8701 -0.629784 -5.68816)
(-79.3332 10.5797 63.5447)
(78.7138 -1.59559 -83.664)
(78.1438 -9.28076 -38.8718)
(78.089 0.0253745 -0.445921)
(-0.00044253 -0.849878 29.6433)
(-0.000417086 -1.18353 66.5721)
(-0.000376177 -1.17432 86.5064)
(-78.7382 -1.58468 -83.7249)
(-78.0925 -9.28264 -39.0886)
(-78.0773 0.0301047 -0.540427)
(74.3425 -1.78269 -124.436)
(73.885 -2.89393 -116.526)
(74.1192 -1.51587 -113.551)
(-0.000857226 -1.98144 177.424)
(-0.000866483 -2.9283 186.363)
(-0.000859827 -1.73149 181.914)
(-74.3458 -1.78401 -124.508)
(-73.8836 -2.89312 -116.532)
(-74.1215 -1.51702 -113.578)
(79.0855 -37.9009 -12.8023)
(76.776 -23.2797 -15.8559)
(77.6705 -18.3071 -22.2328)
(-0.00102191 -5.635 6.25982)
(-0.00107767 -7.7234 -0.449745)
(-0.00102697 -9.42353 -7.51839)
(-79.0974 -37.9036 -12.791)
(-76.7845 -23.2761 -15.8432)
(-77.696 -18.302 -22.2252)
(80.0845 -27.4704 -3.33599)
(78.0213 -14.0515 -21.8476)
(78.1579 -5.36943 -36.6762)
(-0.000921052 -1.08261 12.8171)
(-0.000882454 -6.15557 3.61329)
(-0.000568945 -4.08318 -11.5517)
(-80.0817 -27.4734 -3.34185)
(-78.0221 -14.0703 -21.8406)
(-78.1545 -5.35272 -36.6891)
(79.5609 -13.868 4.34762)
(77.5682 -7.73332 -16.0734)
(81.3522 -2.34717 -46.1519)
(-0.000600971 14.4 17.5391)
(-0.000345745 4.54643 17.1104)
(0.000559993 -3.4792 -15.5249)
(-79.5593 -13.7688 4.3713)
(-77.5781 -7.75784 -16.0387)
(-81.3285 -2.33188 -46.1812)
(79.3629 -10.6194 63.5793)
(79.9054 0.626178 -5.80853)
(80.4734 8.3654 -61.1179)
(0.000810744 2.6428 58.9629)
(0.000760871 -7.32051 35.8517)
(0.000561196 7.59109 9.71898)
(-79.365 -10.5859 63.6041)
(-79.9109 0.615586 -5.68464)
(-80.5021 8.36784 -61.1494)
(78.0932 -0.0490344 -0.537648)
(78.1481 9.3142 -39.117)
(78.6478 1.59929 -83.8732)
(-0.000137781 1.18867 86.4719)
(-0.000110383 1.21606 66.6119)
(-0.000227148 0.867725 29.6898)
(-78.0944 -0.0432119 -0.520008)
(-78.1486 9.30954 -39.0326)
(-78.592 1.59846 -83.8683)
(74.1241 1.5213 -113.641)
(73.8931 2.90123 -116.632)
(74.3446 1.78912 -124.468)
(0.0004123 1.73296 181.933)
(0.000439565 2.9424 186.365)
(0.000471841 1.99442 177.556)
(-74.1231 1.51956 -113.628)
(-73.8937 2.90114 -116.61)
(-74.3403 1.78861 -124.342)
)
;

boundaryField
{
    fuel
    {
        type            fixedValue;
        value           uniform (0 0 0.25);
    }
    primary_air
    {
        type            fixedValue;
        value           uniform (0 0 2.5);
    }
    Secondary_air_RHS
    {
        type            fixedValue;
        value           uniform (0 33.3333 0);
    }
    Secondary_air_LHS
    {
        type            fixedValue;
        value           uniform (0 -33.3333 0);
    }
    outlet
    {
        type            pressureInletOutletVelocity;
        value           nonuniform List<vector> 
18
(
(0 0 -113.641)
(0.0004123 1.73296 181.933)
(0 0 -113.628)
(0 0 -116.632)
(0.000439565 2.9424 186.365)
(0 0 -116.61)
(0 0 -124.468)
(0.000471841 1.99442 177.556)
(0 0 -124.342)
(0 0 -124.436)
(-0.000857226 -1.98144 177.424)
(0 0 -124.508)
(0 0 -116.526)
(-0.000866483 -2.9283 186.363)
(0 0 -116.532)
(0 0 -113.551)
(-0.000859827 -1.73149 181.914)
(0 0 -113.578)
)
;
    }
    stove_body
    {
        type            noSlip;
    }
    frontAndBack
    {
        type            empty;
    }
}


// ************************************************************************* //
