/*--------------------------------*- C++ -*----------------------------------*\
  =========                 |
  \\      /  F ield         | OpenFOAM: The Open Source CFD Toolbox
   \\    /   O peration     | Website:  https://openfoam.org
    \\  /    A nd           | Version:  6
     \\/     M anipulation  |
\*---------------------------------------------------------------------------*/
FoamFile
{
    version     2.0;
    format      ascii;
    class       volScalarField;
    location    "0.0075";
    object      O2;
}
// * * * * * * * * * * * * * * * * * * * * * * * * * * * * * * * * * * * * * //

dimensions      [0 0 0 0 0 0 0];

internalField   nonuniform List<scalar> 
3773
(
0
0
0
0
0
0
0
0
0
0
0
0
0
0
0
0
0
0
0
0
0
0
0
0
0
0
0
0
0
0
0
0
0
0
0
0
0
0
0
0
0
0
0
0
0
0
0
0
0
0
0
0
0
0
0
0
0
0
0
0
0
0
0
0
0
0
0
0
0
0
0
0
0
0
0
0
0
0
0
0
0
0
0
0
0
0
0
0
0
0
0
0
0
0
0
0
0
0
0
0
0
0
0
0
0
0
0
0
0
0
0
0
0
0
0
0
0
0
0
0
0
0
0
0
0
0
0
0
0
0
0
0
0
0
0
0
0
0
0
0
0
0
0
0
0
0
0
0
0
0
0
0
0
0
0
0
0
0
0
0
0
0
0
0
0
0
0
0
0
0
0
0
0
0
0
0
0
0
0
0
0
0
0
0
0
0
0
0
0
0
0
0
0
0
0
0
0
0
0
0
0
0
0
0
0
0
0
0
0
0
0
0
0
0
0
0
0
0
0
0
0
0
0
0
0
0
0
0
0
0
0
0
0
0
0
0
0
0
0
0
0
0
0
0
0
0
0
0
0
0
0
0
0
0
0
0
0
0
0
0
0
0
0
0
0
0
0
0
0
0
0
0
0
0
0
0
0
0
0
0
0
0
0
0
0
0
0
0
0
0
0
0
0
0
0
0
0
0
0
0
0
0
0
0
0
0
0
0
0
0
0
0
0
0
0
0
0
0
0
0
0
0
0
0
0
0
0
0
0
0
0
0
0
0
0
0
0
0
0
0
0
0
0
0.00178558
0.000670467
0.000608775
0.000550669
0.000534983
0.000613446
0.00174037
0.00393169
0.0017815
0.00116829
0.00100216
0.00112479
0.00176637
0.0039772
0.00613381
0.00600331
0.00534074
0.00507269
0.00529228
0.0059558
0.00631979
0.00870795
0.00860308
0.00893355
0.00922383
0.00915618
0.00867609
0.00871339
0.00598267
0.00494912
0.00436976
0.00426024
0.00430661
0.00475725
0.00584901
0.00259956
0.00109571
0.000709733
0.000578395
0.000664686
0.000949611
0.00225759
0.00148694
0.000616681
0.000504158
0.000404273
0.000438644
0.000493722
0.00131447
0.000677485
4.17187e-08
2.46825e-08
6.52965e-08
6.52316e-07
1.01412e-05
0.00123193
0.00172692
9.34802e-05
2.45375e-06
5.90952e-07
1.07357e-06
0.000107909
0.00215871
0.00343318
0.00227338
0.00197892
0.00186037
0.00210922
0.00238739
0.0035654
0.00439722
0.00410524
0.0040524
0.00421461
0.00415901
0.00405986
0.00432315
0.00381292
0.00274028
0.00202512
0.00197182
0.00207473
0.00280292
0.00390754
0.00214642
0.000105158
9.53225e-07
4.77502e-07
6.74903e-07
6.74301e-05
0.00195312
0.0010009
6.43961e-07
4.1194e-08
1.47553e-07
8.46543e-08
1.04304e-07
0.000835517
0.000115899
1.05965e-08
1.64904e-08
1.27659e-07
1.84261e-06
3.28302e-05
0.000361638
0.000699868
3.60395e-05
8.16587e-07
4.49853e-07
2.10555e-07
3.75996e-06
0.00080703
0.00111499
0.000769875
0.000754849
0.000730592
0.000862788
0.00088253
0.00132331
0.00200508
0.00179181
0.00165307
0.00171015
0.00178148
0.00214847
0.00234827
0.00189046
0.00109739
0.000911811
0.000796372
0.00097042
0.00113036
0.00190894
0.00101886
6.30594e-05
1.10654e-06
7.56793e-07
6.2589e-07
2.61019e-05
0.00109249
0.000454786
3.0979e-06
8.47746e-08
2.33841e-07
1.21913e-07
9.52075e-08
0.000345496
7.47129e-06
6.70423e-09
2.29798e-08
8.77363e-08
4.5378e-07
3.37216e-06
1.61148e-05
9.32706e-05
1.57824e-06
1.31771e-07
7.80628e-07
3.10258e-07
2.09579e-05
0.000220371
0.000309895
0.00024956
0.000257601
0.000282874
0.000311164
0.000297619
0.000432794
0.000892707
0.00090138
0.000792892
0.000895125
0.000797902
0.00099712
0.00107594
0.000749346
0.00049187
0.000352077
0.000289403
0.000379539
0.000552167
0.000838117
0.000436053
5.99996e-05
3.16222e-06
1.57107e-06
1.505e-06
6.21141e-05
0.000424006
0.000122799
7.98746e-06
1.76254e-07
3.02152e-07
1.53361e-07
1.06344e-07
7.97412e-05
1.76486e-10
8.23574e-09
2.54629e-08
3.9536e-08
3.21898e-08
6.67355e-09
2.50068e-10
2.19233e-06
5.21981e-08
2.38233e-07
1.54689e-06
2.8106e-07
1.52295e-06
1.12423e-05
7.80749e-05
6.38958e-05
8.10174e-05
0.000101768
0.000103293
9.23444e-05
0.00012153
0.000489981
0.000413157
0.000440606
0.000518349
0.000408235
0.000364729
0.000417033
0.000159234
0.000129299
9.3531e-05
0.000102597
0.000129221
0.000151858
0.000205278
5.04617e-05
3.7551e-06
3.29163e-07
2.72955e-06
3.43129e-06
1.47108e-05
0.000113361
3.36004e-09
8.81676e-09
3.64685e-08
3.12132e-07
1.70169e-07
2.26216e-07
7.29766e-07
0
1.86955e-08
3.8153e-08
5.9061e-08
2.63972e-08
9.00469e-09
0
1.94729e-09
9.19929e-08
3.63422e-07
6.92457e-07
1.99956e-07
4.24672e-08
0
1.95541e-05
1.73934e-05
2.43038e-05
3.61336e-05
3.43414e-05
3.79492e-05
4.23001e-05
0.000245839
0.000228278
0.000211295
0.000244469
0.000205633
0.000138223
0.000171339
3.49324e-05
3.0026e-05
2.58647e-05
3.08612e-05
4.37356e-05
3.94676e-05
5.19854e-05
4.53582e-08
5.88863e-08
3.18988e-07
2.57475e-06
1.70317e-06
4.4446e-07
5.28287e-06
0
1.97591e-08
6.61576e-08
2.87724e-07
1.97283e-07
2.82627e-08
0
0
5.6857e-08
6.0716e-08
3.31073e-08
1.24597e-08
0
0
0
2.69577e-07
2.76806e-07
1.70051e-07
6.18321e-08
1.70901e-09
0
6.59773e-06
4.40305e-06
9.31685e-06
1.37437e-05
1.15737e-05
1.17324e-05
1.31146e-05
0.000107653
8.48379e-05
6.53751e-05
7.5278e-05
6.3704e-05
6.49334e-05
9.74183e-05
9.73829e-06
6.27664e-06
7.16692e-06
1.05714e-05
1.13417e-05
1.0912e-05
1.61482e-05
0
2.11644e-07
5.26697e-07
8.28228e-07
4.23851e-07
6.81941e-08
0
0
4.45305e-08
7.09256e-08
1.10831e-07
1.21076e-07
4.00407e-08
0
0
1.35813e-09
5.22713e-10
1.63056e-09
1.02145e-09
1.85363e-10
0
0
6.13216e-09
3.33524e-08
6.42651e-08
4.21895e-08
3.22359e-09
0
0
2.46895e-06
1.37382e-06
1.9305e-06
1.1893e-06
6.14377e-07
0
0
2.64894e-05
1.83046e-05
2.12161e-05
1.57851e-05
1.33961e-05
0
0
1.29709e-06
5.08834e-07
2.3103e-06
2.06911e-06
4.42424e-07
0
0
3.88567e-09
2.18569e-08
8.47342e-08
3.16836e-09
2.66701e-10
0
9.74151e-10
3.79711e-10
1.20985e-09
1.59193e-09
2.54684e-10
9.53808e-12
0
5.01606e-11
4.01175e-10
2.0794e-09
2.67525e-09
2.94846e-09
3.86885e-10
1.59919e-11
1.10705e-09
1.20377e-08
1.99098e-08
3.06845e-08
3.77172e-08
5.17755e-09
1.6583e-11
4.77261e-10
4.84688e-07
3.78219e-07
5.14006e-07
3.7324e-07
1.13365e-07
1.53979e-12
7.28372e-08
6.48095e-06
4.24482e-06
5.021e-06
3.87682e-06
2.56546e-06
3.11305e-11
7.12156e-10
2.96535e-07
1.88168e-07
5.12308e-07
4.89039e-07
5.73402e-08
2.91152e-12
6.24194e-10
1.15369e-08
2.58316e-08
5.27992e-08
7.19424e-09
7.65105e-12
1.58253e-11
2.68246e-10
5.2717e-10
2.28564e-09
3.20303e-09
3.0294e-10
8.95046e-13
2.84985e-13
2.72186e-11
3.97315e-10
1.62166e-09
2.15946e-09
6.8973e-10
5.70202e-11
7.04e-12
3.42831e-10
9.02614e-09
1.47131e-08
1.68532e-08
8.87022e-09
9.75726e-10
4.22252e-11
1.36041e-10
1.52167e-07
1.48823e-07
1.95972e-07
8.48685e-08
1.13703e-08
9.60698e-13
3.30424e-08
1.61241e-06
1.50723e-06
1.91969e-06
1.44505e-06
7.97723e-07
2.02548e-11
1.49026e-09
4.5398e-08
4.23373e-08
9.60852e-08
7.57498e-08
6.88878e-09
6.44611e-12
3.86639e-10
5.33325e-09
8.39186e-09
1.17512e-08
1.45593e-09
5.32541e-12
5.14602e-13
7.47506e-11
6.2358e-10
1.19132e-09
6.28384e-10
3.887e-12
3.87119e-13
3.48822e-14
1.05044e-11
1.73592e-10
2.12005e-10
1.43123e-10
2.86381e-11
5.27411e-12
7.37253e-13
1.30525e-10
2.76332e-09
2.95972e-09
3.44753e-09
7.06682e-10
7.05895e-11
3.53692e-12
1.35324e-09
2.89189e-08
3.78255e-08
4.70004e-08
9.45603e-09
3.61693e-10
3.41409e-13
1.97006e-08
6.53255e-07
4.94812e-07
5.86406e-07
3.24278e-07
1.89406e-07
8.75925e-12
1.28131e-09
9.82865e-09
5.48692e-09
7.56984e-09
9.16092e-09
6.73903e-10
5.57302e-12
1.47104e-10
1.53232e-09
6.96139e-10
7.56641e-10
2.73373e-10
1.53948e-11
2.34969e-12
2.15167e-11
2.04386e-10
1.36485e-10
5.05739e-11
7.38438e-12
5.63404e-13
8.83682e-14
6.26575e-12
5.56047e-11
1.62602e-11
4.12337e-12
2.10121e-12
8.67347e-13
3.01121e-13
9.35949e-11
6.20327e-10
4.92027e-10
3.18525e-10
6.01185e-11
1.6055e-11
1.56813e-12
1.04897e-09
7.00296e-09
6.63427e-09
5.99908e-09
1.96847e-09
1.60895e-12
3.29852e-13
5.83214e-09
1.51062e-07
1.13259e-07
1.80917e-07
6.58729e-08
3.49152e-08
3.11232e-12
6.13872e-10
5.36552e-09
1.79294e-09
2.19645e-09
1.08503e-09
6.37912e-12
3.48073e-12
3.95178e-11
5.45289e-10
3.54536e-10
2.82756e-10
9.86471e-11
2.83485e-11
7.93972e-12
5.35289e-12
4.96465e-11
4.69037e-11
1.37264e-11
5.56324e-12
1.08003e-12
3.78702e-13
3.10989e-12
5.7667e-12
2.67275e-12
2.66212e-12
2.0778e-12
7.74874e-13
3.71674e-13
2.66806e-11
6.88433e-11
4.15356e-11
3.36582e-11
1.13266e-11
5.20006e-12
1.26658e-12
1.92216e-10
6.91211e-10
1.0047e-09
9.49542e-10
2.63474e-10
4.2452e-12
8.69756e-13
1.11218e-09
2.68482e-08
2.2134e-08
3.77236e-08
1.24048e-08
6.25147e-09
1.13308e-12
1.24256e-10
1.60716e-09
8.67624e-10
7.19178e-10
5.51922e-10
2.52782e-11
3.02724e-12
1.46767e-11
1.44419e-10
1.26903e-10
1.22666e-10
9.63505e-11
3.04029e-11
1.26831e-11
1.55817e-12
1.05449e-11
5.29036e-12
1.98516e-12
2.05608e-12
9.02767e-13
9.28507e-13
1.31152e-12
6.07659e-13
3.15127e-13
4.97681e-13
7.71972e-13
4.68105e-13
1.3445e-13
7.97031e-12
4.30534e-12
3.70893e-12
6.04268e-12
4.61327e-12
2.36185e-12
1.13918e-12
3.55689e-11
3.1471e-11
3.00058e-11
6.01282e-11
4.82789e-11
2.06623e-11
7.24124e-12
3.12771e-10
8.0509e-09
4.45084e-09
7.25891e-09
4.74748e-09
2.42351e-09
5.5331e-11
1.58143e-11
8.93951e-11
2.13441e-10
6.80097e-10
5.37147e-10
1.68547e-10
3.14025e-11
4.60857e-12
1.89936e-11
1.52347e-11
2.80346e-11
2.13237e-11
9.34774e-12
4.9076e-12
7.00624e-13
2.60433e-13
2.88361e-13
1.19299e-12
1.60291e-12
5.57029e-13
5.62894e-13
0
2.10638e-07
1.13357e-07
3.12465e-08
2.59998e-08
0
0
0
8.55411e-07
6.05133e-07
3.50739e-07
2.97077e-07
2.4834e-08
0
0
8.5445e-06
4.85548e-06
5.60778e-06
4.82575e-06
4.90701e-06
0
8.25767e-05
6.08007e-05
5.94151e-05
6.96939e-05
4.79622e-05
5.00494e-05
3.33078e-05
0
6.88936e-06
4.53858e-06
5.8798e-06
1.1333e-05
3.5045e-06
0
0
5.01887e-07
4.42495e-07
4.08402e-07
2.70241e-07
3.89655e-07
0
0
4.65513e-08
3.88531e-08
4.78009e-08
2.862e-08
4.10131e-08
0
0
9.67219e-08
7.11711e-08
1.8817e-08
1.6015e-08
0
0
0
4.66766e-07
4.07997e-07
2.65903e-07
2.73815e-07
0
0
0
8.00725e-06
4.59381e-06
5.2745e-06
4.86915e-06
4.3218e-06
0
6.78483e-05
5.86076e-05
5.74332e-05
6.72462e-05
4.75323e-05
4.93231e-05
3.77804e-06
0
6.74145e-06
4.33147e-06
6.04525e-06
1.10114e-05
3.24239e-06
0
0
3.22427e-07
3.38221e-07
3.37046e-07
1.51935e-07
2.5904e-07
0
0
2.28182e-08
2.20785e-08
3.4415e-08
1.93728e-08
2.55664e-08
0
0
6.08539e-08
6.43862e-08
1.64495e-08
1.40899e-08
0
0
0
3.93314e-07
3.58253e-07
2.47316e-07
2.71115e-07
0
0
0
7.87282e-06
4.19714e-06
5.10614e-06
4.73917e-06
3.92377e-06
0
3.82532e-05
5.75088e-05
5.33319e-05
6.31308e-05
4.71109e-05
4.66191e-05
0
0
6.5576e-06
4.08492e-06
6.16507e-06
1.02551e-05
3.10076e-06
0
0
2.73828e-07
3.08409e-07
3.35157e-07
1.51572e-07
1.77076e-07
0
0
1.76342e-08
1.79719e-08
3.04643e-08
1.72714e-08
1.61988e-08
0
0
7.84797e-08
6.32588e-08
1.61786e-08
1.40841e-08
0
0
0
5.13668e-07
3.45425e-07
2.41218e-07
2.6221e-07
0
0
0
7.61209e-06
4.14778e-06
4.84115e-06
4.30917e-06
3.44672e-06
0
1.1247e-06
5.65787e-05
5.00569e-05
5.89786e-05
4.62956e-05
4.3567e-05
0
0
6.13793e-06
3.83301e-06
6.42859e-06
9.44459e-06
2.55241e-06
0
0
2.74619e-07
2.76827e-07
3.30378e-07
1.69184e-07
1.0817e-07
0
0
1.50457e-08
1.44502e-08
2.67592e-08
1.29839e-08
1.2415e-08
0
0
1.15911e-07
6.25428e-08
1.43225e-08
1.08447e-08
0
0
0
5.65506e-07
3.34163e-07
2.18701e-07
2.00893e-07
0
0
0
6.94664e-06
4.0187e-06
4.72703e-06
3.91244e-06
3.083e-06
0
0
5.5611e-05
4.62333e-05
5.43143e-05
4.45624e-05
4.13513e-05
0
0
5.18879e-06
3.28366e-06
6.40381e-06
8.64245e-06
2.1959e-06
0
0
2.70108e-07
1.91109e-07
2.9252e-07
1.66923e-07
8.8133e-08
0
0
1.45664e-08
1.01098e-08
2.2994e-08
8.03927e-09
7.55659e-09
0
0
1.21119e-07
3.51757e-08
9.34142e-09
6.98891e-09
0
0
0
4.55996e-07
2.2472e-07
1.67787e-07
1.20896e-07
1.13618e-08
0
0
6.90209e-06
3.58695e-06
4.4234e-06
3.75972e-06
2.99247e-06
0
0
5.4926e-05
4.30182e-05
5.10955e-05
4.07624e-05
3.52242e-05
0
0
5.16119e-06
3.10531e-06
6.39224e-06
8.26985e-06
1.60474e-06
0
0
1.86451e-07
1.34491e-07
2.80338e-07
1.51797e-07
7.31434e-08
0
0
1.22871e-08
8.08952e-09
1.01658e-08
2.86119e-09
4.12263e-09
0
0
7.25487e-08
2.38165e-08
6.04721e-09
9.15913e-10
1.31427e-09
0
0
2.62484e-07
1.50549e-07
1.35368e-07
7.57572e-08
0
0
0
6.62294e-06
3.23583e-06
4.25672e-06
3.56052e-06
2.73708e-06
0
0
5.34019e-05
3.91085e-05
4.59107e-05
3.7199e-05
3.32434e-05
0
0
5.02169e-06
2.75619e-06
6.15692e-06
7.50057e-06
1.53497e-06
0
0
1.13164e-07
7.90877e-08
1.76679e-07
6.32053e-08
2.77922e-08
0
0
5.02508e-09
3.83251e-09
5.22643e-09
4.43305e-10
4.35035e-10
0
2.99306e-16
2.07631e-14
9.7334e-14
2.5698e-13
2.87166e-13
6.01767e-14
2.79564e-14
2.39857e-15
1.89539e-13
1.52575e-12
6.33993e-12
3.71152e-12
4.07418e-13
3.85314e-13
1.21606e-12
4.52783e-11
2.99061e-11
8.39052e-11
1.87337e-10
1.15068e-10
3.38347e-11
2.33308e-10
4.59209e-09
3.10521e-09
4.51325e-09
1.86734e-09
1.18106e-09
4.23617e-11
1.03676e-13
8.53192e-11
3.06727e-10
7.03541e-10
4.78396e-10
1.58123e-10
3.59135e-11
3.84598e-15
6.18041e-15
3.36949e-14
9.06748e-12
2.45985e-12
7.85418e-13
4.68438e-13
3.13966e-16
1.21994e-14
1.60025e-13
6.7993e-13
2.25935e-13
9.73972e-14
5.43687e-14
1.8925e-15
9.7689e-14
1.51125e-13
2.07637e-13
2.35921e-13
9.47564e-14
5.44198e-14
1.64071e-15
5.06916e-13
2.2049e-12
4.00335e-12
1.90782e-12
1.14616e-12
7.99629e-13
2.16075e-12
4.21416e-11
1.7833e-11
6.79212e-11
1.60714e-10
1.29798e-10
4.84797e-11
1.80493e-10
3.19975e-09
2.20311e-09
3.24998e-09
1.5895e-09
9.13785e-10
5.1627e-11
7.13486e-14
1.27249e-10
2.10695e-10
3.74378e-10
2.99163e-10
1.01247e-10
3.88489e-11
1.54228e-15
1.32145e-14
1.52303e-13
9.19337e-13
1.79176e-12
2.07571e-12
4.29499e-13
1.42736e-15
1.03974e-13
1.7611e-13
2.35142e-13
1.50454e-13
1.04449e-13
1.86025e-14
6.13039e-14
1.18535e-13
2.1566e-13
2.62802e-13
3.53136e-13
2.43197e-13
1.53345e-13
1.18551e-13
5.00317e-13
1.43336e-12
2.62857e-12
2.67617e-12
1.75456e-12
1.41535e-12
8.34215e-12
5.07967e-11
1.63208e-11
1.11142e-10
1.49205e-10
1.18743e-10
4.79116e-11
1.28585e-10
1.68549e-09
1.51419e-09
2.13347e-09
1.14027e-09
6.07754e-10
6.26069e-11
1.63525e-13
1.25434e-10
1.96646e-10
2.71699e-10
1.98036e-10
6.98465e-11
3.64298e-11
4.16247e-15
1.54472e-13
1.65024e-12
3.43564e-12
6.17526e-12
2.11435e-12
7.06378e-13
5.02372e-14
1.59743e-13
3.24106e-13
4.32476e-13
4.57941e-13
1.7547e-13
4.23614e-14
8.16358e-14
1.19584e-13
2.15202e-13
2.59376e-13
3.58248e-13
2.73345e-13
2.10435e-13
1.14e-13
3.01718e-13
7.87112e-13
1.66084e-12
2.32389e-12
1.7602e-12
1.31485e-12
8.48582e-12
3.01707e-11
1.20216e-11
7.17836e-11
1.00283e-10
7.05979e-11
3.23964e-11
8.78914e-11
9.00827e-10
6.83792e-10
1.00736e-09
6.66077e-10
3.62145e-10
6.68668e-11
7.85678e-12
5.42007e-11
7.28431e-11
9.81129e-11
8.78981e-11
4.57686e-11
2.69724e-11
1.00488e-13
6.67021e-13
1.85845e-12
4.11765e-12
4.80415e-12
2.0451e-12
1.27847e-12
1.357e-13
2.24845e-13
3.62652e-13
4.45954e-13
4.48284e-13
2.16882e-13
1.70913e-13
6.9752e-14
9.57828e-14
1.63046e-13
1.99248e-13
2.69336e-13
1.75077e-13
1.4269e-13
1.0813e-13
1.90446e-13
4.94411e-13
1.06928e-12
1.25025e-12
1.09706e-12
7.9676e-13
4.6812e-12
9.01703e-12
6.09538e-12
1.86171e-11
3.42707e-11
2.44524e-11
1.81645e-11
6.52801e-11
3.54685e-10
2.00338e-10
2.64253e-10
2.75745e-10
1.96118e-10
6.50179e-11
4.91668e-12
1.68829e-11
1.25927e-11
1.80612e-11
2.33332e-11
1.72646e-11
1.20812e-11
2.28727e-13
7.18784e-13
1.35188e-12
1.92827e-12
1.64541e-12
1.04756e-12
9.49869e-13
1.3462e-13
2.09448e-13
2.59499e-13
2.80323e-13
2.66775e-13
1.71723e-13
1.70067e-13
2.87089e-14
2.80217e-14
4.38695e-14
6.94531e-14
9.06503e-14
5.06354e-14
3.85761e-14
2.24193e-14
5.46492e-14
1.63411e-13
3.54677e-13
4.59229e-13
3.76138e-13
3.57548e-13
1.30506e-12
1.28652e-12
1.08917e-12
3.32587e-12
7.84527e-12
5.43922e-12
6.90144e-12
2.84826e-11
6.45911e-11
3.69049e-11
4.41013e-11
7.01941e-11
5.57844e-11
4.2001e-11
8.16325e-13
2.01839e-12
1.25169e-12
2.15285e-12
5.42883e-12
4.47384e-12
5.74335e-12
1.85796e-13
4.42988e-13
5.41511e-13
4.72712e-13
4.10487e-13
1.98594e-13
3.04401e-13
1.13316e-13
1.30561e-13
1.30307e-13
1.21677e-13
1.04461e-13
5.15372e-14
6.07898e-14
4.85853e-15
3.29706e-15
1.03529e-15
7.57885e-15
1.49063e-14
1.0257e-14
3.2416e-15
7.05341e-16
1.22484e-15
1.5351e-14
5.43273e-14
9.51738e-14
1.15628e-13
7.80603e-14
5.54111e-13
2.78598e-15
7.72965e-14
2.51535e-13
1.20277e-12
1.03017e-12
1.62969e-12
7.01412e-12
2.42712e-12
1.98031e-12
2.40504e-12
9.38738e-12
7.4e-12
8.2604e-12
2.06601e-13
4.91777e-14
4.68333e-14
5.576e-14
4.08258e-13
5.81413e-13
1.23577e-12
7.41861e-14
1.48001e-13
1.46265e-13
7.25652e-14
4.86225e-14
3.92736e-14
7.14533e-14
4.22931e-14
3.6942e-14
2.60283e-14
2.2424e-14
1.72995e-14
1.0431e-14
9.15114e-15
6.50262e-15
1.85933e-15
7.37819e-16
1.28435e-16
1.44049e-16
1.5997e-16
1.591e-16
3.14463e-13
2.27014e-13
8.32404e-14
4.81347e-17
4.09959e-17
2.59357e-17
2.24286e-17
2.50885e-11
1.58638e-11
4.93103e-12
6.61302e-16
1.06136e-15
2.32672e-16
2.97828e-16
2.52488e-11
3.63253e-12
1.12693e-12
1.54462e-13
3.86043e-14
2.56861e-14
2.42329e-14
1.25521e-11
3.48355e-12
5.8432e-16
8.27226e-17
1.11809e-16
1.4937e-16
2.05371e-16
8.86101e-14
3.83976e-15
1.14967e-17
7.8853e-18
7.31703e-18
7.13202e-18
5.07643e-18
2.26856e-15
2.9443e-17
2.66995e-17
2.90858e-17
2.98273e-17
2.92851e-17
1.64593e-17
2.29271e-14
1.49206e-15
1.14933e-15
7.29271e-16
5.17289e-16
5.66397e-16
5.25413e-16
9.93516e-13
7.72291e-13
4.53489e-13
9.50743e-14
5.35588e-15
1.23548e-16
1.23609e-16
3.78991e-11
3.12867e-11
1.67295e-11
6.29089e-12
3.18335e-13
3.86687e-16
5.89742e-16
2.79572e-11
1.30655e-11
5.76285e-12
2.2702e-12
5.74761e-13
2.80958e-13
1.98779e-13
1.24401e-11
6.53513e-12
1.25596e-12
2.29441e-16
2.12083e-16
2.95522e-16
5.60933e-16
1.61166e-13
3.34252e-14
8.53314e-15
4.06853e-17
4.08521e-17
4.04484e-17
3.77663e-17
5.62652e-15
6.18965e-16
1.63609e-16
1.59981e-16
1.65968e-16
1.33657e-16
9.53949e-17
1.29366e-13
4.40586e-14
1.20023e-14
2.11228e-15
1.49107e-15
1.54253e-15
1.23477e-15
1.70122e-12
1.25225e-12
7.54952e-13
3.14649e-13
8.55212e-14
5.78579e-16
7.17081e-16
3.8833e-11
3.33689e-11
2.36308e-11
1.27857e-11
3.80104e-12
4.35718e-13
7.70691e-16
3.44116e-11
1.92161e-11
1.08242e-11
6.15572e-12
2.79194e-12
1.23032e-12
4.74006e-13
1.42405e-11
6.52544e-12
3.5346e-12
8.3103e-13
4.47994e-16
4.67584e-16
5.90073e-16
3.31016e-13
1.75027e-13
7.82892e-14
9.07331e-15
1.75343e-16
1.97756e-16
2.17321e-16
2.20819e-14
7.28473e-15
1.69523e-15
4.75768e-16
4.36499e-16
3.29202e-16
2.34017e-16
1.94021e-13
1.01037e-13
7.70685e-14
1.91081e-14
4.26167e-15
4.59831e-15
3.64541e-15
1.56768e-12
1.15443e-12
9.05157e-13
4.23925e-13
1.52257e-13
2.04553e-14
3.19717e-15
2.80023e-11
2.39148e-11
1.94612e-11
1.20619e-11
6.02892e-12
1.61325e-12
2.80633e-13
2.8657e-11
1.99802e-11
1.09574e-11
7.59503e-12
4.6316e-12
2.41339e-12
1.39236e-12
1.52911e-11
8.51708e-12
4.01733e-12
2.62624e-12
1.22698e-12
3.3754e-13
2.5805e-14
5.0276e-13
3.52767e-13
9.61768e-14
4.59006e-14
5.43163e-15
1.41789e-15
1.10723e-15
5.69325e-14
3.15625e-14
5.75801e-15
1.95029e-15
1.47003e-15
7.48786e-16
4.3409e-16
1.4769e-13
7.37032e-14
4.06983e-14
1.82186e-14
2.07292e-14
1.12812e-14
5.89711e-15
8.41896e-13
8.12525e-13
8.73828e-13
7.32173e-13
4.06732e-13
1.43685e-13
4.83938e-15
1.55052e-11
1.41483e-11
1.19484e-11
8.47956e-12
5.40061e-12
2.42697e-12
6.55092e-13
2.43236e-11
1.62221e-11
1.02665e-11
7.40052e-12
4.57326e-12
3.0034e-12
1.62014e-12
9.12123e-12
6.62546e-12
4.2314e-12
2.39276e-12
1.81405e-12
1.15008e-12
6.85053e-13
5.28119e-13
3.26858e-13
1.87651e-13
6.1235e-14
4.61903e-15
1.77717e-15
3.60512e-15
9.26024e-14
3.27955e-14
7.42199e-15
5.95258e-15
4.62938e-15
2.09973e-15
8.66275e-16
2.55439e-14
3.92897e-14
3.67382e-14
4.19395e-14
3.85678e-14
2.37332e-14
9.49967e-15
3.95945e-13
3.35982e-13
3.08958e-13
3.14986e-13
3.06139e-13
2.36942e-13
1.27477e-13
5.02134e-12
4.12012e-12
3.79234e-12
3.39133e-12
3.03548e-12
1.89008e-12
1.28622e-12
2.06839e-11
1.28453e-11
7.58169e-12
4.47383e-12
3.12141e-12
2.53045e-12
1.75511e-12
4.82077e-12
3.47823e-12
2.50645e-12
1.72616e-12
1.41933e-12
1.09336e-12
7.76174e-13
3.04214e-13
1.7737e-13
1.00081e-13
4.5664e-14
2.21162e-14
1.14847e-14
1.20588e-14
3.9779e-14
2.70706e-14
2.03988e-14
1.41193e-14
8.28656e-15
3.93722e-15
1.32147e-15
3.84286e-15
9.15665e-15
1.06397e-14
1.06128e-14
8.37215e-15
5.15997e-15
5.90552e-15
9.78842e-14
8.43077e-14
6.85669e-14
6.25545e-14
5.68306e-14
6.45149e-14
5.92755e-14
1.24621e-12
1.04725e-12
6.49467e-13
5.18184e-13
5.4949e-13
5.90196e-13
6.50676e-13
6.42482e-12
5.47026e-12
3.58185e-12
2.43794e-12
1.51195e-12
1.15815e-12
9.76169e-13
1.01708e-12
9.25937e-13
6.93115e-13
4.69553e-13
3.42383e-13
3.4327e-13
3.55961e-13
6.191e-14
5.23434e-14
3.88158e-14
2.38139e-14
1.91246e-14
1.15797e-14
8.06165e-15
6.56238e-15
7.97654e-15
6.92888e-15
4.97884e-15
3.67163e-15
2.04561e-15
1.30231e-15
2.02429e-17
2.97361e-17
6.04864e-17
1.36351e-16
1.54694e-16
1.49218e-16
1.34724e-16
1.4189e-17
2.44007e-17
3.95415e-17
5.32456e-17
1.17749e-16
1.67655e-16
1.77236e-16
5.51738e-18
9.51566e-18
3.39696e-17
1.79503e-16
6.27308e-16
1.26972e-15
3.42763e-15
6.67002e-15
8.33209e-15
3.5596e-14
1.61995e-13
5.59443e-13
5.03125e-12
9.23446e-11
4.99796e-17
4.42193e-17
4.08684e-17
3.65623e-17
3.41197e-17
4.11358e-17
3.67136e-16
3.58286e-17
5.43585e-17
1.01713e-16
1.16397e-16
1.04969e-16
8.91141e-17
7.72514e-17
4.7468e-17
1.78687e-16
3.46304e-16
4.28215e-16
4.17484e-16
3.45525e-16
2.79945e-16
1.52305e-16
4.13117e-16
1.14863e-15
1.3306e-15
1.87195e-15
2.11717e-15
1.82675e-15
6.9212e-17
1.97941e-16
2.95707e-16
6.71011e-16
1.8817e-15
3.52549e-15
3.23099e-15
2.84393e-17
3.81931e-17
5.75604e-16
7.19168e-15
1.30957e-14
5.80737e-14
1.14009e-13
7.07696e-14
1.59083e-13
3.53917e-13
7.91153e-13
3.92541e-12
1.93871e-11
8.2472e-11
1.77678e-16
1.73851e-16
1.65133e-16
1.35764e-16
1.16779e-16
1.438e-16
4.2713e-16
3.21124e-16
5.83586e-16
1.06329e-15
1.08039e-15
9.46405e-16
7.82786e-16
6.23532e-16
6.07028e-16
1.61255e-15
3.96106e-15
4.40464e-15
4.01515e-15
3.0215e-15
2.28132e-15
8.45857e-16
2.51703e-15
4.11558e-15
5.57954e-15
1.17777e-14
1.5724e-14
2.80218e-14
6.15129e-16
1.37555e-15
9.91448e-16
8.84852e-15
2.22622e-14
4.2214e-14
6.53491e-14
1.46617e-16
1.98037e-16
9.90043e-15
1.37427e-13
5.41468e-13
1.69547e-12
3.47238e-12
2.61303e-13
4.42726e-13
8.13082e-13
2.53956e-12
7.1759e-12
2.26571e-11
6.19797e-11
4.54701e-16
5.08651e-16
4.52345e-16
4.06534e-16
3.63203e-16
3.41881e-16
6.20726e-16
1.46597e-15
2.73808e-15
3.23962e-15
2.98472e-15
2.20717e-15
2.31884e-15
1.51029e-15
1.47988e-15
7.50331e-15
1.35502e-14
1.27195e-14
1.04825e-14
4.90418e-15
2.16779e-15
2.51574e-15
8.4286e-15
1.62092e-14
2.12008e-14
2.93018e-14
3.92452e-14
5.39203e-14
2.3058e-15
7.58765e-15
1.32516e-14
2.09325e-14
4.37377e-14
6.2603e-14
8.17443e-14
2.10351e-14
4.84079e-14
1.02407e-13
3.51458e-13
7.86343e-13
1.31073e-12
2.31014e-12
4.65738e-13
8.73688e-13
1.73869e-12
3.7233e-12
8.5305e-12
2.14608e-11
4.90254e-11
9.55888e-16
1.27483e-15
1.18274e-15
8.67389e-16
1.24401e-15
4.74105e-14
1.38508e-12
3.23437e-15
7.18963e-15
8.65889e-15
7.09449e-15
9.755e-15
2.13298e-14
6.04086e-14
5.51701e-15
2.03664e-14
3.26155e-14
3.55735e-14
3.71183e-14
4.15492e-14
5.29847e-14
3.6916e-15
8.05817e-15
1.50547e-14
2.08008e-14
2.84366e-14
3.86956e-14
5.00668e-14
4.47548e-15
8.47741e-15
1.37842e-14
2.00871e-14
3.30433e-14
4.23695e-14
5.67806e-14
5.7126e-14
1.16058e-13
2.43297e-13
3.91239e-13
8.53062e-13
1.3208e-12
2.42249e-12
1.00185e-12
1.78766e-12
3.00982e-12
5.69188e-12
9.72789e-12
2.01239e-11
3.56287e-11
8.02948e-15
2.13442e-14
4.98191e-14
1.00815e-13
2.00016e-13
5.10051e-13
1.27153e-12
7.89237e-15
1.40042e-14
2.01412e-14
2.83e-14
3.55027e-14
5.1008e-14
8.6056e-14
9.2755e-15
2.84251e-14
4.47872e-14
6.16308e-14
7.4662e-14
8.56554e-14
1.1382e-13
2.6816e-15
4.7919e-15
7.20634e-15
1.1338e-14
1.60949e-14
2.18039e-14
2.5896e-14
3.85674e-15
5.53455e-15
7.42728e-15
9.20692e-15
1.0534e-14
1.1098e-14
1.27213e-14
6.62302e-14
9.44595e-14
1.53093e-13
2.07343e-13
4.02983e-13
7.76735e-13
1.50598e-12
1.59456e-12
2.23142e-12
3.15584e-12
4.26379e-12
7.13721e-12
1.23232e-11
1.92583e-11
2.58826e-14
3.20364e-14
5.32648e-14
9.59232e-14
1.61198e-13
2.90157e-13
5.02707e-13
1.14686e-14
1.63926e-14
3.00326e-14
4.9835e-14
6.84254e-14
9.1852e-14
1.37576e-13
1.02565e-14
2.38127e-14
3.45467e-14
5.29366e-14
6.64566e-14
7.79112e-14
9.31412e-14
1.50722e-15
1.86151e-15
1.73871e-15
1.89591e-15
2.01309e-15
2.66726e-15
3.35154e-15
2.05537e-15
2.55496e-15
2.87185e-15
2.53936e-15
2.16774e-15
1.52611e-15
1.22666e-15
3.27161e-14
3.10177e-14
2.41808e-14
1.21393e-14
2.54294e-15
1.61701e-14
1.11446e-13
7.83631e-13
8.0362e-13
9.8611e-13
1.86124e-12
2.40131e-12
3.98866e-12
4.52089e-12
1.26784e-14
1.47678e-14
1.87417e-14
3.06151e-14
5.29463e-14
8.312e-14
1.37912e-13
5.45077e-15
7.79932e-15
1.24261e-14
1.59929e-14
2.51578e-14
3.35483e-14
4.69978e-14
4.435e-15
5.69558e-15
1.38859e-14
1.88873e-14
2.8645e-14
3.39722e-14
3.96113e-14
4.38315e-22
4.51432e-22
9.49811e-22
6.25403e-21
8.28268e-20
1.29363e-19
6.36644e-19
3.17553e-21
5.62411e-21
4.89828e-21
1.39841e-20
4.74834e-20
4.73525e-19
3.23673e-18
4.75576e-17
8.20754e-17
7.63264e-17
3.67904e-17
1.07653e-17
6.2275e-18
4.46126e-18
3.22325e-16
7.58693e-16
1.10068e-15
1.63292e-15
2.08436e-15
3.52349e-15
4.98211e-15
5.70813e-17
1.09337e-16
1.22118e-16
1.05674e-16
6.63789e-17
6.42064e-17
5.5035e-17
3.13557e-19
1.52071e-18
4.59872e-18
1.1688e-17
1.69867e-17
1.82009e-17
2.98031e-17
5.53678e-21
9.15466e-21
7.50338e-20
1.56623e-19
7.3258e-19
2.19093e-18
5.72798e-18
6.0939e-22
5.00263e-22
2.22253e-21
3.06255e-20
1.72247e-19
6.0596e-19
5.22127e-18
3.55716e-21
1.00077e-20
1.23844e-20
3.19339e-20
2.86403e-19
7.27142e-18
3.23706e-17
1.62777e-16
2.76317e-16
3.10551e-16
9.61051e-17
4.06082e-17
2.16534e-17
2.38779e-17
1.24452e-15
3.49723e-15
8.29467e-15
1.02124e-14
1.56946e-14
2.75677e-14
3.80802e-14
1.66333e-16
3.59049e-16
6.3516e-16
4.79881e-16
3.37108e-16
2.13546e-16
1.95093e-16
6.98197e-20
2.75788e-18
1.41404e-17
4.38789e-17
7.26139e-17
1.43964e-16
2.59303e-16
5.17814e-21
1.20657e-20
1.07511e-19
5.09284e-19
1.51728e-18
4.86286e-18
2.45944e-17
2.9192e-22
6.41473e-22
3.67309e-21
4.50486e-20
3.99972e-19
2.31079e-18
1.59233e-17
3.90086e-21
1.64202e-20
2.46881e-20
9.84021e-20
1.59087e-18
3.74125e-17
9.31452e-17
5.28633e-16
1.44093e-15
1.47047e-15
2.41273e-16
8.89845e-17
4.16063e-17
1.95996e-16
5.69954e-15
1.76803e-14
3.56951e-14
4.79502e-14
7.42606e-14
9.79029e-14
1.86049e-13
5.25761e-16
1.59266e-15
2.57931e-15
1.48605e-15
7.52511e-16
5.25478e-16
4.73456e-16
7.08298e-20
3.16366e-18
2.37018e-17
1.63016e-16
2.92841e-16
6.4768e-16
1.06326e-15
3.58857e-21
1.31271e-20
1.80536e-19
9.45557e-19
3.27615e-18
9.40703e-18
6.05211e-17
7.42082e-22
7.87132e-22
7.72088e-21
1.0078e-19
6.48586e-19
3.72582e-18
4.07617e-17
3.67085e-21
1.99435e-20
3.13336e-20
1.92991e-19
7.13705e-18
1.01906e-16
5.74113e-16
7.33292e-16
1.74695e-15
1.48208e-15
4.38018e-16
1.21849e-16
8.64274e-17
7.37671e-15
6.81378e-15
2.2537e-14
4.2077e-14
5.60907e-14
1.08779e-13
1.48997e-13
2.79286e-13
8.73954e-16
1.88511e-15
2.2167e-15
1.42707e-15
8.0828e-16
6.94502e-16
7.59945e-16
3.01296e-19
3.74192e-18
6.17381e-17
3.49864e-16
6.90696e-16
1.3493e-15
1.93137e-15
5.95939e-21
1.47499e-20
2.26728e-19
1.08049e-18
3.92134e-18
1.25008e-17
9.87359e-17
7.78441e-22
1.15355e-21
1.80608e-20
1.2515e-19
9.64749e-19
4.40026e-18
5.82139e-17
1.006e-20
3.05662e-20
3.49884e-20
3.68412e-19
1.44731e-17
2.31489e-16
1.57489e-15
9.82939e-16
2.10524e-15
1.17525e-15
5.36331e-16
2.01296e-15
1.18656e-14
1.92989e-14
8.90581e-15
3.0148e-14
6.61295e-14
1.2119e-13
2.47314e-13
4.12016e-13
6.74828e-13
1.08255e-15
2.33277e-15
2.09974e-15
1.15664e-15
7.89831e-16
1.17047e-15
2.63091e-15
6.21161e-19
4.03995e-18
1.77447e-16
5.68562e-16
1.30744e-15
2.86328e-15
4.99846e-15
6.80316e-21
1.67653e-20
2.43021e-19
1.15043e-18
5.07561e-18
1.52663e-17
1.42036e-16
8.26505e-22
1.36146e-21
2.39924e-20
1.57908e-19
1.21209e-18
5.13865e-18
8.54683e-17
1.42889e-20
4.25464e-20
4.73033e-20
5.19659e-19
3.54471e-17
3.7741e-16
1.6428e-15
1.33911e-15
2.87636e-15
1.1091e-15
1.33509e-15
8.82551e-15
2.14749e-14
3.83108e-14
1.15616e-14
5.51654e-14
1.61658e-13
3.37715e-13
5.556e-13
7.45931e-13
9.91773e-13
1.53737e-15
3.52463e-15
2.86879e-15
1.1625e-15
1.47777e-15
7.88343e-15
1.33339e-14
7.29237e-19
3.91253e-18
2.91314e-16
7.2332e-16
1.48862e-15
3.43782e-15
6.55812e-15
7.00868e-21
1.80019e-20
2.60895e-19
1.2422e-18
5.74995e-18
1.77582e-17
2.07718e-16
8.41386e-22
1.83586e-21
3.32304e-20
1.86949e-19
1.34372e-18
5.80673e-18
1.17374e-16
1.58758e-20
4.54955e-20
7.14761e-20
7.27527e-19
6.42268e-17
4.51575e-16
1.57107e-15
2.1305e-15
5.35936e-15
1.92938e-15
5.97212e-15
1.34068e-14
2.59696e-14
3.15891e-14
3.21432e-14
1.41229e-13
3.16101e-13
4.80129e-13
5.77561e-13
6.96473e-13
7.36143e-13
2.54685e-15
6.64344e-15
2.90264e-15
2.32612e-15
6.24199e-15
9.2076e-15
1.1844e-14
6.03454e-19
3.50295e-18
2.35866e-16
4.3702e-16
1.46093e-15
2.2522e-15
4.61685e-15
6.18849e-21
1.83606e-20
2.76244e-19
1.32058e-18
6.57612e-18
1.94558e-17
2.74772e-16
5.40873e-22
3.38097e-21
8.86737e-21
2.14379e-19
7.76811e-19
6.06638e-18
1.47619e-17
1.55666e-20
4.47884e-20
7.15271e-20
1.59364e-18
9.87218e-18
1.51042e-17
5.47417e-16
1.83573e-15
2.48312e-15
1.13315e-15
2.76005e-15
5.62209e-15
1.0715e-14
1.12243e-14
4.57506e-14
1.17452e-13
1.92853e-13
2.21896e-13
2.40822e-13
2.18762e-13
1.97843e-13
2.47049e-15
2.78279e-15
1.80771e-15
1.41947e-15
3.46268e-15
4.20113e-15
2.93679e-15
9.55835e-20
9.10044e-19
2.91524e-17
1.00545e-17
2.49012e-16
1.73209e-18
6.26037e-16
2.65031e-21
1.80675e-20
5.40262e-20
1.37916e-18
4.65778e-18
2.06831e-17
7.07973e-17
6.40215e-22
4.59046e-21
1.5951e-20
2.21136e-19
1.11299e-18
3.75093e-18
1.10281e-17
1.12475e-20
5.8989e-20
2.38885e-19
3.75189e-18
2.18961e-17
7.16336e-17
1.89236e-16
6.04891e-16
9.55513e-16
6.58957e-16
9.93724e-16
1.83811e-15
3.60685e-15
4.34432e-15
3.27208e-14
5.75078e-14
8.73266e-14
9.0182e-14
9.61252e-14
8.80321e-14
7.4874e-14
1.15415e-15
1.17993e-15
1.06032e-15
9.15838e-16
1.50112e-15
1.96491e-15
1.54755e-15
1.02932e-19
3.69756e-19
1.02698e-18
5.82138e-18
2.32284e-17
1.29312e-18
2.22919e-18
3.86669e-21
1.88913e-20
5.92631e-20
2.35639e-19
1.21511e-18
4.85987e-20
8.6048e-20
2.72191e-23
1.28377e-22
8.07922e-23
9.93688e-23
2.88256e-22
8.08304e-22
1.31214e-21
2.38373e-21
5.23566e-21
4.63856e-21
7.72969e-21
1.44351e-20
1.96863e-20
3.00319e-20
1.69045e-16
4.57349e-16
3.45377e-16
4.92994e-16
9.09673e-16
1.54536e-15
2.44676e-15