/*--------------------------------*- C++ -*----------------------------------*\
  =========                 |
  \\      /  F ield         | OpenFOAM: The Open Source CFD Toolbox
   \\    /   O peration     | Website:  https://openfoam.org
    \\  /    A nd           | Version:  6
     \\/     M anipulation  |
\*---------------------------------------------------------------------------*/
FoamFile
{
    version     2.0;
    format      ascii;
    class       volScalarField;
    location    "0.0075";
    object      p;
}
// * * * * * * * * * * * * * * * * * * * * * * * * * * * * * * * * * * * * * //

dimensions      [1 -1 -2 0 0 0 0];

internalField   nonuniform List<scalar> 
3773
(
41746.5
41746.5
41746.7
41746.8
41746.8
41746.7
41746.6
100566
100566
100566
100566
100566
100566
100566
135746
135746
135746
135746
135746
135746
135746
147446
147446
147446
147446
147446
147446
147446
135747
135747
135747
135747
135747
135747
135747
100567
100567
100567
100567
100567
100567
100567
41746.7
41746.6
41746.7
41746.8
41746.9
41746.9
41746.9
41744.9
41744.9
41745.1
41745.2
41745.2
41745.1
41744.9
100564
100564
100564
100564
100564
100563
100563
135744
135744
135744
135744
135744
135744
135744
147445
147445
147445
147445
147445
147445
147445
135745
135745
135746
135746
135746
135745
135745
100565
100564
100564
100564
100564
100564
100565
41745
41745
41745.1
41745.2
41745.3
41745.3
41745.3
41741.9
41742
41742.1
41742.2
41742.3
41742.1
41742
100559
100559
100559
100559
100559
100559
100559
135742
135742
135742
135742
135742
135742
135742
147443
147443
147443
147443
147443
147443
147443
135743
135743
135743
135743
135743
135743
135743
100560
100560
100560
100560
100560
100560
100560
41742.2
41742.2
41742.2
41742.3
41742.5
41742.5
41742.4
41738.4
41738.4
41738.5
41738.6
41738.8
41738.5
41738.4
100554
100554
100554
100554
100554
100554
100554
135738
135738
135738
135738
135738
135738
135738
147441
147441
147441
147441
147441
147440
147440
135739
135739
135740
135740
135739
135739
135739
100555
100555
100555
100555
100555
100555
100555
41738.7
41738.7
41738.7
41738.7
41739
41739
41739
41734.8
41734.9
41735.1
41735.2
41735.3
41735
41734.9
100549
100549
100549
100549
100549
100549
100548
135735
135735
135735
135735
135735
135735
135735
147438
147438
147438
147438
147438
147438
147438
135736
135736
135736
135736
135736
135736
135736
100550
100550
100550
100550
100550
100550
100550
41735.3
41735.3
41735.4
41735.3
41735.6
41735.6
41735.5
41732
41732.2
41732.5
41732.6
41732.6
41732.3
41732.1
100544
100545
100545
100545
100545
100544
100544
135732
135732
135732
135732
135732
135732
135732
147436
147436
147436
147436
147436
147436
147436
135733
135733
135733
135733
135733
135733
135733
100546
100546
100546
100546
100546
100546
100545
41732.6
41732.7
41732.8
41732.8
41733
41732.9
41732.9
41730.5
41730.8
41731.1
41731.3
41731.2
41730.8
41730.6
100542
100542
100543
100543
100543
100542
100542
135731
135731
135731
135731
135731
135731
135731
147435
147435
147435
147435
147435
147435
147435
135732
135732
135732
135732
135732
135732
135732
100543
100543
100544
100544
100544
100543
100543
41731.1
41731.3
41731.4
41731.4
41731.6
41731.5
41731.4
61896.9
61954.2
62080.3
62121.8
62020.4
61784.7
61715.2
146147
146087
146236
146371
146296
146152
146260
195497
195471
195503
195548
195603
195665
195777
212137
212095
212080
212105
212179
212272
212370
196607
196402
196358
196413
196478
196531
196725
147945
147650
147974
148335
148211
147930
148135
63035.7
63149
63551.6
63831.3
63741.3
63484.9
63349.7
61317.1
61350.3
61482.3
61486
61270.5
60964.1
60969.2
145519
145451
145556
145578
145500
145410
145513
195387
195346
195338
195336
195401
195503
195594
212049
212010
212001
212044
212116
212193
212279
195955
195760
195714
195757
195837
195901
196106
146371
146102
146357
146518
146507
146310
146488
61886.7
61915.4
62256.9
62426.8
62387.4
62136.9
62066.4
61014.1
61020.2
61102.1
61040.3
60823
60715.1
60854.1
145376
145328
145294
145224
145122
145190
145305
195424
195397
195351
195349
195388
195461
195493
212043
212036
212045
212092
212138
212160
212184
195688
195548
195464
195534
195630
195632
195720
145817
145494
145530
145747
145758
145579
145687
61400.1
61360.6
61553.4
61636.8
61422.8
61313.7
61294.6
60871.7
60870.8
60837.7
60731
60723.5
60814.5
61050.8
145414
145349
145187
145010
145001
145170
145352
195491
195440
195401
195391
195416
195464
195489
212107
212095
212130
212156
212160
212125
212115
195843
195728
195598
195581
195611
195564
195591
146138
145836
145508
145495
145481
145330
145502
61555.7
61443.5
61350.8
61245
60943.1
60902
60976
60798.1
60777.2
60653.3
60522.6
60573.7
60724.2
60920.4
145414
145335
145138
144979
145080
145249
145347
195481
195423
195411
195430
195467
195503
195506
212082
212069
212142
212189
212171
212121
212093
195916
195845
195747
195653
195616
195589
195594
146310
146164
145775
145432
145331
145365
145485
61667.7
61482.3
61138.9
60848.7
60685.9
60743.7
60928.6
60761.9
60686.6
60520.9
60379.8
60400.4
60636
60752.5
145371
145218
145033
145057
145190
145338
145472
195348
195296
195289
195379
195472
195528
195561
211948
211980
212067
212152
212169
212167
212140
195756
195726
195667
195679
195716
195695
195683
146076
145960
145530
145387
145517
145480
145509
61622.9
61261.1
60871
60545
60494
60586.9
60862.5
60669.6
60517
60294.5
60179.6
60284.6
60729.4
60986.7
145306
145059
144843
144818
144907
145338
145682
195282
195234
195273
195304
195338
195511
195613
211891
211916
212008
212079
212137
212205
212225
195560
195512
195537
195678
195779
195738
195786
145874
145639
145422
145660
145825
145498
145541
61604.7
61226.5
60925.3
60819.7
60780.3
60693.2
60890.1
60474
60362.8
60251.8
60127.4
60074.2
60396.7
60946.3
145364
145135
144903
144665
144514
144620
145361
195710
195661
195609
195546
195552
195645
195868
212420
212447
212443
212462
212550
212665
212706
195882
195849
195861
195904
196007
196330
196438
145850
145645
145500
145593
145796
146282
146256
61334
61232.3
61229.7
61224.1
61359.1
61229.5
61171.9
60373.8
60341.9
60303.3
60234.1
60142.6
60277.7
60820.7
145240
145135
145037
144926
144761
144697
145393
195868
195833
195794
195760
195708
195722
195905
212696
212667
212642
212640
212683
212742
212813
195979
195907
195834
195917
196136
196399
196558
145397
145203
145056
145180
145818
146384
146540
60657.8
60456.1
60347.7
60514.8
61033.9
61365.6
61407.4
60407
60436.3
60491.3
60526.7
60591.9
60753.5
61241.9
145272
145292
145346
145382
145374
145377
145857
196009
195996
195993
195998
195990
196039
196219
212864
212817
212782
212749
212732
212812
212943
196096
196096
195967
195927
196117
196501
196817
145257
145161
145101
145069
145615
146523
147102
60265
60058
59958.6
60128
60967.5
61755.6
61957.6
60527.8
60530.5
60668.3
60875.4
61168.6
61535.9
62222.7
145338
145394
145545
145682
145733
145904
146508
196061
196068
196110
196122
196032
196025
196304
212804
212834
212827
212737
212658
212724
212858
196106
196186
196116
195902
196052
196619
197049
145239
145193
145162
145002
145391
146715
147858
60270.4
60169.2
60141.7
60142.3
60861.6
62128.9
62781.2
60547.6
60505.5
60741
61305.5
61939.1
62602.1
63598.8
145380
145433
145591
145838
146020
146407
147309
196143
196183
196212
196142
195895
195699
196078
212687
212738
212723
212595
212440
212343
212427
195858
195853
195816
195646
195751
196320
197030
145095
145011
144994
144905
145324
146890
148870
60398.4
60350
60436
60650.2
61348
62681.5
63651.9
60273.4
60547.2
61136
61756.7
62196.9
62940.5
63812.6
145160
145280
145378
145863
146414
147244
148340
196003
196129
196237
196189
195844
195502
195810
212652
212646
212655
212504
212086
211632
211648
195933
195707
195678
195530
195307
195747
196933
145165
144969
145083
145025
145568
147741
150439
60409.4
60461.6
60893.9
61517.3
62220.1
63121.9
64071.1
60038.4
62181.6
61657.1
60400.3
60750.1
62186
63355.6
144719
146078
146111
145215
145727
147230
148898
195784
196050
196375
196186
195804
195495
195679
212731
212786
212783
212503
211780
210882
210310
196539
196342
196122
195752
195222
195157
195694
145771
145771
145592
145541
145857
147280
149996
60377.2
61795.3
61802.3
61059.5
61521.1
62827
64003.6
60638
60513.9
60355.7
60289.7
60441.1
61175.2
62009.4
145380
145152
144979
144829
144798
145520
146255
195301
195292
195349
195308
195378
195527
195733
211925
212041
212018
212040
212247
212253
212283
195542
195546
195625
195776
195793
195942
195982
146054
145777
145736
145986
145937
145862
145909
61757.3
61552
61474
61651.9
61470.5
61126
61146.5
60633.9
60511.2
60360.9
60299
60447.7
61181.5
62162.7
145388
145161
144994
144827
144802
145533
146281
195311
195294
195309
195319
195394
195542
195733
211907
212013
212000
212045
212235
212266
212288
195548
195551
195618
195789
195772
195965
195999
146076
145795
145774
145986
145840
145907
145957
61753.4
61549.4
61505.6
61721.8
61549.6
61178.4
61164.5
60630.5
60508.8
60365.9
60297.6
60439.3
61191.3
62279.1
145394
145163
144999
144818
144823
145496
146244
195340
195296
195277
195338
195414
195557
195737
211888
211982
212007
212066
212227
212296
212320
195571
195561
195619
195798
195755
195995
196028
146089
145809
145807
145959
145702
145936
145992
61729.1
61524.6
61531
61795.5
61622.4
61234.3
61176.4
60628.2
60506.8
60368.6
60290.3
60424.4
61239.5
62281.2
145397
145172
145007
144815
144845
145417
146167
195377
195305
195291
195355
195434
195559
195746
211907
211980
212036
212098
212243
212333
212362
195597
195569
195629
195804
195742
196027
196064
146093
145818
145840
145930
145593
145975
146019
61691.7
61516.3
61571.5
61889.2
61689.4
61292
61182.3
60626
60501.8
60368.5
60282.4
60402.8
61335.7
62182.5
145398
145189
145020
144810
144858
145309
146053
195412
195333
195323
195373
195460
195553
195754
211943
212008
212074
212135
212266
212368
212403
195618
195579
195646
195807
195739
196059
196100
146091
145835
145872
145900
145547
146010
146045
61659.1
61546.4
61632.5
62018
61763.7
61353.7
61182.4
60622
60491.6
60366.7
60279.7
60375.3
61377.5
62013.7
145397
145205
145033
144796
144832
145195
145893
195444
195370
195355
195394
195486
195553
195767
211989
212050
212116
212174
212292
212400
212437
195638
195597
195669
195807
195747
196091
196137
146087
145853
145883
145878
145558
146032
146073
61633.1
61608.1
61721
62120.1
61816.4
61377.3
61179.5
60613.2
60478
60359.1
60270.9
60328.6
61258.6
61822
145394
145207
145027
144775
144786
145096
145723
195473
195406
195388
195417
195503
195569
195797
212043
212098
212158
212211
212321
212427
212465
195661
195622
195697
195812
195769
196123
196174
146074
145846
145857
145862
145583
146049
146099
61601.6
61640.6
61770.8
62056.6
61796.1
61348.4
61175.7
67070.8
67148.5
63735.2
60954.3
60442.7
61217.2
62645.4
150183
150190
147185
145013
145221
145963
145979
196175
196734
196558
195909
195444
194873
192876
211552
212541
212731
212543
211937
210930
208283
196708
197037
196577
195896
195415
194765
193312
148534
150040
148517
146248
145846
145657
146055
66463.2
67066.6
64087.9
61758.4
61043
61702.2
62707.4
68391
67799.9
64026.3
61365
60620.9
60841.7
61355.6
151266
150980
147451
145130
145021
145428
144506
196337
197025
196584
195773
195218
194450
192275
211607
212622
212774
212586
212047
210938
208303
196683
197371
196824
196027
195474
194673
192955
148951
151604
149798
146470
145389
145042
144544
67433.3
68183.2
64504.6
62017.7
61012.9
61065.3
61187.9
67947.8
67488.9
64435.7
62025.5
61025.4
60417.5
60042.4
150994
150605
147906
145830
145364
144880
143334
196479
197115
196565
195784
195194
194198
192106
211884
212836
212927
212743
212256
211092
208857
196702
197707
197069
196250
195651
194722
193094
148788
151926
150210
147018
145630
144616
143459
66742.8
68139.1
64918.8
62521.6
61062.9
60330.5
59802
67381.3
66776.8
64721.7
62757.9
61396.2
60225.8
59565
150465
150140
148485
146868
146062
144482
142660
196521
197029
196542
195911
195349
194193
192276
212199
213104
213126
212953
212557
211467
209529
196743
197858
197276
196479
195924
194890
193237
148615
151446
150070
147445
145897
144364
142831
65860
67560.5
65141.6
62855.3
60913.5
59924.1
59178.5
67219
66198.9
64896
63407.7
61859.9
60349.5
59545
150095
149910
149137
148034
146626
144386
142497
196494
196957
196674
196189
195564
194251
192490
212542
213396
213273
213125
212828
211900
210191
196834
197973
197451
196686
196180
195095
193371
148837
151321
149966
147730
146169
144387
142674
65805.6
67122.9
65370.8
63111.1
61055.5
59819.9
59086.6
67140.4
65801.1
64949.5
63861.5
62306.6
60543.3
59619.2
149891
149831
149803
148972
147162
144647
142559
196493
196936
196903
196548
195811
194337
192589
212890
213544
213327
213187
212965
212154
210746
197031
198146
197569
196839
196390
195292
193537
149373
151599
150097
147980
146445
144506
142613
65939.6
66985.1
65440.7
63303.9
61351.9
59785.5
58959.6
67252.3
65712.8
64950.9
64070.5
62567.9
60663.8
59742.7
149997
149960
150096
149392
147590
145010
142642
196598
196946
197092
196807
196086
194454
192656
213215
213545
213349
213198
213063
212230
211033
197234
198317
197672
196967
196549
195421
193732
149816
152052
150320
148161
146631
144590
142562
66263.8
67059.4
65493.2
63440.5
61544.8
59788.1
58888
62455.5
61655.7
61367.5
62149.5
65289.3
71207.9
79958.7
143509
142395
142344
142834
143497
145282
148523
188276
189232
190497
190670
189752
187655
184706
202577
203519
203740
203125
201387
198314
194384
189544
189716
189849
189241
187894
185979
184015
144754
143639
143368
143452
143968
146183
150413
62427.3
61496.9
61158.6
62002.3
65097.1
70930.9
79428.7
60922.3
60481.8
60353.6
60915.7
62866.1
67405.4
75284.7
142612
142030
142041
142354
142705
143815
146528
189732
189714
190337
190636
189948
187946
184900
204686
203983
203828
203171
201499
198591
194668
190574
190076
189874
189240
187821
185867
183788
143491
142951
142627
142464
142743
144367
147714
60928.4
60442.9
60186
60813.5
62974.4
67768
75706.8
59703.4
59634.5
59546.6
59631.1
60377.6
62772.3
68628.5
141929
141657
141695
141801
141868
142018
143429
190482
189998
190134
190359
189939
188197
185192
206243
204861
204074
203260
201661
199023
195230
191216
190373
189900
189223
187710
185715
183637
142511
142208
141858
141507
141293
141884
143880
59524
59361
59343.4
59643.5
60574.7
63316.5
69534.1
59432.5
59347.7
59338.4
59387.2
59675.2
60700.3
64071.1
141708
141469
141434
141416
141197
140673
140817
190815
190102
189891
189884
189399
187892
185209
207368
205882
204581
203475
201817
199152
195428
191542
190606
189836
188927
187350
185487
183546
142001
141672
141361
140976
140351
139965
140654
58985.1
58910.7
59013.1
59163.8
59384.6
60320.8
63855.8
59459.4
59422.2
59433.9
59552.3
59893.3
60621.8
62196.3
141904
141659
141585
141512
141269
140851
139999
191054
190260
189809
189472
188768
187282
184664
208215
206822
205340
203838
201960
198857
194651
191707
190749
189751
188585
186979
185077
183301
141961
141558
141205
140848
140101
139109
138793
58903.4
58841.4
58962.8
59113.2
59133.2
59434.4
61066.1
59536.6
59545
59568.1
59697.1
60069.2
60668.2
61268
142023
141863
141778
141642
141376
140981
140254
191239
190475
189902
189332
188372
186528
183446
208848
207643
206152
204311
201960
198259
192810
191886
190847
189696
188381
186683
184424
182010
141966
141536
141082
140661
139975
138931
138184
58854.4
58861
58976.2
59167.8
59246.6
59546.9
60437.3
59726.8
59678.3
59661.3
59799.9
60158.7
60599.8
60722.6
142048
141982
141880
141695
141387
140952
140253
191330
190645
190120
189451
188351
186255
181903
209191
208177
206750
204780
202014
197819
190019
192045
190935
189698
188335
186571
183826
179619
141974
141544
141038
140585
139942
138960
138078
58924.7
59021.7
59156.1
59371.2
59429.1
59639.3
60115
88680.3
80009.4
74022.2
70772.4
69448.5
69254.5
69223.2
163614
159666
156901
155120
154047
153365
152800
192567
193713
194813
195680
196112
196304
196384
200089
202275
204241
205756
206919
207865
208533
191513
191730
192090
192278
192549
193285
194593
162170
157592
153988
151085
148865
148040
148367
87973.7
79458.9
73074.1
68648.2
66109
65647.1
66417
83845.4
77055.6
72630.7
69807.9
68198.2
67531.1
67594.7
160615
157654
155775
154474
153244
151966
151123
192068
193489
194900
195605
195790
195909
195954
200111
202280
204231
205779
206911
208003
209227
191014
191458
191805
192036
192405
193242
194604
159945
155979
152599
149885
147608
146556
146902
84060.6
76743.3
71514.7
67277.8
64541.7
63587.5
64383.3
79517.7
75551.8
72552.8
69775.7
67948.2
67102.4
67185.4
158107
156159
155223
154563
152993
151214
150636
191691
193164
194948
195833
195717
195656
195832
200044
202349
204348
205915
207165
208453
209834
190598
191121
191545
191979
192498
193320
194675
157395
154687
151723
148925
146880
145818
146070
79951.2
75162.8
70940.8
66746
63777.9
62461.9
63179.4
77895
75474.9
72901.7
70331.4
68534.3
67626.7
67318.9
157605
156047
154958
154039
152622
151262
150596
191677
192873
194350
195239
195411
195483
195757
199831
202206
204329
206072
207532
208950
210337
190433
190887
191404
191990
192586
193483
194791
156156
153899
151338
148973
147177
146158
146331
77613.6
74596
71055.5
67384.2
64422.2
62953.4
63303.7
77340.4
75519.7
72971.3
70673.7
69025.8
68197.1
67852.8
157510
156131
154592
153176
151835
150851
150339
190791
192265
193663
194618
195040
195324
195726
199043
201701
204223
206318
207956
209456
210784
190139
190668
191429
192195
192927
193876
194987
155053
153409
151263
149441
148054
147214
147364
76430.6
74260.6
71412.4
68552.6
66023.4
64375.5
64343.1
76607.8
75183.5
72792.5
70761
69334.7
68577
68089
156802
155706
154005
152278
150996
150312
150092
188957
191317
193055
194109
194764
195303
195817
197153
200952
204148
206602
208471
210022
211247
188712
190057
191397
192474
193327
194182
195243
153300
152624
151572
150304
149096
148330
148442
75218.6
73596.3
71693.9
69630
67667.6
66114.6
65603.8
75880.4
74905.8
72640.9
70787.6
69511
68844.9
68277.2
155690
155324
153738
151939
150783
150317
150257
186805
190861
192891
194020
194826
195481
196002
194389
200452
204189
206839
208856
210406
211568
186316
189426
191359
192718
193632
194451
195419
152128
152426
152086
151223
150142
149268
149054
74014.3
73226.9
72093.6
70473
68760.4
67550.8
66719
102178
103816
102882
102770
101727
99578.8
95741
173909
174500
174465
174484
173505
171350
168117
192304
191869
191310
190994
190947
191201
191712
199496
198715
197344
196216
196014
196835
198210
193875
193109
192363
191635
191210
191126
191278
178854
179781
179201
176777
173581
170159
166642
103743
106077
105552
103908
101804
99177.7
95173.6
98443.8
99891.4
100500
100361
98984
96149.2
91225.2
171493
171703
172640
172486
170822
168178
164661
191396
190774
190354
190172
190278
190653
191174
199283
198083
196518
195506
195600
196652
198155
192672
191855
191041
190519
190246
190312
190603
176339
175995
175378
173361
170609
167594
164122
100458
101900
102390
101415
99549.4
96978.3
91817.2
96644.5
96939.9
97505.5
96964.2
94968.8
91514.5
85894.9
170784
170098
170330
169786
167359
164382
161167
190116
189348
188940
188922
189340
190054
190867
198642
197107
195463
194672
194995
196165
197878
191066
190390
189553
189243
189327
189660
190107
174570
173117
171200
169118
166903
164451
160922
98295.4
98380.6
98073.7
97143
95373.6
92479.9
86824.5
95979.8
94950
94304.8
93053.4
90578.4
86926.1
82129.9
169900
168446
167498
166462
163614
161199
159262
188338
187669
187305
187516
188304
189409
190565
197233
195834
194303
193523
193900
195336
197453
188909
188387
187851
188000
188666
189412
189981
171440
169056
166602
164771
163025
160933
158439
95517.9
94343.6
93011.6
91639.8
89730.4
86695.9
82172.5
93492.4
92289.7
91096.8
89553.6
87126.5
83833
80077.2
166458
164625
163252
162461
160320
159154
158335
185726
185203
185161
185783
186770
187968
189296
195431
194163
192684
191752
191996
193969
196559
185904
185457
185520
186288
187419
188613
189555
166188
163977
161851
160624
159344
157782
156230
91368.7
90060.2
88516.8
86979.7
85049
82330.2
79104.6
88836
88560.8
87701.4
86770.7
84536.6
81887.8
78621.9
160669
159272
158015
158168
157334
157153
156592
181916
181567
181910
182703
183708
184934
186643
193063
191833
190143
189200
189634
191267
193718
182362
181827
182261
183615
185262
186637
187724
159813
158673
157268
156778
155750
154940
153840
86475.9
86289.6
85253
84043
82017.7
79741.7
77119.3
82303.8
83188.7
82904.8
82852.8
80733.2
78797.1
75860.2
153433
152906
151700
152870
152681
153151
152299
177616
177120
177824
178809
179240
179121
180277
190305
188893
186865
185417
184748
184625
186484
178603
178052
178739
180409
181650
181620
181698
153280
153244
152203
152184
151282
151914
150780
81118
82134.5
81268.6
80658.8
78874
77204.6
74523.8
58676.4
58453.3
58692.3
58400.8
58548.7
58193.4
58441.9
130148
129774
129539
129317
128470
127746
127089
162114
161712
161014
159831
157527
153991
149986
174926
173524
171233
168254
164433
159891
154495
165409
165149
164540
163382
160967
157717
154048
134966
134384
133590
133097
132896
133005
132732
63099.3
62659.8
62358.1
61928.4
62044.7
62044.6
62502.6
50097.3
49960.8
49886.3
49770.3
49733.6
49829.4
50005
114882
114763
115157
114710
113961
113712
113937
144765
144598
144565
144433
144053
143646
143175
154765
154340
153728
153134
152676
152297
151756
145392
145336
145254
145088
144816
144614
144434
114620
114643
114891
115026
114952
114706
114811
49601.3
49457
49610.3
49663.2
49879.2
50169
50516.6
44549.2
44691.1
44831.5
44895.3
44963.9
45016.5
45061.2
102617
102871
103115
103414
104010
104710
105112
132350
132544
132969
133619
134237
134826
135143
141545
141613
141832
142219
142797
143407
143588
131004
131060
131344
131944
132560
132986
133158
100069
100285
100603
100867
100876
100691
100701
43092.8
43205.8
43244.5
43247.6
43250.4
43201.5
43164.1
40755.3
40757.4
40794.8
40904
41022.3
41140
41188.2
93263.1
93364.2
93573.1
93847
94129.2
94365
94511.5
123233
123307
123570
123902
123987
124038
123937
132274
132347
132512
132730
132944
133117
133114
121647
121684
121868
122204
122514
122729
122773
91639.5
91709.3
91872.4
91999.6
92136.2
92213.6
92111.7
39786.1
39840.3
39851.2
39827.4
39806.8
39839.8
39897.2
39760
39766.6
39770.9
39779.3
39790.8
39803.8
39811.1
89250
89229.8
89227.4
89260.9
89261.8
89245.8
89217.5
116804
116778
116775
116611
116553
116488
116447
125401
125309
125259
125216
125160
125166
125094
116164
116101
116044
116013
116009
116040
116004
88423.8
88440
88413
88362.6
88353.5
88385.7
88426.6
38918.1
38902.5
38921.2
38970.8
38987.9
39006.1
38993
40379.3
40377.3
40372
40367.3
40364.7
40364.4
40368.2
88626.8
88608.2
88560.3
88516.4
88498.6
88515.1
88522.8
112868
112769
112697
112623
112590
112629
112496
120303
120069
119853
119645
119501
119583
119399
112899
112828
112733
112651
112601
112575
112470
88397.7
88417.5
88401.6
88363.8
88362.3
88339.5
88347.4
39880.9
39820.8
39854.2
39972.3
40017.2
39989.1
39900.4
48860.3
48863.5
48871.7
48889.5
48893.5
48883.5
48880.9
87385.5
87402.6
87423.4
87442.9
87462.7
87481.8
87493.2
107612
107590
107616
107662
107676
107789
107683
114130
113955
113863
113757
113661
113912
113707
107758
107690
107701
107738
107760
107775
107668
87481.5
87468.6
87487.3
87528.1
87552.6
87546.6
87521.9
49129.3
49146.5
49135.6
49092.7
49077.7
49095.2
49125.8
87092.2
91728.8
95332.9
98049.4
100150
103301
106471
152446
155881
159197
162917
167780
174042
178052
182111
180265
179253
179686
181536
184147
185500
190641
188114
187350
188308
190565
193249
195100
182640
181858
181758
182528
183963
185494
186751
155645
160504
165168
169228
171948
172940
172632
86988.4
92752.9
98007.7
102194
104766
105208
102659
83062.2
88467.3
92692.6
96024.5
97864.7
99535.4
101423
150194
153558
156849
160152
163859
168517
172265
181968
179775
178518
178722
180092
182171
183581
190795
187910
186655
187496
189863
192698
194721
182125
181064
180717
181259
182577
184228
185646
152284
156562
160742
164472
167317
168910
170190
83373.8
89034.8
94001.6
97945.5
99826.7
99576.9
98941.7
76933.9
83187.9
87967.8
91634.9
93555.6
94258.5
94451.8
146371
149502
152666
155701
158587
161471
163998
181877
179350
177783
177566
178420
179800
180936
190999
187456
185865
186568
188949
191882
194077
181716
180289
179502
179705
180876
182626
183996
147164
150857
154553
158175
161718
165147
168008
77321.6
83047.3
87676.5
91326.6
93376
94729.5
95875.8
71072.1
77176.6
82109.5
85853.5
87806.2
87991.4
87613.5
142593
144927
147610
150399
152773
154404
156007
181791
178986
176903
176004
176311
177090
177839
190948
186536
184549
185338
187888
191088
193332
181598
179964
178525
178040
178822
180288
181405
142673
145399
148609
152024
155342
159484
163368
70423.9
76054.7
80414
83966
86705.9
89331.7
91493.4
66936.8
72069.5
76535.7
79984.8
81940
82263.4
82352.9
140196
141647
143612
145980
147888
148783
149684
181342
178221
175645
173993
173751
174235
174744
190063
185353
182552
183208
186182
190021
192549
181563
179708
177632
176170
176186
177188
178118
139738
141776
144328
147189
149693
153075
156531
65589
70511.9
74723
78414.6
81312.5
84190.7
86095.1
64380.6
68409.5
72340
75442
76769.5
77984.1
79983
139733
140610
141981
143626
144376
145004
146180
180023
176805
173981
171754
170906
171129
171504
186953
182691
180345
180534
183383
187579
190261
180121
178284
176120
173856
172955
173366
174430
138356
140028
141839
143366
144780
146948
148996
63810.3
67910.4
71312.2
74791.6
77534.3
79846.5
80504.7
62178.5
65565.9
69178
72104.5
72479.6
74222.9
78315
139432
140095
141121
142237
141820
142207
144071
174841
172472
171523
169629
168135
167951
168265
179131
175607
175217
176501
179638
184119
187202
173743
173007
173025
171125
169399
169123
170269
137244
138870
139068
139458
139836
141491
141970
62603.7
66230.1
68673.2
71405
73803.2
76531.6
75109.5
57956.6
57600.6
57436.1
57608.7
58565.7
59143.8
59186.3
127345
127519
127927
128292
128773
129426
129935
145108
149262
152934
155165
156271
157042
157572
142683
148934
154284
158577
162166
165417
167590
141459
146021
149836
152352
153660
154433
155014
121986
122298
122455
122738
123260
123855
124187
56437.6
56617.2
56883.7
56567.8
56963.3
56567.1
56443.7
48287.8
48076
47767.2
47435.5
47268.3
47118.2
46823.9
107823
107878
107930
107935
107862
107694
107540
134907
135284
135737
136081
136324
136567
136784
140886
141610
142119
142748
143509
144310
144871
132900
133122
133210
133304
133429
133598
133760
104364
104212
104126
104049
103938
103762
103635
45683.1
45389.4
45147.9
44828.2
44538.1
44355.2
44351.2
40082.7
40101.4
40095.5
40046.6
39982.8
39896
39903.7
93362.2
93276.5
93164.4
92994.5
92739.9
92470.9
92279.5
123631
123453
123042
122509
122043
121825
121779
132686
132539
131937
131337
130942
130797
130832
122913
122711
122171
121451
120817
120511
120427
92557
92395.5
92103.8
91761.7
91423.8
91125.4
90913.4
39851.2
39789.3
39692.5
39612.1
39535.1
39437.8
39385.8
37981.3
37911.4
37827.9
37791.4
37800.3
37881.9
37915
86653.2
86575.1
86444.7
86291.6
86229.6
86216.4
86247.9
114951
114887
114730
114537
114373
114314
114340
124398
124375
124156
123955
123815
123784
123845
115116
115120
114952
114690
114384
114254
114252
86863.3
86785.1
86711.3
86614.3
86513.8
86436.2
86429.1
37934.5
37909
37867.6
37831.4
37857.4
37910.9
37942
37184.8
37183.3
37186.3
37208.2
37182.6
37172.8
37169.4
84864.9
84845.2
84819.4
84789.6
84774.8
84779.8
84783
111426
111453
111463
111485
111553
111633
111719
119786
119998
120095
120215
120375
120596
120790
111920
112037
112067
112105
112214
112364
112516
85483.7
85479.2
85475.2
85473.4
85490.3
85511.7
85529.7
37352.3
37353.5
37361
37388.2
37359.4
37348.5
37344
38701.8
38725.8
38781
38853.1
38788.8
38737.4
38713.3
86278.1
86272.1
86258.1
86241.2
86232
86229.1
86226.6
110140
110168
110163
110161
110160
110169
110222
116836
117130
117135
117209
117370
117604
117846
110534
110641
110636
110667
110698
110760
110854
86716.6
86717.4
86711.8
86699.7
86696.5
86704.6
86709.3
38863.3
38885
38935.1
38999
38928.1
38871
38844
49483.5
49482.2
49470.8
49452.3
49468.9
49474.9
49474.1
86286.1
86283.5
86283.2
86272.4
86216.7
86164.7
86136.3
106017
106025
105997
105964
105859
105773
105763
111942
112256
112101
112121
112168
112252
112434
106389
106432
106379
106357
106253
106182
106181
86606.1
86602.1
86597.4
86583.8
86527
86475.5
86447.9
49471.9
49468.1
49457
49442.9
49466.3
49478.4
49480.1
)
;

boundaryField
{
    fuel
    {
        type            zeroGradient;
    }
    primary_air
    {
        type            zeroGradient;
    }
    Secondary_air_RHS
    {
        type            zeroGradient;
    }
    Secondary_air_LHS
    {
        type            zeroGradient;
    }
    outlet
    {
        type            totalPressure;
        rho             rho;
        psi             none;
        gamma           1;
        p0              uniform 100000;
        value           nonuniform List<scalar> 
98
(
44646.6
74935.7
100000
100000
100000
75300.9
44724.1
44610.8
74884.8
100000
100000
100000
75237.8
44707
44631.1
74939.5
100000
100000
100000
75251.3
44735.7
44454.8
74774.2
100000
100000
100000
75084.4
44535.6
44646.6
74841.3
100000
100000
100000
75146.8
44727.3
44638.8
74689.2
100000
100000
100000
75016.8
44711.9
44657.8
74596.7
100000
100000
100000
74933.6
44731.6
45085.8
75791.5
100000
100000
100000
75997.2
45002.7
45058.8
75878.8
100000
100000
100000
76232.7
45173.9
45053.9
76001.2
100000
100000
100000
76356.3
45143.2
45059.2
76175.7
100000
100000
100000
76113.2
44929.9
45060.9
76202.4
100000
100000
100000
76178.7
44972.1
45050.8
76216.2
100000
100000
100000
76235.6
44942.6
45080.6
76184.9
100000
100000
100000
76462.6
45173
)
;
    }
    stove_body
    {
        type            zeroGradient;
    }
    frontAndBack
    {
        type            empty;
    }
}


// ************************************************************************* //
