/*--------------------------------*- C++ -*----------------------------------*\
  =========                 |
  \\      /  F ield         | OpenFOAM: The Open Source CFD Toolbox
   \\    /   O peration     | Website:  https://openfoam.org
    \\  /    A nd           | Version:  6
     \\/     M anipulation  |
\*---------------------------------------------------------------------------*/
FoamFile
{
    version     2.0;
    format      ascii;
    class       surfaceScalarField;
    location    "0.0075";
    object      phi;
}
// * * * * * * * * * * * * * * * * * * * * * * * * * * * * * * * * * * * * * //

dimensions      [1 0 -1 0 0 0 0];

internalField   nonuniform List<scalar> 
10143
(
3.80619e-07
-3.70478e-05
4.77566e-05
-4.52913e-08
-3.57249e-05
4.75493e-05
3.79024e-08
-3.55681e-05
4.71597e-05
3.28123e-08
-3.51821e-05
4.67987e-05
-2.06202e-07
-3.52768e-05
4.6872e-05
-4.8149e-07
-3.54755e-05
4.70932e-05
-3.72175e-05
4.76558e-05
3.24837e-07
-1.36332e-05
-1.15396e-05
6.31524e-07
-1.31731e-05
-1.07573e-05
-2.27522e-07
-1.31066e-05
-9.47225e-06
-7.62426e-07
-1.2808e-05
-9.74441e-06
-2.95203e-07
-1.30289e-05
-1.06645e-05
-4.90588e-07
-1.32216e-05
-9.8863e-06
-1.36395e-05
-1.18981e-05
-8.00165e-08
-5.28159e-06
5.24733e-06
4.28876e-07
-5.26436e-06
5.04496e-06
-8.2006e-08
-5.67532e-06
6.52084e-06
3.44048e-07
-5.48509e-06
5.70036e-06
7.51798e-07
-5.53119e-06
5.55356e-06
-6.83508e-08
-5.86451e-06
6.92436e-06
-5.24431e-06
5.03279e-06
-1.14336e-07
5.36767e-06
4.02527e-06
3.18773e-07
5.3739e-06
3.44453e-06
3.9779e-08
5.6875e-06
3.46027e-06
-5.95923e-07
5.66671e-06
4.0731e-06
-9.78212e-07
5.55831e-06
3.86526e-06
-4.4465e-07
5.86069e-06
2.22609e-06
5.31671e-06
3.54349e-06
-2.48102e-07
1.38311e-05
5.32161e-06
5.50882e-08
1.33663e-05
5.45224e-06
-2.09829e-07
1.3235e-05
6.18727e-06
3.86246e-08
1.29975e-05
5.89465e-06
4.97386e-07
1.32202e-05
5.36762e-06
-1.1067e-07
1.33534e-05
6.61276e-06
1.38486e-05
4.88565e-06
2.12773e-07
3.77899e-05
-1.20091e-05
5.2343e-07
3.60427e-05
-1.09802e-05
-3.07722e-07
3.60355e-05
-9.86664e-06
-7.93118e-07
3.57111e-05
-1.01359e-05
-9.10094e-08
3.58406e-05
-1.13194e-05
-4.43306e-07
3.59918e-05
-1.01051e-05
3.78256e-05
-1.2258e-05
3.97896e-07
4.82709e-05
-5.80057e-08
4.78554e-05
-4.09997e-08
4.75121e-05
-6.98331e-08
4.7018e-05
-2.2992e-07
4.72545e-05
-4.02347e-07
4.74548e-05
4.8236e-05
1.11783e-07
-5.09491e-06
6.24287e-05
-1.95433e-07
-5.6044e-06
6.3033e-05
-7.72238e-09
-4.83126e-06
6.13679e-05
4.41014e-07
-4.6335e-06
6.04505e-05
2.76734e-08
-4.87978e-06
6.14978e-05
-2.54604e-07
-5.17457e-06
6.19083e-05
-5.50591e-06
6.27438e-05
2.04673e-07
1.12986e-06
-1.79915e-05
2.57493e-07
8.6011e-07
-1.75365e-05
-1.12275e-08
1.48473e-06
-1.56695e-05
-2.20954e-07
1.51274e-06
-1.59691e-05
1.3208e-07
1.56232e-06
-1.78121e-05
-6.96009e-08
9.45965e-07
-1.6074e-05
8.71142e-07
-1.84626e-05
2.22245e-07
1.95495e-07
4.42072e-06
4.10541e-07
8.9396e-07
3.4931e-06
-1.92407e-08
3.15452e-07
6.8342e-06
8.91333e-07
-9.35027e-07
5.9061e-06
1.11393e-06
-9.05514e-08
5.59921e-06
1.47857e-07
2.96762e-07
7.40706e-06
3.28191e-07
4.18994e-06
-1.39751e-07
-4.26584e-07
3.83502e-06
6.80822e-07
-6.31963e-07
3.075e-06
9.40986e-08
3.93315e-08
3.31768e-06
-1.0149e-06
1.14181e-07
3.19224e-06
-1.56477e-06
1.55352e-07
3.20718e-06
-5.15309e-07
-2.98377e-07
6.9024e-07
-4.35046e-07
2.81283e-06
-1.6095e-07
-7.69444e-07
4.35116e-06
-2.07486e-07
-9.09206e-07
4.18654e-06
-2.10589e-07
-1.16148e-06
6.16765e-06
4.56104e-07
-1.11811e-06
5.18413e-06
8.20193e-07
-1.0452e-06
4.89338e-06
8.96973e-08
-8.34113e-07
6.76489e-06
-6.7427e-07
3.7406e-06
7.70374e-08
6.10081e-06
-1.90196e-05
2.13926e-07
5.20959e-06
-1.73824e-05
-1.192e-07
5.69486e-06
-1.66172e-05
-4.28499e-07
5.59006e-06
-1.6975e-05
3.43944e-07
5.53832e-06
-1.89766e-05
-7.12391e-08
5.77817e-06
-1.65131e-05
6.1284e-06
-1.91875e-05
3.22284e-07
6.3956e-05
-3.29777e-07
6.31675e-05
8.051e-08
6.25604e-05
3.49322e-08
6.2239e-05
-1.74536e-07
6.26094e-05
-2.87736e-07
6.28998e-05
6.40652e-05
-3.14295e-07
1.19099e-05
5.50737e-05
-8.34342e-07
1.09532e-05
5.61476e-05
-2.44133e-07
9.78454e-06
5.39804e-05
1.08998e-06
9.17944e-06
5.25784e-05
6.15954e-07
1.09821e-05
5.43609e-05
1.66377e-07
1.11819e-05
5.4656e-05
1.19108e-05
5.52796e-05
2.41537e-07
2.81196e-06
-1.09288e-05
2.9515e-07
2.56205e-06
-1.11519e-05
3.16266e-07
2.11583e-06
-9.72165e-06
-3.84194e-07
2.44865e-06
-9.96544e-06
-6.7265e-08
1.97282e-06
-1.10783e-05
-2.32223e-07
2.92009e-06
-9.71477e-06
2.85617e-06
-1.14475e-05
2.85221e-07
7.88511e-07
4.26934e-06
3.72308e-07
1.98943e-06
1.99815e-06
1.2947e-07
8.52905e-07
6.31204e-06
9.90649e-07
-6.55884e-07
6.03011e-06
9.40885e-07
8.6324e-07
4.71452e-06
1.7321e-07
3.2146e-06
5.91082e-06
2.04357e-06
3.26336e-06
-2.88742e-07
-1.48058e-06
5.38727e-06
7.83802e-07
-2.99053e-06
5.86837e-06
-1.72901e-08
-9.10242e-07
4.82499e-06
-1.01453e-06
-7.03891e-07
3.23543e-06
-1.80962e-06
-9.15628e-07
4.72914e-06
-2.71079e-07
-3.00144e-06
4.15543e-06
-2.02834e-06
5.58099e-06
-6.14327e-08
-2.74222e-06
3.81437e-06
-2.29388e-07
-3.10957e-06
2.49168e-06
-1.98307e-07
-2.11588e-06
5.30459e-06
5.68504e-07
-2.61777e-06
4.20586e-06
6.63158e-07
-1.61456e-06
3.52071e-06
1.34577e-07
-2.9158e-06
5.28785e-06
-2.76005e-06
2.74264e-06
5.14237e-08
-1.15744e-05
-1.19661e-05
1.25962e-07
-1.09519e-05
-1.15841e-05
7.43561e-09
-9.89512e-06
-1.03621e-05
-3.22969e-07
-1.16041e-05
-9.5175e-06
5.89492e-08
-1.07347e-05
-1.21335e-05
-2.68088e-07
-1.09306e-05
-1.02106e-05
-1.15987e-05
-1.23344e-05
-6.24961e-08
5.69122e-05
-9.49049e-07
5.66953e-05
-7.42527e-08
5.51331e-05
3.38771e-07
5.40285e-05
1.50431e-07
5.57344e-05
4.89083e-08
5.57197e-05
5.70149e-05
-6.3021e-07
1.42487e-05
4.18783e-05
-6.4362e-07
1.28578e-05
4.31596e-05
-4.09635e-07
1.06957e-05
4.24812e-05
9.6037e-07
8.32145e-06
4.23114e-05
7.76278e-07
1.28685e-05
4.14449e-05
5.5842e-07
1.29751e-05
4.18087e-05
1.43335e-05
4.19199e-05
5.48995e-07
4.66796e-06
-4.67873e-06
5.86968e-07
4.14829e-06
-5.35834e-06
6.30894e-07
2.77021e-06
-4.26398e-06
-1.06179e-06
4.21561e-06
-5.94377e-06
-3.12092e-07
2.34288e-06
-3.92334e-06
-5.84266e-07
4.56693e-06
-3.90168e-06
4.56244e-06
-5.04566e-06
3.38767e-07
9.76288e-07
5.64764e-06
3.07687e-07
2.50089e-07
3.93379e-06
4.01611e-07
-9.76295e-07
8.08416e-06
8.65708e-07
6.73781e-07
6.87757e-06
7.79099e-07
-9.93842e-07
6.23969e-06
9.97547e-08
3.05955e-06
6.01132e-06
1.32383e-06
4.62212e-06
-1.43395e-07
-1.17243e-06
6.93304e-06
7.56947e-07
-1.92566e-06
6.31873e-06
-2.63438e-07
1.12981e-06
2.98436e-06
-8.70633e-07
1.31288e-06
2.45169e-06
-1.92894e-06
5.07215e-07
3.53773e-06
-1.42639e-07
-2.79972e-06
7.33349e-06
-1.26462e-06
7.2698e-06
4.48843e-08
-4.62578e-06
5.26886e-06
-2.66208e-07
-5.01963e-06
3.82738e-06
-1.72986e-07
-2.95036e-06
7.41687e-06
6.16231e-07
-3.95939e-06
6.70641e-06
5.63734e-07
-2.59766e-06
4.79466e-06
1.40499e-07
-4.58058e-06
5.44061e-06
-4.55076e-06
4.22494e-06
3.66392e-07
-1.41066e-05
-5.59357e-06
3.55194e-07
-1.29963e-05
-6.49209e-06
2.74551e-08
-1.07214e-05
-4.66562e-06
-5.89351e-07
-1.01103e-05
-5.07174e-06
-2.62272e-07
-1.28115e-05
-4.95914e-06
-5.12851e-07
-1.31093e-05
-4.32723e-06
-1.4191e-05
-5.93781e-06
-3.56593e-07
4.3609e-05
-8.05944e-07
4.40659e-05
-5.13339e-07
4.36408e-05
5.48326e-07
4.27013e-05
2.68083e-07
4.29907e-05
2.661e-07
4.25496e-05
4.3566e-05
-8.04321e-07
1.43107e-05
2.76188e-05
-3.9147e-07
1.27913e-05
2.88226e-05
-4.99073e-07
1.14964e-05
2.99392e-05
8.09402e-07
1.03949e-05
2.96333e-05
9.14592e-07
1.25938e-05
2.75812e-05
7.86435e-07
1.29038e-05
2.7937e-05
1.43186e-05
2.76502e-05
7.76832e-07
4.27645e-06
1.57111e-06
5.72665e-07
4.26265e-06
2.97076e-07
7.41111e-07
4.24217e-06
-1.19923e-08
-1.10215e-06
4.71016e-06
-1.11911e-06
-6.95659e-07
3.93574e-06
1.26262e-06
-7.59414e-07
4.36017e-06
1.59516e-06
4.45236e-06
1.03291e-06
5.33045e-07
3.31437e-07
7.19373e-06
3.17841e-07
2.3312e-07
6.25184e-06
5.30312e-07
7.69961e-07
9.41724e-06
8.26543e-07
1.49301e-06
7.82713e-06
5.21007e-07
6.73934e-07
7.91688e-06
8.51319e-08
1.19413e-06
7.68757e-06
4.64061e-07
6.80751e-06
-2.27878e-07
-8.60509e-07
7.88142e-06
3.05817e-07
-9.14466e-07
6.39098e-06
-3.35331e-07
-3.6529e-07
4.24376e-06
-6.95901e-07
-4.01377e-07
4.20362e-06
-1.30926e-06
7.16558e-08
4.26866e-06
-2.86561e-07
-7.38971e-07
7.65679e-06
-3.96818e-07
7.36938e-06
1.43858e-07
-4.39439e-06
6.79718e-06
-2.6501e-07
-4.60095e-06
5.98103e-06
-3.59803e-08
-4.32364e-06
9.24423e-06
4.31545e-07
-4.46944e-06
8.39967e-06
3.02683e-07
-3.78523e-06
6.90071e-06
1.02727e-07
-4.23291e-06
7.23562e-06
-4.37459e-06
6.45132e-06
5.57092e-07
-1.41517e-05
6.24123e-07
4.37041e-07
-1.26814e-05
-1.34613e-06
2.27209e-07
-1.17726e-05
1.03275e-07
-7.98502e-07
-8.61125e-06
-2.22467e-06
-6.63172e-07
-1.28242e-05
8.64863e-07
-5.73294e-07
-1.29822e-05
1.21983e-06
-1.42445e-05
3.71939e-07
-3.67682e-07
2.90285e-05
-7.82519e-07
3.07088e-05
-5.57126e-07
3.0643e-05
4.14752e-07
3.18593e-05
4.08197e-07
2.90126e-05
3.55572e-07
2.85103e-05
2.89148e-05
-8.58268e-07
1.11518e-05
1.62308e-05
5.36778e-08
9.04921e-06
1.73788e-05
-6.44773e-07
1.1237e-05
1.82885e-05
4.50974e-07
9.05851e-06
1.80699e-05
7.00249e-07
9.25121e-06
1.65399e-05
9.75011e-07
9.47158e-06
1.67379e-05
1.14279e-05
1.61342e-05
7.63e-07
3.2843e-06
6.10058e-06
1.17323e-07
3.32534e-06
4.44826e-06
8.86128e-07
3.1192e-06
4.3342e-06
-7.45624e-07
3.36678e-06
3.70709e-06
-1.12574e-06
3.66911e-06
4.67034e-06
-7.30501e-07
2.7485e-06
5.61863e-06
3.60035e-06
5.49805e-06
9.19461e-07
-2.15764e-06
1.00546e-05
2.26851e-07
-3.5329e-07
8.64938e-06
5.24673e-07
2.37384e-07
1.02022e-05
8.17596e-07
-2.6823e-07
9.389e-06
3.561e-07
9.52015e-07
9.27963e-06
6.17806e-08
-9.30347e-07
9.76043e-06
-7.42286e-07
9.48732e-06
-5.69121e-07
1.27558e-06
4.77472e-06
1.73441e-09
-1.10987e-07
5.27736e-06
-3.22649e-07
-4.4266e-07
4.95952e-06
-6.68826e-07
-7.26787e-07
4.7268e-06
-7.56586e-07
-9.74355e-08
5.11637e-06
-4.92871e-07
1.3668e-06
4.79165e-06
9.41519e-07
4.94503e-06
4.81489e-07
-3.59707e-06
9.49871e-06
-3.13124e-07
-3.13781e-06
7.8378e-06
5.71112e-08
-3.44013e-06
1.00864e-05
1.98674e-07
-3.67237e-06
9.41581e-06
1.04808e-07
-3.7869e-06
8.92128e-06
2.39832e-08
-2.80421e-06
9.76125e-06
-3.60436e-06
9.32371e-06
3.29358e-07
-1.11207e-05
5.23772e-06
2.69612e-07
-1.05293e-05
3.516e-06
3.60054e-07
-1.05432e-05
4.3175e-06
-4.0296e-07
-1.10436e-05
2.84983e-06
-8.8328e-07
-8.63025e-06
3.71402e-06
-3.51419e-07
-9.99303e-06
5.27242e-06
-1.13382e-05
5.14884e-06
-2.22013e-07
1.69983e-05
-7.34244e-07
1.93478e-05
-3.28746e-07
1.83664e-05
-7.10925e-08
1.92558e-05
3.60972e-07
1.83538e-05
4.26767e-07
1.70146e-05
1.69003e-05
-9.6444e-07
1.21199e-05
2.25307e-07
1.12515e-05
-7.29418e-07
1.40251e-05
4.54856e-07
1.18168e-05
6.7736e-07
1.12109e-05
1.20442e-06
1.11215e-05
1.22959e-05
8.13733e-07
6.23017e-06
-8.96475e-09
5.43331e-06
1.25376e-06
5.53417e-06
-3.55632e-07
6.02628e-06
-1.16116e-06
5.70553e-06
-5.1271e-07
5.17469e-06
6.0861e-06
1.28869e-06
2.73145e-06
6.05275e-08
3.08632e-06
7.09923e-07
2.744e-06
9.76357e-07
2.78869e-06
5.35095e-07
3.03702e-06
3.19512e-08
3.21597e-06
3.28007e-06
-5.84282e-07
-2.75141e-06
-2.24082e-08
-2.96398e-06
-4.36452e-07
-2.61842e-06
-7.75534e-07
-2.86693e-06
-8.8524e-07
-2.43374e-06
-6.45402e-07
-3.07165e-06
-3.18637e-06
7.11317e-07
-6.2076e-06
-5.09791e-07
-5.94055e-06
2.37116e-07
-5.55409e-06
3.096e-07
-5.91349e-06
3.61764e-07
-5.53777e-06
3.59523e-08
-5.15837e-06
-6.13894e-06
-7.01977e-08
-1.20433e-05
3.40967e-07
-1.50082e-05
4.98252e-07
-1.27068e-05
-1.72073e-07
-1.40046e-05
-8.6952e-07
-1.3011e-05
-1.3076e-07
-1.16946e-05
-1.23048e-05
-1.50764e-07
-8.96951e-07
-3.21253e-07
-2.17095e-07
2.82707e-07
4.88302e-07
-0.00397644
0.00294502
0.00133994
-0.00304984
0.00309144
-0.0038653
-0.00177974
0.00386707
-0.00501888
0.000650183
0.00358788
-0.00593067
0.0031258
0.00362141
-0.00602645
0.00419044
0.00286913
-0.00384712
0.00206755
0.00236127
-0.00684867
0.00569588
0.00507914
-0.00663012
0.00509451
-0.00169363
-0.0025638
0.0051795
-0.00497585
0.00310842
0.00539363
-0.00709444
0.00771571
0.00515548
-0.00576712
0.00808616
0.00477639
-0.00181678
0.00537224
0.00570814
-0.00206125
0.00245343
0.00551349
-0.00185017
0.00192402
0.00329068
-0.000191155
0.00156804
0.00223024
0.00208071
0.00151925
0.00187826
0.00338275
0.0017348
0.00238762
0.00291515
0.00218796
0.00339311
0.00284158
0.00571379
0.00113765
-0.00329205
0.00423678
0.00174884
-0.00248737
0.00370908
0.00137161
-0.00142369
0.00332251
-0.000493422
0.000141022
0.0032747
-0.00145463
-0.000713049
0.00337515
-0.00114653
-0.00191188
0.00370943
-0.00283982
0.00421348
-0.00446515
-0.00679059
0.00855156
-0.00537995
-0.00559599
0.00462824
-0.00338987
-0.0061443
0.00321423
0.000848408
-0.00652461
0.00289503
0.00413061
-0.00682149
0.00323058
0.00409214
-0.00613283
0.00475664
-0.00691919
0.00874849
-0.0098267
-0.00260293
0.00660217
-0.0108148
-0.00375089
-0.000347572
-0.0058595
-0.00405691
-0.00665146
0.00266717
-0.00353338
-0.0112554
0.00846844
-0.00485198
-0.00744572
0.00899367
-0.00441585
-0.00193292
-0.00327579
0.00610858
-0.00544048
0.00311355
-0.00573746
-0.00327715
-0.00363249
-0.00602911
0.00126996
-0.00835082
0.00370911
-0.007191
0.00515012
-0.00578583
0.0020316
-0.0021453
0.00249468
0.00133665
-0.00222126
0.00193779
-0.00561767
-0.00186918
0.00244004
-0.00773987
-0.000618015
0.00209368
-0.00928721
0.000750298
0.00195214
-0.00934232
0.00107843
0.00180961
-0.00600057
0.00127732
0.0024739
-0.00134739
0.00368367
0.00583385
-0.00207634
0.00323105
-0.00187943
0.00027346
0.00292813
-0.00743491
0.00303294
0.00180793
-0.00930102
0.00414828
0.00178077
-0.00635493
0.00298143
0.00305453
-0.00154142
0.00360961
0.00702308
0.000414908
0.00153333
0.00704343
0.000785796
0.00123756
0.00497914
0.00124276
0.000736809
0.00409968
0.00131464
0.000185304
0.00359507
0.000693544
0.000592147
0.0043625
0.000514272
0.00152515
0.00524073
0.00210361
0.00762666
0.00144708
-0.00283063
0.00679637
0.00214995
-0.00212442
0.00624328
0.00149446
-0.00104134
0.00578096
-0.000575806
0.000148567
0.00552582
-0.00174334
-0.000485242
0.00570237
-0.00143518
-0.00141592
0.00629894
-0.00237107
0.0069716
-0.0006786
-0.00421888
0.0109585
-0.00134363
-0.00360894
0.00718322
-0.00042019
-0.00340077
0.00497513
-0.00010309
-0.00130321
0.00428733
0.000652145
-0.00289482
0.00517615
0.00047037
-0.0032414
0.00712727
-0.004115
0.0113342
-0.00376366
-0.00245258
0.00967755
-0.00471317
-0.00267252
0.000209524
-0.000388374
-0.0029215
-0.0110435
0.00259309
-0.00147177
-0.0139674
0.0046479
-0.00266019
-0.0094107
0.00383043
-0.00229398
-0.00165247
-0.00288431
0.00972634
-0.00269324
0.00369287
-0.00245328
-0.0060734
-0.000757477
-0.010538
0.00125242
-0.0117974
0.00222287
-0.0107441
0.00293334
-0.00878196
0.00230434
-0.00124272
0.00201596
0.000765713
-0.00215176
0.00133359
-0.00597
-0.00243288
0.000920727
-0.00835835
-0.00277465
0.000893065
-0.00986582
-0.0022765
0.000114082
-0.00999035
-0.00143172
0.000610476
-0.00750169
0.00150162
-0.000341665
0.000747055
0.00318015
0.00420082
0.00165976
0.0030563
-0.00417545
0.00361049
0.00188426
-0.0100097
0.00408466
0.000901512
-0.00963315
0.00267293
0.000949226
-0.00551509
6.02658e-06
0.00265573
-0.000674712
0.00313212
0.00555872
0.00124355
0.00107018
0.00768545
0.0021997
0.000930665
0.00612323
0.00217183
0.000363889
0.00578963
0.00109589
-6.21486e-05
0.00579512
-0.000278063
0.000493739
0.00634916
-0.000426492
0.00117079
0.0068793
0.00138095
0.00857014
0.00113238
-0.00194329
0.00855838
0.00190696
-0.00196435
0.00830374
0.00123785
-0.00110849
0.00799564
-0.000514531
-0.000363938
0.00776238
-0.00136741
-0.000743004
0.00792404
-0.000986971
-0.00125139
0.00831336
-0.00155418
0.00881968
0.00133354
-0.00301355
0.0106884
0.000986268
-0.00250078
0.00813849
0.00107692
-0.00198473
0.00596803
-0.00011919
-0.000552621
0.00586499
-0.0011608
-0.00143708
0.00708144
-0.00124376
-0.00238426
0.0084533
-0.00299621
0.0116106
0.00106336
-0.00215923
0.00831926
0.000829759
-0.00146653
-0.00047726
0.00377206
-0.00147564
-0.0143142
0.00317883
0.000348982
-0.0142401
0.00220192
-0.000581132
-0.00905577
0.000165452
-0.00100496
-0.000679246
-0.00246659
0.0100156
-0.000456046
0.00230147
-0.00052262
-0.00740321
0.000167345
-0.0127397
0.00135552
-0.0125818
0.00181972
-0.0116614
0.00170209
-0.00954035
0.00180726
-0.000525524
0.00145832
-6.24203e-05
-0.00233658
0.00106376
-0.00516806
-0.00325745
0.000425751
-0.00787737
-0.00465097
0.000833958
-0.00931904
-0.00451703
-0.00040147
-0.00971523
-0.00353783
0.000588594
-0.00889324
0.00195041
-0.00541622
0.000676623
0.0035205
0.00153195
0.00238438
0.00282443
-0.00726046
0.00309597
0.000783425
-0.0110325
0.00182927
1.0791e-05
-0.00754617
-0.00105763
0.000621063
-0.00363866
-0.00293951
0.00181066
-0.00020599
0.0025031
0.00207177
0.00143161
0.00137388
0.00816334
0.00281797
0.000922238
0.00661303
0.00250836
0.000116027
0.00681539
0.000742118
6.99939e-05
0.00761437
-0.000679018
0.000684118
0.00781572
-0.000933637
0.000865846
0.00803417
0.000849456
0.00900639
0.00102293
-0.00136478
0.0102198
0.00163088
-0.00148742
0.0100726
0.000932663
-0.000971941
0.00982676
-0.000346394
-0.0004326
0.00965751
-0.000708939
-0.000692311
0.00974883
-0.000328741
-0.00116707
0.00997558
-0.000935967
0.0102625
0.00202303
-0.00295122
0.00988967
0.0024024
-0.0023054
0.00839686
0.0015679
-0.000392693
0.00619999
1.54558e-06
-0.000303014
0.00741873
-0.0015678
-0.000352682
0.0083646
-0.00171457
-0.00171627
0.00906861
-0.00233933
0.0111442
0.00342743
-0.00164245
0.00367842
0.00436494
-0.0011732
-0.00266858
0.00526714
-0.000315493
-0.0156188
0.00274327
0.000301452
-0.0123698
0.000272706
-0.000289559
-0.00660212
-0.00278215
-0.000235123
0.000848939
-0.00177958
0.00691057
0.00103729
-0.000340614
0.00105652
-0.00853484
0.00105916
-0.0130438
0.00134586
-0.0125178
0.00077526
-0.0112369
1.59759e-05
-0.00900481
0.000116265
8.07241e-05
0.000989482
-0.00106363
-0.00175072
0.000747762
-0.00402984
-0.00396411
0.000824247
-0.00649491
-0.00520414
0.000225583
-0.0082944
-0.00484992
-0.000697071
-0.00935615
-0.0036567
0.000429877
-0.0103322
0.00125432
-0.0100605
0.000493093
0.00382656
-0.00167783
0.000289625
0.00206352
-0.00816374
-0.00266993
0.00113189
-0.00843405
-0.00490213
-0.000328404
-0.0048941
-0.00579871
0.000106413
-0.00375975
-0.00473831
0.00141055
-0.0023123
0.00215124
-0.00345862
0.00159958
0.00182489
0.00838305
0.00262817
0.000838721
0.00684817
0.00252771
0.000231253
0.00784218
0.000688076
0.000245874
0.0089547
-0.000782188
0.000721854
0.00870353
-0.00106969
0.000796162
0.0088245
0.000759799
0.00905572
0.0011045
-0.00116996
0.0120519
0.00114616
-0.00109685
0.01193
0.00037917
-0.000804261
0.0116266
-0.000604805
-0.000366886
0.0112637
-0.00063335
-0.000670104
0.0111552
-0.000234188
-0.000911636
0.0112341
-0.00048336
0.0112534
0.00196508
-0.00342555
0.0099008
0.0032104
-0.00277353
0.00860418
0.00235563
-0.00109702
0.00730513
0.000195097
0.000341483
0.00890436
-0.0014068
1.15406e-05
0.00933451
-0.00142256
-0.0014045
0.00940774
-0.001659
0.0107095
0.0030511
-0.00222142
-0.000560079
0.00573607
-0.00107097
-0.00693548
0.00401122
-2.83496e-05
-0.0151072
7.17593e-05
0.000294506
-0.00843437
-0.00254728
-8.28215e-05
-0.00398023
-0.00404389
0.000425026
0.000298896
-0.00163775
0.0028253
0.00107262
-0.00352021
0.00140693
-0.00987129
0.000760243
-0.0123966
0.000532489
-0.0119844
-0.000614165
-0.0101473
-0.00115075
-0.00807214
-0.00257839
9.51197e-06
0.000450919
-0.00145238
-0.00165364
0.000656367
-0.00296648
-0.00409453
0.000369371
-0.00439936
-0.00519928
-0.000745291
-0.0063733
-0.00514962
-0.000936704
-0.00836248
-0.00264559
-0.00224467
-0.0104939
-0.00174969
-0.010873
-0.000613143
0.00277979
-0.00318488
-0.00407718
0.00194981
-0.00598956
-0.00813878
0.000777221
-0.00493275
-0.0086904
-0.00032007
-0.00492191
-0.00658729
0.000558711
-0.00730299
-0.00324617
0.000720585
-0.00829443
0.00114486
-0.00933691
0.00180047
0.000999508
0.00831153
0.00235975
0.000498785
0.00778897
0.00151814
0.000101775
0.0093215
-0.000245034
-8.50678e-05
0.0104949
-0.00129453
0.000194023
0.0100678
-0.00123951
-0.00014487
0.00945457
-0.00017353
0.00889156
0.00089543
-0.000837166
0.0129674
0.000684009
-0.000617724
0.013235
8.40532e-05
-0.000453592
0.0128242
-0.000358307
-0.000578121
0.0122463
-0.00030498
-0.000660149
0.0119548
-0.000251476
-0.000312582
0.0113336
7.45227e-06
0.010813
0.00184936
-0.00273911
0.0098505
0.00316694
-0.00231357
0.00888294
0.00208844
-0.00127597
0.00927392
-0.000242753
0.000861364
0.00983145
-0.0012679
-0.000164304
0.00986101
-0.000985179
-0.00102328
0.00972995
-0.000856683
0.0104404
0.00183993
-0.00201959
-0.00290159
0.00232663
-0.000485756
-0.0089759
-0.00182985
-0.000488335
-0.0116966
-0.00301103
0.000824435
-0.0072162
-0.00280973
0.00139717
-0.00570359
-0.00280275
0.000224849
-0.00101325
-0.000579853
-0.000201999
-0.000211647
-0.00515608
-0.000581331
-0.0100067
-0.00200412
-0.0114531
-0.00185602
-0.011294
-0.000804503
-0.00981375
-0.00117414
-0.00747792
-0.00426025
-0.00129255
-1.66931e-05
-7.10746e-05
-0.00275258
-0.000352648
-0.00112068
-0.0041909
-0.000769296
-0.00215475
-0.00527577
-0.00178207
-0.00347015
-0.00527217
-0.00225683
-0.00599827
-0.00270416
-0.00308582
-0.00987483
-0.00290082
-0.0105399
-0.00357966
0.00209803
-0.00158407
-0.00779192
0.00108231
-0.00330682
-0.0104945
6.87187e-05
-0.00325059
-0.011716
-8.61244e-05
-0.00536329
-0.0110211
0.000247965
-0.0101096
-0.00613454
0.000557583
-0.0162172
0.00162361
-0.0185108
0.00148224
0.000592435
0.00824881
0.00115383
0.000332784
0.00881445
-0.000710187
-7.93865e-05
0.0112621
-0.00187379
0.000483532
0.0110388
-0.00285155
0.000870428
0.0103833
-0.0019769
0.000180413
0.00886955
0.00049898
0.0080657
0.0005389
-0.00105884
0.0140832
-0.00138048
-0.000564769
0.0160554
-0.000987757
-0.000735156
0.0131274
-0.00117442
-0.000575678
0.0135006
-0.00154081
-0.000492756
0.0136743
-0.000746927
-0.00193011
0.0126282
-0.0018809
0.0123702
0.00165959
-0.00230944
0.0094282
0.00200273
-0.000744666
0.00872446
0.000699594
0.000543579
0.00933869
-0.000791089
0.00121464
0.00950168
-0.000958048
-9.00086e-05
0.0096335
-0.000747507
-0.00133845
0.00887899
-0.00148596
0.00916025
-0.000753867
-0.00164988
-0.00249498
-0.00342668
0.000538707
-0.0074793
-0.00725613
0.00140334
-0.00868648
-0.00442078
0.00239108
-0.0111622
0.0011613
0.00338481
-0.0145532
-0.00109768
0.00161371
-0.00160111
-0.000123401
-0.00253571
-0.00320675
-0.00346249
-0.00466207
-0.00798956
-0.00497206
-0.00968434
-0.00343156
-0.0103805
0.000563799
-0.0104229
0.00125376
-0.00649589
-0.00307418
-0.000342907
-0.00139394
0.00328746
-0.00145406
-0.000913326
-0.000414478
0.00129038
-0.000282051
-0.000708047
-4.69036e-05
-0.000836638
0.000691682
0.000322986
-0.000426199
-0.0026726
0.00210824
0.000357694
0.000635364
-0.00494121
0.00434336
-0.000696836
0.00303536
-0.0126553
0.0107497
0.00289999
-0.0143504
0.0107759
-0.00493599
0.000994594
0.00306671
-0.000510986
-0.00723146
0.000156436
-0.000878014
0.00248635
-0.00767655
-0.000799647
-0.00198538
0.00312644
-0.00700535
-0.00198213
-0.00404681
0.00497539
-0.00647851
-0.0021631
-0.00709037
0.00945397
-0.00446649
0.000289411
-0.0164459
0.0173022
0.00241733
-0.0239673
0.0202127
-8.21214e-06
-0.000429054
0.00951941
-0.00818197
3.60243e-05
-0.000338523
0.00941141
-0.00916
-0.00100293
-0.000247597
0.0104285
-0.0101062
-0.00304331
-0.000300467
0.0109782
-0.0107009
-0.00555825
-0.000236302
0.0101157
-0.00968109
-0.00441655
8.07903e-05
0.0076374
-0.0085953
9.47234e-05
0.00503494
-0.00691002
-0.00058919
0.000428463
0.0132532
-0.0136839
-0.00106333
0.000254734
0.013236
-0.0134962
-0.00156954
-2.87677e-05
0.0131205
-0.0129031
-0.00270627
0.000726047
0.0129825
-0.0129375
-0.00245899
-0.000431957
0.0125139
-0.0126001
-0.00130772
-0.00109499
0.0119386
-0.0119508
-0.00140245
0.0118301
-0.0117074
0.000422755
-0.00178945
0.0109023
-0.00914135
4.39794e-05
-0.000320005
0.00935262
-0.00852992
-0.000131797
-0.000534181
0.00829668
-0.00776757
-0.00222613
0.00150635
0.0109669
-0.00975014
-0.00227333
-0.000168849
0.00943489
-0.00975529
-0.000630781
-0.00198584
0.00723153
-0.00803088
-0.00183603
0.00745773
-0.00774318
-0.00325686
-0.00232326
0.00457366
-0.000525516
-0.00577719
-0.00101491
-0.00339346
0.006599
-0.00870026
-0.000586158
-0.00522581
0.008169
-0.00733151
-0.000618385
-0.0113365
0.0119743
-0.00441353
-0.00223905
-0.0201134
0.018986
0.00114082
-0.00101713
-0.0115621
0.00518647
-0.00114392
-0.000392897
0.000942531
-0.00461384
0.000947657
0.00147426
-0.00573697
-0.00609277
0.00626369
-0.00591683
-0.00836982
0.00803896
-0.00382593
-0.0116878
0.00901545
-0.00257145
-0.0138662
0.0102612
3.65241e-05
-0.00946602
0.00582841
-0.00266524
0.0014283
-0.000203698
-0.00033259
0.00394369
3.86282e-05
-3.80748e-05
0.00110357
0.000625288
-0.000489092
-0.000948379
0.00205553
-0.0013306
-0.00278167
0.00295288
-0.000888742
-0.00492428
0.00103992
0.000304712
-0.0109867
0.000596799
-0.0139048
-0.00204243
0.000274077
0.00456984
-0.00281218
-0.000502725
0.000269902
-0.00213982
-0.00181345
-0.00144072
-0.00168913
-0.00259488
-0.00331677
-0.00112452
-0.00303987
-0.00565715
-0.000250644
-0.00228756
-0.0149579
0.0005247
-0.0242945
0.000155742
-0.000381036
0.00994151
-7.09925e-05
-0.000526524
0.00958116
-0.00126753
-0.000695695
0.0104152
-0.00310929
-0.000698314
0.0108426
-0.00567796
-0.000107437
0.00959077
-0.00590708
-5.83063e-07
0.00549125
-0.000214218
-7.07621e-05
-0.00054435
0.000619729
0.0126176
-0.00108871
0.000610808
0.0125268
-0.00226105
0.000645534
0.0128664
-0.00324933
0.000464565
0.0127444
-0.00288904
-0.000330432
0.0123166
-0.00167201
-0.00103004
0.0116637
-0.00161282
0.0114316
0.00088297
-0.000808353
0.0113748
0.00045445
0.000969142
0.00937668
-0.0022602
0.0026053
0.00905479
-0.00426
0.00358841
0.00977437
-0.00442571
0.000637395
0.00857471
-0.00179905
-0.00181917
0.00535906
-0.00253725
0.00641111
-0.00199833
-0.00110208
0.00696276
-0.00401464
-0.00016051
-0.000326808
-0.00583714
0.00104981
-0.00194237
-0.00639384
0.00135364
-0.00869022
-0.00700268
0.000726119
-0.0197574
-0.00231819
0.00115074
-0.0193915
-0.000859368
-0.00441874
-0.00308567
0.00304446
-0.00507881
-0.00421858
-0.00566633
-0.00665022
-0.00487417
-0.0110911
-0.0042785
-0.0138602
-0.0014854
-0.0112506
-0.00510202
-1.7915e-05
0.000118885
0.00396566
0.000272113
-0.000264184
0.00111317
0.00144176
-0.000674777
-0.00148594
0.00286802
-0.000962012
-0.00334177
0.00402185
-0.000438498
-0.00567475
0.00269084
0.000791859
-0.0104412
0.00162602
-0.0128512
-0.000252227
0.000171292
0.00489724
-0.000529154
-0.00113644
0.00135017
0.000467642
-0.00173951
-0.00148005
0.000962863
-0.00221175
-0.00273017
0.00195748
-0.00269686
-0.00463849
0.00310804
-0.00232066
-0.0132531
0.00106318
-0.0208991
0.000166568
-0.000104088
0.0100384
-0.000888503
-0.000415559
0.00996982
-0.00228527
-0.000549169
0.0106042
-0.00437422
-0.000533089
0.0111645
-0.00730679
0.000500345
0.00922558
-0.00637279
0.00115203
0.00105454
0.00102439
-0.00623015
-0.000379217
-0.000210032
0.0130567
-0.00117775
-0.000357861
0.0132187
-0.00201424
-0.000467554
0.0135559
-0.00355413
-0.000483693
0.0141466
-0.00388466
-0.000772066
0.0138269
-0.00290165
-0.0010298
0.0127181
-0.00237683
0.0117663
-0.00107907
1.91253e-05
0.0122332
-0.00311716
0.00252147
0.00853734
-0.00432168
0.00450031
0.00527651
-0.0060549
0.00485131
0.00606239
-0.00607902
0.0012751
0.00640281
-0.00357349
-0.00140311
0.00302095
-0.00386006
0.00406818
-0.00180812
0.000266984
0.00854751
-0.00340324
0.00158758
0.00204575
-0.00296698
0.00291169
-0.000935118
-0.00270813
0.00195496
-0.00622453
-0.00457799
-0.000538116
-0.0162404
-0.00354323
0.000405013
-0.0225715
-0.000396297
-0.0110822
-0.000752688
0.00413909
-0.0019915
-0.00135126
-0.00173365
-0.00391562
-0.00195298
-0.00892321
-0.00335129
-0.0130912
-0.00168924
-0.012637
-0.00709825
3.24893e-05
-0.000125148
0.0041917
-0.000378003
-0.000504398
0.00214633
0.00128606
-0.000338455
-0.002829
0.00402139
6.57682e-05
-0.00620659
0.00612216
0.000843772
-0.00862872
0.00452301
0.00224499
-0.0110803
0.00351986
-0.0119086
-0.00116746
-0.000441392
0.00643424
-0.00163346
-0.00190209
0.00316105
-6.59463e-05
-0.00167318
-0.00183069
0.00143078
-0.00158267
-0.00272146
0.00380517
-0.00155373
-0.00477849
0.00403181
3.61838e-05
-0.0114831
0.00252653
-0.0161351
-0.00160931
0.000671918
0.0104955
-0.00243418
0.000531578
0.00835189
-0.00328403
0.0001806
0.00959634
-0.00489446
7.90457e-05
0.0111555
-0.00696827
0.000553185
0.00914911
-0.00435188
0.00124727
-0.00270393
0.00166287
-0.00958316
-0.000543958
-0.000649212
0.0149267
-0.00121319
-0.00061523
0.0150625
-0.00119919
-0.000888491
0.0145908
-0.00253715
-0.000672767
0.0161421
-0.00373958
-0.000722601
0.0162353
-0.00345758
-0.00161283
0.0151615
-0.00324769
0.0131523
-0.0045848
0.00169224
0.0146239
-0.00863023
0.00398933
0.0080252
-0.0107098
0.0049873
0.00122369
-0.0122567
0.00505378
0.00151271
-0.0102476
0.00166348
0.00170623
-0.00508762
-0.00206239
-0.00195818
-0.00481063
0.000590931
-0.00125438
0.00112514
0.0106363
-0.00257908
0.00210309
0.00520407
-0.0025637
0.00400595
-0.000148356
-0.000146259
0.00185026
-0.00561557
0.000102785
-0.00195742
-0.0129886
-0.00211995
-0.00231547
-0.0201454
-0.00103125
-0.0159807
0.000773341
0.00456815
0.000330067
0.00121568
0.00285297
-0.0024094
0.00387118
-0.00805209
0.00115232
-0.0123393
-0.00058021
-0.0131486
-0.0083119
-0.000409771
-0.000817284
0.00556149
0.00178566
-0.000988084
0.00103
0.00680433
-0.00022644
-0.00758648
0.0108631
0.0006737
-0.0109164
0.0111544
0.00149699
-0.0104086
0.00859786
0.00145484
-0.00988948
0.0044593
-0.00776739
-0.00249659
-0.00174593
0.00972401
-0.00253145
-0.0024196
0.00444024
0.000679357
-0.00191654
-0.00350292
0.00594593
-0.00131366
-0.00604572
0.00899707
-0.000136473
-0.00621923
0.00539499
0.00257574
-0.00917197
0.00484457
-0.0113405
-0.00405496
0.000759628
0.011858
-0.00602499
0.000826581
0.00680258
-0.00599726
0.000798548
0.00667913
-0.00428325
0.000336683
0.00766182
-0.00230866
0.000305535
0.00659212
-0.000581788
0.000525298
-0.00237874
0.00208961
-0.00739916
-0.000430927
0.000638379
0.0153893
-0.000942524
0.000960203
0.0154815
-0.000974861
0.000339214
0.0150876
-0.00183335
0.000235388
0.0170676
-0.00436494
0.000464879
0.0185048
-0.00510768
-0.00162486
0.0178787
-0.00347498
0.0134859
-0.0022044
0.00256579
0.0149835
-0.0049378
0.00318576
0.00869896