/*--------------------------------*- C++ -*----------------------------------*\
  =========                 |
  \\      /  F ield         | OpenFOAM: The Open Source CFD Toolbox
   \\    /   O peration     | Website:  https://openfoam.org
    \\  /    A nd           | Version:  6
     \\/     M anipulation  |
\*---------------------------------------------------------------------------*/
FoamFile
{
    version     2.0;
    format      ascii;
    class       volScalarField;
    location    "0.0075";
    object      T;
}
// * * * * * * * * * * * * * * * * * * * * * * * * * * * * * * * * * * * * * //

dimensions      [0 0 0 1 0 0 0];

internalField   nonuniform List<scalar> 
3773
(
270.471
267.816
267.299
267.143
267.511
267.867
271.294
287.251
286.694
286.993
286.73
286.558
286.794
287.263
309.023
310.181
310.241
310.185
310.173
310.215
309.013
315.611
315.815
315.847
315.817
315.827
315.877
315.632
309.077
310.226
310.311
310.26
310.243
310.291
309.091
287.481
286.801
287.176
286.818
286.749
287.017
287.419
271.618
268.173
268.25
268.314
268.389
268.48
272.02
236.891
234.675
232.984
232.863
234.18
234.82
237.069
271.944
276.172
276.347
276.322
276.195
276.456
272.892
313.843
311.744
311.746
312.086
311.959
311.786
313.975
324.774
324.852
324.87
324.955
324.93
324.794
325.316
314.166
312.708
312.245
312.223
312.242
311.989
314.243
272.589
274.121
276.545
276.218
276.157
276.788
272.759
237.9
235.025
234.602
235.307
235.128
235.522
237.976
220.213
219.325
218.205
217.916
218.808
219.574
220.122
264.439
269.144
271.504
269.552
267.775
268.606
264.49
314.42
311.746
312.03
314.109
312.466
311.353
314.026
325.696
324.63
325.003
325.57
325.253
324.422
325.615
314.282
311.871
312.381
312.668
312.903
311.67
314.132
264.699
268.359
270.45
266.977
268.606
269.208
264.748
220.466
219.674
218.634
218.506
218.749
219.73
220.486
215.434
215.974
217.14
217.711
215.541
215.866
215.478
263.848
269.544
272.309
273.139
266.1
268.167
263.918
314.309
311.953
312.669
312.64
314.235
311.015
314.078
325.72
324.95
325.317
325.677
325.827
324.993
325.64
314.259
311.18
313.415
314.761
314.29
311.122
314.15
264.038
268.351
271.283
267.165
267.46
268.524
264.08
215.445
215.92
217.312
214.316
215.465
215.876
215.537
214.604
215.442
216.675
216.846
215.048
215.033
214.597
264.021
269.467
271.346
272.671
269.246
269.258
264.252
314.435
311.934
311.793
312.105
312.393
310.47
314.452
325.762
325.014
325.363
325.274
325.282
325.092
325.766
314.38
311.126
312.604
313.581
313.608
310.886
314.456
264.329
269.44
270.424
270.201
268.628
269.236
264.323
214.63
215.323
216.311
214.784
215.128
215.066
214.61
214.761
215.725
214.71
216.496
215.698
215.338
214.685
266.431
271.955
273.046
272.787
271.67
271.708
266.176
315.119
311.666
311.791
311.145
310.944
310.749
314.863
325.911
325.055
324.896
325.156
324.679
325.55
325.889
314.966
311.817
311.345
311.602
311.311
311.857
314.91
266.606
272.153
271.704
273.439
272.46
271.045
266.347
214.779
214.771
215.726
214.321
216.295
215.158
214.711
212.98
210.829
212.24
213.04
212.86
212.958
213.035
268.249
270.429
268.445
268.776
268.884
269.362
268.217
312.899
313.243
311.916
312.358
311.589
312.496
312.028
329.022
330.017
329.782
329.795
330.248
328.919
330.282
312.93
316.793
312.606
311.826
317.713
312.821
312.087
268.507
261.355
268.957
268.569
263.711
269.259
268.361
213.211
211.921
212.96
212.379
210.749
212.92
213.144
308.808
324.59
325.878
324.045
319.279
313.46
304.454
285.804
307.79
312.769
316.413
311.288
306.61
286.624
288.759
303.195
308.761
311.355
309.224
304.76
290.544
329.602
334.264
340.005
345.674
341.922
335.425
330.289
294.412
312.768
318.948
322.905
318.243
313.515
296.663
305.433
324.907
328.782
334.982
327.598
324.425
309.316
321.9
333.375
337.995
337.257
335.671
331.351
325.678
297.837
325.591
326.699
322.194
315.829
304.482
292.265
274.97
299.416
312.215
320.522
311.506
299.576
276.497
290.859
303.916
312.222
317.28
313.92
304.978
291.572
335.335
337.627
343.522
348.542
345.325
338.711
335.241
290.62
307.22
316.298
323.079
316.932
308.06
292.451
291.697
310.968
325.274
336.695
326.591
312.065
296.208
315.248
329.802
339.426
336.003
334.438
328.636
318.686
294.403
325.647
326.21
319.082
312.207
297.719
271.15
275.233
293.97
319.595
323.884
315.055
298.011
271.142
295.791
304.285
315.471
320.623
316.844
306.314
295.755
340.945
341.219
344.722
348.948
346.488
341.601
339.378
289.887
304.064
316.64
324.97
317.208
305.133
291.09
277.41
300.218
328.911
335.762
328.688
304.26
280.905
292.292
326.185
338.199
333.398
332.377
324.959
299.495
297.973
325.37
324.546
318.093
312.607
302.449
291.25
281.031
306.417
326.28
325.881
317.897
295.822
275.508
298.568
307.813
317.803
323.767
319.578
308.985
299.337
342.509
343.031
346.304
349.741
347.326
344.417
343.67
293.971
304.233
319.098
326.952
319.087
305.69
293.516
278.152
293.258
329.862
336.194
331.616
298.282
278.35
291.157
325.762
335.964
333.118
332.003
323.082
290.072
301.52
325.159
323.701
319.203
315.2
313.214
312.769
293.45
321.83
327.41
322.451
311.174
293.98
289.181
302.596
312.685
320.177
325.42
321.498
311.055
303.374
341.509
343.375
347.679
351.827
348.576
346.146
345.605
299.47
306.856
323.17
328.067
320.638
308.303
298.638
289.029
304.447
331.811
336.179
328.426
298.547
285.692
306.078
331.381
333.698
332.683
332.138
321.344
305.04
307.846
327.189
324.137
320.402
318.897
318.029
318.921
307.073
330.032
325.397
319.596
310.133
304.821
298.752
309.361
316.76
322.535
327.758
324.665
317.605
313.333
342.584
345.35
350.372
353.933
351.773
351.261
350.428
306.62
313.154
325.427
329.042
322.887
314.704
308.539
300.481
323.019
337.085
336.731
326.655
306.161
297.099
316.679
334.129
331.415
332.049
332.739
322.126
312.307
317.783
328.876
326.338
322.587
321.9
323.08
325.091
319.418
330.091
326.456
320.106
318.945
319.82
317.317
313.144
321.036
326.35
330.702
326.95
320.526
316.281
341.979
346.475
352.153
355.033
352.674
350.583
349.097
309.997
319.397
325.83
332.074
325.689
318.316
311.378
309.215
337.664
339.422
340.71
340.534
315.31
302.922
326.648
332.188
331.332
333.322
335.667
323.791
316.271
318.477
329.955
330.557
328.612
325.774
326.187
333.336
327.039
333.463
331.095
330.598
330.491
333.544
338.978
322.697
328.128
332.451
337.014
331.705
325.143
323.067
347.207
349.397
353.717
356.186
354.014
349.779
348.096
319.425
327.274
334.53
337.255
333.486
326.935
319.998
318.753
340.31
341.904
342.049
339.01
331.397
302.259
326.258
330.847
331.092
332.436
333.232
328.953
306.087
312.24
329.647
334.04
332.266
327.969
326.126
331.853
322.049
336.476
337.137
337.12
334.185
335.069
341.386
324.587
331.397
337.279
339.597
331.54
324.412
321.944
350.104
352.261
355.5
356.834
354.43
350.379
348.616
320.689
329.244
335.862
338.284
333.568
329.501
319.475
317.773
340.165
341.481
341.697
338.729
336.278
292.734
324.249
329.237
330.098
330.234
331.844
328.743
293.016
308.633
325.072
331.719
331.435
329.026
328.917
332.663
313.259
332.911
337.805
338.148
333.693
335.246
340.909
325.308
331.078
337.278
338.299
325.938
321.316
323.529
351.273
352.568
355.388
356.605
353.148
348.978
347.415
320.985
330.083
336.912
339.992
333.106
329.425
314.133
316.658
338.651
341.576
342.639
339.639
337.932
297.833
321.208
328.726
330.422
326.614
329.94
329.554
292.148
300.372
310.425
325.582
328.593
330.531
332.482
335.21
304.994
331.375
339.437
337.577
335.011
338.265
341.736
326.7
330.874
334.302
331.37
323.23
325.759
336.533
349.696
350.966
354.078
355.766
350.107
344.662
341.032
323.695
337.076
346.483
341.993
335.534
330.624
315.627
311.804
338.877
347.568
344.014
340.867
343.041
326.422
315.793
328.002
334.18
325.122
328.255
332.341
300.828
287.968
309.476
323.275
329.087
333.853
336.997
338.624
307.472
333.365
342.617
340.855
340.731
342.48
343.473
329.737
333.954
333.964
327.071
324.543
334.325
343.518
347.693
347.226
350.133
352.321
345.817
339.7
335.111
326.495
340.784
350.164
348.408
343.006
341.003
323.719
305.427
330.918
347.283
344.646
343.371
345.021
342.741
304.072
306.642
323.058
322.823
328.035
333.12
319.511
285.771
323.169
328.853
336.203
340.85
343.703
342.618
311.858
337.974
343.934
346.782
347.803
347.55
346.547
332.119
342.162
344.328
336.268
334.194
344.546
348.283
347.576
345.44
348.612
350.073
344.032
339.263
335.003
329.101
339.242
346.366
351.677
349.965
350.223
333.334
305.88
323.636
338.837
343.828
345.031
347.734
346.327
288.586
310.467
321.008
324.388
332.348
333.834
324.667
321.91
330.018
339.965
342.229
345.118
345.767
342.239
335.344
342.279
346.311
347.548
348.942
349.803
347.819
340.53
347.098
348.963
349.375
349.902
352.82
352.072
344.119
345.611
348.283
349.73
344.465
341.835
336.785
331.901
347.757
351.677
352.413
351.427
352.004
342.098
323.826
332.878
337.888
342.117
345.192
349.786
347.801
317.272
327.717
333.104
338.626
340.04
333.467
309.571
325.195
330.177
328.688
326.337
325.493
327.021
333.016
326.204
331.238
329.054
327.667
328.588
331.791
336.107
317.64
323.355
327.123
332.091
327.808
321.902
318.927
342.414
347.692
351.551
354.866
352.786
349.869
347.197
314.237
320.319
326.346
332.281
326.621
319.779
314.61
321.761
338.389
340.358
342.139
341.345
326.191
312.571
328.523
332.2
331.985
334.008
335.763
327.264
318.032
324.748
330.223
329.028
326.5
325.503
326.714
333.299
326.408
331.847
329.425
328.251
328.941
332.344
336.945
318.023
323.384
327.309
332.375
328.14
322.21
319.326
342.549
347.756
351.66
354.95
352.878
349.982
347.158
314.764
320.563
326.597
332.498
326.863
320.149
315.229
322.707
339.063
340.676
342.134
340.87
327.703
313.374
328.611
331.832
331.601
333.635
335.431
327.753
318.048
324.278
330.143
329.277
326.768
325.543
326.646
333.41
326.356
332.009
329.738
328.653
329.241
332.75
337.483
318.309
323.534
327.499
332.92
328.319
322.457
319.546
342.678
347.755
351.895
355.121
353.091
350.032
347.221
315.215
321.18
326.848
332.702
327.18
320.97
315.791
322.923
339.261
340.817
342.007
340.027
327.804
313.328
328.241
331.616
331.485
333.449
335.172
327.938
317.403
323.939
330.404
329.558
327.272
325.646
326.698
333.298
326.742
331.965
330.091
329.166
329.552
332.981
337.85
318.467
323.718
327.91
333.181
328.314
322.735
320.386
342.954
347.76
352.081
355.277
353.172
350.004
347.185
315.56
321.3
327.234
333.22
327.774
321.138
316.195
323.039
339.312
340.87
341.961
339.618
327.798
312.68
327.808
331.532
331.502
333.395
335.01
328.474
315.751
323.851
330.632
329.979
327.63
325.706
326.913
332.935
326.685
331.988
330.426
329.608
329.953
333.155
338.23
318.612
323.816
328.38
333.745
328.325
322.988
321.138
343.332
347.775
352.355
355.385
353.278
349.696
346.996
316.087
321.414
327.691
333.342
328.781
321.555
316.487
322.997
339.304
341.25
341.936
339.132
327.978
312.716
327.144
331.516
331.544
333.442
334.888
328.736
315.012
324.044
330.865
330.247
327.926
325.719
326.939
332.8
326.86
332.416
330.641
329.88
330.138
333.238
338.333
319.147
324.285
328.502
333.979
328.451
323.645
321.901
343.471
347.847
352.585
355.5
353.365
349.321
346.754
316.436
321.962
328.259
333.689
329.787
321.829
316.882
322.693
339.725
341.439
341.899
339.03
329.617
312.779
326.937
331.571
331.594
333.389
334.532
328.971
312.82
324.363
330.612
330.432
328.199
325.511
326.643
332.399
326.807
332.845
330.815
330.131
330.284
333.418
338.608
319.331
324.442
328.669
334.447
328.739
324.151
322.584
343.64
347.91
352.809
355.547
353.406
349.319
346.959
317.335
322.257
328.514
333.796
330.457
322.54
317.419
322.149
339.944
341.675
341.962
339.049
330.574
310.671
326.482
331.369
331.554
332.95
333.951
329.005
309.183
331.244
355.819
360.708
343.576
341.224
332.07
324.249
347.153
357.503
359.602
358.354
358.129
354.161
349.852
355.268
356.75
357.072
356.464
352.362
351.269
351.524
344.295
345.54
348.262
349.683
344.873
341.858
336.614
356.487
354.852
353.69
352.839
351.06
351.769
341.904
342.467
344.761
348.687
352.485
357.309
348.657
347.677
327.246
348.617
354.529
342.469
334.314
325.225
321.584
351.685
347.558
340.062
336.814
334.883
330.155
329.196
356.664
360.589
357.549
356.916
355.127
350.703
349.417
357.86
358.531
356.419
355.513
352.677
350.992
350.357
344.866
345.576
348.315
349.696
345.443
342.184
336.67
355.383
355.285
354.756
353.715
351.708
351.433
343.503
350.299
354.382
359.03
350.922
349.816
347.03
345.362
348.912
348.292
337.414
335.137
329.597
327.017
329.337
359.701
343.214
341.237
337.043
336.364
334.002
337.058
360.681
357.67
356.256
355.125
353.259
351.811
351.573
357.337
355.401
355.809
355.04
353.172
351.531
350.462
345.186
345.685
348.513
349.866
346.201
342.909
336.891
351.783
356.106
354.81
353.946
351.978
351.363
345.849
356.671
360.215
353.781
350.683
350.025
348.009
347.106
357.683
341.33
339.478
336.401
334.013
331.882
335.748
349.752
345.138
344.628
340.742
341.191
341.731
348.168
356.946
356.782
355.382
354.073
353.492
352.862
352.757
355.18
355.348
356.141
354.853
352.679
351.672
350.554
345.276
346.012
348.974
350.406
347.175
344.116
337.826
350.995
356.262
354.66
354.375
352.926
352.196
349.091
359.33
358.715
352.638
351.785
351.076
350.286
351.047
346.888
343.057
344.605
340.22
338.684
340.12
346.05
348.978
346.816
346.278
344.265
344.486
345.95
350.756
355.672
355.676
355.255
355.153
354.527
354.071
355.243
354.617
355.466
355.996
355.052
353.11
351.667
349.621
345.48
347.453
350.083
351.321
349.29
346.927
339.248
354.533
356.111
355.892
354.636
353.687
352.802
349.72
356.612
354.883
352.876
352.441
352.332
352.708
352.381
343.48
344.978
345.453
342.191
341.011
343.902
349.293
350.202
348.197
347.859
347.313
347.459
347.429
350.042
356.02
355.431
355.586
356.408
356.114
356.188
354.071
354.695
355.55
355.998
355.886
354.952
353.048
348.886
346.243
352.956
353.582
353.655
351.783
350.65
342.849
356.073
356.77
356.54
354.957
353.849
353.053
348.995
355.389
354.254
353.422
353.288
354.004
353.617
352.596
345.441
349.143
350.151
349.101
348.057
348.184
349.332
357.454
354.741
352.008
352.871
351.81
350.848
349.457
357.906
356.467
355.177
356.867
357.156
355.665
352.231
354.78
355.339
355.8
356.269
355.391
353.932
349.874
349.222
356.406
356.263
355.929
353.626
352.565
347.614
355.274
356.516
356.786
355.961
355.671
354.464
350.808
354.829
355.795
355.774
355.098
354.283
352.692
351.233
350.794
354.252
356.067
354.17
351.192
349.524
347.059
322.527
323.11
321.911
321.834
323.643
329.194
341.84
342.863
342.295
342.164
342.113
342.518
344.062
347.022
351.453
352.262
356.032
360.223
360.081
359.39
358.784
337.293
347.834
356.715
358.873
359.008
358.623
357.471
336.923
346.281
359.401
359.57
359.31
359.286
359.519
343.194
342.92
342.473
341.863
342.177
345.675
348.968
322.078
320.279
319.019
319.041
321.334
327.525
341.244
332.175
330.527
330.53
329.641
331.076
334.777
343.387
346.748
345.544
345.645
345.097
344.869
345.455
348.482
350.548
351.295
352.873
357.861
359.518
359.247
358.611
337.31
339.752
346.455
353.486
355.919
355.884
355.351
337.229
338.886
353.308
358.47
358.027
357.835
358.099
343.908
343.639
343.178
342.477
342.602
343.539
347.499
330.328
327.7
327.631
327.146
329.15
336.967
340.826
343.304
343.084
342.618
340.739
339.936
340.433
342.788
351.787
350.745
350.563
349.458
348.741
348.702
349.933
350.708
351.329
352.236
354.07
358.82
359.247
358.628
337.088
337.549
338.811
342.248
348.518
351.201
351.471
337.965
337.228
339.263
352.519
357.274
356.881
356.799
347.112
346.656
346.901
346.218
345.971
346.633
347.378
339.364
338.328
338.242
337.482
337.021
339.185
339.506
349.326
349.333
349.309
349.089
348.903
348.237
345.806
353.406
353.15
353.364
353.056
352.531
351.649
351.881
350.882
351.367
352.522
353.486
356.141
358.816
358.768
337.291
337.302
337.404
338.219
339.981
342.855
345.377
343.908
339.968
338.588
339.751
344.525
351.203
356.146
350.413
350.269
350.42
350.435
350.11
349.438
349.903
347.56
347.872
348.288
348.095
346.098
341.556
339.941
352.212
351.705
350.663
349.761
350.13
351.061
350.185
355.509
355.663
355.729
356.193
356.142
354.493
352.539
349.795
350.412
351.837
353.089
354.835
355.822
357.749
337.521
337.467
337.483
337.838
338.552
339.054
339.38
346.051
342.818
341.02
339.865
340.038
340.6
343.604
351.667
351.509
351.547
350.971
350.77
350.65
350.698
350.377
350.168
349.853
349.901
349.502
349.154
341.178
349.629
349.851
349.816
350.032
350.371
350.932
350.615
353.817
353.886
353.768
353.56
353.168
352.65
352.413
348.402
348.485
349.022
349.893
352.494
353.581
353.496
339.508
338.177
338
337.537
337.539
337.215
336.445
347.872
346.624
345.26
343.634
342.738
340.89
340.411
352.166
352.184
352.019
351.681
350.744
350.102
348.874
349.386
349.546
349.714
349.989
349.623
349.309
346.741
349.529
349.567
349.473
349.483
349.705
350.261
350.165
351.557
351.405
350.787
350.467
349.457
349.101
348.572
349.46
348.753
348.076
347.729
347.482
347.231
346.174
346.556
344.228
343.338
341.632
340.717
338.848
334.801
350.264
349.217
348.404
347.767
345.988
344.006
340.403
351.16
350.784
350.574
350.108
349.82
349.233
347.893
347.29
347.699
347.983
348.446
348.307
348.754
348.052
349.139
339.934
333.409
329.772
329.42
330.578
330.293
352.69
351.057
347.178
345.992
345.325
345.326
345.47
358.839
358.135
356.944
356.347
355.098
354.705
354.634
358.304
358.564
358.947
359.033
359.041
358.675
349.066
359.266
358.879
358.932
358.723
358.993
359.743
360.587
351.955
347.848
345.452
340.569
339.384
339.39
340.553
345.528
335.225
330.3
326.824
325.116
324.049
325.695
348.619
346.668
345.186
346.531
347.606
350.084
350.796
352.41
350.391
350.344
351.444
352.782
355.125
355.806
357.815
357.926
358.207
358.652
358.516
358.467
358.152
358.619
358.854
359.078
359.105
358.317
355.378
348.612
360.003
360.261
360.289
360.067
359.977
360.251
360.767
356.55
355.393
353.556
351.715
350.116
349.191
349.442
349.855
347.193
347.413
345.3
345.082
343.336
345.889
352.161
361.034
362.943
359.824
361.917
362.137
361.888
354.605
358.286
359.024
361.109
361.18
360.852
360.694
357.142
358.018
359.615
359.524
358.44
357.51
357.09
358.388
358.53
358.522
357.784
356.506
352.641
348.042
362.023
361.891
361.658
361.26
360.966
360.985
361.297
364.271
364.496
363.712
362.255
360.022
358.591
357.545
352.59
361.393
365.03
365.663
364.878
364.317
359.39
360.351
363.601
360.15
356.406
354.289
352.469
351.322
361.795
361.492
360.071
359.505
359.23
357.777
357.192
358.933
358.549
358.593
356.803
355.412
354.797
354.71
356.863
356.27
355.468
353.708
352.139
349.591
347.012
364.814
364.201
362.752
361.425
360.342
359.839
354.855
367.473
365.086
362.422
360.406
359.353
359.097
359.091
362.334
364.321
358.584
356.418
353.33
351.831
351.926
361.981
363.081
357.762
354.847
352.062
350.766
350.225
361.237
359.915
358.426
357.051
356.469
355.689
355.54
357.091
355.732
355.17
354.559
354.388
353.969
353.881
349.567
348.614
348.168
347.973
347.438
347.199
346.132
359.477
355.696
354.228
353.239
352.929
353.027
352.918
364.197
360.77
359.636
359.204
359.068
358.694
357.936
363.762
362.526
356.8
352.855
348.516
345.134
344.438
362.185
363.071
359.423
357.199
353.202
351.526
350.932
360.658
359.813
358.211
357.351
356.728
356.195
356.053
354.04
354.226
353.967
353.885
353.85
353.507
353.376
345.494
345.955
346.541
346.793
346.752
346.767
346.782
353.095
352.784
353.049
353.199
353.379
353.91
354.737
360.064
358.95
358.678
357.676
356.449
356.014
355.717
363.994
359.105
356.901
352.453
348.663
346.161
345.615
361.105
362.003
360.745
360.583
359.865
359.759
359.502
359.81
361.167
359.861
359.621
359.141
359.147
358.949
351.957
354.865
356.38
356.749
356.825
356.187
355.575
343.54
347.133
348.416
348.904
349.222
349.312
349.788
348.964
351.476
352.023
352.964
353.314
353.904
354.651
356.972
356.804
355.925
355.939
354.795
354.398
354.107
363.687
358.82
357.535
357.434
353.518
351.961
351.377
365.05
364.197
364.35
360.996
359.912
357.245
352.728
363.907
363.56
363.662
362.355
360.689
359.129
356.732
362.345
362.125
362.214
362.045
361.449
361.062
359.919
359.979
358.964
358.504
357.626
357.419
357.58
357.923
365.429
362.907
362.288
361.794
361.02
360.47
359.834
365.589
361.437
361.709
360.248
359.254
356.357
353.863
364.534
363.656
362.953
360.58
357.495
354.575
350.648
365.822
359.927
363.092
359.745
359.686
354.906
349.768
364.078
361.893
362.352
360.139
358.108
355.489
353.385
362.208
361.69
361.697
361.263
360.935
359.424
358.628
359.911
358.828
358.258
357.763
357.766
358.167
358.315
362.756
361.29
361
360.553
360.251
359.97
359.972
361.773
357.828
358.479
358.923
358.725
358.404
358.106
364.084
360.914
362.406
359.007
358.175
355.161
351.553
357.518
358.038
361.25
356.662
354.554
348.484
348.45
359.023
358.271
360.747
355.712
352.816
352.584
352.924
361.011
360.725
360.674
360.422
359.278
357.571
357.091
359.445
358.811
358.296
357.904
357.92
357.827
358.122
360.104
359.965
359.613
360.209
360.72
361.65
362.051
353.328
353.18
357.015
360.618
362.357
364.526
364.757
356.529
352.76
356.147
355.126
355.51
348.747
347.807
357.098
355.36
355.905
349.624
352.028
345.405
347.113
348.319
356.248
360.787
352.679
349.326
352.947
358.458
356.859
358.326
359.399
358.84
356.304
355.228
358.55
358.95
358.7
358.02
357.549
357.493
357.156
357.12
355.943
356.782
358.627
360.044
361.727
364.08
364.633
349.141
351.374
357.994
362.993
365.099
366.711
366.363
354.808
349.046
351.54
347.563
352.228
344.626
345.635
356.37
351.136
353.585
347.02
346.815
340.256
346.591
343.814
357.351
361.769
343.979
345.26
355.679
362.3
353.767
357.264
358.831
355.901
354.635
356.639
357.567
358.323
357.369
356.567
355.873
354.614
352.746
351.406
354.267
355.047
358.157
360.81
363.342
364.516
363.433
345.995
349.009
360.507
363.744
364.52
364.62
364.219
351.337
344.019
347.664
343.216
345.369
338.608
342.879
352.431
349.179
351.809
343.019
344.994
339.15
348.125
341.521
357.194
364.435
340.514
344.53
359.748
361.647
351.385
355.383
356.524
353.99
353.549
354.411
353.458
356.642
356.468
355.158
351.936
346.472
344.677
344.54
352.602
353.718
356.939
358.666
361.153
357.909
353.294
342.621
343.401
361.765
363.033
363.265
362.364
361.698
348.251
343.147
343.013
338.127
343.8
337.845
343.045
346.556
341.062
348.072
339.319
342.461
335.909
345.991
338.205
355.857
363.534
335.681
343.36
360.169
358.637
347.815
352.168
353.28
349.849
349.563
349.746
351.212
355.199
350.553
346.651
343.065
341.536
341.252
341.099
348.707
350.414
354.619
354.885
352.845
349.403
349.214
338.123
341.655
361.279
361.471
359.945
359.014
358.197
344.412
342.041
341.908
337.415
343.31
337.888
342.782
336.19
329.407
341.77
333.835
335.643
332.796
335.052
329.68
349.653
345.183
325.432
325.93
336.344
334.179
340.269
346.284
344.959
341.318
338.308
338.968
335.367
339.327
342.612
341.114
339.845
339.348
336.923
330.515
340.247
342.401
339.779
342.849
342.037
344.4
332.513
332.042
336.295
336.607
342.731
339.087
331.12
340.537
341.096
338.887
338.323
335.782
341.837
336.177
337.829
308.218
309.385
309.683
303.737
306.319
302.977
311.077
318.141
331.963
336.081
317.384
324.685
337.324
340.386
334.341
332.088
330.805
333.712
332.834
332.328
329.459
331.087
331.811
331.405
331.814
332.297
333.038
329.292
333.858
337.282
335.586
333.314
332.877
334.419
332.102
321.658
321.631
321.346
327.268
333.962
319.442
323.633
309.285
304.276
306.8
301.97
302.197
310.874
309.682
294.316
294.388
294.304
294.451
294.285
294.937
294.461
313.567
313.352
312.931
312.632
314.201
315.001
314.555
328.151
329.462
328.405
330.94
332.132
332.255
327.345
325.74
322.758
322.558
323.958
325.566
325.728
325.425
328.803
328.35
328.004
327.023
324.645
326.772
325.299
315.306
313.064
313.713
315.921
316.522
314.631
312.246
293.416
293.286
292.628
292.814
293.236
293.959
293.657
285.715
285.783
285.619
286.327
286.017
286.447
286.513
309.416
307.333
306.902
308.962
308.135
309.864
307.58
324.759
323.596
321.315
321.958
328.13
330.175
324.999
314.305
316.633
316.717
317.925
320.073
320.536
316.703
322.055
321.857
321.823
321.763
320.194
320.408
317.697
309.148
307.733
307.986
308.402
307.578
308.977
308.76
281.526
281.225
281.122
283.391
282.031
283.193
283.834
281.083
281.012
280.936
281.096
281.41
281.09
281.096
304.591
304.317
304.725
305.023
304.066
304.285
304.539
322.83
322.545
318.137
315.277
318.269
324.544
318.855
310.905
309.028
309.285
310.005
312.035
314.221
312.007
318.267
319.275
319.781
319.059
317.498
317.066
314.976
303.954
302.774
302.866
305.601
304.794
305.06
302.617
279.491
278.981
278.985
279.295
278.994
279.059
279.189
280.656
280.593
280.587
280.61
280.666
280.675
280.687
303.498
303.402
303.576
303.172
303.108
303.432
303.47
323.117
323.482
317.957
313.911
315.061
322.83
318.234
308.358
306.123
306.421
307.017
308.796
311.534
308.8
317.274
319.074
320.041
318.705
317.272
316.652
315.337
303.299
302.645
302.672
303.789
303.814
303.507
302.497
279.55
278.997
279.019
279.585
279.638
279.639
279.183
291.962
291.96
291.97
291.95
291.962
291.942
291.991
305.253
305.206
305.321
305.221
305.197
305.298
305.348
316.877
317.859
311.684
308.039
305.592
311.826
310.972
292.531
289.941
290.394
291.319
292.554
295.388
291.844
309.253
311.394
312.799
311.595
310.996
309.042
308.346
305.33
305.233
305.292
305.514
305.547
305.414
305.268
291.967
291.968
292.155
291.971
291.972
291.973
291.975
345.759
351.947
358.517
361.538
362.824
366.115
367.125
348.324
351.694
352.699
353.942
355.307
357.245
357.425
358.32
357.884
357.296
357.268
357.761
358.386
358.388
356.747
355.18
354.919
355.284
356.124
357.86
359.015
359.776
359.855
360.713
361.046
361.835
362.441
364.807
352.459
354.36
358.626
360.116
362.632
361.951
367.679
345.988
351.398
358.693
361.496
365.623
365.813
367.978
346.461
351.34
355.457
361.02
364.03
366.036
364.62
349.533
351.177
353.118
353.567
353.933
353.22
354.533
357.705
356.85
356.402
356.278
356.616
357.292
357.516
354.488
352.941
352.593
353.113
354.375
356.285
357.848
358.172
357.793
357.958
358.112
359.078
360.629
362.744
349.007
351.191
352.978
353.615
354.753
356.188
362.878
346.569
351.891
356.222
358.285
362.787
362.579
366.182
342.933
347.415
353.951
355.386
360.594
362.78
360.066
350.918
352.372
352.852
352.174
352.472
349.763
345.201
357.698
356.675
355.976
355.719
355.699
355.61
355.205
351.086
350.551
350.664
351.426
353.027
355.313
357.323
356.806
356.553
356.63
357.141
357.742
358.732
358.751
349.115
349.663
350.846
349.832
351.129
351.799
352.991
337.3
340.359
347.695
347.159
352.846
352.021
358.02
341.591
342.209
349.005
352.518
358.224
360.946
352.362
353.658
353.462
353.683
351.833
350.713
346.589
340.21
357.431
355.83
354.526
353.487
353.107
351.839
351.435
346.572
346.513
347.011
348.016
349.555
352.435
355.868
356.594
355.594
354.75
354.544
354.655
355.031
356.312
351.092
351.21
350.338
348.166
347.186
345.271
350.106
332.977
335.28
337.645
340.982
348.878
347.242
354.293
335.375
334.416
342.582
341.048
348.806
352.689
341.952
355.527
356.111
354.491
350.682
346.651
341.449
335.595
357.792
356.777
354.949
352.882
351.973
349.679
349.609
340.748
341.098
342.207
344.716
347.461
350.186
353.297
352.218
355.55
355.217
353.767
353.259
352.562
353.288
351.413
352.787
352.485
345.712
345.592
341.989
343.408
328.97
330.166
334.254
334.82
342.04
344.94
348.939
334.544
329.116
335.987
333.109
344.342
348.795
339.142
351.592
352.504
355.844
351.095
344.755
339.941
333.732
353.507
354.416
353.442
351.002
349.853
348.456
348.877
335.01
334.102
335.361
338.228
344.491
348.734
352.241
340.199
344.485
351.913
350.716
349.607
351.196
351.738
349.185
351.942
355.225
343.452
342.939
338.917
337.077
331.65
329.806
332.217
334.64
340.115
338.517
344.514
332.448
322.845
328.61
329.923
336.707
343.316
336.397
349.055
350.554
353.81
349.683
341.881
336.692
331.981
345.333
345.783
349.144
348.97
346.966
345.265
346.286
330.481
330.29
331.536
332.953
335.559
340.767
346.774
339.211
338.831
344.241
346.643
346.87
346.851
347.67
348.394
351.524
355.747
341.542
339.149
334.67
333.138
333.364
330.582
332.679
333.661
338.937
333.596
338.651
318.545
320.541
324.918
327.409
329.46
327.771
334.388
337.564
336.643
339.026
335.57
333.56
327.262
329.092
335.336
341.664
341.374
339.671
337.099
336.242
340.593
322.857
329.687
332.234
333.599
333.268
333.257
330.908
325.131
333.414
334.548
336.228
336.496
338.823
338.661
337.455
335.821
332.961
333.496
331.354
330.261
328.717
332.292
328.766
329.828
331.094
336.449
329.945
335.007
308.521
308.342
307.883
308.726
306.64
307.36
310.487
323.405
320.702
321.418
321.409
320.46
319.445
318.992
333.653
332.31
331.096
330.554
330.808
333.39
333.866
322.43
324.925
325.15
324.858
323.839
322.811
322.794
325.121
326.178
327.239
328.355
329.613
331.91
332.496
319.044
316.097
319.008
321.115
319.168
317.39
315.684
300.68
301
299.44
301.04
299.775
292.658
300.67
285.239
288.781
288.731
289.81
289.31
287.699
288.719
310.939
309.593
309.188
309.559
311.402
310.233
307.312
329.447
329.202
327.968
327.417
327.712
326.324
328.989
319.485
319.302
318.568
317.452
315.469
314.318
316.3
319.928
324.144
325.261
326.485
327.584
329.012
329.97
312.713
309.002
308.618
309.776
309.181
308.807
309.287
287.323
286.14
286.692
285.272
285.459
285.47
285.316
280.2
279.569
279.54
279.522
279.615
279.503
280.05
307.016
305.838
305.866
306.647
304.141
302.78
302.561
320.135
321.407
320.484
321.718
319.753
321.633
324.441
311.654
313.976
313.779
312.987
310.941
309.389
309.385
316.242
318.489
319.352
321.346
320.774
321.658
323.028
306.344
305.873
305.768
306.898
304.687
303.676
302.625
278.746
278.302
278.497
277.504
278.258
278.143
278.298
276.203
275.854
275.937
277.145
276.048
276.065
276.162
301.146
301.151
301.118
303.108
301.079
300.725
300.693
317.439
319.142
318.494
318.654
319.286
321.096
323.524
308.784
309.505
309.879
309.54
307.881
306.19
307.572
315.459
317.626
318.661
319.725
320.026
320.682
321.314
301.298
301.322
301.237
303.712
301.361
301.254
301.164
275.93
275.8
275.932
276.349
275.904
275.844
275.976
276.914
276.679
276.887
277.873
276.979
276.893
276.921
301.953
301.986
301.963
302.749
301.834
301.539
301.498
318.354
319.996
319.221
318.523
320.596
321.988
323.924
306.475
307.427
307.799
307.508
305.997
304.321
303.057
316.723
318.671
319.662
319.691
320.882
321.414
321.41
301.889
302.092
301.999
303.162
302.028
301.84
301.827
276.929