/*--------------------------------*- C++ -*----------------------------------*\
  =========                 |
  \\      /  F ield         | OpenFOAM: The Open Source CFD Toolbox
   \\    /   O peration     | Website:  https://openfoam.org
    \\  /    A nd           | Version:  6
     \\/     M anipulation  |
\*---------------------------------------------------------------------------*/
FoamFile
{
    version     2.0;
    format      ascii;
    class       volVectorField;
    location    "0.0075";
    object      U;
}
// * * * * * * * * * * * * * * * * * * * * * * * * * * * * * * * * * * * * * //

dimensions      [0 1 -1 0 0 0 0];

internalField   nonuniform List<vector> 
3773
(
(38.4471 -0.0336739 0.425807)
(37.9266 0.0143079 0.420327)
(37.8415 0.012852 0.405345)
(37.809 -0.00233787 0.401069)
(37.8728 -0.0138199 0.410515)
(37.9428 -0.0206529 0.419035)
(38.5923 0.0255568 0.435268)
(10.8581 0.0223557 -0.0568072)
(10.8144 -0.0405022 -0.0491532)
(10.8486 -0.0299977 -0.0344541)
(10.8341 0.00658458 -0.0336203)
(10.8108 0.00897549 -0.0330112)
(10.8249 0.0228567 -0.0135459)
(10.8561 -0.0127752 -0.0124016)
(4.36695 0.0321783 0.0311213)
(4.35771 -0.0110044 0.0364656)
(4.3585 -0.0264918 0.0472845)
(4.35774 0.0145101 0.0440997)
(4.35756 0.0262553 0.0462389)
(4.35818 0.0156543 0.0597815)
(4.36658 -0.0122332 0.0497037)
(7.29821e-05 0.00508774 0.0476944)
(9.09066e-05 0.012028 0.0480677)
(0.000108756 0.0152704 0.0473666)
(0.00011574 -0.00781754 0.0478706)
(0.000101578 -0.0242302 0.0451394)
(9.05028e-05 -0.0234699 0.0360287)
(8.47747e-05 -0.0140288 0.0401858)
(-4.36798 0.0259193 0.0336697)
(-4.35905 -0.0158334 0.0372385)
(-4.3595 -0.0278078 0.0417856)
(-4.35886 0.0091339 0.0416075)
(-4.35854 0.0184903 0.042496)
(-4.35922 0.0107704 0.054578)
(-4.36736 -0.0116822 0.0443429)
(-10.8641 0.0164013 -0.0657445)
(-10.8189 -0.04657 -0.0497863)
(-10.8535 -0.0299333 -0.0347419)
(-10.8277 0.00413382 -0.0354258)
(-10.8147 0.0111056 -0.0363126)
(-10.8323 0.0312104 -0.0148582)
(-10.8588 -0.00853011 -0.0136887)
(-38.6309 -0.0218883 0.434307)
(-37.9743 0.0127316 0.422304)
(-37.9986 0.00292765 0.415811)
(-38.0028 -0.00273192 0.414371)
(-38.0114 -0.0120297 0.41637)
(-38.0387 -0.0210819 0.426696)
(-38.7043 0.020388 0.447183)
(30.7937 -0.0582967 0.884465)
(30.3054 0.011333 0.872593)
(30.0129 0.0131515 0.87287)
(29.9867 0.00341815 0.867372)
(30.2196 -0.000298416 0.853028)
(30.3285 -0.0129566 0.849108)
(30.8278 0.0440165 0.874343)
(9.22477 0.00888576 -0.165675)
(9.34608 -0.0461194 -0.160634)
(9.36168 -0.0326868 -0.131726)
(9.35706 0.0114266 -0.130827)
(9.34757 0.0239707 -0.146461)
(9.35862 0.0395794 -0.11853)
(9.25538 0.00226581 -0.125169)
(3.94294 0.0389628 0.00994039)
(3.92298 -0.0061546 0.0117938)
(3.92794 -0.0293449 0.036093)
(3.92803 0.0157132 0.0311725)
(3.92608 0.0388304 0.0303996)
(3.93208 0.022909 0.050735)
(3.94375 -0.0167481 0.0301263)
(6.48679e-05 0.00570192 0.032689)
(7.72228e-05 0.0157212 0.0296783)
(9.71844e-05 0.0190736 0.0296858)
(0.000104823 -0.0112348 0.0304821)
(9.0635e-05 -0.0332124 0.0272722)
(8.05039e-05 -0.0281756 0.00915015)
(7.53695e-05 -0.0142167 0.0197101)
(-3.94662 0.0313905 0.009221)
(-3.93529 -0.0173466 0.0134334)
(-3.93232 -0.0325967 0.0279545)
(-3.93047 0.0109241 0.0244361)
(-3.92849 0.0302201 0.0241106)
(-3.93298 0.0171741 0.0429849)
(-3.94662 -0.0164601 0.0224371)
(-9.24552 0.0113179 -0.178279)
(-9.27462 -0.0485803 -0.156475)
(-9.36666 -0.0346476 -0.135803)
(-9.34926 0.006697 -0.144811)
(-9.34511 0.0246322 -0.150196)
(-9.36939 0.0468937 -0.119412)
(-9.24978 0.00370802 -0.129254)
(-30.9619 -0.0369921 0.898122)
(-30.3745 0.0124731 0.874516)
(-30.2717 0.00142563 0.885819)
(-30.3847 0.000579783 0.861545)
(-30.3705 -0.00517235 0.869844)
(-30.4258 -0.0212402 0.864806)
(-30.9734 0.0324236 0.893311)
(27.5706 -0.0800427 1.02289)
(27.2994 -0.0105775 1.01814)
(27.0852 -0.00530294 0.954987)
(27.0434 0.0162762 0.932135)
(27.2202 0.0188365 0.981492)
(27.3399 0.00556806 1.00342)
(27.5655 0.0681249 1.0316)
(8.94768 -0.00189303 -0.0788663)
(9.07927 -0.0394086 -0.080437)
(9.15722 -0.0239776 -0.0778248)
(9.09068 0.00570801 -0.077498)
(9.03229 0.0227806 -0.0823291)
(9.06149 0.0377796 -0.0709583)
(8.94938 0.00787416 -0.0873699)
(3.92779 0.0373728 0.0412288)
(3.8856 -0.00401794 0.0273007)
(3.89063 -0.0261652 0.0539143)
(3.916 0.0130975 0.0482464)
(3.89537 0.0413017 0.0418266)
(3.8811 0.0244619 0.0510519)
(3.92332 -0.0205715 0.0295148)
(6.21765e-05 0.00604999 0.0345409)
(7.56789e-05 0.0143136 0.0329051)
(9.36925e-05 0.0172289 0.0302201)
(0.000102427 -0.0113515 0.0246036)
(8.61428e-05 -0.035739 0.0292833)
(7.63006e-05 -0.0276583 0.0181009)
(7.12798e-05 -0.0126684 0.0286797)
(-3.92655 0.0313109 0.0353688)
(-3.88718 -0.0152406 0.029358)
(-3.89428 -0.0323315 0.0462087)
(-3.89787 0.00856153 0.0388618)
(-3.90052 0.033241 0.033706)
(-3.88506 0.0185503 0.0454157)
(-3.92452 -0.0203621 0.0252149)
(-8.95635 0.000867241 -0.0802415)
(-9.05302 -0.0421199 -0.0799708)
(-9.12187 -0.030644 -0.0776783)
(-9.00624 0.00188416 -0.0635385)
(-9.05988 0.0256138 -0.0917709)
(-9.08165 0.0422771 -0.0741887)
(-8.95806 0.00639086 -0.0933006)
(-27.6217 -0.0618769 1.05661)
(-27.3582 -0.00880915 1.02756)
(-27.1613 -0.00875097 0.983648)
(-27.1934 0.00448556 1.00024)
(-27.2182 0.00177146 0.998117)
(-27.3633 -0.00799838 1.01951)
(-27.628 0.0553579 1.06186)
(26.6717 -0.0862377 0.747671)
(26.6106 -0.0166374 0.760482)
(26.7577 -0.00926759 0.734414)
(26.828 0.0127551 0.71614)
(26.5523 0.0251676 0.731739)
(26.5958 0.0129655 0.742964)
(26.6795 0.0795466 0.758178)
(8.924 -0.00203323 -0.0523286)
(9.08978 -0.0294613 -0.0584592)
(9.18214 -0.0157121 -0.0543395)
(9.20981 -0.00404119 -0.0673309)
(8.97262 0.0171671 -0.0537422)
(9.04302 0.0329679 -0.0527934)
(8.92639 0.00530214 -0.0625961)
(3.92592 0.0344015 0.0420142)
(3.88694 -0.00232667 0.0270124)
(3.8957 -0.0207255 0.0563416)
(3.89557 0.0110584 0.0521773)
(3.91523 0.0400467 0.0442903)
(3.8752 0.023012 0.0452446)
(3.92307 -0.0236036 0.0313557)
(5.77502e-05 0.00850082 0.0412793)
(7.16327e-05 0.0144661 0.0406566)
(8.99816e-05 0.0140519 0.0274561)
(9.39085e-05 -0.0114577 0.0200818)
(8.1095e-05 -0.0369529 0.0280243)
(7.14375e-05 -0.0271177 0.0380688)
(6.64171e-05 -0.0115867 0.0420435)
(-3.92523 0.0296914 0.0367635)
(-3.87719 -0.0124133 0.0274812)
(-3.90494 -0.0294174 0.0492819)
(-3.9217 0.00589769 0.0423352)
(-3.91584 0.0336446 0.0333381)
(-3.87644 0.0194988 0.0404016)
(-3.92384 -0.023209 0.0268144)
(-8.93038 -1.7948e-05 -0.0561331)
(-9.04937 -0.0322221 -0.0615188)
(-9.14761 -0.0252752 -0.0597723)
(-9.00895 -0.00639477 -0.0540216)
(-9.01853 0.0229154 -0.0604731)
(-9.05502 0.0371256 -0.0538548)
(-8.9318 0.00292993 -0.0667903)
(-26.678 -0.0757981 0.780208)
(-26.6038 -0.0170277 0.775975)
(-26.7829 -0.0119642 0.74895)
(-26.3954 0.00417758 0.715309)
(-26.5457 0.00396511 0.762572)
(-26.5979 -0.00167197 0.758216)
(-26.692 0.0685866 0.785519)
(26.5177 -0.0824041 0.511088)
(26.4972 -0.015131 0.53061)
(26.6527 -0.01016 0.536641)
(26.6743 0.00995831 0.540869)
(26.4475 0.0255342 0.502056)
(26.4455 0.0175903 0.510828)
(26.5177 0.0830257 0.515397)
(8.92961 0.000240743 -0.00433957)
(9.08706 -0.0234214 -0.0136269)
(9.14994 -0.0124942 -0.00858166)
(9.19459 -0.00768839 -0.0179959)
(9.0791 0.0146954 -0.00616539)
(9.07989 0.0293914 -0.00551238)
(8.93745 0.00116508 -0.0120041)
(3.92775 0.0310479 0.0486229)
(3.887 0.00104547 0.0387875)
(3.88509 -0.0167277 0.0664144)
(3.88904 0.00870814 0.0563724)
(3.8926 0.0392196 0.0537585)
(3.86863 0.0195179 0.0513054)
(3.92803 -0.0249531 0.0433389)
(5.31776e-05 0.00756735 0.0495063)
(6.65623e-05 0.00993788 0.0420849)
(8.62792e-05 0.0084176 0.0242403)
(9.00492e-05 -0.0102553 0.0219242)
(7.52981e-05 -0.0300676 0.0257021)
(6.655e-05 -0.0232981 0.048404)
(6.1692e-05 -0.0104099 0.0468972)
(-3.92699 0.0269116 0.0452904)
(-3.87679 -0.00979821 0.0379657)
(-3.89511 -0.0262041 0.0620638)
(-3.90728 0.00276562 0.0564186)
(-3.90762 0.0317167 0.0432551)
(-3.87368 0.0157992 0.0461377)
(-3.92794 -0.0247598 0.0387382)
(-8.93998 0.00210954 -0.0116904)
(-9.08594 -0.0241532 -0.0266523)
(-9.11895 -0.0203862 -0.00679663)
(-9.11135 -0.0109267 -0.0262179)
(-9.0583 0.019356 -0.0083384)
(-9.07902 0.0323436 -0.00535271)
(-8.93975 -0.00152458 -0.0145055)
(-26.5229 -0.075274 0.534176)
(-26.4819 -0.016295 0.545665)
(-26.6095 -0.0122939 0.559459)
(-26.4181 0.00227082 0.546594)
(-26.4599 0.00379339 0.522769)
(-26.4498 0.00119871 0.522312)
(-26.5209 0.0735941 0.536793)
(26.5293 -0.0772186 0.275847)
(26.524 -0.00558297 0.2973)
(26.4028 -0.00749503 0.323262)
(26.6199 0.00188735 0.318621)
(26.5205 0.014345 0.28125)
(26.4761 0.0184236 0.285715)
(26.5204 0.0835349 0.276743)
(9.01113 0.00141588 0.0404649)
(9.17119 -0.021873 0.0388192)
(9.20743 -0.0110808 0.0506834)
(9.19872 -0.00483734 0.0493994)
(9.1611 0.0111606 0.0600743)
(9.16269 0.0258117 0.0624672)
(9.00257 -0.00334628 0.0526369)
(3.93639 0.0293449 0.0729711)
(3.88387 0.00551462 0.0631493)
(3.88527 -0.0134153 0.0842917)
(3.87717 0.00596508 0.0769633)
(3.87473 0.0375885 0.0781772)
(3.8723 0.0169545 0.0756487)
(3.93326 -0.0262845 0.0708223)
(4.9374e-05 0.0039463 0.0493579)
(6.16871e-05 0.00323386 0.0451142)
(8.25934e-05 0.00538988 0.0351805)
(8.56687e-05 -0.00974766 0.0333423)
(7.08854e-05 -0.0243973 0.0344062)
(6.25397e-05 -0.0206475 0.0445806)
(5.79531e-05 -0.00969437 0.0464965)
(-3.9344 0.0255226 0.0676513)
(-3.88561 -0.00562923 0.0565481)
(-3.87963 -0.0220658 0.0815439)
(-3.88283 -0.00143755 0.0784)
(-3.87918 0.0284851 0.0721062)
(-3.88597 0.0127154 0.0733437)
(-3.9337 -0.0259694 0.0699143)
(-9.01701 0.000626128 0.0337269)
(-9.17758 -0.0198354 0.0281866)
(-9.16222 -0.0179378 0.0516434)
(-9.22068 -0.00980891 0.0411874)
(-9.18782 0.0235958 0.0543896)
(-9.14021 0.0292466 0.0577416)
(-9.00821 -0.00584857 0.0444699)
(-26.5335 -0.0708186 0.295177)
(-26.4083 -0.00926655 0.327481)
(-26.5264 -0.00974121 0.322324)
(-26.3549 -0.00182306 0.341933)
(-26.5939 -0.00545246 0.308009)
(-26.4547 0.000288984 0.28783)
(-26.525 0.0766236 0.289471)
(26.1862 -0.0795081 0.228692)
(25.9212 -0.00181771 0.241102)
(26.0982 -0.00567269 0.252306)
(26.1943 -0.00150493 0.252522)
(26.1711 0.0139447 0.235207)
(26.1831 0.0225193 0.243715)
(26.1931 0.0865705 0.232406)
(9.04651 0.00255189 0.00927616)
(9.11983 -0.0183627 0.0155635)
(9.05268 -0.00864942 0.0313903)
(9.06392 -0.00208959 0.0281459)
(9.06758 0.0178448 0.0319976)
(9.08374 0.0308574 0.0403476)
(9.04543 -0.00488579 0.0312937)
(3.89943 0.0309247 0.0308065)
(3.90372 0.00696513 0.0188975)
(3.88711 -0.0120904 0.0312146)
(3.89261 0.00689201 0.0308981)
(3.88305 0.044086 0.0308011)
(3.89439 0.0194163 0.0312638)
(3.8886 -0.0316903 0.0291343)
(4.74175e-05 0.00514443 -0.00195406)
(5.81926e-05 0.00247819 -0.000869981)
(8.14017e-05 0.00422685 -0.00429113)
(8.3384e-05 -0.0116165 -0.00626492)
(6.84281e-05 -0.0285181 -0.00550435)
(6.24019e-05 -0.0219604 -0.00630342)
(5.66864e-05 -0.0116431 -0.00325139)
(-3.89971 0.0253522 0.0244352)
(-3.94786 -0.00590228 0.0099611)
(-3.89563 -0.0203725 0.0288549)
(-3.8859 -0.00153261 0.0276126)
(-3.95927 0.0354439 0.0276073)
(-3.89832 0.01798 0.0320405)
(-3.8892 -0.0307508 0.0308117)
(-9.05508 0.00153052 0.00653039)
(-8.81368 -0.0201936 0.0233764)
(-9.07003 -0.016172 0.0271604)
(-9.05697 -0.00841443 0.0271608)
(-8.89312 0.0294897 0.0312203)
(-9.0802 0.0307597 0.0329472)
(-9.05013 -0.00934145 0.0207628)
(-26.2149 -0.0691876 0.241527)
(-26.057 -0.0109544 0.268029)
(-26.1858 -0.0130602 0.254182)
(-26.1154 -0.00260617 0.259364)
(-25.9108 -0.0115854 0.25101)
(-26.1793 -0.0013685 0.23928)
(-26.2067 0.082352 0.236912)
(37.294 -21.5888 -13.1038)
(39.1514 -15.4235 -38.6225)
(39.3452 -10.631 -45.2087)
(39.1391 -2.86067 -49.4796)
(38.5873 7.05158 -51.4738)
(37.9363 14.617 -42.9718)
(36.8672 24.1458 -11.2994)
(9.39314 -16.3677 -1.36109)
(10.1237 -16.1582 -24.9598)
(10.2683 -6.71257 -30.8909)
(10.3737 1.17033 -33.0191)
(10.2282 7.24404 -31.8952)
(10.1059 18.4885 -26.0386)
(9.44402 19.0144 -0.866882)
(3.51315 -3.86146 4.67685)
(3.688 -4.16326 0.0475363)
(3.7468 -1.66605 -3.27181)
(3.77147 1.50792 -4.45313)
(3.75267 4.06586 -3.04385)
(3.70964 6.1551 0.284326)
(3.53609 4.85142 4.92329)
(0.0621023 0.369669 4.48591)
(0.0528187 1.75276 3.48999)
(0.0493619 2.43782 2.9303)
(0.0507915 0.845551 3.19456)
(0.0508123 -1.71117 3.12237)
(0.0492506 -1.58103 3.49107)
(0.0531405 -0.270854 4.48244)
(-3.46191 -8.17953 5.41766)
(-3.69415 -9.9739 -2.76059)
(-3.75141 -6.41318 -6.84769)
(-3.77716 -1.85079 -9.84844)
(-3.73287 3.09735 -7.81733)
(-3.69634 8.36529 -2.94108)
(-3.48899 8.63785 5.34467)
(-9.90695 -26.5949 -6.91142)
(-10.5443 -26.582 -35.1347)
(-10.5987 -13.0643 -41.8102)
(-10.7375 -1.39072 -50.7842)
(-10.5422 5.09512 -44.2074)
(-10.4892 21.1729 -40.473)
(-10.0052 26.3675 -10.1367)
(-38.7016 -33.2031 -7.49977)
(-39.9819 -27.5857 -42.9633)
(-40.3959 -21.264 -57.9209)
(-40.2162 -2.38636 -71.6061)
(-40.1287 5.9032 -63.7312)
(-39.629 19.7301 -55.6504)
(-39.0329 30.5518 -17.8353)
(36.1079 -13.8192 11.8134)
(39.3652 -9.63833 -38.6575)
(39.5141 -7.93163 -55.2304)
(39.0347 -6.83359 -66.4564)
(38.3141 -3.52077 -66.7366)
(37.1134 -2.32614 -42.8267)
(35.6131 19.8014 15.8192)
(9.11976 -9.15276 16.793)
(9.94053 -3.02392 -3.77052)
(10.3351 -1.07081 -17.1465)
(10.5707 4.26497 -26.8367)
(10.3164 6.30412 -19.2331)
(9.98998 6.15721 -4.18571)
(9.20922 12.9588 18.0577)
(3.57087 -0.803935 13.5006)
(3.73166 0.319019 9.09715)
(3.82829 1.40375 7.19668)
(3.89086 2.06184 6.36987)
(3.85662 1.53885 7.646)
(3.75431 1.69273 9.49858)
(3.58855 1.83669 14.32)
(0.0323709 0.994298 12.4351)
(0.0237548 2.6319 11.4071)
(0.0219476 2.91612 10.5664)
(0.0249137 0.858903 10.2606)
(0.0255668 -2.08721 10.5215)
(0.0228398 -2.25735 11.5545)
(0.0291822 -0.966893 12.5557)
(-3.50982 -3.15778 21.0955)
(-3.72582 -2.59984 14.1422)
(-3.82269 -1.64682 10.3024)
(-3.89754 -0.378683 9.74771)
(-3.82613 0.392593 10.1079)
(-3.73131 1.80966 14.0306)
(-3.53489 3.59687 21.7301)
(-9.61221 -19.6911 24.3909)
(-10.2663 -7.58172 6.27747)
(-10.6566 -4.76777 -24.1124)
(-10.9636 4.79063 -42.5982)
(-10.6944 5.65202 -28.409)
(-10.2752 5.75665 -0.0208552)
(-9.75121 21.1212 23.7586)
(-38.125 -27.0192 22.2847)
(-39.7411 -8.04423 -37.8217)
(-40.7953 -9.04229 -70.0162)
(-40.2668 8.46553 -87.6407)
(-40.1071 2.72969 -79.3383)
(-39.4231 9.75969 -61.9906)
(-38.4674 25.2972 15.0923)
(35.8372 -7.59715 9.81227)
(39.563 -8.08538 -45.6459)
(39.5709 -8.76219 -62.5191)
(38.6759 -14.8056 -73.7479)
(37.8498 -18.7819 -72.8105)
(36.3788 -10.3213 -41.7003)
(33.0811 8.07246 18.9199)
(9.16715 -2.94469 16.4192)
(9.79935 0.531508 -4.72345)
(10.6208 8.85661 -26.5592)
(10.7642 7.09081 -30.0809)
(10.5089 7.40569 -17.8107)
(9.97454 2.84546 -1.79851)
(9.05248 4.41731 20.9139)
(3.63869 0.488216 16.102)
(3.74604 2.24354 12.8847)
(3.88659 3.37904 11.9117)
(3.95617 2.63872 10.914)
(3.91872 0.709229 12.7515)
(3.78504 -0.175737 13.4589)
(3.6491 0.350475 17.4503)
(0.0153201 0.930716 17.315)
(0.00873988 2.32774 16.2859)
(0.00663996 2.5431 15.6351)
(0.0110082 0.707415 15.2112)
(0.0142756 -1.6521 15.3834)
(0.00994494 -1.89159 16.386)
(0.0130974 -0.804942 17.6442)
(-3.5319 0.0331648 24.0521)
(-3.73018 1.19263 17.4298)
(-3.88616 1.6888 13.7341)
(-3.97681 0.696396 12.816)
(-3.88194 -1.0026 15.3115)
(-3.74369 -1.45633 18.1304)
(-3.56586 0.407094 25.569)
(-9.19305 -5.36496 30.6728)
(-9.97972 -1.34454 -1.95082)
(-10.857 11.7208 -43.4391)
(-11.0327 6.1652 -46.843)
(-10.9053 5.26896 -28.3458)
(-10.1183 1.3976 -3.73339)
(-9.33085 8.00439 33.6582)
(-35.4852 -11.0631 30.3102)
(-39.3202 1.24077 -54.3451)
(-40.6146 -3.58442 -95.4325)
(-39.9391 9.55611 -96.1568)
(-40.2068 3.81 -88.3534)
(-39.2181 9.14685 -71.182)
(-36.4 13.0822 20.7375)
(36.3872 -4.4682 0.894548)
(39.7304 -4.26328 -45.4809)
(39.5227 -13.2281 -64.3995)
(38.6949 -24.914 -72.3302)
(37.8406 -25.8868 -71.5218)
(36.8306 -18.9117 -55.4011)
(35.4335 -3.19935 -11.8016)
(9.37468 -1.14469 8.21253)
(10.2095 1.87128 -17.8894)
(10.8707 8.21919 -36.2952)
(10.8984 2.8186 -31.9541)
(10.6422 2.08361 -16.3131)
(9.88973 -3.07872 -0.116711)
(9.1755 -1.06476 12.5398)
(3.6733 0.94056 17.7809)
(3.79085 2.7986 14.9234)
(3.92536 4.19563 14.9301)
(4.01125 2.72223 16.3045)
(3.96121 0.196894 16.565)
(3.81683 -1.02641 16.9951)
(3.68695 -0.451645 19.4266)
(0.0205233 0.820413 22.0178)
(0.0168036 1.98199 21.6564)
(0.0116086 1.94864 20.8413)
(0.0112536 0.635583 20.366)
(0.0115245 -0.796158 20.7065)
(0.00581841 -0.910533 21.2054)
(0.00593925 -0.328882 21.9673)
(-3.56513 1.35593 22.7413)
(-3.70855 2.88907 19.5455)
(-3.91921 3.34345 14.2853)
(-4.01828 1.26654 15.8121)
(-3.92325 -1.2125 18.2586)
(-3.76485 -2.27187 20.1146)
(-3.60451 -0.966527 24.9231)
(-9.19513 0.631639 19.6421)
(-9.72602 4.01661 1.71649)
(-10.9172 16.3276 -48.6759)
(-11.134 8.30513 -45.8931)
(-11.0563 2.17376 -27.1619)
(-9.96194 -2.49206 2.53492)
(-9.26815 0.844185 26.6611)
(-35.3371 -1.99456 10.2564)
(-39.4034 6.23349 -54.3297)
(-40.5868 3.13804 -100.84)
(-40.1751 11.0086 -97.953)
(-40.5144 2.50357 -90.3951)
(-39.1831 2.48155 -70.5198)
(-35.3941 2.58746 13.0498)
(36.8497 -1.85664 -3.29248)
(39.7538 0.0826837 -34.6382)
(39.5417 -17.9193 -58.4212)
(39.0376 -27.7815 -69.1569)
(38.3961 -27.3848 -73.9851)
(38.14 -19.1568 -77.6517)
(38.0166 -5.53417 -69.8902)
(9.79968 -0.141246 -0.311361)
(10.7283 2.63763 -27.5613)
(10.949 -4.27277 -35.7098)
(10.8029 -12.306 -18.2825)
(10.416 -9.27797 -8.68805)
(9.82697 -8.71985 -2.84487)
(9.65598 -4.01421 -3.01464)
(3.72157 0.990575 18.439)
(3.84542 2.84324 15.2404)
(3.95794 3.98859 17.1359)
(4.03624 2.83051 19.4464)
(3.97958 0.271478 18.9782)
(3.83548 -1.17626 18.5853)
(3.73137 -0.791378 19.6016)
(0.0252606 0.811349 25.4142)
(0.0246494 1.55071 24.9022)
(0.0198638 1.31473 25.0553)
(0.0132989 -0.0855697 25.0951)
(0.00884683 -1.04526 24.5147)
(0.00507552 -0.629984 24.6238)
(0.00515894 -0.206432 25.1132)
(-3.61893 1.72958 21.6669)
(-3.71263 3.25388 19.2646)
(-3.94838 4.84293 15.3824)
(-4.03562 2.06573 19.3657)
(-3.95076 -0.807446 20.4606)
(-3.7906 -1.98889 20.61)
(-3.66049 -1.25959 23.8316)
(-9.55462 2.23757 2.52107)
(-10.0702 6.63621 -13.4847)
(-11.0384 13.3821 -51.1798)
(-11.2021 3.35575 -35.7181)
(-10.9748 -2.92956 -15.9532)
(-9.97838 -5.16471 3.52031)
(-9.52646 -3.41867 12.097)
(-37.1851 2.51747 -15.4483)
(-40.269 3.52051 -73.442)
(-40.716 3.24074 -102.633)
(-40.6477 6.3695 -100.178)
(-40.5839 -3.73463 -88.4241)
(-39.0958 0.330644 -65.7866)
(-37.2103 -4.00939 -8.04659)
(37.6421 -2.1665 -8.10512)
(40.0263 -2.8613 -27.2428)
(39.7017 -21.4096 -45.1409)
(39.3216 -27.9556 -60.8578)
(39.1519 -28.4144 -73.3968)
(38.592 -16.3595 -82.624)
(38.618 -9.14116 -88.285)
(10.2381 0.203603 -9.10386)
(11.0167 -4.79124 -26.1707)
(10.8634 -18.6373 -21.0176)
(10.679 -19.0015 -13.4849)
(10.3883 -15.0328 -14.1464)
(10.1852 -8.81548 -12.2867)
(9.97817 -2.41992 -20.7194)
(3.79479 1.39167 19.4859)
(3.89872 2.72002 16.4527)
(3.9918 3.14436 19.2613)
(4.05972 1.86307 23.4354)
(4.01184 -1.29148 22.8083)
(3.90649 -2.26172 22.2459)
(3.84229 -1.19044 21.1074)
(0.0237703 0.446755 30.6521)
(0.0252459 0.991935 30.6416)
(0.0225721 0.799937 29.3417)
(0.0180604 -0.0467646 28.5801)
(0.0146055 -0.488572 28.1674)
(0.00997652 -0.315199 28.0296)
(0.00724025 -0.0782404 27.7371)
(-3.70709 1.73819 22.527)
(-3.79644 3.4873 20.0237)
(-3.98785 4.70048 18.8034)
(-4.04731 1.93943 22.6367)
(-3.95769 -1.61479 23.1676)
(-3.85645 -1.84932 22.5743)
(-3.7742 -1.02454 24.1334)
(-9.94043 1.92136 -6.70929)
(-10.7178 5.8573 -31.6156)
(-11.245 -4.79038 -52.7504)
(-11.2612 -6.55856 -24.8584)
(-10.9357 -2.97943 -13.2822)
(-10.2445 -5.08474 -2.13619)
(-9.92106 -1.99044 2.95329)
(-38.3405 -1.33148 -36.1999)
(-40.666 -9.14805 -87.1186)
(-40.5085 -9.71668 -104.763)
(-40.7393 -10.2207 -102.885)
(-40.589 -11.9148 -86.352)
(-39.5189 4.43097 -67.7499)
(-38.066 3.26932 -33.5559)
(38.9137 -7.26709 -8.16989)
(40.2697 -12.7598 -21.787)
(40.001 -25.5946 -32.9618)
(39.5613 -25.1506 -48.2253)
(39.3794 -27.2886 -67.6831)
(38.9959 -18.6326 -86.3974)
(39.1745 -10.7073 -93.2522)
(10.6511 -3.96869 -12.6323)
(11.0272 -16.7583 -17.6027)
(10.9547 -20.9422 -16.4295)
(10.7449 -23.7951 -22.0795)
(10.6685 -24.2453 -36.2597)
(10.6414 -19.6232 -48.2987)
(10.53 -5.08184 -48.5874)
(3.83714 0.863267 18.7136)
(3.96443 1.3994 18.4451)
(4.05323 1.05461 21.7495)
(4.10971 -1.25019 25.9659)
(4.0664 -3.75786 24.6623)
(3.94265 -3.54862 20.6341)
(3.87961 -1.71309 18.3922)
(0.0162176 0.532616 31.8972)
(0.0164359 -0.491219 30.988)
(0.0158199 -2.11652 32.0267)
(0.0226789 -1.81764 32.0909)
(0.0265077 -1.4858 30.9964)
(0.0135599 -1.66589 30.2422)
(0.0102373 -0.677761 29.6726)
(-3.76016 1.48169 21.4625)
(-3.89598 2.58353 20.0923)
(-4.00634 2.85161 20.3332)
(-4.0708 0.281909 23.5213)
(-3.96354 -1.96089 23.073)
(-3.91042 -1.35928 21.2633)
(-3.8234 -0.5088 21.9767)
(-10.2227 -1.11267 -16.7313)
(-11.1963 -3.68321 -33.5185)
(-11.2796 -18.8274 -33.7841)
(-11.3311 -11.3515 -29.1468)
(-11.3143 -2.67679 -32.0415)
(-10.5463 1.87455 -16.0728)
(-10.1212 1.68959 -13.7709)
(-39.4035 -15.8455 -45.3081)
(-40.1587 -23.9066 -82.511)
(-40.0959 -28.2817 -89.7824)
(-40.489 -22.6207 -94.4899)
(-40.662 -15.6238 -88.7532)
(-39.5154 15.8877 -61.908)
(-38.5094 12.3157 -40.1049)
(39.0309 -9.8554 20.8608)
(40.5003 -3.59259 3.86715)
(40.57 -4.73016 -9.57432)
(40.2629 -0.238925 -20.2472)
(40.0426 9.25559 -33.851)
(39.9558 9.93079 -81.8595)
(40.7021 1.84262 -103.26)
(10.9487 -12.895 2.25812)
(11.1946 -17.0259 -10.1186)
(11.144 -19.3605 -12.2854)
(11.1701 -17.693 -18.2462)
(11.1949 -18.3594 -33.5251)
(11.2755 -8.28765 -63.62)
(11.3702 5.86018 -79.1315)
(3.97251 -0.800424 19.2732)
(4.0559 0.121161 19.9994)
(4.12307 -0.150953 23.4089)
(4.19392 -3.27327 25.5739)
(4.14427 -8.25273 22.3575)
(4.06565 -9.66065 14.093)
(4.00064 -2.73762 7.96883)
(0.0100428 -0.416971 29.394)
(0.0110877 -1.53617 29.937)
(0.0150467 -2.19645 30.5149)
(0.0215653 -3.44929 30.1797)
(0.0271854 -4.91159 28.5775)
(0.0404684 -3.29926 26.5455)
(0.0335202 -1.21805 26.1231)
(-3.899 0.578119 21.4856)
(-4.01171 -0.119429 18.415)
(-4.11111 -0.731731 15.6964)
(-4.13346 -0.144988 25.1447)
(-4.08138 -4.99672 21.439)
(-3.98034 -2.63706 16.5664)
(-3.89515 -0.54516 16.1223)
(-10.5929 -9.9615 4.14198)
(-11.3118 -14.527 -23.6546)
(-11.3747 -19.7646 -29.2714)
(-11.3426 -16.5302 -41.9255)
(-11.2005 -20.3655 -65.5543)
(-11.051 0.0341264 -25.4596)
(-10.0808 7.94657 -2.43987)
(-39.6739 -23.5419 -0.890929)
(-40.1318 -30.7951 -49.5259)
(-39.8842 -32.781 -64.1638)
(-40.4787 -29.7612 -81.4823)
(-40.6316 -31.2876 -90.2799)
(-40.3257 5.67862 -59.8207)
(-37.4448 7.82302 -10.0971)
(38.3472 -10.6656 27.126)
(40.4647 -0.905685 8.75178)
(40.9697 -0.552371 -4.70898)
(40.7379 0.639319 -17.0824)
(40.2722 14.843 -31.293)
(39.9037 27.1935 -83.0509)
(40.4744 17.6769 -114.345)
(10.8239 -9.43004 9.53248)
(11.3271 -8.82398 -3.10345)
(11.351 -5.91095 -6.22165)
(11.3537 -5.00982 -12.5598)
(11.2714 -8.10823 -19.8891)
(11.2736 0.991932 -54.3451)
(11.4199 15.6231 -86.7094)
(4.02365 -1.12177 21.9034)
(4.10964 0.260693 21.2645)
(4.18617 -0.441911 24.5412)
(4.21942 -3.57037 26.3987)
(4.13539 -8.60463 23.5012)
(4.05588 -10.7416 16.9155)
(3.99621 -4.09305 7.06136)
(0.00653719 -0.468277 29.6559)
(0.00435938 -1.41651 30.1251)
(0.00239536 -2.4721 30.9922)
(0.00947481 -5.06056 30.6392)
(0.0256786 -5.82128 29.2778)
(0.0401042 -3.72297 27.4013)
(0.0384361 -1.37342 26.8403)
(-3.96224 1.0222 24.8639)
(-4.07482 1.01064 21.2755)
(-4.1691 -1.79783 24.6198)
(-4.18622 -4.48735 27.849)
(-4.09054 -8.54171 23.4878)
(-4.01082 -5.73939 15.2109)
(-3.87715 -1.30808 16.0128)
(-10.6604 -8.00683 16.9462)
(-11.4364 -12.1301 -5.07711)
(-11.4856 -12.408 -8.04222)
(-11.4372 -15.9619 -35.3036)
(-11.2983 -10.5142 -66.6969)
(-11.1529 -16.468 -53.106)
(-9.73293 3.64963 -5.72316)
(-39.6667 -20.3078 9.68548)
(-40.3604 -27.5839 -48.0378)
(-40.2818 -31.8927 -65.139)
(-40.296 -27.3977 -90.0875)
(-40.4367 -30.7946 -102.66)
(-39.9163 -8.20206 -77.2087)
(-35.7433 -2.67528 -24.6424)
(37.9007 -10.0155 30.8105)
(39.8547 0.439447 8.03408)
(40.6466 2.49955 -8.14605)
(40.6616 3.58794 -22.6369)
(40.3235 22.1493 -39.4296)
(40.2249 34.271 -83.5716)
(40.5342 28.9431 -111.017)
(10.547 -7.59342 17.2861)
(11.2013 -2.51801 3.57118)
(11.3517 -0.23756 -2.77326)
(11.3411 0.892625 -8.78478)
(11.1911 -0.798734 -14.8561)
(11.2108 6.62841 -43.4899)
(11.3657 28.9072 -78.5815)
(4.04643 0.348943 25.0675)
(4.11002 -0.624962 25.4551)
(4.18103 -2.47969 27.4344)
(4.18707 -6.17609 28.078)
(4.03057 -11.1259 24.1836)
(3.97582 -11.841 12.1721)
(3.98273 -3.41579 -5.28176)
(0.00515483 0.00133789 30.8412)
(0.0059937 -0.908081 31.0875)
(-0.00159496 -2.33451 32.699)
(-0.00427034 -5.65881 32.6815)
(0.00761046 -6.62 31.3014)
(0.0272893 -5.56819 29.2326)
(0.035184 -1.77661 28.3748)
(-3.98961 0.212136 27.6554)
(-4.09438 -3.68705 26.695)
(-4.18955 -7.10172 25.6308)
(-4.22706 -10.1054 24.8155)
(-4.10011 -10.1961 21.7079)
(-3.99978 -8.69433 11.7009)
(-3.78378 -2.15345 14.12)
(-10.6721 -8.71237 20.6658)
(-11.4403 -10.7633 1.67921)
(-11.5329 -8.64689 -2.60295)
(-11.5046 -10.9114 -22.8611)
(-11.3439 3.17537 -64.3586)
(-11.1629 -14.3595 -75.1481)
(-9.82942 -2.75118 -21.2477)
(-39.5007 -16.8889 21.8099)
(-40.5086 -16.3886 -31.0963)
(-40.6715 -14.3557 -46.9938)
(-40.0576 0.219112 -86.5522)
(-40.2603 -12.4932 -109.812)
(-39.8638 -16.3186 -93.511)
(-35.3675 -6.03848 -44.4557)
(36.8011 -8.7465 31.0846)
(38.0496 -0.247102 12.9131)
(39.8795 -3.89208 -10.1926)
(40.2187 6.70829 -30.9747)
(40.2332 33.6661 -54.2851)
(40.368 42.5884 -85.5144)
(40.4675 42.0824 -95.5972)
(10.2591 -5.49595 20.2698)
(11.1292 -6.15149 12.7574)
(11.389 -2.26486 -2.9905)
(11.2926 -0.144617 -7.61982)
(11.1714 1.25687 -14.5215)
(11.2333 13.8219 -45.0235)
(11.2708 29.8739 -66.8914)
(4.0481 -0.639907 26.7116)
(4.09841 -3.86903 26.2056)
(4.13092 -5.00533 27.4442)
(4.07808 -6.96722 28.414)
(3.96799 -12.9452 21.2122)
(3.99911 -10.6005 -6.08339)
(4.09726 4.91958 -24.9196)
(0.002671 -0.847096 32.3146)
(0.00702729 -1.33225 32.4773)
(0.000361641 -1.99245 32.9622)
(-0.0132348 -3.9071 34.7118)
(0.0011882 -5.74744 34.4895)
(0.0347045 -4.63239 32.5473)
(0.0430325 -1.89408 29.9504)
(-4.01747 -4.55432 31.6811)
(-4.16947 -11.6256 16.8817)
(-4.2884 -18.8615 2.19519)
(-4.25254 -24.8546 4.87262)
(-4.14243 -19.6889 8.5179)
(-3.99317 -8.81367 3.65316)
(-3.74788 -4.87559 7.08052)
(-10.511 -9.37447 30.3926)
(-11.4435 -8.59994 7.12438)
(-11.737 -9.27925 -7.75119)
(-11.5962 -12.0533 -21.5498)
(-11.4237 13.4696 -51.377)
(-11.3324 7.20789 -78.8348)
(-10.6554 -9.55056 -45.6657)
(-38.8031 -10.2775 37.1881)
(-40.3381 -1.69017 1.81395)
(-40.9884 -6.12118 -18.1005)
(-39.8643 31.5029 -63.7929)
(-40.0433 34.0822 -103.321)
(-40.1249 -3.33673 -102.186)
(-36.222 -10.3242 -50.8571)
(35.1921 -4.54162 34.1003)
(37.9177 -6.11288 21.065)
(39.5164 20.2075 -39.7805)
(39.9189 51.5713 -69.5924)
(39.8512 64.4612 -77.9074)
(39.9497 61.013 -79.0177)
(40.1838 54.7781 -68.7066)
(10.3381 -5.23031 24.6636)
(11.1912 -9.48329 11.1143)
(11.494 -2.71296 -9.01352)
(11.3637 4.51684 -12.0085)
(11.2702 14.2955 -20.7937)
(11.2126 23.1231 -39.076)
(11.1286 32.0926 -49.9157)
(4.06104 -4.92548 25.699)
(4.12271 -9.27068 15.6901)
(4.1079 -11.3513 20.6402)
(3.99755 -9.19633 26.1303)
(3.95839 -10.0179 20.4781)
(4.06033 -4.01028 -12.396)
(4.11426 19.4714 -26.5432)
(-0.0167564 -1.2816 35.8068)
(-0.0193978 -2.05055 35.0041)
(-0.0234112 -1.44195 34.8091)
(-0.0296286 -2.26108 39.7588)
(-0.00842755 -6.51463 39.5586)
(0.0357824 -6.89621 36.5367)
(0.0541077 -2.75084 33.7395)
(-4.04985 -2.68902 35.8721)
(-4.23266 -8.33364 18.2073)
(-4.35052 -10.7592 -2.62325)
(-4.33892 -23.3756 -1.76455)
(-4.23243 -18.5995 -2.6861)
(-4.09249 -7.56522 -12.8947)
(-3.76153 -5.10614 -2.42473)
(-10.2508 -2.54226 35.291)
(-11.1341 -0.714751 22.1561)
(-11.6762 -4.33857 0.354685)
(-11.5778 0.192456 -23.1854)
(-11.4489 26.1163 -44.2011)
(-11.2952 34.7032 -60.4402)
(-11.0316 10.2671 -55.6999)
(-37.1476 -1.63145 38.4798)
(-37.527 6.66361 23.1134)
(-39.5352 3.32702 -16.4652)
(-39.3084 50.0073 -68.0313)
(-39.4316 60.4996 -93.845)
(-39.751 43.2707 -96.3576)
(-38.3667 -4.93981 -53.2569)
(34.8585 -7.91084 44.0496)
(39.365 29.2797 -35.2394)
(39.2953 85.2289 -89.8071)
(39.7096 87.6415 -85.9217)
(40.5064 86.4846 -71.1628)
(41.112 73.1948 -68.1063)
(40.9458 59.1091 -48.6036)
(10.4624 -5.79064 35.7093)
(11.3548 -8.01439 0.45005)
(11.4754 39.5783 -27.9021)
(11.4331 47.7161 -21.7254)
(11.3267 41.1899 -12.4985)
(11.2032 37.0873 -15.0965)
(11.0983 36.1955 -14.0837)
(4.09949 -5.54303 30.9512)
(4.23045 -8.63432 12.0213)
(4.24734 -5.78127 7.01563)
(4.10852 -6.52285 10.3922)
(4.03402 -6.29301 11.3904)
(4.09136 -1.05563 1.10336)
(4.05854 31.2914 -3.42475)
(-0.00409271 -0.474838 38.0235)
(-0.0246405 0.261737 37.8416)
(-0.0330356 0.369433 36.5543)
(-0.0391669 0.658775 40.7736)
(-0.0313674 -3.00237 44.4444)
(0.0141459 -4.90441 45.1387)
(0.0638766 1.49294 37.1494)
(-4.06915 0.351912 34.647)
(-4.22423 -0.913875 24.5602)
(-4.30783 13.157 4.98805)
(-4.37546 2.02781 -7.11272)
(-4.29495 -6.81538 -6.29891)
(-4.11909 6.45812 -19.6128)
(-3.72915 4.95593 3.17104)
(-10.2379 -1.12169 32.9918)
(-10.8684 4.69515 22.1894)
(-11.3437 6.15794 -2.85654)
(-11.4399 37.9252 -24.6136)
(-11.2505 65.6651 -42.1012)
(-11.0772 60.501 -45.8718)
(-10.9311 41.7898 -30.0983)
(-35.1291 -2.48413 38.9711)
(-37.8586 13.2676 -9.83463)
(-38.8795 75.5493 -74.4461)
(-38.5266 85.9816 -90.9677)
(-39.0142 77.6946 -91.2588)
(-40.0116 58.6259 -72.3299)
(-39.138 14.6854 -31.0026)
(39.2195 111.721 -47.6059)
(38.8793 121.622 -103.073)
(40.2255 110.456 -102.903)
(41.646 94.3978 -90.843)
(41.9809 91.0627 -70.3707)
(41.8552 57.0829 -41.6909)
(41.2928 4.37261 59.8178)
(11.271 47.0119 -5.11816)
(11.1496 89.7456 -50.549)
(11.2694 85.6986 -49.0965)
(11.5996 84.6238 -40.5937)
(11.6257 78.6716 -23.5576)
(11.3705 56.4787 -17.6987)
(11.0842 36.6156 23.2748)
(4.24589 13.6881 15.7812)
(4.24447 23.1175 -0.124306)
(4.25507 25.1032 0.447777)
(4.30389 24.4243 11.6493)
(4.2396 29.1611 14.8683)
(4.11771 29.4795 8.86337)
(3.95661 29.9807 27.4928)
(0.0438611 1.36612 44.3903)
(0.0170485 2.16331 35.8893)
(-0.0149537 3.90791 35.888)
(-0.0257798 5.15031 38.5971)
(-0.0341674 4.41139 43.9387)
(-0.019699 1.27197 44.4977)
(0.00087014 2.11152 54.8163)
(-4.06505 1.16941 20.6311)
(-4.26768 8.50812 -13.9617)
(-4.32581 17.8769 -19.433)