/*--------------------------------*- C++ -*----------------------------------*\
  =========                 |
  \\      /  F ield         | OpenFOAM: The Open Source CFD Toolbox
   \\    /   O peration     | Website:  https://openfoam.org
    \\  /    A nd           | Version:  6
     \\/     M anipulation  |
\*---------------------------------------------------------------------------*/
FoamFile
{
    version     2.0;
    format      ascii;
    class       volScalarField;
    location    "1";
    object      O2;
}
// * * * * * * * * * * * * * * * * * * * * * * * * * * * * * * * * * * * * * //

dimensions      [0 0 0 0 0 0 0];

internalField   nonuniform List<scalar> 
297
(
0
0
0
0
0
0
0
0
0
0
0
0
0
0
0
0
0
0
0
0
0
0
0
0
0
0
0
0.078492
0.143472
0.142115
0.196864
0.188257
0.196822
0.0870849
0.156471
0.124592
0
0.00617348
0
0.0863933
0.159307
0.121943
0
0.00561256
0
0
0.00475538
0
0.0550735
0.0410357
0.0769707
0
0.00431248
0
8.78956e-05
0.000380553
7.60468e-05
0
0
0
6.43153e-05
0.000333582
6.01059e-05
0
2.02401e-09
0
0
0
0
0
1.56079e-09
0
0
0
0
0
3.76238e-15
0
0
5.67625e-16
0
0
0.00462013
0
0.0110616
1.28601e-06
0.0224414
0
0.00418415
0
0
0.00454841
0
0
0
0
0
0.00411353
0
0
0.00360858
0
0
0
0
0
0.00324734
0
2.71934e-18
1.86438e-18
0
2.60046e-17
6.29093e-18
0
5.7853e-18
3.70702e-18
0
6.3025e-22
2.41828e-21
1.55813e-21
3.61906e-21
1.0641e-20
3.43954e-20
7.0146e-22
1.60773e-21
3.1304e-22
5.33018e-22
9.07832e-22
5.51263e-25
1.76201e-22
6.04287e-22
1.67186e-22
3.16012e-23
1.05223e-21
4.01734e-22
3.38371e-22
1.86626e-26
3.738e-31
1.70898e-21
3.17623e-25
1.02623e-29
3.93235e-22
3.69575e-26
2.33381e-30
1.69188e-25
8.80561e-30
4.81193e-32
2.536e-24
1.97168e-28
9.63708e-31
1.50477e-25
1.42255e-29
4.70104e-32
1.49414e-26
7.27096e-31
6.6429e-33
1.62386e-25
8.80699e-30
5.37163e-32
6.1777e-24
1.56695e-28
9.85364e-33
2.47573e-30
3.60411e-27
1.20306e-22
5.32317e-31
1.86485e-26
8.54175e-22
2.78011e-31
3.29278e-27
1.62712e-22
4.7247e-30
1.96863e-26
2.07485e-25
1.86669e-31
3.30373e-27
1.48312e-24
3.97585e-31
3.91343e-30
1.36897e-25
7.233e-30
8.63229e-26
1.82741e-22
5.32017e-30
4.14507e-26
4.12214e-23
8.26302e-31
3.99788e-30
1.30227e-26
4.82078e-37
2.85467e-37
5.7784e-34
2.21143e-37
1.66742e-37
7.76716e-35
9.6169e-39
9.6513e-39
4.81877e-35
2.89884e-37
3.28961e-38
2.73923e-34
1.99949e-37
7.28889e-38
2.39475e-34
2.53127e-39
2.77642e-39
3.68087e-35
6.12584e-39
1.04407e-38
2.39441e-34
1.15804e-37
4.31343e-38
5.01573e-34
7.52952e-40
5.47878e-40
2.06576e-35
1.04264e-42
6.75746e-43
1.06302e-39
3.9108e-38
1.55987e-39
8.56721e-39
4.69592e-41
1.26635e-41
2.15341e-40
2.4545e-43
5.71119e-44
7.33988e-44
1.82336e-38
2.96604e-39
4.81833e-39
1.81558e-43
5.8244e-44
4.64084e-44
2.94369e-44
5.82439e-45
7.74236e-45
8.41457e-39
1.61909e-39
2.17797e-39
5.41241e-44
1.09586e-44
1.44492e-44
1.3229e-35
1.30096e-39
2.74724e-40
6.49126e-34
2.98201e-37
7.08578e-37
2.15299e-34
5.56793e-37
1.6817e-36
1.15797e-36
3.40199e-41
2.42791e-41
2.88829e-35
9.23583e-39
6.91913e-37
1.19662e-36
2.23864e-40
1.21428e-36
1.45495e-37
2.67138e-42
5.33036e-42
2.00926e-36
1.30572e-40
4.79944e-37
1.77589e-37
1.55054e-41
1.22099e-37
5.12104e-43
4.11885e-43
2.11937e-42
1.73263e-41
1.83862e-41
1.15824e-37
1.40739e-42
2.14949e-42
5.82527e-42
3.70092e-45
9.1178e-44
4.26148e-43
2.53828e-40
5.9733e-39
6.13525e-38
4.68969e-45
6.79289e-44
5.00504e-43
4.22186e-46
1.02037e-44
8.12863e-44
1.33505e-40
3.0765e-39
2.50155e-38
7.21177e-46
1.79209e-44
1.37531e-43
)
;

boundaryField
{
    fuel
    {
        type            fixedValue;
        value           uniform 0;
    }
    primary_air
    {
        type            fixedValue;
        value           uniform 0.23;
    }
    Secondary_air_RHS
    {
        type            fixedValue;
        value           uniform 0.23;
    }
    Secondary_air_LHS
    {
        type            fixedValue;
        value           uniform 0.23;
    }
    outlet
    {
        type            inletOutlet;
        inletValue      uniform 0;
        value           nonuniform List<scalar> 
18
(
0
1.33505e-40
0
0
3.0765e-39
0
0
2.50155e-38
0
0
8.41457e-39
0
0
1.61909e-39
0
0
2.17797e-39
0
)
;
    }
    stove_body
    {
        type            fixedValue;
        value           uniform 0;
    }
    frontAndBack
    {
        type            empty;
    }
}


// ************************************************************************* //
