/*--------------------------------*- C++ -*----------------------------------*\
  =========                 |
  \\      /  F ield         | OpenFOAM: The Open Source CFD Toolbox
   \\    /   O peration     | Website:  https://openfoam.org
    \\  /    A nd           | Version:  6
     \\/     M anipulation  |
\*---------------------------------------------------------------------------*/
FoamFile
{
    version     2.0;
    format      ascii;
    class       volScalarField;
    location    "1";
    object      p;
}
// * * * * * * * * * * * * * * * * * * * * * * * * * * * * * * * * * * * * * //

dimensions      [1 -1 -2 0 0 0 0];

internalField   nonuniform List<scalar> 
297
(
121316
121316
121316
201763
201763
201763
121314
121314
121314
121316
121316
121316
201763
201763
201763
121314
121314
121314
121316
121316
121316
201764
201763
201764
121314
121316
121314
97901.3
97893
97888.5
162466
162487
162502
97881
97881.5
97880.9
97936
97835.6
97944.6
162107
162268
162114
97932.3
97837.9
97948.3
97527.2
97517.7
97590.8
159172
161084
159275
97541.4
97516.3
97576.1
96504.4
97086.8
96388
161011
160587
160894
96460.8
97080.5
96415.9
97598.5
97582.1
97527.8
162247
161846
162257
97511.5
97575.5
97550.1
97782.9
97744.7
97547.7
162307
162380
162407
97535.1
97723.1
97643.4
93912.1
97583.4
94006.8
150568
159673
150508
93883.9
97578.3
93970.3
93618.3
97595.6
93625.1
149852
159703
149726
93583.2
97590.1
93583.1
93854.6
97572.8
93777.7
150799
159961
150612
93813.1
97567
93733.8
97867.9
97870.4
97754.4
162445
162491
162468
97758
97853.1
97796.2
97860.3
97882.5
97817.2
162508
162520
162510
97814.1
97852.3
97810.8
97852.8
97881.5
97836.4
162530
162533
162525
97830.3
97845
97812.1
97876
98003
98297.2
162540
162571
162631
97864.2
97968.7
98157.7
97795.6
97820.7
98027
162527
162528
162535
97808.8
97856.5
97993.1
97736.7
97639.2
97679
162536
162522
162493
97793.2
97775.9
97781.2
98152
97971.2
97893.7
162633
162575
162526
98223.1
97993.6
97877.8
97998.9
97870.4
97832.2
162542
162539
162528
97991.2
97828.2
97801.3
97803.4
97798.7
97813.4
162508
162535
162544
97703.2
97670
97750.3
98097.9
98145
98216.8
162756
162752
162716
98389.2
98420
98399
98063.7
98097.7
98116.3
162657
162654
162620
98351.6
98363.4
98241.9
98058.1
98094.7
98037.2
162506
162535
162527
98306.1
98335.8
98139.5
97863.7
97841.1
97795.8
161759
161778
161729
97733.6
97695.5
97655.8
94178.9
94155
94153.4
155064
155058
155050
93948.9
93917.7
93927.3
87686.9
87681
87679.5
139895
139887
139874
87503.3
87497.8
87498.2
98547.7
98581.7
98533.1
162722
162759
162757
98212.2
98125.4
98076.3
98349.1
98499.7
98479.5
162612
162640
162638
98105.5
98074.9
98044
98203
98454.3
98415.3
162498
162499
162465
98016.6
98066.6
98033.1
97594.4
97636.7
97685.4
161603
161655
161641
97747
97799.8
97822.1
93769.9
93757.8
93789.4
154822
154829
154836
94052.6
94054
94078.4
87274.3
87274.4
87280.2
139572
139586
139595
87509.9
87512.3
87519.4
)
;

boundaryField
{
    fuel
    {
        type            zeroGradient;
    }
    primary_air
    {
        type            zeroGradient;
    }
    Secondary_air_RHS
    {
        type            zeroGradient;
    }
    Secondary_air_LHS
    {
        type            zeroGradient;
    }
    outlet
    {
        type            totalPressure;
        rho             rho;
        psi             none;
        gamma           1;
        p0              uniform 100000;
        value           nonuniform List<scalar> 
18
(
90379.5
100000
90651.6
90339.8
100000
90637.9
90394.6
100000
90678.9
90821.2
100000
90605.1
90784.9
100000
90557.2
90798.7
100000
90591.6
)
;
    }
    stove_body
    {
        type            zeroGradient;
    }
    frontAndBack
    {
        type            empty;
    }
}


// ************************************************************************* //
