/*--------------------------------*- C++ -*----------------------------------*\
  =========                 |
  \\      /  F ield         | OpenFOAM: The Open Source CFD Toolbox
   \\    /   O peration     | Website:  https://openfoam.org
    \\  /    A nd           | Version:  6
     \\/     M anipulation  |
\*---------------------------------------------------------------------------*/
FoamFile
{
    version     2.0;
    format      ascii;
    class       surfaceScalarField;
    location    "1";
    object      phi;
}
// * * * * * * * * * * * * * * * * * * * * * * * * * * * * * * * * * * * * * //

dimensions      [1 0 -1 0 0 0 0];

internalField   nonuniform List<scalar> 
675
(
-2.96052e-06
-1.15619e-05
0.000144053
2.98914e-06
-1.23756e-05
0.000135963
-1.15732e-05
0.000144101
9.08519e-07
1.47376e-05
0.000184739
-9.87841e-07
1.49092e-05
0.000186785
1.47497e-05
0.000184634
-1.70267e-06
0.000146106
1.71541e-06
0.000140703
0.000146139
-7.44637e-06
-2.74949e-05
0.000179958
7.51447e-06
-2.49127e-05
0.000146754
-2.75862e-05
0.000180164
4.91019e-06
3.24457e-05
0.000117654
-5.1465e-06
3.19399e-05
0.000138419
3.2518e-05
0.000117148
-5.38283e-06
0.00018508
5.41121e-06
0.000161907
0.000185208
-2.25267e-05
7.50388e-05
2.27346e-05
-2.60201e-05
7.54477e-05
5.47078e-05
-7.74156e-05
-5.4979e-05
6.85267e-06
-7.77666e-05
-2.02662e-05
2.04909e-05
0.00598719
0.00368133
-0.00642243
0.00147371
0.00638403
0.0014397
0.00634963
-0.00178577
0.000127564
-0.00395533
0.012867
-0.0010199
-0.00699175
0.0198479
-0.00568554
0.0163293
0.00472732
-0.00542114
-0.000150071
0.00116212
-0.00262834
0.0090081
0.00668171
-0.02218
-0.00819896
0.00329092
0.0153672
0.00528767
-0.0151581
0.00084129
-0.00665209
0.0253704
0.000406258
-0.00314919
0.026758
-0.005183
0.0273123
0.00845075
-0.0204978
-0.00864299
0.0151393
-0.0164174
-0.00124211
0.02071
-0.0417211
-0.00190969
0.00666533
0.00940718
0.0192845
-0.0362375
-0.0430046
-0.0205671
0.109681
0.0433962
-0.00674065
-0.0461619
-0.0193945
0.109512
-0.000880094
-0.0401318
-0.00176606
0.00930912
-0.0375422
-0.0223364
-0.0170452
-0.0184976
0.0577915
0.0200657
-0.00123913
-0.0363216
-0.00476756
-0.0181369
-0.0144122
0.0527101
0.00734961
0.0178572
0.0351661
-0.0774084
-0.00337644
0.00112919
-0.0550578
0.0634758
0.017791
0.0386425
-0.0778574
-0.0216298
-0.0166045
0.0561535
0.0206101
-0.0364017
-0.00469982
-0.0155573
0.0539911
0.00521225
-0.00882167
-0.0152236
-0.00650786
-0.00297296
-0.0215782
-0.0122276
-0.008619
0.0221131
0.010792
-0.00641292
-0.0144179
0.00328941
-0.0246168
0.0112496
0.000845417
0.00597637
-0.0115826
-0.00562194
-0.0214527
-0.00992124
-0.0100883
0.00530521
-0.0104114
-0.0179558
-8.59469e-05
-0.0135921
-0.0126918
-0.0139409
0.0140324
0.000661444
-0.0157229
0.00405532
-0.00233906
-0.012401
0.00412273
-0.0121139
0.00384836
-0.0147506
-0.0064983
-0.0135066
-0.0124073
-0.000645782
-0.00165915
-0.0466273
0.000496068
-0.000277055
0.00854462
-0.00165232
-0.0412954
-0.00246516
0.00166474
0.0972686
0.00277423
0.000279187
-0.051953
0.0016616
0.097429
-0.00064259
-0.0450239
0.000497057
0.00845004
-0.0425917
-0.000963622
-0.000591982
-0.0522608
0.000833678
-0.00019685
0.00694645
-0.000559772
-0.0470791
-0.001553
0.000596775
0.0861345
0.00179908
0.000200404
-0.0556981
0.00056759
0.0866177
-0.000959709
-0.050644
0.000834638
0.00685742
-0.0483678
-0.00218308
0.000506014
0.00193548
-0.00193738
0.000377451
-0.00185336
-0.00048533
0.00206483
0.00192632
-0.000348762
-0.0021703
0.00191546
-0.000474254
-0.000659721
-0.00113167
-0.00814785
-0.00948554
-0.000798013
-0.00378734
-0.00326336
-0.00713194
-0.0130331
0.00352676
0.00307183
-0.0118949
-0.0110806
-0.00296962
0.00162685
-0.00831962
0.00185635
-0.00949641
-0.0107038
0.00639854
-0.00639814
-0.0116803
-0.00223527
-0.00324826
-0.00383451
-0.0089567
0.0016339
0.00132255
0.00223566
-0.00632672
-0.00507272
0.00176293
0.00115055
-0.000260764
-0.00199655
-0.00994973
0.000938446
0.00018177
-0.00502765
-0.00666178
-0.00112982
-0.000974747
-0.00350512
-0.00014438
-0.00464055
-0.00609782
0.00388095
-0.00105206
-0.00904757
-0.00298772
0.00264252
0.000293258
-0.0072658
7.8545e-06
0.00188797
0.000333386
-0.00101567
0.0021698
0.00105867
-0.00407231
0.000400154
-0.00145747
-0.00208047
0.00090644
-0.00183372
-0.00162316
-0.00104675
0.000709382
-0.00322264
0.00151453
0.000179512
-0.0118597
-0.000887426
-0.000286315
-0.0121383
0.00106775
-0.000788769
0.00124595
-0.00490952
-0.0084705
-0.0114403
0.000499606
-0.00064807
-0.00922363
-0.000947515
-0.000200861
-0.0012556
0.00118846
-0.00791246
-0.00805959
-0.00039984
-0.00798269
-0.00102682
-0.00469242
-0.00454914
-0.00989898
-0.000916564
0.00057911
-0.0100309
0.000610766
-0.00126698
-0.00070494
-0.00576133
-0.00847149
-0.00785769
0.000501549
-0.000304162
-0.00625014
-0.000623306
-0.000573382
0.000529962
0.000780917
-0.00707834
-0.00712277
-4.3839e-05
-0.00728182
-0.00149387
-0.00570924
-0.00573849
-0.00345381
-3.94331e-05
-0.00492078
0.000200905
-0.00222649
-0.00845406
-0.000767606
-0.000620001
-0.000666431
-0.000472064
0.00174896
-0.00386116
-0.000486879
-0.00245599
-0.00641984
0.00809925
0.00124534
-0.00469308
-0.00465457
0.0078001
0.00125173
-0.000955782
-0.000373769
2.34719e-05
0.00881395
-0.00162693
0.00130992
-0.00724577
0.0113266
-0.00114172
-0.000114706
0.000881968
-0.00100635
0.0108048
-0.00479905
-0.00763477
0.0105989
-0.000937426
-0.000200762
0.00685247
-0.000473858
-0.00553542
-0.00553963
0.00664114
0.000776428
-0.00152396
0.000207495
0.000127943
0.00621869
0.000296453
0.00115737
-0.00683032
0.00791621
-0.000547509
-0.000483479
0.000806338
-0.000347376
0.00905736
-0.00569917
-0.00786273
0.00895043
-0.0013796
0.00050707
0.00216593
-0.00154416
-0.00616062
0.000142735
0.000496028
0.000600948
0.00140491
0.00209632
-0.00388237
0.00166852
-0.000247184
-0.000156044
0.00450134
-0.008106
0.00287302
-0.00158094
0.000947568
0.000632157
0.000209333
0.00100552
-0.0027972
0.000883805
-0.00533091
-0.000579587
-0.00141405
0.00294574
0.00377177
-0.00141688
-0.00192411
-0.000941376
-0.00164409
-0.00148718
7.14843e-05
0.00217231
-0.00507807
-0.00640566
-0.000447415
0.000984545
9.38255e-05
0.00258323
0.000538839
-0.00636809
0.000125795
-0.00841496
4.79592e-05
-0.00137639
0.0052628
0.00418846
-0.00127501
-0.00424613
-0.000290994
-0.00386449
-0.000668404
-0.000637906
0.00420833
-0.0112314
-0.0103528
-0.000685311
0.00121952
-0.000441127
0.0013159
0.00178792
-0.0101586
0.00134535
-0.0146066
-4.28492e-05
-0.00125106
0.00777975
0.00384834
-0.00423391
-0.00211188
-0.00109354
-0.00145597
-0.00292225
0.00103231
0.00605079
-0.0244396
-0.0135031
0.0056219
0.00910791
-0.0151696
0.004871
0.0100424
-0.0194496
0.0106965
-0.0204292
-0.00220822
-0.00729606
0.0263927
-0.00379563
-0.00991583
0.0194365
-0.00925571
0.0147019
0.0107592
-0.0170213
-0.00100705
-0.0225864
-0.0237639
0.0024825
0.00831288
-0.0259646
0.00216862
0.00795506
-0.0270904
0.00818122
-0.0264413
0.00457067
-0.00667773
0.0368204
0.0033988
-0.00619335
0.0347653
-0.00662088
0.0329116
0.00341604
-0.0271119
0.00308163
-0.0284421
-0.0272996
0.000564491
0.0199333
2.63003e-05
0.0199898
0.0200967
0.00251204
-0.0192881
0.00220132
-0.0193554
-0.0194712
0.000545563
-0.000203261
-0.00237757
0.000929454
-0.0070196
0.00188249
0.00155249
-0.00581125
0.00158806
0.000295463
-0.00409692
-0.000860871
-0.00202644
0.000941713
-0.000965221
-0.00252218
-0.000936321
0.00346521
-1.44961e-05
-0.00539856
0.00160622
-0.00258957
0.000666071
-0.00469027
0.00026037
-0.0110594
0.000645151
0.00135694
-0.0125024
0.00151261
-0.000571183
-0.00439062
-0.000135184
-0.00431964
-9.94805e-05
-0.000464284
-0.00499343
-0.000977253
0.00585457
-0.00274263
-0.00853265
0.00051517
-0.00631504
0.000200504
-0.00648199
0.00100495
-0.0140353
0.00319233
0.00461068
-0.0267864
0.0013505
0.00127102
-0.004111
-0.00140031
-0.00166566
4.5685e-05
-0.00173918
-0.00280176
-0.00120431
0.00845413
-0.00132016
-0.0150355
0.000760783
-0.0101381
-0.000246152
0.00138195
0.00911786
-0.0245375
-0.0116423
0.0101881
-0.0239529
0.00733884
-0.0177117
0.00402762
-0.0110427
0.0144549
0.00217789
-0.0100397
0.0192635
-0.00908823
0.0270532
-0.00506242
-0.0210243
-0.00570021
-0.0195476
-0.015041
-0.00298691
0.00642557
-0.0279825
-0.00372695
0.00593769
-0.029157
0.00636158
-0.027808
-0.00350547
-0.00835781
0.0327376
-0.00488127
-0.00808014
0.0346506
-0.00850941
0.0370388
-0.0025301
-0.0268583
-0.00264288
-0.027522
-0.0262016
0.00021539
0.0192387
-0.000555292
0.0191346
0.0190408
-0.00233648
-0.0200527
-0.0027406
-0.0199521
-0.0199011
-7.17667e-05
-0.000676916
)
;

boundaryField
{
    fuel
    {
        type            calculated;
        value           nonuniform List<scalar> 
36
(
0.000128467
0.000213657
0.000128465
0.000128467
0.000213655
0.000128466
0.000128467
0.000213657
0.000128465
-0.000128467
-0.000213655
-0.000128464
-0.000128467
-0.000213655
-0.000128465
-0.000128467
-0.000213655
-0.000128464
0
0
0
0
0
0
0
0
0
0
0
0
0
0
0
0
0
0
)
;
    }
    primary_air
    {
        type            calculated;
        value           nonuniform List<scalar> 9(-0.00321938 -0.00534252 -0.00321871 -0.00321911 -0.00534321 -0.00321873 -0.00321896 -0.00534371 -0.00321871);
    }
    Secondary_air_RHS
    {
        type            calculated;
        value           nonuniform List<scalar> 9(0.00721306 0.0115483 0.00721026 0.00718378 0.0114883 0.00718055 0.00719548 0.0115563 0.00719212);
    }
    Secondary_air_LHS
    {
        type            calculated;
        value           nonuniform List<scalar> 9(0.0072058 0.011553 0.00720364 0.00718326 0.011498 0.00718056 0.00720138 0.0115707 0.0071982);
    }
    outlet
    {
        type            calculated;
        value           nonuniform List<scalar> 
18
(
-0.0474407
0.0743528
-0.0468421
-0.0475253
0.074129
-0.0468719
-0.0474086
0.0732266
-0.0467826
-0.0464597
0.0735344
-0.0469417
-0.0465394
0.0744257
-0.047045
-0.0465091
0.0746857
-0.0469705
)
;
    }
    stove_body
    {
        type            calculated;
        value           uniform 0;
    }
    frontAndBack
    {
        type            empty;
        value           nonuniform 0();
    }
}


// ************************************************************************* //
