/*--------------------------------*- C++ -*----------------------------------*\
  =========                 |
  \\      /  F ield         | OpenFOAM: The Open Source CFD Toolbox
   \\    /   O peration     | Website:  https://openfoam.org
    \\  /    A nd           | Version:  6
     \\/     M anipulation  |
\*---------------------------------------------------------------------------*/
FoamFile
{
    version     2.0;
    format      ascii;
    class       volScalarField;
    location    "1";
    object      Qdot;
}
// * * * * * * * * * * * * * * * * * * * * * * * * * * * * * * * * * * * * * //

dimensions      [1 -1 -3 0 0 0 0];

internalField   nonuniform List<scalar> 
297
(
0
0
0
0
0.000129309
0.000214581
0
6.46547e-05
0
0
0
0
0
8.52716e-05
0
0.000107291
6.46547e-05
6.46547e-05
4.26358e-05
0
4.26358e-05
0
0
2.13179e-05
6.46547e-05
3.23274e-05
0
2.28774e-11
0
0
0
0
-1.24506e-09
0
0
-6.22532e-10
-3.11266e-10
-3.09836e-10
-3.11266e-10
0
0
4.57547e-11
0
-3.11266e-10
0
-3.11266e-10
-3.11266e-10
-3.11266e-10
0
-6.22532e-10
0
0
0
0
2.23412e-14
0
0
0
0
-6.22532e-10
0
0
1.11706e-14
0
0
0
0
-6.22532e-10
0
-6.22532e-10
-6.22532e-10
0
-1.24506e-09
0
-1.24506e-09
0
5.20171e-24
0
-1.24506e-09
0
0
0
0
-3.11266e-10
2.85967e-12
-6.22532e-10
0
-3.11266e-10
-3.11266e-10
-3.11266e-10
0
0
0
0
0
-6.22532e-10
0
-3.11266e-10
0
0
7.14918e-13
0
0
-6.22532e-10
0
0
7.14918e-13
0
1.26995e-27
0
0
0
0
0
0
2.5399e-27
0
0
0
-1.24506e-09
2.48037e-30
9.92148e-30
0
3.10046e-31
-1.24506e-09
0
0
0
3.0278e-34
0
6.20092e-31
1.55023e-31
0
6.20092e-31
-1.24506e-09
-1.24506e-09
0
-1.24506e-09
0
0
0
-1.24506e-09
0
0
-1.24506e-09
0
0
0
0
1.15501e-39
-1.24506e-09
9.2401e-39
0
9.46186e-36
0
-1.24506e-09
1.5139e-34
0
3.60941e-41
-1.24506e-09
0
-1.24506e-09
0
0
0
5.77506e-40
0
6.20092e-31
0
0
0
0
0
0
0
0
1.21112e-33
0
-1.24506e-09
-1.24506e-09
4.62005e-39
-1.24506e-09
-1.24506e-09
0
3.78474e-35
3.87558e-32
0
2.31002e-39
0
2.75376e-46
-1.24506e-09
0
0
0
0
-1.24506e-09
0
-1.24506e-09
-1.24506e-09
-1.24506e-09
0
0
0
0
0
2.15138e-48
1.76241e-44
0
4.30276e-48
-1.24506e-09
0
3.4422e-47
0
0
2.68922e-49
8.81204e-45
0
0
0
0
1.07569e-48
0
0
0
1.34461e-49
0
0
0
0
0
0
0
-1.24506e-09
0
-1.24506e-09
0
0
8.60551e-48
0
-1.24506e-09
0
0
8.20686e-54
0
0
0
5.63971e-43
0
5.50753e-46
1.40993e-43
0
0
-1.24506e-09
1.68076e-50
0
3.52482e-44
8.60551e-48
0
0
1.34461e-49
-1.24506e-09
0
0
-1.24506e-09
2.20301e-45
0
0
0
-1.24506e-09
6.88441e-47
2.62619e-52
0
0
0
0
0
0
0
0
0
-1.24506e-09
2.62619e-52
2.68922e-49
0
6.88441e-47
-1.24506e-09
0
2.62619e-52
2.56464e-55
0
-1.24506e-09
-1.24506e-09
0
0
0
0
0
)
;

boundaryField
{
    fuel
    {
        type            calculated;
        value           uniform 0;
    }
    primary_air
    {
        type            calculated;
        value           uniform 0;
    }
    Secondary_air_RHS
    {
        type            calculated;
        value           uniform 0;
    }
    Secondary_air_LHS
    {
        type            calculated;
        value           uniform 0;
    }
    outlet
    {
        type            calculated;
        value           uniform 0;
    }
    stove_body
    {
        type            calculated;
        value           uniform 0;
    }
    frontAndBack
    {
        type            empty;
    }
}


// ************************************************************************* //
