/*--------------------------------*- C++ -*----------------------------------*\
  =========                 |
  \\      /  F ield         | OpenFOAM: The Open Source CFD Toolbox
   \\    /   O peration     | Website:  https://openfoam.org
    \\  /    A nd           | Version:  6
     \\/     M anipulation  |
\*---------------------------------------------------------------------------*/
FoamFile
{
    version     2.0;
    format      ascii;
    class       volScalarField;
    location    "1";
    object      T;
}
// * * * * * * * * * * * * * * * * * * * * * * * * * * * * * * * * * * * * * //

dimensions      [0 0 0 1 0 0 0];

internalField   nonuniform List<scalar> 
297
(
292.531
292.539
292.531
292.998
293.005
292.998
292.529
292.534
292.529
292.765
293.493
292.768
293.137
294.288
293.148
292.593
293.121
292.595
308.495
363.017
308.565
307.244
467.119
307.351
300.806
324.584
300.862
674.858
509.189
555.908
370.364
361.214
364.284
669.982
488.959
611.296
856.065
897.215
990.887
680.927
512.566
652.96
883.103
906.758
968.249
851.912
914.08
998.98
721.946
704.747
726.058
884.8
916.54
970.991
641.508
500.926
733.654
957.509
721.957
1001.77
662.895
495.031
716.803
516.23
445.891
722.658
858.43
673.394
999.256
566.454
439.439
683.945
299.933
312.669
319.612
299.062
300.294
340.846
298.367
303.154
311.231
845.752
909.339
998.175
800.772
721.447
834.639
881.11
911.719
967.967
763.844
905.989
845.565
872.257
721.423
912.048
793.441
908.433
823.935
697.208
877.468
801.599
949.139
721.687
993.365
721.911
879.265
782.341
298.396
299.271
299.165
299.092
299.539
299.724
298.584
299.045
299.004
298.424
299.282
299.4
299.197
299.636
299.74
298.787
299.098
299.137
298.831
299.287
299.515
299.291
299.579
299.628
298.883
299.078
299.117
299.04
299.081
299.227
299.658
299.635
299.676
298.921
298.941
299.042
299.322
299.253
299.344
299.761
299.734
299.724
299.078
299.055
299.054
299.557
299.444
299.331
299.723
299.806
299.79
299.314
299.173
299.056
298.551
298.394
298.369
299.055
299.032
299.014
298.789
298.676
298.584
298.564
298.536
298.514
299.111
299.076
299.067
298.885
298.813
298.796
298.568
298.557
298.781
299.172
299.126
299.192
298.856
298.921
298.94
298.434
298.47
298.529
299.031
299.109
299.094
298.804
298.848
298.846
298.418
298.47
298.484
299.009
299.186
299.191
298.848
298.868
298.874
298.292
298.485
298.418
298.975
299.139
299.26
298.929
298.868
298.839
298.379
298.524
298.433
297.913
298.443
299.155
298.685
298.854
298.793
296.662
296.546
296.715
297.117
297.109
298.355
296.797
296.686
296.883
291.037
290.959
290.921
285.488
285.431
285.386
291.145
291.072
291.03
299.284
299.338
299.464
299.694
299.692
299.696
298.981
298.931
298.971
299.284
299.32
299.484
299.712
299.68
299.668
298.909
298.862
298.982
299.215
299.29
299.472
299.715
299.6
299.621
298.825
298.803
298.91
299.134
299.258
299.244
299.647
299.066
298.019
298.794
298.789
298.686
297.115
296.884
296.732
298.08
297.572
297.351
296.884
296.673
296.798
291.146
291.185
291.259
285.824
285.845
285.893
291.001
291.035
291.113
)
;

boundaryField
{
    fuel
    {
        type            fixedValue;
        value           uniform 293;
    }
    primary_air
    {
        type            fixedValue;
        value           uniform 293;
    }
    Secondary_air_RHS
    {
        type            fixedValue;
        value           uniform 293;
    }
    Secondary_air_LHS
    {
        type            fixedValue;
        value           uniform 293;
    }
    outlet
    {
        type            inletOutlet;
        inletValue      uniform 293;
        value           nonuniform List<scalar> 
18
(
293
285.825
293
293
285.845
293
293
285.893
293
293
285.488
293
293
285.43
293
293
285.386
293
)
;
    }
    stove_body
    {
        type            fixedValue;
        value           uniform 293;
    }
    frontAndBack
    {
        type            empty;
    }
}


// ************************************************************************* //
