/*--------------------------------*- C++ -*----------------------------------*\
  =========                 |
  \\      /  F ield         | OpenFOAM: The Open Source CFD Toolbox
   \\    /   O peration     | Website:  https://openfoam.org
    \\  /    A nd           | Version:  6
     \\/     M anipulation  |
\*---------------------------------------------------------------------------*/
FoamFile
{
    version     2.0;
    format      ascii;
    class       volVectorField;
    location    "1";
    object      U;
}
// * * * * * * * * * * * * * * * * * * * * * * * * * * * * * * * * * * * * * //

dimensions      [0 1 -1 0 0 0 0];

internalField   nonuniform List<vector> 
297
(
(41.8729 -0.00772516 0.206622)
(41.8739 5.69518e-06 0.199349)
(41.873 0.00780566 0.206653)
(-0.000150037 0.0209652 0.282005)
(-0.00014622 -0.00012068 0.277365)
(-0.000149757 -0.0210837 0.28201)
(-41.8732 -0.00769114 0.209108)
(-41.8739 -2.54576e-05 0.203664)
(-41.8732 0.00774225 0.209183)
(41.9041 -0.0335582 0.274524)
(42.0093 0.000186309 0.261416)
(41.9045 0.0336618 0.274706)
(-0.000148435 0.0567467 0.152895)
(-0.00013591 -0.000445908 0.276996)
(-0.000148296 -0.0571309 0.152095)
(-41.8797 -0.0279147 0.277175)
(-41.9559 7.23549e-05 0.262905)
(-41.88 0.0279244 0.277253)
(43.9515 -0.137168 0.455167)
(41.8333 0.000693927 0.350955)
(43.9517 0.137648 0.455294)
(-0.000133693 -0.00750702 0.215216)
(-5.56021e-05 -0.00263268 -0.144175)
(-0.000133112 0.0104873 0.215467)
(-43.0569 -0.120847 0.463209)
(-39.4302 0.000813296 0.398503)
(-43.0649 0.121235 0.46331)
(63.1689 6.20088 -2.77847)
(47.3233 5.02312 1.05954)
(51.6972 -1.5911 1.22909)
(-0.00160279 -0.0403872 7.09705)
(-0.000887329 1.04751 4.48957)
(-0.000585968 -0.89898 6.60069)
(-62.672 5.83686 -1.36232)
(-45.3846 3.39367 2.05507)
(-56.976 -3.71627 0.808426)
(80.8232 8.03373 -3.03501)
(84.7652 -0.048978 20.6379)
(93.4662 -7.72317 16.0652)
(-0.000554084 16.2191 65.206)
(0.000254033 0.813058 41.74)
(0.000525112 -15.9194 67.8521)
(-83.3865 8.69074 1.10825)
(-85.664 -1.82412 19.5849)
(-91.3145 -7.63379 12.7789)
(79.0031 -3.22154 -13.1401)
(86.0172 -4.45933 26.6317)
(92.5866 4.24874 -4.74011)
(0.0022644 -16.3376 89.9715)
(-0.000211506 0.578046 8.72124)
(-0.00235655 16.0024 93.9448)
(-82.0403 -3.57497 -9.7274)
(-86.2627 -3.68959 26.4548)
(-90.0103 3.52863 -7.80809)
(60.7394 -13.603 -68.789)
(46.9257 -2.97481 -30.0576)
(69.4632 16.8644 -69.8664)
(-0.00910062 -13.2329 0.330273)
(-0.00101673 2.66904 -47.8079)
(0.00609423 13.0635 7.86964)
(-62.7828 -14.1524 -68.7745)
(-46.3819 -0.978105 -29.6351)
(-67.8431 15.5569 -71.3938)
(48.8523 19.0537 -45.6233)
(42.0092 -5.7859 -41.3944)
(68.4408 -14.6043 -46.1221)
(-0.0163935 -3.03338 -16.8902)
(-0.000985572 3.48548 -38.6746)
(0.00488354 10.8638 -9.98079)
(-53.651 22.0154 -44.8014)
(-41.3983 -1.8021 -40.8134)
(-64.7738 -18.3521 -48.297)
(28.3659 8.6122 -14.4587)
(29.5534 -15.8684 -13.203)
(30.2766 -16.3644 -17.1711)
(-0.0162477 11.9569 -17.4832)
(-0.00142194 2.29795 -16.38)
(0.00714958 -2.56759 -14.5282)
(-28.285 20.33 -18.028)
(-28.688 -2.67614 -13.798)
(-29.4982 -16.8216 -16.4739)
(63.4094 -0.411291 -108.911)
(81.4739 -4.75971 23.0543)
(74.5364 3.46672 -110.985)
(-0.00524437 -15.1334 127.751)
(-0.000709076 3.69715 -62.4654)
(-0.00709006 15.042 133.492)
(-66.0505 -0.935906 -109.497)
(-81.689 -3.97576 22.8698)
(-72.2322 2.40805 -111.227)
(60.4201 -4.44186 -109.971)
(81.8596 -4.73288 22.1346)
(66.8727 7.88953 -112.118)
(-0.00593985 -15.485 144.953)
(-0.000797086 3.60285 -63.3031)
(-0.00736779 15.6319 151.74)
(-62.7632 -5.02676 -110.641)
(-82.0797 -3.89834 21.9603)
(-65.1298 6.77028 -112.425)
(63.9598 -8.58907 -97.4935)
(78.9243 -2.46827 12.4226)
(72.8051 12.0794 -100.294)
(-0.00711012 -15.1356 143.503)
(-0.000943259 3.4142 -58.9541)
(-0.00776274 15.6139 150.968)
(-66.1704 -9.18981 -97.8866)
(-79.1245 -1.8275 12.2473)
(-70.9105 10.9472 -101.031)
(28.1226 22.904 -4.97573)
(28.2008 -23.1556 -8.95358)
(28.1051 -33.7074 -9.40659)
(-0.00717518 14.5289 -6.13563)
(-0.00113466 0.256202 -4.5974)
(0.00272931 -12.5774 -5.63177)
(-28.0398 30.5644 -9.22039)
(-28.1455 8.92453 -8.02238)
(-28.1644 -25.2233 -6.484)
(28.2382 19.7434 0.622115)
(28.3276 -8.09292 1.14738)
(28.293 -23.6737 -0.807015)
(-0.00302729 6.11913 -2.81427)
(-0.00197811 -1.83753 -3.10717)
(-0.000414076 -2.96217 -1.63259)
(-28.2328 22.7474 -0.497699)
(-28.2936 1.0023 0.305368)
(-28.2953 -20.5065 -1.14126)
(28.3113 4.66585 1.28039)
(28.3518 -2.41967 -0.954193)
(28.3541 -1.71584 -4.42099)
(-0.00147769 1.41325 -3.79001)
(-0.00239062 0.284396 -0.633116)
(-0.00159378 2.02834 -3.77648)
(-28.3067 -0.649399 -3.4687)
(-28.3307 0.979061 1.99791)
(-28.3446 6.78811 -0.253451)
(28.061 -36.3527 -6.60782)
(28.3011 -32.4001 -9.77704)
(28.2276 -24.6544 -13.6401)
(-0.000767472 -19.0821 -5.31911)
(-0.00223747 -19.0855 -5.78805)
(-0.00914669 -12.708 -5.84577)
(-28.1448 -25.4382 -4.34998)
(-28.2915 -19.9465 -7.36817)
(-28.2182 -13.1062 -10.6375)
(28.1648 -29.5535 1.81815)
(28.3562 -30.2909 -4.8703)
(28.0933 -23.2985 -13.2129)
(0.000859994 -12.4893 2.78449)
(0.0023484 -13.5624 2.10191)
(-0.00222091 -10.4393 1.92741)
(-28.2345 -21.5744 -1.46221)
(-28.3254 -20.1459 -6.56762)
(-28.0729 -15.3983 -13.5328)
(28.374 -12.1114 -1.48487)
(28.4344 -17.54 -12.1639)
(28.056 -20.6064 -19.902)
(0.00371339 -1.0831 -1.94038)
(0.00898203 -1.37511 -1.33883)
(0.006702 -4.30185 1.46538)
(-28.3808 -0.285074 2.97971)
(-28.3713 -7.54523 -5.56936)
(-28.0641 -13.9106 -16.9918)
(28.1765 13.1628 -10.3244)
(28.2565 20.5775 -7.41603)
(28.1044 23.8401 -3.6673)
(0.00464842 12.4018 -5.40593)
(0.00147078 18.3283 -5.54383)
(-0.00103511 18.8921 -4.79819)
(-28.2213 21.9683 -13.4287)
(-28.26 27.9117 -9.25611)
(-28.0475 32.4142 -5.74311)
(28.0314 14.8525 -13.4451)
(28.295 19.0792 -5.86627)
(28.2469 20.2592 -1.50216)
(-0.000502642 10.3814 2.42396)
(-0.00275649 13.1691 2.05147)
(-0.00201574 12.5751 2.03899)
(-28.0994 21.4264 -13.7638)
(-28.3125 26.7124 -5.3108)
(-28.1362 26.6711 1.22028)
(28.0281 13.3615 -16.1236)
(28.3047 6.92373 -6.26423)
(28.3234 -3.39925 4.47244)
(-0.00655687 4.58969 1.78943)
(-0.0084361 3.37307 -1.74663)
(-0.00413491 2.1422 -1.60199)
(-28.0257 19.2316 -18.5599)
(-28.3795 15.4792 -11.1518)
(-28.3257 10.1591 -0.764784)
(28.2373 -7.04524 -3.70656)
(28.2134 1.78655 -10.1071)
(28.1533 7.50398 -14.8206)
(0.0190073 -4.61842 0.310565)
(0.0179593 4.12289 -5.28233)
(0.0118994 8.5748 -6.06184)
(-28.223 -4.8231 -6.71273)
(-28.2084 3.24433 -15.3733)
(-28.1165 13.4254 -20.1329)
(28.2267 -6.95818 1.502)
(28.1464 8.01018 -10.9817)
(28.0624 10.582 -19.4721)
(0.0187962 -4.24366 7.14122)
(0.0173328 5.40235 -4.18474)
(0.00819338 8.55966 -3.1186)
(-28.2085 -0.0685108 3.7689)
(-28.2049 5.14256 -18.4711)
(-28.0659 15.5802 -22.453)
(28.2186 -1.25672 5.93751)
(28.3487 9.37003 -14.3437)
(28.3155 6.79648 -25.1726)
(0.0161738 -3.66276 11.0555)
(0.0156809 5.30693 -7.26836)
(0.00666211 6.54731 -5.58673)
(-28.1843 2.24767 0.424059)
(-28.6426 4.85154 -20.5735)
(-28.2572 10.2758 -28.5674)
(28.1506 2.86003 -2.46231)
(28.2049 3.01009 -20.9058)
(28.2246 -5.46805 -29.1261)
(-0.00851956 0.94326 43.1944)
(-0.00955714 2.24843 28.5297)
(-0.00921246 -10.1165 20.1822)
(-28.185 4.30976 -3.52711)
(-28.2923 1.826 -27.3191)
(-28.276 -8.69655 -41.2125)
(27.8028 0.233659 -90.2221)
(27.7854 -0.0651807 -95.0056)
(27.8007 3.35202 -91.8159)
(-0.0156255 0.792506 67.9841)
(-0.0161381 1.72716 61.1162)
(-0.0154559 -0.21519 56.0167)
(-27.8534 -0.138858 -94.2911)
(-27.8366 0.305685 -100.028)
(-27.8573 5.08374 -94.7261)
(26.5932 0.116452 -132.582)
(26.5825 0.155694 -132.87)
(26.5787 -0.0425469 -132.76)
(-0.013134 0.506765 184.207)
(-0.013108 1.066 186.435)
(-0.0129672 0.080446 187.067)
(-26.6347 0.118608 -134.293)
(-26.6251 0.0983263 -134.67)
(-26.6207 -0.12555 -134.399)
(28.0944 -14.9134 -22.1698)
(28.1979 -3.04188 -17.9221)
(28.2476 5.10552 -7.78741)
(-0.0219571 -9.57161 -6.63882)
(-0.0298464 -3.66718 -6.48347)
(-0.0298633 4.67292 0.42277)
(-28.1905 -7.66457 -14.8725)
(-28.2598 -1.42061 -8.78436)
(-28.2915 9.21686 -2.71414)
(28.0358 -16.7918 -23.8085)
(28.1922 -6.20001 -20.6416)
(28.2263 -0.315841 5.47171)
(-0.0159112 -8.90449 -3.90425)
(-0.027728 -5.66201 -5.29823)
(-0.0284923 4.03956 8.0538)
(-28.0954 -11.341 -19.8516)
(-28.1707 -8.8419 -10.7862)
(-28.2764 9.14687 1.31753)
(28.2267 -10.4699 -31.8801)
(28.6874 -5.54505 -23.888)
(28.1898 -2.39782 -0.551239)
(-0.0121599 -6.86116 -6.2761)
(-0.0252507 -5.8001 -8.74453)
(-0.0249732 4.08395 12.0503)
(-28.3586 -7.62941 -26.3222)
(-28.3674 -9.7707 -14.8911)
(-28.2702 2.75263 6.09625)
(28.2964 8.06995 -42.4655)
(28.3273 -0.970562 -30.6913)
(28.2253 -5.07973 -4.15538)
(0.0100629 10.0422 19.5977)
(0.0107288 -1.8171 27.9289)
(0.00895931 -1.25083 44.0633)
(-28.255 5.80146 -31.0991)
(-28.2154 -2.85371 -20.357)
(-28.1659 -3.30195 -1.57527)
(27.8811 -5.15454 -97.3558)
(27.8558 -0.471389 -102.665)
(27.846 0.224677 -96.5848)
(0.0193309 0.0772396 55.7807)
(0.020204 -1.73189 61.1152)
(0.0196872 -0.910376 68.976)
(-27.8045 -3.38291 -93.3605)
(-27.784 -0.245635 -96.5023)
(-27.8052 -0.091182 -90.8947)
(26.6346 0.136493 -136.066)
(26.6389 -0.0998307 -136.376)
(26.648 -0.122128 -135.947)
(0.0169205 -0.141522 186.53)
(0.0170813 -1.10579 185.972)
(0.0171675 -0.585998 183.707)
(-26.5792 0.0288022 -133.926)
(-26.5825 -0.187308 -134.034)
(-26.5937 -0.145284 -133.71)
)
;

boundaryField
{
    fuel
    {
        type            fixedValue;
        value           uniform (0 0 0.25);
    }
    primary_air
    {
        type            fixedValue;
        value           uniform (0 0 2.5);
    }
    Secondary_air_RHS
    {
        type            fixedValue;
        value           uniform (0 58.3333 0);
    }
    Secondary_air_LHS
    {
        type            fixedValue;
        value           uniform (0 -58.3333 0);
    }
    outlet
    {
        type            pressureInletOutletVelocity;
        value           nonuniform List<vector> 
18
(
(0 0 -136.066)
(0.0169205 -0.141522 186.53)
(0 0 -133.926)
(0 0 -136.376)
(0.0170813 -1.10579 185.972)
(0 0 -134.034)
(0 0 -135.947)
(0.0171675 -0.585998 183.707)
(0 0 -133.71)
(0 0 -132.582)
(-0.013134 0.506765 184.207)
(0 0 -134.293)
(0 0 -132.87)
(-0.013108 1.066 186.435)
(0 0 -134.67)
(0 0 -132.76)
(-0.0129672 0.080446 187.067)
(0 0 -134.399)
)
;
    }
    stove_body
    {
        type            noSlip;
    }
    frontAndBack
    {
        type            empty;
    }
}


// ************************************************************************* //
