/*--------------------------------*- C++ -*----------------------------------*\
  =========                 |
  \\      /  F ield         | OpenFOAM: The Open Source CFD Toolbox
   \\    /   O peration     | Website:  https://openfoam.org
    \\  /    A nd           | Version:  6
     \\/     M anipulation  |
\*---------------------------------------------------------------------------*/
FoamFile
{
    version     2.0;
    format      ascii;
    class       volScalarField;
    location    "1.5";
    object      O2;
}
// * * * * * * * * * * * * * * * * * * * * * * * * * * * * * * * * * * * * * //

dimensions      [0 0 0 0 0 0 0];

internalField   nonuniform List<scalar> 
297
(
0
0
0
0
0
0
0
0
0
0
0
0
0
0
0
0
0
0
0
0
0
0
0
0
0
0
0
0.140681
0.0850219
0.131496
0.197166
0.168708
0.191521
0.154397
0.0927094
0.0897397
0
1.19464e-05
0
0.111522
0.121542
0.097255
0.0113466
1.39599e-05
0
0
0
0
0.0654873
0.0254222
0.0553118
0
0
0
0
0
0
0
0
0
3.47764e-05
0
0
0
0
0
0
0
0
0
0
0
0
0
0
0
0
0
0
0
0
0
0
0
0.0229364
8.07951e-07
0.0141186
0
0
0
0
0
0
0.00194537
0
0
0
0
0
0
0
0
0
0
0
0
0
0
0
0
0
0
0
0
0
0
0
0
4.5148e-20
0
0
0
0
0
4.97333e-18
1.40294e-17
3.06629e-20
7.61516e-20
1.72742e-20
0
0
3.51542e-19
5.94073e-19
3.11433e-18
1.19571e-18
0
0
2.1065e-23
0
0
1.22209e-23
0
0
0
0
2.8026e-23
2.71994e-23
0
0
0
0
0
0
0
0
0
0
0
0
0
0
0
1.00923e-24
0
0
1.54052e-23
0
0
5.61105e-23
6.96975e-20
0
1.04245e-23
0
0
0
0
0
1.16852e-22
4.48277e-20
0
0
4.33649e-22
3.59227e-23
0
0
0
5.08221e-21
7.69813e-21
0
1.75383e-28
1.84321e-28
3.7808e-28
8.95222e-25
6.61451e-24
1.41877e-23
5.90076e-24
4.64449e-23
5.01195e-23
1.14502e-27
2.26247e-28
4.71949e-28
1.31007e-23
1.52165e-23
3.36635e-23
2.50042e-23
8.96965e-23
1.00173e-22
4.9304e-28
2.16883e-28
4.16585e-28
2.27856e-23
9.5844e-24
1.00384e-23
3.37181e-23
1.06718e-22
3.04272e-21
3.072e-28
3.36321e-28
5.13118e-28
1.84405e-23
7.5365e-24
7.99434e-24
4.10363e-23
2.51275e-22
8.03722e-22
2.50728e-28
4.27795e-28
8.34187e-28
2.21816e-23
3.15099e-23
1.28608e-23
4.89965e-23
2.52127e-22
6.33155e-22
1.16708e-28
3.16866e-28
7.26295e-28
1.9118e-23
8.64391e-23
1.95741e-22
2.77551e-23
2.13892e-22
6.38535e-22
1.89491e-23
1.68817e-23
1.33052e-23
1.56522e-23
1.45576e-23
1.48942e-23
5.83068e-28
6.04219e-28
1.06072e-27
2.0782e-23
1.93173e-23
1.11452e-23
1.93101e-23
1.66514e-23
1.64872e-23
3.26374e-28
4.07571e-28
1.55867e-27
2.87707e-24
2.19292e-23
1.07368e-23
0
3.48993e-24
1.34614e-23
2.53267e-28
3.58285e-28
1.14244e-27
2.03915e-23
4.88616e-23
9.0656e-24
0
1.2445e-24
8.97423e-24
2.32279e-28
3.44008e-28
5.37909e-28
4.61495e-23
3.87424e-23
7.7463e-24
1.26288e-24
8.95196e-24
1.09341e-23
1.55588e-28
1.28485e-28
1.20439e-28
5.66213e-23
1.90674e-23
4.86665e-24
2.08779e-23
1.23432e-23
8.20813e-24
1.35137e-28
7.93019e-29
5.30187e-29
)
;

boundaryField
{
    fuel
    {
        type            fixedValue;
        value           uniform 0;
    }
    primary_air
    {
        type            fixedValue;
        value           uniform 0.23;
    }
    Secondary_air_RHS
    {
        type            fixedValue;
        value           uniform 0.23;
    }
    Secondary_air_LHS
    {
        type            fixedValue;
        value           uniform 0.23;
    }
    outlet
    {
        type            inletOutlet;
        inletValue      uniform 0;
        value           nonuniform List<scalar> 
18
(
0
2.08779e-23
0
0
1.23432e-23
0
0
8.20813e-24
0
0
1.9118e-23
0
0
8.64391e-23
0
0
1.95741e-22
0
)
;
    }
    stove_body
    {
        type            fixedValue;
        value           uniform 0;
    }
    frontAndBack
    {
        type            empty;
    }
}


// ************************************************************************* //
