/*--------------------------------*- C++ -*----------------------------------*\
  =========                 |
  \\      /  F ield         | OpenFOAM: The Open Source CFD Toolbox
   \\    /   O peration     | Website:  https://openfoam.org
    \\  /    A nd           | Version:  6
     \\/     M anipulation  |
\*---------------------------------------------------------------------------*/
FoamFile
{
    version     2.0;
    format      ascii;
    class       surfaceScalarField;
    location    "1.5";
    object      phi;
}
// * * * * * * * * * * * * * * * * * * * * * * * * * * * * * * * * * * * * * //

dimensions      [1 0 -1 0 0 0 0];

internalField   nonuniform List<scalar> 
675
(
2.26953e-06
-5.38221e-06
0.000133312
-2.2263e-06
-6.07694e-06
0.000140774
-5.36903e-06
0.000133344
-1.3081e-05
8.66516e-06
0.00021482
1.30101e-05
8.88591e-06
0.000174738
8.63411e-06
0.000214796
8.15547e-07
0.000138046
-7.1504e-07
0.000140614
0.000138117
1.94315e-06
-4.67164e-06
0.000136135
-1.81959e-06
-1.0956e-05
0.000155577
-4.75585e-06
0.000136374
-1.90685e-05
8.37205e-06
0.000220919
1.8613e-05
2.0925e-05
0.000105249
8.34859e-06
0.000220379
3.50389e-07
0.000146156
-2.08188e-07
0.0001622
0.000146345
-1.45307e-05
2.04083e-05
1.48489e-05
-5.01182e-06
2.09615e-05
5.67188e-05
-3.11722e-05
-5.74004e-05
-5.70138e-07
-3.18547e-05
-1.5377e-05
1.58727e-05
-0.00231993
0.00661165
-0.00114866
0.00167797
0.00470067
-0.00555659
0.00642457
-0.00168165
0.00215425
-0.00772747
0.0174058
0.000478276
-0.00501204
0.0166104
-0.00507131
0.0171579
-0.00555368
0.0010191
-0.00285937
-0.00455607
-0.00479162
-0.00171492
0.00915554
-0.00860358
-0.00584201
0.00767025
-0.00913866
0.00825068
-0.0157945
-0.00242899
-0.00815341
0.0370859
-0.00169246
-0.00726257
0.0306889
-0.00786602
0.0315401
-0.00247867
-0.00465085
-0.00632012
-0.00806291
-0.0189868
0.00164068
0.0254928
-0.0357403
0.000290217
0.0158282
-0.0235989
0.0260652
-0.0414711
-0.0442672
-0.024619
0.131478
0.0461925
-0.0149369
-0.028971
-0.0256988
0.129488
0.004526
-0.0339265
0.00418595
-0.0226727
-0.0404945
-0.0157304
-0.0123295
-0.0202747
0.048418
0.0050807
-0.00314434
-0.0452922
0.0277197
-0.0210688
-0.0274506
0.0536432
0.00565235
0.0180076
0.0674011
-0.103277
-0.0115491
0.00290792
-0.02934
0.0405776
0.0131323
0.0553239
-0.100948
-0.00641289
-0.0222731
0.0468317
0.0159278
-0.0469083
0.0275988
-0.0236434
0.052827
0.00151735
-0.00992368
-0.0118254
-0.0059222
-0.00860044
-0.0291436
-0.0111538
-0.0219755
0.0136903
0.0114627
0.0324269
-0.0151977
0.00835884
-0.017323
0.0110251
0.0181078
0.00663107
-0.0174273
-0.00173457
-0.0301111
-0.0142366
0.0127953
-0.00971638
-0.0148709
0.00205521
0.000989497
-0.0194393
-0.00279367
-0.0172143
0.00376353
0.00476382
0.0141937
-0.000483099
-0.00268709
-0.00967007
0.00863805
0.00625721
0.00487852
-0.0176057
-0.00903219
-0.0188038
-0.0145225
-2.39099e-05
-0.00244552
-0.039192
0.000388932
-0.000412768
-0.0235915
-0.00191044
-0.0450574
-0.00356119
0.00187399
0.121218
0.00350768
0.000351597
-0.0367987
0.00238539
0.119224
-0.000188982
-0.0377748
0.000165404
-0.0226719
-0.0438576
-0.000711594
-0.000472737
-0.0439116
0.000642553
0.000138414
-0.0250813
-0.000821892
-0.0494571
-0.00154103
0.000752419
0.112076
0.00158249
-0.000112775
-0.0396639
0.000540861
0.11001
-0.000504728
-0.0424052
0.000758999
-0.0240458
-0.0484543
-0.00143253
3.96044e-05
0.000422934
0.000787108
-0.00124809
-0.00165529
0.00101264
0.00159607
-0.0015443
-4.98071e-05
-0.000440768
0.00157096
0.0056818
-0.00363206
-0.00191791
-0.0149809
-0.00648687
-0.00144506
-0.00584569
-0.00146002
-0.00460034
-0.0176439
0.00108068
0.00141498
0.00679346
0.00128408
0.00120003
0.000582354
-0.0118104
0.00351279
-0.00083544
0.00340765
0.00500791
-0.00442464
-0.0167638
-0.0067623
-0.00645764
-0.00272461
-0.0150083
0.00777457
-0.000331114
0.00228732
-0.0116199
-0.00264796
0.00149565
0.00308076
0.002508
0.00357515
-0.0133559
0.00162442
-0.00169921
0.0025435
0.00403824
-0.00177329
-0.00151447
-0.00549725
-0.000360566
-0.00195739
0.00221267
0.0019522
0.00405554
-0.0121505
-0.00856229
0.00253709
0.00104566
-0.0126787
0.00242175
0.00240485
-0.00248165
0.00256084
0.00294717
0.00318453
0.00293451
0.00150283
-0.00286786
0.00635214
0.00211912
-0.00316084
-0.00290129
0.00624236
-0.00140118
0.00256083
-0.00203533
-0.00388457
-0.0187002
-0.000409793
0.00146587
-0.0186837
-0.00209266
0.00207197
-0.00160805
0.0018795
-0.0189582
-0.00125753
0.00244126
0.00181636
-0.00456863
-0.000472641
0.00168388
-0.00293584
0.00360072
-0.00684754
-0.0146941
0.00214633
-0.0159791
0.00081575
-0.00753872
-0.0113742
-0.0137481
-0.000543049
0.00239954
-0.0133061
0.000175086
0.0014539
-6.4427e-05
0.0012259
-0.0125884
0.000343504
0.00176256
0.00138062
9.68544e-05
-0.00107374
0.00318304
-0.000154974
0.0069098
-0.00312781
-0.0118514
0.00308961
-0.0128202
0.000717191
-0.0103099
-0.0102022
0.00562044
-0.000292871
0.00758745
-0.000518251
-0.00154163
0.0103562
0.00765162
-0.000323792
0.011061
-0.000749984
0.0015176
0.0149094
-0.00110994
-0.00113588
-0.00992618
0.0161302
0.00284635
-0.00676902
-0.0122082
0.0146503
0.00125406
0.000234839
-0.00185392
0.00154134
0.00471539
0.00152641
0.00297961
-0.00640275
0.00303763
0.00187108
0.00104681
0.000353013
0.00216981
0.0178064
0.00190334
-0.0181997
0.0178095
0.00185333
0.00138456
0.0125457
0.000242277
-0.00964432
-0.00991086
0.0112546
0.00100847
0.000529615
-0.00144071
0.00264393
-0.00260082
0.000196439
0.00746152
-0.00184879
-0.00340386
-3.77238e-05
0.00291027
0.000536172
0.000850828
0.0126083
0.00162401
-0.0121469
0.0128144
0.00159654
0.00257359
0.000756456
-0.00133999
-0.00906065
0.000398823
0.000900734
0.000582892
-0.0112317
0.00145853
0.0158943
-0.00767431
0.000233707
0.000115395
-0.00706076
0.0101292
-0.00523984
-0.00463462
0.00309037
0.00153429
0.00403492
0.00310786
-0.011778
0.0025328
-0.0107076
0.00322383
-0.00212579
0.00196896
0.00456086
-0.000332549
0.00207757
-0.00101522
0.00167921
0.0122201
-0.0143621
0.0189817
-0.00710724
-0.000247016
-0.00190781
0.00242658
0.00100559
0.00524664
0.00207662
-0.0210058
0.00150376
-0.0168753
0.00379688
-0.00169339
0.00226435
0.00411954
2.08574e-05
0.00378443
-0.000874989
0.00630539
0.0091207
-0.0251908
0.0133884
-0.011364
0.000109456
-0.00328598
0.00167903
0.00260311
0.00751839
0.00437626
-0.0361865
0.00140769
-0.0198296
-0.00252328
-0.00443822
0.0108743
-0.00764169
0.000320793
0.0129617
0.00118025
0.0147734
0.009811
-0.039457
0.00135373
-0.00259323
0.0127597
0.0152473
0.0126086
-0.0253617
-0.00166788
0.016805
-0.0362228
0.0158805
-0.0374896
-0.00992557
-0.00112463
0.0343682
-0.00721139
0.0040385
0.0228783
0.00302296
0.0202193
0.00614736
-0.0467325
0.0158255
-0.00824891
0.0316301
0.00734564
0.00688977
-0.0395828
0.00478409
0.00701652
-0.0406665
0.00751844
-0.0402113
0.0107611
-0.00200101
0.0324793
0.0124502
-0.00323382
0.0314415
0.000637465
0.0395036
-0.0041277
-0.0446739
0.00260733
-0.0182587
0.0347624
0.000726153
0.014481
2.60583e-05
0.0150862
0.0146984
0.00494108
-0.0228209
0.00465592
-0.0223183
-0.0211137
-0.0152635
-0.0157274
-0.0195625
0.00103365
-0.000430863
-0.01249
0.000341894
-0.00741505
0.00210498
-0.0145955
-0.00495281
-0.00255235
0.00168764
-0.00353126
-0.00291052
0.00182901
-0.00289899
0.00147369
-0.00394707
-0.00998322
0.00433489
-0.0112004
0.00142719
-0.0137765
0.000852957
-9.73255e-05
-0.00941359
-6.04356e-05
-0.0117188
0.00170714
-0.0257175
-0.00464966
-0.00172762
0.00578844
-0.00394984
-0.00246478
0.00353133
-0.00234325
0.00157495
-0.00519583
-0.0167224
0.0023478
-0.0212212
0.0014208
-0.00139987
-0.00125357
0.0129141
-0.00998182
-0.000364857
-0.0027725
0.0047463
-0.0404443
0.00670338
-0.00219351
0.0149352
0.00229706
-0.00571606
0.0132863
-0.0016091
0.0102276
-0.00814535
-0.0207029
0.00423267
-0.0393265
0.00403596
-0.0161231
-0.00291468
0.0319874
-0.00526878
-0.00384631
-0.00974784
0.00158323
-0.0472607
0.00815207
-0.0161098
0.0200478
0.0107493
-0.0163822
0.0232827
-0.0119614
0.0345898
0.00167541
-0.0384387
-0.0173792
-0.036593
-0.02525
-0.00274739
-0.000463375
0.0351646
0.00364942
0.0032348
-0.0194103
0.00155614
-0.0452029
-0.0121256
-0.00759785
0.0392738
-0.010246
-0.00683556
0.0314326
-0.00696919
0.0328322
-0.00537794
-0.0406821
-0.00769707
-0.0411129
-0.0399292
0.0161302
0.0213556
0.0150293
0.0223527
0.0224236
-0.00460819
-0.0147039
-0.00467923
-0.0149651
-0.0144624
-0.000115107
-0.000793424
)
;

boundaryField
{
    fuel
    {
        type            calculated;
        value           nonuniform List<scalar> 
36
(
0.000130106
0.000215682
0.000130104
0.000130106
0.000215682
0.000130104
0.000130106
0.000215682
0.000130104
-0.000130106
-0.000215682
-0.000130104
-0.000130106
-0.000215682
-0.000130104
-0.000130106
-0.000215682
-0.000130104
0
0
0
0
0
0
0
0
0
0
0
0
0
0
0
0
0
0
)
;
    }
    primary_air
    {
        type            calculated;
        value           nonuniform List<scalar> 9(-0.00319364 -0.00529092 -0.00319419 -0.00319381 -0.00529027 -0.00319437 -0.00319315 -0.00529008 -0.00319406);
    }
    Secondary_air_RHS
    {
        type            calculated;
        value           nonuniform List<scalar> 9(0.00588833 0.00948244 0.00591417 0.0058684 0.00944002 0.00589813 0.0058612 0.00946862 0.00589602);
    }
    Secondary_air_LHS
    {
        type            calculated;
        value           nonuniform List<scalar> 9(0.00591736 0.00951084 0.00590157 0.00590247 0.00946783 0.00588403 0.00590037 0.00949412 0.00587839);
    }
    outlet
    {
        type            calculated;
        value           nonuniform List<scalar> 
18
(
-0.0023198
0.0799436
-0.0552672
-0.0406573
0.0688289
-0.0553957
-0.0525925
0.0650384
-0.0551825
-0.0547969
0.0648409
-0.0522471
-0.0550605
0.0691288
-0.0401265
-0.0548917
0.0799646
-0.00210064
)
;
    }
    stove_body
    {
        type            calculated;
        value           uniform 0;
    }
    frontAndBack
    {
        type            empty;
        value           nonuniform 0();
    }
}


// ************************************************************************* //
