/*--------------------------------*- C++ -*----------------------------------*\
  =========                 |
  \\      /  F ield         | OpenFOAM: The Open Source CFD Toolbox
   \\    /   O peration     | Website:  https://openfoam.org
    \\  /    A nd           | Version:  6
     \\/     M anipulation  |
\*---------------------------------------------------------------------------*/
FoamFile
{
    version     2.0;
    format      ascii;
    class       volScalarField;
    location    "1.5";
    object      T;
}
// * * * * * * * * * * * * * * * * * * * * * * * * * * * * * * * * * * * * * //

dimensions      [0 0 0 1 0 0 0];

internalField   nonuniform List<scalar> 
297
(
291.791
291.788
291.791
292.989
292.996
292.989
291.791
291.787
291.791
291.969
292.158
291.969
293.153
294.31
293.151
291.805
291.927
291.805
307.256
315.744
307.241
296.081
449.083
296.114
295.581
295.111
295.562
348.083
366.532
356.667
306.302
323.493
311.363
336.569
374.953
390.071
466.691
408.562
454.776
381.025
356.945
392.422
450.491
418.142
451.591
480.238
378.251
455.289
405.07
400.705
406.518
486.535
390.191
453.319
418.189
371.688
405.519
467.915
443.933
458.323
418.127
369.516
408.834
426.833
365.243
365.058
468.115
430.519
458.233
394.976
364.794
411.083
383.615
346.221
332.782
468.243
365.286
457.875
346.36
329.255
378.588
479.359
371.492
455.645
437.03
440.17
427.406
484.718
370.815
459.027
453.667
370.537
428.287
443.417
440.157
441.097
457.72
369.676
430.105
433.497
370.813
420.281
464.3
440.924
454.96
436.434
369.612
421.716
333.702
322.297
306.406
468.442
346.369
422.696
310.569
314.749
325.4
321.102
317.084
302.908
443.123
330.733
309.705
306.487
309.519
309.837
318.339
317.75
309.129
347.159
321.305
313.167
307.411
309.386
308.894
301.411
300.413
299.783
390.628
304.646
304.714
314.006
303.151
303.591
302.816
301.098
300.852
348.12
307.644
304.825
310.005
303.562
303.935
307.516
306.85
306.549
317.727
316.026
312.529
308.443
304.213
304.283
303.981
303.564
306.132
304.511
302.788
338.961
299.829
300.176
300.74
305.645
305.351
316.588
314.034
384.046
418.838
302.056
301.959
306.38
308.019
307.386
315.329
341.564
357.217
350.606
312.188
308.608
308.047
303.76
303.602
303.083
302.9
303.982
303.933
299.269
300.597
299.721
304.007
303.581
302.914
302.969
304.131
304.126
299.197
302.311
302.052
304.295
303.336
302.455
306.269
316.124
329.119
298.935
303.304
312.7
302.654
302.264
301.542
304.075
310.429
316.924
298.741
302.198
304.932
299.182
298.911
297.922
300.996
307.57
310.343
295.254
296.176
301.835
292.113
292.002
291.318
292.481
291.652
291.106
291.313
292.504
305.358
299.617
300.478
300.194
304.478
304.798
304.605
303.476
304.169
304.453
301.034
301.115
300.069
304.702
305.184
305.098
302.931
303.7
304.634
305.966
301.409
299.464
308.024
306.624
305.869
302.471
303.234
304.835
300.833
299.41
297.472
306.519
305.763
302.404
301.786
302.865
302.866
296.646
294.674
293.107
304.073
303.583
300.206
296.881
297.994
298.798
300.339
290.998
291.139
286.637
290.116
292.172
291.407
292.041
292.098
)
;

boundaryField
{
    fuel
    {
        type            fixedValue;
        value           uniform 293;
    }
    primary_air
    {
        type            fixedValue;
        value           uniform 293;
    }
    Secondary_air_RHS
    {
        type            fixedValue;
        value           uniform 293;
    }
    Secondary_air_LHS
    {
        type            fixedValue;
        value           uniform 293;
    }
    outlet
    {
        type            inletOutlet;
        inletValue      uniform 293;
        value           nonuniform List<scalar> 
18
(
293
286.636
293
293
290.115
293
293
292.171
293
293
292.48
293
293
291.651
293
293
291.105
293
)
;
    }
    stove_body
    {
        type            fixedValue;
        value           uniform 293;
    }
    frontAndBack
    {
        type            empty;
    }
}


// ************************************************************************* //
