/*--------------------------------*- C++ -*----------------------------------*\
  =========                 |
  \\      /  F ield         | OpenFOAM: The Open Source CFD Toolbox
   \\    /   O peration     | Website:  https://openfoam.org
    \\  /    A nd           | Version:  6
     \\/     M anipulation  |
\*---------------------------------------------------------------------------*/
FoamFile
{
    version     2.0;
    format      ascii;
    class       volVectorField;
    location    "1.5";
    object      U;
}
// * * * * * * * * * * * * * * * * * * * * * * * * * * * * * * * * * * * * * //

dimensions      [0 1 -1 0 0 0 0];

internalField   nonuniform List<vector> 
297
(
(67.2783 -0.010181 0.201089)
(67.2774 7.68327e-05 0.190243)
(67.2783 0.0101615 0.200879)
(-0.000282777 0.0106153 0.298235)
(-0.000282213 -2.8174e-05 0.265047)
(-0.000282802 -0.0108076 0.298278)
(-67.2793 -0.0172256 0.205757)
(-67.2783 0.000189408 0.187307)
(-67.2793 0.0174226 0.205795)
(67.3201 -0.0391023 0.202505)
(67.3632 0.000226895 0.234765)
(67.32 0.0394536 0.202857)
(-0.000283198 0.0153588 0.275565)
(-0.000283091 -0.000547516 0.36141)
(-0.000283224 -0.017303 0.275202)
(-67.283 -0.0375913 0.211785)
(-67.308 0.000295215 0.236836)
(-67.2829 0.0379328 0.211941)
(69.1645 -0.320807 0.457736)
(68.6948 0.00147879 0.46995)
(69.182 0.319633 0.457807)
(-0.000280116 0.0271548 0.182374)
(-0.00028613 -0.00345286 -0.453973)
(-0.000279862 -0.0233084 0.182828)
(-67.2746 -0.259744 0.464588)
(-66.9978 0.00204869 0.482454)
(-67.2794 0.259102 0.464726)
(52.1913 -0.2026 -2.24838)
(55.3043 -0.279295 -3.19043)
(53.5409 -1.06677 -1.1678)
(0.00175779 -0.65889 4.24838)
(0.00191518 0.54356 3.95659)
(0.00301741 0.220986 5.31981)
(-50.3805 -2.65758 -3.70655)
(-56.5151 -2.64928 -2.48649)
(-58.8208 -3.30603 -1.7953)
(71.0818 3.41028 16.8493)
(62.1805 -2.42483 -0.435209)
(69.2279 -12.0201 9.28732)
(-0.00398725 5.36337 42.7002)
(-0.00131293 -0.569108 24.9627)
(0.00256662 -9.06788 42.2076)
(-68.4995 3.81167 18.3109)
(-63.6403 -4.57856 -2.67313)
(-68.7009 -7.02243 1.11352)
(72.0332 7.48148 4.62253)
(57.2543 5.32786 -14.125)
(68.2604 -15.5646 3.94855)
(0.00697132 -5.56536 59.8266)
(0.00660781 1.35077 15.9266)
(0.00239138 5.33762 58.4273)
(-72.8833 14.8525 19.1658)
(-58.9934 3.245 -7.34885)
(-67.933 -7.00435 -4.3137)
(63.6223 -5.6426 -41.7683)
(56.2283 -0.0416455 -33.2591)
(61.1324 -5.24623 -55.8666)
(0.0136606 -0.474961 23.0484)
(-0.00143624 -2.91495 -18.1864)
(-0.0172758 0.649753 13.6299)
(-63.2161 2.73203 -48.6379)
(-55.9168 2.25759 -34.2636)
(-62.1893 3.58572 -45.3427)
(65.2505 12.2829 -28.2097)
(55.369 3.10047 -39.0058)
(55.6922 -20.3699 -32.6173)
(0.00875668 2.00128 14.6798)
(-0.00477884 -1.12628 -11.8703)
(-0.012652 -1.36811 3.43569)
(-60.2461 19.1766 -27.684)
(-55.3347 0.461662 -39.5526)
(-62.8372 -15.424 -31.8563)
(58.3875 19.9281 -22.6025)
(52.6115 15.0487 -27.8445)
(50.7935 -29.0004 -31.9966)
(0.000618944 0.439002 13.5323)
(-0.00808128 0.829881 -18.9764)
(-0.0117016 1.04994 6.49154)
(-52.8379 32.5793 -31.6661)
(-50.1275 -9.06646 -31.0158)
(-57.7005 -20.8135 -24.9589)
(63.1799 10.409 -51.3859)
(54.0735 5.22145 -23.2169)
(61.3084 -17.1226 -56.5307)
(-0.0420469 -3.06673 81.6642)
(0.00474322 0.193854 -26.4067)
(0.0671083 3.45813 79.7683)
(-65.8596 18.4044 -50.3419)
(-54.0582 -0.803706 -22.4308)
(-59.5388 -10.7764 -55.0987)
(61.4653 3.53616 -56.0396)
(54.943 3.08781 -25.6426)
(56.4535 -9.8348 -60.482)
(-0.0401579 -2.04523 91.2345)
(0.00446668 -0.435057 -27.6208)
(0.0649395 2.76852 88.9709)
(-60.8106 9.13798 -54.5881)
(-54.7482 0.673423 -24.4519)
(-57.592 -4.83087 -58.9697)
(61.5999 -0.845944 -52.3784)
(55.3424 2.73937 -28.0836)
(51.4951 -8.45156 -59.8933)
(-0.0466109 -1.02999 91.005)
(0.00388311 -1.4917 -25.4764)
(0.0732973 1.98187 88.3942)
(-55.6766 7.12604 -53.6507)
(-55.4788 0.450481 -27.5138)
(-59.7088 -0.776904 -56.0329)
(49.8384 38.6322 -7.37394)
(48.2549 4.01631 -11.03)
(46.0825 -43.8463 -9.14128)
(-0.00111586 -3.49801 9.37189)
(-0.00313861 2.69952 -5.8208)
(-0.00233664 4.68507 2.52392)
(-46.7798 41.7662 -9.01951)
(-47.2817 -10.888 -8.65677)
(-48.6332 -39.4739 -7.12765)
(48.4742 33.0987 -0.302057)
(47.8483 17.6383 -1.33423)
(45.9048 -30.4397 4.07242)
(0.0128989 -1.38907 4.17867)
(-0.000371917 0.665441 -4.38803)
(-0.00653376 -4.90061 -1.3804)
(-46.4865 28.4785 3.99068)
(-46.72 -21.179 -3.12145)
(-46.7586 -34.5883 -0.868567)
(48.3266 4.22611 5.34255)
(48.1643 11.1612 2.98902)
(46.8934 10.4387 -1.10569)
(0.0119668 -5.1404 -1.20135)
(-0.000635797 2.07591 -0.665817)
(-0.00481228 7.29783 0.496329)
(-46.6493 -8.17997 -1.18372)
(-46.9195 -10.0051 2.29236)
(-46.8561 -3.66628 5.32827)
(45.3797 -50.4873 -6.70436)
(44.6479 -53.4424 -9.62329)
(44.4876 -59.2124 -11.792)
(0.0776173 7.74339 1.92292)
(0.0920275 -6.92185 -4.83271)
(0.174189 -11.3483 -8.949)
(-45.801 -42.8699 -3.02704)
(-45.2918 -47.1388 -9.72639)
(-45.6232 -28.278 -22.9089)
(45.6829 -37.4637 8.96384)
(45.8488 -43.0377 7.53624)
(45.7717 -47.3536 3.47387)
(0.0343102 9.26288 2.13802)
(0.0629182 -1.57181 4.32503)
(0.146309 -3.08945 10.0494)
(-46.0948 -35.5372 3.39044)
(-46.0575 -41.8197 -6.98289)
(-45.1687 -23.5653 -24.6907)
(46.4926 11.0127 2.77704)
(46.6099 15.3511 4.27811)
(46.2222 25.1734 8.53035)
(0.022199 16.1281 0.34716)
(0.0461929 17.192 2.74474)
(0.0772651 25.3032 8.34456)
(-46.642 -11.0348 13.9848)
(-46.2435 -1.87652 14.7972)
(-45.1831 -20.8774 -33.4816)
(45.7088 30.0594 -21.8495)
(45.651 46.3922 -12.3301)
(45.0735 43.1888 -4.9341)
(-0.156976 9.88158 -9.97021)
(-0.0775593 9.18487 -6.95965)
(-0.0536054 -1.36355 -0.337626)
(-44.6053 56.5209 -11.411)
(-44.7715 51.2589 -9.77854)
(-45.3618 48.0931 -6.96714)
(45.5001 24.6116 -23.0077)
(46.3421 40.2675 -8.93628)
(47.1614 34.6252 1.90218)
(-0.133737 0.113692 10.7546)
(-0.0598957 -8.20255 5.98076)
(-0.0259636 -11.0127 4.38645)
(-45.8869 45.1672 4.10225)
(-45.9523 40.5284 7.29538)
(-46.2379 34.9732 9.0412)
(45.8249 20.7503 -31.3681)
(46.7716 -0.122553 19.1103)
(47.837 8.70508 14.7018)
(-0.0786353 -29.2394 8.78852)
(-0.0419564 -20.6601 1.94422)
(-0.0123875 -15.5865 1.30403)
(-47.1055 -24.4589 9.0325)
(-46.9453 -14.4819 4.85362)
(-46.6366 -9.53308 3.41508)
(45.288 -10.2697 -12.6301)
(45.2729 1.40771 -34.3395)
(45.2806 21.8312 -32.1247)
(0.0648637 5.10879 -9.41605)
(-0.0567618 3.40467 -10.9386)
(-0.168756 12.2079 -10.5205)
(-43.8284 24.8895 -34.8802)
(-43.6696 32.5153 -25.9534)
(-45.0906 54.3425 -19.9796)
(45.338 -5.79018 9.98032)
(44.9074 9.53554 -42.9988)
(44.8143 17.0465 -40.7324)
(0.00196002 3.14565 11.8335)
(-0.130846 4.32141 9.86785)
(-0.191597 10.1681 10.9798)
(-44.2887 5.65675 -57.8471)
(-44.6161 23.6752 -31.9737)
(-45.8962 41.039 -6.13377)
(45.3287 0.0266229 3.02766)
(46.5198 6.75392 -54.0226)
(45.5641 10.6353 -53.3717)
(-0.0762637 -0.0471297 2.34835)
(-0.172863 -9.28992 12.3065)
(-0.18859 -22.5461 18.9364)
(-46.2383 2.5995 -74.1957)
(-45.1828 21.0977 -21.7741)
(-46.2635 -20.4203 21.4227)
(45.2971 4.77072 -18.651)
(45.6455 3.29242 -71.9068)
(45.4434 -7.58987 -86.405)
(-0.318587 0.179477 59.2753)
(-0.319544 -1.10026 34.2066)
(-0.326729 -13.4608 33.996)
(-46.0519 -9.78067 -102.892)
(-46.3042 15.0619 33.3635)
(-46.7331 -7.07053 73.345)
(44.5781 1.48114 -131.463)
(44.6129 1.09975 -137.258)
(44.4913 6.74728 -135.567)
(-0.154844 2.80105 87.1467)
(-0.153554 4.34596 71.7593)
(-0.167712 -0.0601516 70.1127)
(-44.6751 2.93475 -136.196)
(-44.9343 -4.11825 -69.9519)
(-45.5677 -1.11206 113.517)
(42.8753 0.0674501 -163.696)
(42.8894 0.322119 -164.84)
(42.7452 -0.658568 -164.108)
(0.291746 0.322592 164.703)
(0.31046 1.86582 175.389)
(0.330413 -0.332972 203.178)
(-42.1242 -5.2289 -154.402)
(-42.1182 -7.21355 -110.228)
(-43.7531 -5.28427 -2.19596)
(45.0725 -55.9744 -21.2897)
(43.6045 -33.4696 -27.0702)
(43.9179 -25.4463 -36.0903)
(0.172686 -12.7147 -10.0241)
(0.0548605 -4.44808 -10.6243)
(-0.0617442 -5.35795 -10.2694)
(-45.3135 -20.5895 -29.8747)
(-45.3094 -1.68573 -33.5336)
(-45.3607 9.96836 -12.8158)
(45.7603 -41.4496 -6.86715)
(44.4144 -24.9114 -33.1382)
(44.3789 -5.83536 -58.9747)
(0.196117 -11.2363 10.5647)
(0.138179 -4.88527 9.92749)
(0.0102861 -3.13483 12.2768)
(-45.1857 -20.2615 -40.8911)
(-45.4013 -6.40205 -42.1682)
(-45.3584 5.82457 9.64492)
(45.2547 20.4198 21.2857)
(44.892 -21.4242 -21.6577)
(46.3371 -2.40243 -75.0394)
(0.182896 19.2728 17.1759)
(0.178242 7.99341 11.5068)
(0.0879519 -0.154721 -0.140876)
(-46.0852 -11.6094 -54.1319)
(-47.2752 -2.91939 -51.8915)
(-45.2207 0.300503 6.38846)
(46.0854 7.24112 72.5968)
(45.8473 -15.3321 29.1292)
(45.8236 10.0945 -104.147)
(0.298908 12.3769 32.2127)
(0.289849 1.68091 34.3413)
(0.290187 -0.14447 59.2224)
(-45.5067 8.41225 -89.3481)
(-45.796 -4.39314 -71.8485)
(-45.3571 -5.28754 -15.7182)
(44.7823 1.0585 112.9)
(44.6844 4.10772 -74.958)
(44.286 -2.87066 -137.923)
(0.167008 -0.0260494 68.5765)
(0.153721 -4.08813 71.8455)
(0.157406 -2.60381 88.0948)
(-44.298 -6.64779 -137.47)
(-44.4248 -1.64304 -138.902)
(-44.4922 -1.34607 -132.958)
(43.0315 5.27249 -2.74374)
(41.8939 7.34736 -111.914)
(42.0509 4.98399 -155.717)
(-0.326951 0.290941 200.059)
(-0.309506 -1.70186 173.745)
(-0.291632 -0.354451 165.097)
(-42.7309 0.553255 -165.629)
(-42.8664 -0.286812 -166.191)
(-42.8548 -0.123669 -165.256)
)
;

boundaryField
{
    fuel
    {
        type            fixedValue;
        value           uniform (0 0 0.25);
    }
    primary_air
    {
        type            fixedValue;
        value           uniform (0 0 2.5);
    }
    Secondary_air_RHS
    {
        type            fixedValue;
        value           uniform (0 47.2222 0);
    }
    Secondary_air_LHS
    {
        type            fixedValue;
        value           uniform (0 -47.2222 0);
    }
    outlet
    {
        type            pressureInletOutletVelocity;
        value           nonuniform List<vector> 
18
(
(0 0 -2.74374)
(-0.326951 0.290941 200.059)
(0 0 -165.629)
(0 0 -111.914)
(-0.309506 -1.70186 173.745)
(0 0 -166.191)
(0 0 -155.717)
(-0.291632 -0.354451 165.097)
(0 0 -165.256)
(0 0 -163.696)
(0.291746 0.322592 164.703)
(0 0 -154.402)
(0 0 -164.84)
(0.31046 1.86582 175.389)
(0 0 -110.228)
(0 0 -164.108)
(0.330413 -0.332972 203.178)
(0 0 -2.19596)
)
;
    }
    stove_body
    {
        type            noSlip;
    }
    frontAndBack
    {
        type            empty;
    }
}


// ************************************************************************* //
