/*--------------------------------*- C++ -*----------------------------------*\
  =========                 |
  \\      /  F ield         | OpenFOAM: The Open Source CFD Toolbox
   \\    /   O peration     | Website:  https://openfoam.org
    \\  /    A nd           | Version:  6
     \\/     M anipulation  |
\*---------------------------------------------------------------------------*/
FoamFile
{
    version     2.0;
    format      ascii;
    class       volScalarField;
    location    "1.5";
    object      O2;
}
// * * * * * * * * * * * * * * * * * * * * * * * * * * * * * * * * * * * * * //

dimensions      [0 0 0 0 0 0 0];

internalField   nonuniform List<scalar> 
297
(
0
0
0
0
0
0
0
0
0
0
0
0
0
0
0
0
0
0
0
0
0
0
0
0
0
0
0
0.0568381
0.0714644
0.140298
0.151633
0.159886
0.201814
0.0561262
0.0708403
0.140388
0
8.33692e-06
0.0190853
0.0664831
0.117209
0.101041
0
8.36984e-06
0.0197208
0
0
0
0.044153
0.027721
0.0726938
0
0
0
0
0
0
0
0
0
8.48626e-07
8.55327e-10
0
0
0
0
0
0
0
0
0
0
0
0
0
0
0
0
0
0
0
0
0
0
0.00339999
7.00519e-07
0.0313677
0
0
0
0
0
0
0
0
0.00934432
0
0
0
0
0
0
0
0
0
0
0
0
4.04489e-14
0
0
1.38776e-13
0
0
2.79135e-14
0
0
1.18966e-17
4.50622e-17
6.98434e-17
0
0
0
7.51144e-18
1.50439e-16
6.58585e-16
2.27639e-18
3.50992e-17
5.05395e-17
1.37048e-17
0
0
6.50127e-17
1.15538e-16
9.08479e-17
0
6.88854e-23
2.87428e-24
0
0
6.23054e-23
0
0
3.11248e-27
0
0
0
0
0
0
0
0
0
2.64646e-21
9.86208e-22
0
0
0
0
0
7.76615e-24
0
2.26859e-24
2.06288e-21
1.38755e-18
1.09927e-20
2.14986e-19
1.16393e-17
8.06315e-20
8.24088e-20
6.71495e-19
1.52411e-23
2.80304e-22
6.01424e-19
2.86224e-19
6.8943e-18
7.31209e-18
1.48079e-19
2.9833e-19
7.32347e-19
6.66626e-23
3.31037e-22
3.65781e-19
5.44614e-18
8.26706e-18
1.21449e-17
4.65834e-18
6.69391e-18
1.05117e-17
4.81675e-25
8.1572e-25
1.59081e-24
2.00084e-20
1.57716e-20
1.75488e-20
3.37895e-20
9.14632e-20
9.12092e-20
7.43327e-25
2.85178e-24
6.13642e-24
3.03042e-20
2.14477e-20
2.22551e-20
5.91553e-20
1.43321e-19
1.40328e-19
8.07015e-25
4.16764e-24
1.34566e-23
3.49012e-20
6.83168e-19
2.48696e-18
7.80819e-20
1.77426e-19
3.46169e-18
1.00229e-24
5.24538e-24
9.55084e-24
8.94503e-20
5.67698e-19
1.25093e-18
8.88004e-20
3.68698e-19
1.82035e-18
5.48278e-25
2.76477e-24
6.62177e-24
5.23577e-20
3.49675e-19
8.1468e-19
1.08057e-19
3.98378e-19
1.55329e-18
2.95255e-25
1.01499e-24
2.90126e-24
5.36467e-20
2.82155e-19
8.14586e-19
9.03728e-20
4.054e-19
1.42771e-18
5.25255e-27
5.21375e-27
6.62574e-27
3.3709e-27
1.8441e-27
2.41593e-27
7.16273e-32
2.44651e-32
4.27177e-32
1.37037e-27
1.3861e-27
6.6644e-27
0
1.95064e-27
2.57781e-27
0
0
2.23036e-32
0
0
6.67471e-27
0
0
2.58185e-27
0
0
1.59236e-32
1.12539e-25
1.21476e-26
6.70966e-27
0
0
0
0
0
1.14415e-32
1.03874e-25
2.71994e-26
6.7344e-27
0
0
2.3686e-28
8.55072e-32
4.59798e-32
1.55878e-32
9.6065e-26
2.70551e-26
6.06552e-27
1.9761e-26
8.29513e-27
2.35637e-27
1.08867e-31
4.60558e-32
1.30734e-32
)
;

boundaryField
{
    fuel
    {
        type            fixedValue;
        value           uniform 0;
    }
    primary_air
    {
        type            fixedValue;
        value           uniform 0.23;
    }
    Secondary_air_RHS
    {
        type            fixedValue;
        value           uniform 0.23;
    }
    Secondary_air_LHS
    {
        type            fixedValue;
        value           uniform 0.23;
    }
    outlet
    {
        type            inletOutlet;
        inletValue      uniform 0;
        value           nonuniform List<scalar> 
18
(
0
1.9761e-26
0
0
8.29513e-27
0
0
2.35637e-27
0
0
5.36467e-20
0
0
2.82155e-19
0
0
8.14586e-19
0
)
;
    }
    stove_body
    {
        type            fixedValue;
        value           uniform 0;
    }
    frontAndBack
    {
        type            empty;
    }
}


// ************************************************************************* //
