/*--------------------------------*- C++ -*----------------------------------*\
  =========                 |
  \\      /  F ield         | OpenFOAM: The Open Source CFD Toolbox
   \\    /   O peration     | Website:  https://openfoam.org
    \\  /    A nd           | Version:  6
     \\/     M anipulation  |
\*---------------------------------------------------------------------------*/
FoamFile
{
    version     2.0;
    format      ascii;
    class       volScalarField;
    location    "1.5";
    object      O2;
}
// * * * * * * * * * * * * * * * * * * * * * * * * * * * * * * * * * * * * * //

dimensions      [0 0 0 0 0 0 0];

internalField   nonuniform List<scalar> 
297
(
0
0
0
0
0
0
0
0
0
0
0
0
0
0
0
0
0
0
0
0
0
0
0
0
0
0
0
0.00274451
0.00660566
0.00262818
0.00980823
0.0105216
0.00989412
0.00307992
0.00747629
0.00301616
0
0.0010975
0
0.00130438
0.00718743
0.00122345
0
0.00209563
0
0
0.00102558
0
0.000549608
0.000843702
0.000530786
0
0.00195681
0
8.09362e-05
0.000469878
5.58948e-05
0
0.000104235
0
0.000198603
0.000783473
0.000158107
0
3.24353e-09
0
0
0
0
0
5.08603e-09
0
0
4.65153e-14
2.79159e-14
0
0
0
0
7.22194e-14
2.83961e-14
0
0.00101678
0
0
0.000111342
0
0
0.00195529
0
0
0.00101231
0
0
0.000104137
0
0
0.00195105
0
0
0.000999804
0
0
0.000104182
0
0
0.00193275
0
0
1.53562e-18
6.09009e-19
0
4.57873e-19
9.19318e-19
0
1.88551e-18
6.70523e-19
2.01106e-26
4.83415e-22
6.95827e-23
9.6248e-26
3.31533e-23
5.22142e-23
8.13571e-24
2.60379e-22
5.2036e-23
8.84625e-26
6.40759e-23
4.27291e-23
8.81387e-26
2.03836e-25
2.71926e-25
3.13471e-23
5.56294e-23
9.65134e-24
7.30115e-24
1.75712e-26
1.20207e-30
1.15794e-23
7.93364e-28
6.39139e-32
7.83346e-24
1.5356e-28
1.69512e-33
7.64084e-25
2.38509e-25
9.52327e-30
2.09361e-26
1.11032e-26
3.22054e-31
1.01419e-27
1.13357e-29
1.81405e-33
3.6676e-23
1.03747e-24
2.67855e-29
2.65525e-25
8.0715e-28
4.79059e-32
1.42631e-26
5.55072e-29
4.44528e-33
2.87959e-34
2.46346e-31
0
1.16641e-31
3.43606e-28
0
2.20739e-30
4.74954e-27
2.37162e-26
2.07656e-33
6.92223e-30
1.11768e-28
2.58863e-31
7.82705e-27
8.66311e-27
8.12786e-30
1.20997e-25
3.56702e-25
5.84788e-33
3.99757e-29
3.81141e-27
7.32126e-32
5.6497e-28
9.34068e-26
1.34871e-29
5.2564e-25
2.05789e-23
2.41612e-46
1.38345e-42
3.37883e-38
2.08962e-42
2.64145e-39
1.34927e-35
4.4581e-42
1.32048e-38
1.97485e-34
3.28792e-46
3.40361e-42
9.02457e-38
1.79812e-42
1.13075e-39
1.83762e-35
3.74919e-42
9.89169e-39
3.26389e-34
5.04915e-46
1.49629e-42
9.61236e-38
1.76406e-42
5.83192e-40
1.28922e-35
3.6679e-42
4.38879e-39
2.36022e-34
6.07034e-46
8.23028e-45
3.17234e-43
1.72241e-42
5.13425e-41
6.93383e-40
3.60796e-42
3.56364e-41
1.22675e-39
5.46348e-47
6.59696e-46
3.3259e-45
6.6808e-42
8.23163e-41
4.40524e-40
4.88418e-47
9.16015e-46
4.51556e-45
1.68548e-47
2.05517e-46
9.81182e-46
3.17254e-42
3.83403e-41
1.84778e-40
1.68637e-47
2.05859e-46
9.81484e-46
1.31621e-34
1.71001e-38
1.48901e-41
8.99557e-36
1.59151e-39
7.05366e-42
8.09705e-38
2.95561e-42
3.61898e-45
4.95401e-34
2.44012e-38
1.33661e-41
2.75219e-35
2.47464e-39
6.44891e-42
8.47346e-38
3.97284e-42
3.31877e-45
4.88801e-34
9.0079e-39
1.28426e-41
2.53196e-35
1.18336e-39
6.12059e-42
7.80507e-38
1.39669e-42
3.21918e-45
2.58946e-39
6.5581e-41
1.15904e-41
1.54124e-39
1.27507e-40
5.83057e-42
4.3696e-43
2.66296e-44
3.18743e-45
8.83162e-45
1.81604e-45
1.25892e-46
1.02154e-39
2.06316e-40
1.84807e-41
6.53076e-45
1.3686e-45
1.24422e-46
2.33778e-45
5.26316e-46
4.91055e-47
4.36298e-40
9.73989e-41
9.18677e-42
2.33724e-45
5.25532e-46
4.90898e-47
)
;

boundaryField
{
    fuel
    {
        type            fixedValue;
        value           uniform 0;
    }
    primary_air
    {
        type            fixedValue;
        value           uniform 0.23;
    }
    Secondary_air_RHS
    {
        type            fixedValue;
        value           uniform 0.23;
    }
    Secondary_air_LHS
    {
        type            fixedValue;
        value           uniform 0.23;
    }
    outlet
    {
        type            inletOutlet;
        inletValue      uniform 0;
        value           nonuniform List<scalar> 
18
(
0
4.36298e-40
0
0
9.73989e-41
0
0
9.18677e-42
0
0
3.17254e-42
0
0
3.83403e-41
0
0
1.84778e-40
0
)
;
    }
    stove_body
    {
        type            fixedValue;
        value           uniform 0;
    }
    frontAndBack
    {
        type            empty;
    }
}


// ************************************************************************* //
