/*--------------------------------*- C++ -*----------------------------------*\
  =========                 |
  \\      /  F ield         | OpenFOAM: The Open Source CFD Toolbox
   \\    /   O peration     | Website:  https://openfoam.org
    \\  /    A nd           | Version:  6
     \\/     M anipulation  |
\*---------------------------------------------------------------------------*/
FoamFile
{
    version     2.0;
    format      ascii;
    class       volScalarField;
    location    "1.5";
    object      p;
}
// * * * * * * * * * * * * * * * * * * * * * * * * * * * * * * * * * * * * * //

dimensions      [1 -1 -2 0 0 0 0];

internalField   nonuniform List<scalar> 
297
(
104650
104659
104650
174382
174380
174382
104650
104659
104650
104656
104639
104656
174384
174387
174384
104656
104639
104656
104650
104659
104650
174381
174380
174381
104650
104659
104650
96534.3
96547.2
96542.5
160114
160154
160096
96399.1
96407
96404.8
96832.4
96248.8
96904.2
159633
160261
159698
96649.9
96056
96701.5
91902.5
91950.2
91973.2
148091
154172
148462
92247.5
92310.4
92287.1
88911.7
92548.2
88611
152511
152381
152805
89147.7
92696.8
88749.8
95010.4
95539.5
94875.8
158535
158300
158530
95025.8
95462.3
94789.3
94924.3
95669.4
95003.9
158217
159277
158259
95031.2
95652.6
94880.9
66111.7
88171.1
66241.9
108990
146955
108702
67697.5
91410.7
68180.9
65878.5
87948.7
66041.2
106555
146093
106130
67224.2
90842.9
67788.8
68686
88372.8
68975.9
109219
146444
108764
69647.4
90828
70308.2
95976
96226.1
95988
159722
160276
159641
96002.8
96226.6
95952.4
96167.2
96228.8
96121.6
160117
160390
160034
96147.4
96224.9
96129.9
96189.8
96219.7
96135.2
160301
160388
160214
96164.2
96215.5
96153.5
96393.7
96765.1
97542.8
159987
160250
160738
96369.6
96720.2
97502.8
96198
96417.4
96961.5
160012
160111
160355
96225.7
96360.4
96846.4
96165.7
96115
95995
160160
160103
160072
96107
95932.8
95718.8
97508.8
96737.4
96394.5
160782
160309
160059
97546.2
96781.4
96413.3
96858.9
96380
96254.5
160408
160174
160085
96978
96441.6
96219.5
95746.4
95958.4
96134.1
160132
160166
160232
96028.5
96145.7
96193.4
99181.8
98864.2
98315
162301
162006
161466
99141
98837.5
98312.3
98725.8
98354
97757.5
161739
161486
160970
98700.5
98358.4
97802.7
98150
97755.9
97040.4
161034
160749
160351
98136.1
97772.7
97129.1
95404.1
95278.9
95065.8
157876
157747
157627
95422.6
95312.7
95115.8
88710.3
88766.3
88829.8
147183
147175
147171
88732.9
88782.1
88841.7
81108.7
81108.6
81110.4
131023
130995
130972
81117.4
81117.4
81119.6
98325.3
98862.3
99173.8
161438
161990
162292
98322.5
98880.1
99203.2
97802.7
98373.1
98723.8
160931
161460
161719
97756.9
98361.9
98738.7
97114.7
97772.1
98144.3
160299
160707
160999
97027.5
97751.4
98150.3
95056.1
95256.2
95369
157521
157643
157774
95010.1
95225.4
95351.7
88742.2
88681.6
88630.7
147006
147010
147019
88734.5
88670.6
88614
81021.4
81019.3
81019.3
130824
130848
130878
81013.6
81011.8
81011.9
)
;

boundaryField
{
    fuel
    {
        type            zeroGradient;
    }
    primary_air
    {
        type            zeroGradient;
    }
    Secondary_air_RHS
    {
        type            zeroGradient;
    }
    Secondary_air_LHS
    {
        type            zeroGradient;
    }
    outlet
    {
        type            totalPressure;
        rho             rho;
        psi             none;
        gamma           1;
        p0              uniform 100000;
        value           nonuniform List<scalar> 
18
(
84860.1
100000
84851.6
84820.6
100000
84811.6
84800.1
100000
84788.1
84884.5
100000
84900.3
84907.6
100000
84920.1
84947.6
100000
84959.1
)
;
    }
    stove_body
    {
        type            zeroGradient;
    }
    frontAndBack
    {
        type            empty;
    }
}


// ************************************************************************* //
