/*--------------------------------*- C++ -*----------------------------------*\
  =========                 |
  \\      /  F ield         | OpenFOAM: The Open Source CFD Toolbox
   \\    /   O peration     | Website:  https://openfoam.org
    \\  /    A nd           | Version:  6
     \\/     M anipulation  |
\*---------------------------------------------------------------------------*/
FoamFile
{
    version     2.0;
    format      ascii;
    class       surfaceScalarField;
    location    "1.5";
    object      phi;
}
// * * * * * * * * * * * * * * * * * * * * * * * * * * * * * * * * * * * * * //

dimensions      [1 0 -1 0 0 0 0];

internalField   nonuniform List<scalar> 
675
(
-1.15266e-06
-4.76311e-05
8.60965e-05
1.14965e-06
-4.93211e-05
0.00010213
-4.76174e-05
8.59072e-05
1.8928e-06
4.76312e-05
-2.18169e-05
-1.91462e-06
4.93211e-05
-2.3747e-05
4.76175e-05
-2.15635e-05
-1.15261e-06
8.60971e-05
1.14972e-06
0.000102132
8.59088e-05
1.27904e-06
-1.65155e-07
0.00010305
-1.31717e-06
-6.71725e-06
8.60168e-05
-1.62469e-07
0.000103063
6.36336e-06
1.65484e-07
-2.97658e-05
-6.38996e-06
6.71831e-06
-1.7831e-05
1.62765e-07
-2.97917e-05
1.27929e-06
0.00010305
-1.31715e-06
8.6013e-05
0.000103062
-3.5774e-06
5.4155e-05
3.53643e-06
4.59158e-05
5.40453e-05
3.80805e-06
-5.41553e-05
-3.81247e-06
-4.59162e-05
-5.40455e-05
-3.57738e-06
3.53672e-06
0.0036717
0.00701355
-0.0105331
-0.00484804
0.00686106
0.00180759
0.00637667
-0.011086
0.00330346
-0.00533472
0.00928626
-0.00384112
-0.00477617
0.0190281
-0.00481183
0.00759053
0.00419587
-0.00938307
-0.00495141
0.0045194
-0.00961761
0.0151742
0.0157483
-0.0414157
-0.0160072
-0.00481932
0.0378263
0.0141483
-0.0412407
0.00600017
-0.014393
0.0334689
-0.00469786
0.0103346
0.0146048
-0.0127463
0.0298095
0.0151752
-0.0389224
-0.0156754
0.0457251
-0.0380293
-0.000453726
0.027036
-0.0679533
-0.00031295
-0.0148239
0.0525349
0.0246582
-0.0662135
-0.0599158
-0.0284791
0.148962
0.0617128
0.00568197
-0.127425
-0.0259184
0.142133
-0.00121242
-0.0661547
0.000704665
0.049517
-0.0632345
-0.0379619
-0.0327954
-0.0334008
0.104217
0.0356163
0.0135492
-0.045901
-0.0412013
-0.0353614
-0.0320884
0.103056
0.00525245
0.0315839
0.0234868
-0.0930723
-0.0019666
-0.0145343
-0.114434
0.149876
0.0346378
0.016184
-0.0881229
-0.0376237
-0.0335342
0.102788
0.0340989
-0.0510628
-0.0351675
-0.0322331
0.100974
0.00617998
-0.0114584
-0.02797
-0.0149701
0.0148801
-0.0397036
-0.0186831
-0.0285353
0.0290483
0.0110627
-0.0279987
-0.00916944
-0.0126284
-0.0487173
0.0201999
-0.0319956
0.00624919
-0.028585
-0.0168856
-0.0405728
-0.0290307
0.00585948
-0.00469061
-0.0291391
-0.00749956
0.00130166
-0.0276535
-0.00736814
-0.028669
0.0133925
-0.00123556
-0.044862
0.0115162
-0.000259497
-0.0452831
0.0140536
-0.0418981
-0.0010874
-0.0287342
-0.0141765
-0.0277468
-0.0291552
-0.00177534
-0.000431056
-0.0795708
0.00162717
-8.08109e-05
0.0492149
-0.000380556
-0.0780598
-0.00366206
0.000288275
0.129114
0.00399372
-0.00102415
-0.134128
0.000222244
0.122792
-0.00270851
-0.0773138
0.00245897
0.0433268
-0.0748123
-0.00195528
0.000354205
-0.0917446
0.00186167
-0.000398289
0.0457978
0.000390083
-0.0904001
-0.00350701
-0.00055756
0.111251
0.00369751
0.000178256
-0.141899
-0.00068465
0.10537
-0.00226274
-0.0896653
0.00219451
0.0390493
-0.0874793
-0.00259317
0.000703749
0.00265209
-0.000647117
0.000882534
-0.0032164
-0.000740441
0.00364103
0.000482176
-0.000975042
-0.00218094
0.00218458
0.0103797
-0.0010452
-0.014749
-0.0237255
-0.00876766
-0.00115529
-0.00735039
-0.000767689
-0.0132583
-0.02341
0.0108315
0.000939156
-0.0251074
-0.0325726
-0.0145988
0.00119356
-0.0222018
0.000905984
-0.0251322
-0.0330399
0.00960922
-0.0141561
-0.0232476
-0.00953041
-0.00741413
-0.0139116
-0.0238682
0.00367586
-0.0002661
-0.00369816
-0.0144609
-0.00297451
-0.000964793
0.000263931
-1.35346e-05
-0.00264039
-0.0135783
0.00826929
0.000289139
-0.00893411
-0.0250009
-0.00860599
0.00106518
-0.0073569
7.46015e-05
-0.00837533
-0.025454
0.0024745
-0.00278819
-0.0135538
-0.00418162
0.000306692
-0.00355947
-0.014459
0.000127992
-0.00129089
-0.0025346
0.00218758
-0.00179601
-0.000937039
0.000483797
0.00441027
0.00154992
-0.0161856
-0.00657992
0.00183745
0.000811621
-0.0167065
-0.00159845
0.000359386
0.000545661
-0.00220148
-0.0216455
9.70892e-05
-0.00186159
-0.0220218
0.00271242
-0.00233659
0.00336677
-0.00825067
-0.0171382
-0.0312028
-5.67274e-05
-0.00168482
-0.0277732
-0.00263075
0.00191175
-0.00330377
0.00324754
-0.0243517
-0.0219438
-0.00198121
-0.0224483
-0.00212614
-0.00799858
-0.0177535
-0.0151731
-4.58715e-05
-0.000221234
-0.0150284
0.00184174
-0.00432331
0.0011764
-0.00965133
-0.0148044
-0.0267716
1.92277e-05
-0.000433859
-0.0225764
-0.00173877
0.00129551
-0.000867506
0.00453378
-0.0218204
-0.0157383
-0.000682856
-0.0156229
-0.00398047
-0.00879566
-0.0156934
0.000136279
0.000125954
-0.00397565
-0.00021151
-0.0011346
-0.0124927
-0.0171609
0.000144705
-0.0167227
0.00064396
0.0014817
-0.0148068
-0.00273968
-0.00607655
-0.0133909
0.0223139
0.00326713
-0.00796295
-0.0176179
0.0217659
0.00258063
-0.00203301
2.41714e-05
-0.0019838
0.0274834
-0.00332838
0.00321442
-0.0241031
0.0308176
-0.00266204
0.00190667
-5.96543e-05
-0.00167202
0.0218175
-0.00819531
-0.0169509
0.0214506
-0.00229534
-0.00185671
0.015593
0.000835081
-0.00878067
-0.0156105
0.0156784
0.00167228
-0.00379075
-7.02206e-05
-0.000696142
0.0223205
-0.00114988
0.00448177
-0.0216042
0.0263986
-0.00179689
0.00129705
0.000108738
-0.000454421
0.0148741
-0.00955174
-0.0146671
0.0151376
-0.00435582
-0.000163512
0.00607599
-0.00150359
-0.0133534
0.00299048
-0.000704426
-0.000240651
0.0164625
0.00114728
-0.0146346
0.0168047
0.000248939
-7.81399e-05
0.00399124
-0.0123963
-0.000116112
0.00777435
0.00288722
-0.0106613
0.0117444
0.00275325
-0.00672269
0.00287633
-0.00874943
0.0110967
-0.00287082
-0.00534069
0.0179239
-0.00281662
-0.00125832
-0.00296177
-0.000341871
0.00760058
-0.0104708
0.0113895
-0.00660512
-0.00852525
0.0057919
0.00236997
-0.0188232
0.0104892
0.00235959
-0.0137793
0.00162639
-0.0154967
0.0082842
-0.00236458
-0.00888944
0.0156404
-0.00234323
-0.00391237
-0.00191241
-0.00276697
0.00562562
-0.018461
0.00999655
-0.0133179
-0.0151037
0.00710411
0.00457766
-0.0305039
0.00739547
0.00249717
-0.0165675
0.00119497
-0.0226498
0.00867365
-0.00453683
-0.00844968
0.0143318
-0.00259405
-0.00447955
-0.00161965
-0.000256563
0.00686546
-0.0298624
0.00693022
-0.0159761
-0.0221886
-0.0086388
0.0140588
-0.035925
-0.00178147
0.0118805
-0.0353062
0.0107888
-0.0352209
0.000605588
-0.0141736
0.0191786
-0.00141011
-0.0121449
0.0215612
-0.0115182
0.020639
-0.00827391
-0.0357624
-0.00143526
-0.0349617
-0.0351466
0.000366074
0.00451177
-0.0408033
0.000818418
0.00513533
-0.0408943
0.00600987
-0.0404128
-0.00435453
-0.00471241
0.0327548
-0.00409521
-0.00524222
0.0316766
-0.00612237
0.0286734
0.000272992
-0.0407478
0.000928464
-0.0408594
-0.0403404
1.11753e-05
0.0165669
-0.000146518
0.0166095
0.0167256
0.00100898
-0.0166009
0.00125101
-0.016642
-0.0167603
8.08624e-06
-0.0001665
-0.0115291
0.00299047
-0.00859938
-0.00768167
0.00284327
-0.00669055
0.00289927
-0.0105809
-0.0181005
-0.00290131
-0.000360262
-0.0112098
-0.00277504
-0.00127354
-0.00291058
-0.00540075
-0.0118277
-0.00882702
-0.00783838
-0.00676428
-0.0107488
-0.0101043
0.00194725
-0.0152468
-0.00568165
0.00237847
-0.0134917
0.00238841
-0.0186509
-0.0158065
-0.00164102
-0.00278692
-0.00836912
-0.0023835
-0.00394953
-0.00239003
-0.00899259
-0.0105476
-0.0156138
-0.0058266
-0.0138685
-0.018965
-0.00702107
0.00163075
-0.0223492
-0.00695729
0.0026178
-0.016173
0.00458287
-0.0301908
-0.0144879
-0.00122114
-0.000254916
-0.00875785
-0.002524
-0.00453844
-0.00461245
-0.0085555
-0.00742695
-0.0227989
-0.00715202
-0.0166675
-0.0307295
0.00148078
0.0115409
-0.0353718
0.008333
0.0122039
-0.03523
0.0142808
-0.0361395
0.00140825
-0.010863
0.0207404
-0.000584361
-0.0119531
0.0216109
-0.0141493
0.0192904
0.00177842
-0.0354414
0.00869569
-0.0355385
-0.0361841
-0.000887722
0.00608937
-0.0405739
-0.000217068
0.00519264
-0.0410936
0.00463504
-0.0409921
0.00424624
-0.00601088
0.0285911
0.00443901
-0.00512646
0.0317339
-0.00449022
0.0328515
-0.000816853
-0.0406358
-0.000357294
-0.041125
-0.041032
0.000163614
0.0166841
-2.26448e-06
0.0165541
0.0165186
-0.00133964
-0.0166543
-0.00105663
-0.0165252
-0.0164894
0.000144703
-9.80349e-06
)
;

boundaryField
{
    fuel
    {
        type            calculated;
        value           nonuniform List<scalar> 
36
(
4.43273e-05
7.38639e-05
4.43273e-05
4.4331e-05
7.38634e-05
4.4331e-05
4.43272e-05
7.38639e-05
4.43272e-05
-4.43272e-05
-7.38642e-05
-4.43272e-05
-4.43313e-05
-7.38636e-05
-4.43313e-05
-4.43272e-05
-7.38642e-05
-4.43272e-05
0
0
0
0
0
0
0
0
0
0
0
0
0
0
0
0
0
0
)
;
    }
    primary_air
    {
        type            calculated;
        value           nonuniform List<scalar> 9(-0.000126977 -0.000210607 -0.000126799 -0.000126994 -0.00021066 -0.00012681 -0.000126988 -0.000210583 -0.000126807);
    }
    Secondary_air_RHS
    {
        type            calculated;
        value           nonuniform List<scalar> 9(0.0138539 0.022734 0.0142595 0.013812 0.0221963 0.0141775 0.0144257 0.0227471 0.0147044);
    }
    Secondary_air_LHS
    {
        type            calculated;
        value           nonuniform List<scalar> 9(0.0138267 0.0227943 0.0141584 0.013778 0.0222851 0.0140594 0.0143651 0.0228422 0.0145662);
    }
    outlet
    {
        type            calculated;
        value           nonuniform List<scalar> 
18
(
-0.0574222
0.0632685
-0.0574353
-0.0574823
0.0645294
-0.0574963
-0.0575134
0.0648021
-0.0575318
-0.0573822
0.0649123
-0.0573577
-0.057347
0.0646847
-0.0573277
-0.0572857
0.063409
-0.0572679
)
;
    }
    stove_body
    {
        type            calculated;
        value           uniform 0;
    }
    frontAndBack
    {
        type            empty;
        value           nonuniform 0();
    }
}


// ************************************************************************* //
