/*--------------------------------*- C++ -*----------------------------------*\
  =========                 |
  \\      /  F ield         | OpenFOAM: The Open Source CFD Toolbox
   \\    /   O peration     | Website:  https://openfoam.org
    \\  /    A nd           | Version:  6
     \\/     M anipulation  |
\*---------------------------------------------------------------------------*/
FoamFile
{
    version     2.0;
    format      ascii;
    class       surfaceScalarField;
    location    "1.5";
    object      phi;
}
// * * * * * * * * * * * * * * * * * * * * * * * * * * * * * * * * * * * * * //

dimensions      [1 0 -1 0 0 0 0];

internalField   nonuniform List<scalar> 
675
(
4.99666e-06
-2.22098e-06
0.0001277
-5.17982e-06
-3.82943e-06
0.000144485
-2.2743e-06
0.000127573
-6.9991e-06
3.89168e-06
0.000217132
7.26906e-06
5.12629e-06
0.000193027
3.9639e-06
0.000217281
3.75606e-06
0.000130611
-3.99775e-06
0.000143359
0.000130444
8.88754e-06
1.81158e-06
0.000117108
-9.30332e-06
-2.99428e-05
0.000192735
1.80294e-06
0.000116574
-8.3471e-06
1.21192e-06
0.000226266
8.79594e-06
2.38169e-05
0.000122297
1.30336e-06
0.000226763
4.25206e-06
0.000127681
-4.86907e-06
0.000176412
0.000126988
-1.42263e-05
5.98669e-07
1.29882e-05
3.4917e-05
-1.11629e-06
2.35728e-05
-1.24326e-05
-2.01849e-05
-1.63908e-05
-1.03026e-05
-1.53988e-05
1.39346e-05
0.00747728
0.0054384
-0.00970525
0.00869583
0.00573579
-0.00374753
0.00878489
0.00311055
0.00130403
-0.0055399
0.0149693
-0.00431883
-0.00570017
0.0223585
-0.0087697
0.0185314
0.00757726
-0.00990724
0.00886348
-0.00377756
0.00329723
0.0153704
0.00666187
-0.0317165
0.0119345
0.00285358
-0.00315507
0.00860869
0.00644412
0.00567493
-0.00666387
0.022649
0.00873969
-0.00271723
0.0248781
-0.0084398
0.0443187
0.0156329
-0.0321903
0.0121103
-0.00296187
0.00697627
-0.006657
0.0235911
-0.0486366
-0.00534644
0.0110448
-0.0155143
0.0171675
-0.0160648
-0.0469384
-0.0234973
0.116677
0.0413738
-0.0107131
-0.0416729
-0.0168423
0.119719
-0.00669746
-0.0489915
-0.00523745
-0.0151377
-0.0150997
-0.0170637
-0.0139711
-0.0292106
0.0602448
0.00613272
-0.000203254
-0.0416871
0.0186772
-0.00964418
-0.0164544
0.0322228
0.0178643
0.013653
0.0404603
-0.0859641
-0.00461623
-0.000187591
-0.0296942
0.0521592
0.00980674
0.0626937
-0.0867599
-0.0173991
-0.0294703
0.0605288
0.00554863
-0.041438
0.0182728
-0.0160826
0.0314267
0.00422704
-0.0102895
-0.0231033
-0.000259706
-0.00846689
-0.0287502
-0.00648846
-0.0102442
0.0150276
0.01024
0.00492131
-0.012237
0.00774554
-0.0186172
0.0070826
0.0368983
0.00506386
-0.0242939
-0.000179196
-0.0284555
-0.00918375
-0.00438802
-0.00146609
-0.0172265
-0.0145353
-0.000219625
-0.0184496
-0.00893965
-0.0159554
0.00891675
0.00114795
-0.00654709
-0.000250073
-0.000187458
-0.00948171
0.00890505
0.0188078
-0.00513469
-0.0179947
-0.0144751
-0.0193138
-0.0147443
-0.000895856
-0.0024868
-0.0515209
-0.00130489
-0.000603721
-0.0145023
-0.00203069
-0.0216543
-0.00317914
0.00248948
0.104828
0.00262802
0.000639787
-0.0487235
0.00199245
0.108106
-0.000916975
-0.0518537
-0.0013372
-0.0140793
-0.0207602
-0.00114681
-0.000688631
-0.0559355
-0.000293375
-3.2763e-05
-0.0153236
-0.00103107
-0.0272203
-0.00148284
0.000690787
0.0949167
0.00228226
6.34041e-05
-0.0525846
0.000991418
0.0981828
-0.00117295
-0.056242
-0.000320494
-0.0148707
-0.0263941
-0.00192987
-1.06471e-05
-5.95184e-05
0.00148282
-0.0013527
-0.00111366
3.18294e-06
0.00144814
-0.00150379
0.00133105
-0.00196272
-6.65988e-05
0.00572292
-0.00308562
-0.00425915
-0.0156091
-0.00582123
-0.000941345
-0.005941
-0.00286685
-0.00263684
-0.0161318
-0.0024505
0.00221392
-0.00747173
-0.00192818
-0.0028484
0.00163003
-0.0116607
0.00342665
0.0109832
-0.00131178
0.00578957
-0.00480522
-0.0167697
-0.00565099
-0.0062429
-0.00226125
-0.0147168
0.00411862
0.00110354
0.00217182
-0.0116603
-0.0056412
0.0017784
0.00204701
0.000341612
0.00273412
-0.0113562
-0.0013396
-0.00209239
-0.00557093
0.0026242
-0.0035433
-0.00127641
-0.00640668
0.000384101
0.00416478
0.00322901
0.00261473
0.00265676
-0.0121721
-0.00683854
0.00193316
0.00207445
-0.0107806
0.00074203
0.00347946
-0.00205804
-0.000937645
0.00373839
0.0024329
-0.000633014
-0.00377903
-0.00317703
0.00485403
-0.00374246
-0.00270456
-0.00188182
0.00472437
-0.00200672
0.00148273
-0.00277929
-0.0025839
-0.0169634
-0.000940613
0.0017733
-0.0168309
-0.00178573
0.00165477
-0.00159617
0.00184422
-0.0170796
-0.00579928
0.0024788
0.00106902
-0.00809697
8.945e-05
0.000422579
-0.00172467
0.00239888
-0.0103687
-0.014062
0.00182679
-0.0150805
0.00110835
-0.0020858
-0.0147196
-0.0116107
-0.000808518
0.00283727
-0.0116314
-0.00104731
0.00272371
-0.00134292
0.00292267
-0.0113681
0.00356405
0.00162527
-0.00169986
0.000627891
-0.000132245
0.00246132
-0.00132829
0.00739405
-0.00438389
-0.0102207
0.00289029
-0.0101285
0.000884666
-0.00343286
-0.0101098
0.00167409
0.000531154
0.00408985
0.000309041
-0.00131598
0.0083269
0.00408728
-0.000535235
0.0077606
-0.000904741
-0.000928082
0.0147351
-0.000226995
-0.000246916
-0.00460812
0.0157212
0.00167377
-0.00220127
-0.0151939
0.0147445
-0.000150433
0.00112524
-0.00259953
0.00173199
0.0084754
0.00165975
0.00233759
-0.0107987
0.00688113
0.00191293
-0.00047127
0.000964771
0.00138531
0.0172336
0.00183348
-0.017407
0.0174251
0.00172127
0.00161575
0.0107813
0.00128333
-0.00374946
-0.0105167
0.0109403
7.24429e-05
0.000891657
-0.0017669
0.00277546
-0.000675905
0.00115634
0.00783117
-0.00469072
-0.0035274
0.000651877
0.00179796
0.000523452
-0.00181277
0.0119715
0.0025455
-0.0115269
0.0123074
0.00203635
0.0022784
0.00019159
0.000980307
-0.00492171
9.47771e-05
0.000986207
0.000808613
-0.00708686
0.00129441
0.0146036
-0.00416684
-0.000138654
-0.000321511
-0.00533526
0.00917557
-0.00343807
0.00659305
0.00312397
-0.00971544
0.0117442
0.0028812
-0.00803097
0.00184253
-0.00529143
0.00931476
-0.0017193
-0.00446885
0.0112377
-0.000142113
0.00110276
-0.000833044
0.00311607
0.0117024
-0.0134206
0.0181864
-0.00662509
-5.3073e-05
0.00508877
0.00207055
-0.0168732
0.00805695
0.00197436
-0.0129722
0.00170758
-0.00945795
0.00793824
-0.00140332
-0.00893072
0.00689636
-2.0835e-06
0.00412327
-0.000743944
0.00777464
0.00867251
-0.0234953
0.013012
-0.0109657
0.000688777
0.00632024
0.00470588
-0.0278978
0.00633354
0.00285519
-0.0158394
0.00203208
-0.0100775
0.00220191
-0.00435469
-0.00206989
-0.00668569
0.000270076
0.0155977
0.00114561
0.0165799
0.00946705
-0.0373162
0.00231824
-0.00354592
0.0133288
-0.0103586
0.0170792
-0.0346173
-0.00698207
0.0140153
-0.03323
0.0155118
-0.0325703
-0.00333832
-0.00285294
0.0212034
-0.00516115
0.00269286
0.0287444
0.00112099
0.0258072
0.00614516
-0.0463136
0.0170406
-0.0117477
0.0314909
-0.00110236
0.00759274
-0.0411089
-0.000494113
0.00707937
-0.0409212
0.0076378
-0.0407113
0.0043826
-0.00187606
0.0262688
0.00924045
-0.00269554
0.0335712
0.00086754
0.0419726
-0.00289556
-0.0452957
0.00257415
-0.0199171
0.0349229
-0.000160758
0.0147238
-0.000152351
0.0146801
0.0146958
-0.000107651
-0.0228393
0.00170207
-0.022146
-0.0212426
-0.0152716
-0.0163829
-0.0179269
0.000774795
7.04065e-05
-0.0115287
8.63286e-05
-0.006488
0.00164949
-0.0131826
-0.0108583
-0.0018328
0.00309478
-0.00904578
-0.00283901
0.00110992
-0.00306736
-0.00433218
-0.0113852
-0.00516689
-0.00639982
-0.00782346
-0.00946592
-0.0128945
0.000656786
0.000937713
-0.00856895
-6.61449e-05
-0.010751
0.00133479
-0.0230906
-0.00655765
-0.00169833
0.00762191
-0.00783414
-0.00194024
0.00425839
-0.00204164
-0.00879263
-0.0077387
-0.00923585
-0.00491609
-0.0125854
-0.0164226
-0.00268959
-0.00121527
0.0131683
-0.0094591
-0.000378649
-0.00360604
0.00423962
-0.0367925
0.00744119
-0.00190493
0.0156045
-0.00175617
-0.00276319
0.0158397
-0.00463401
-0.00167799
-0.00600442
-0.00974406
-0.00603518
-0.0153171
-0.0270908
-0.0167588
-0.00125256
0.0311879
-0.0065192
-0.00303477
-0.010803
0.00264775
-0.0459486
0.00471331
-0.0154688
0.0251174
0.0031151
-0.013979
0.0283872
-0.0171061
0.0212002
0.00700092
-0.0322137
0.0103192
-0.0326135
-0.0338767
-0.00254187
-0.000807249
0.034533
0.00312165
0.00281077
-0.0192808
0.00203398
-0.044865
-0.0099097
-0.00759523
0.0418105
-0.00489821
-0.00727171
0.033454
-0.00778732
0.0261246
0.00050227
-0.0403101
0.00105186
-0.0404357
-0.0406132
0.0160352
0.0210418
0.0152653
0.0221219
0.0229435
-0.00176564
-0.0146301
3.94032e-05
-0.0147891
-0.0148741
0.00016233
0.000180214
)
;

boundaryField
{
    fuel
    {
        type            calculated;
        value           nonuniform List<scalar> 
36
(
0.00013036
0.000216057
0.000130358
0.00013036
0.000216057
0.000130358
0.00013036
0.000216057
0.000130358
-0.00013036
-0.000216057
-0.000130358
-0.00013036
-0.000216057
-0.000130358
-0.00013036
-0.000216057
-0.000130358
0
0
0
0
0
0
0
0
0
0
0
0
0
0
0
0
0
0
)
;
    }
    primary_air
    {
        type            calculated;
        value           nonuniform List<scalar> 9(-0.0032027 -0.00529653 -0.00320281 -0.00320323 -0.0052977 -0.0032033 -0.00320299 -0.00529972 -0.00320302);
    }
    Secondary_air_RHS
    {
        type            calculated;
        value           nonuniform List<scalar> 9(0.00631467 0.0102181 0.00631573 0.00630358 0.0101835 0.00630478 0.00629572 0.0101875 0.00629696);
    }
    Secondary_air_LHS
    {
        type            calculated;
        value           nonuniform List<scalar> 9(0.00626593 0.0100501 0.00626671 0.00624913 0.0100126 0.00625012 0.00624889 0.0100496 0.00625001);
    }
    outlet
    {
        type            calculated;
        value           nonuniform List<scalar> 
18
(
-0.00254656
0.0792421
-0.0551056
-0.0406354
0.0685551
-0.0552459
-0.0525459
0.0639791
-0.0553103
-0.0556719
0.0639573
-0.0528633
-0.0556075
0.0686738
-0.0409492
-0.0555517
0.0794764
-0.00269449
)
;
    }
    stove_body
    {
        type            calculated;
        value           uniform 0;
    }
    frontAndBack
    {
        type            empty;
        value           nonuniform 0();
    }
}


// ************************************************************************* //
