/*--------------------------------*- C++ -*----------------------------------*\
  =========                 |
  \\      /  F ield         | OpenFOAM: The Open Source CFD Toolbox
   \\    /   O peration     | Website:  https://openfoam.org
    \\  /    A nd           | Version:  6
     \\/     M anipulation  |
\*---------------------------------------------------------------------------*/
FoamFile
{
    version     2.0;
    format      ascii;
    class       volScalarField;
    location    "1.5";
    object      Qdot;
}
// * * * * * * * * * * * * * * * * * * * * * * * * * * * * * * * * * * * * * //

dimensions      [1 -1 -3 0 0 0 0];

internalField   nonuniform List<scalar> 
297
(
0
-6.47724e-05
0
-0.000325992
-0.000325992
-0.000196447
-6.47724e-05
-6.47724e-05
0
-0.000196447
0
0
-1.61893e-05
-3.26487e-05
0
0
-6.47724e-05
-0.000196447
-9.82227e-05
0
-9.82227e-05
0
0
0
-9.82227e-05
-9.82237e-05
-6.47724e-05
4.72876e-10
0
-1.08611e-12
-4.34442e-12
-4.34442e-12
9.41408e-10
4.72876e-10
0
4.72876e-10
0
4.72605e-10
0
-5.43053e-13
9.45753e-10
-5.43053e-13
0
0
4.72876e-10
4.72876e-10
0
0
9.45481e-10
0
-2.71526e-13
4.72876e-10
4.72876e-10
0
0
0
9.45753e-10
0
1.89137e-09
0
0
0
0
0
1.89151e-09
1.89151e-09
0
0
0
0
0
0
0
3.78301e-09
0
0
0
3.78301e-09
3.78301e-09
0
0
4.72876e-10
-2.71526e-13
0
0
0
0
0
0
0
4.72876e-10
4.72876e-10
0
0
0
0
0
-5.43053e-13
0
4.72876e-10
-2.71526e-13
4.72876e-10
0
0
0
4.72876e-10
4.72876e-10
4.72876e-10
0
-1.92931e-27
0
0
0
-1.92931e-27
0
0
0
0
0
0
-2.29992e-34
0
-1.17756e-31
0
0
0
-1.14996e-34
-1.17756e-31
-5.88779e-32
0
0
0
0
0
0
0
0
0
0
0
7.56602e-09
0
-2.24601e-37
0
0
0
0
0
0
0
-1.79681e-36
0
0
0
3.78301e-09
0
0
-1.79681e-36
0
0
3.78301e-09
3.78301e-09
0
-4.38675e-40
0
0
0
0
0
-7.18724e-36
0
0
0
0
0
0
-2.8749e-35
0
0
3.78301e-09
-6.85429e-42
0
0
7.56602e-09
0
7.56602e-09
0
0
0
0
0
0
0
-6.53676e-48
-2.67746e-44
0
3.78301e-09
0
0
3.78301e-09
0
0
0
7.56602e-09
0
0
-4.28393e-43
-7.79243e-55
0
3.78301e-09
0
0
0
0
0
0
0
0
-3.98972e-52
0
0
0
0
0
-1.63419e-48
0
-7.79243e-55
0
0
-2.04274e-49
-8.17095e-49
0
0
0
0
0
0
0
0
0
0
0
0
0
0
0
-2.67746e-44
0
7.56602e-09
-1.04588e-46
0
-6.23394e-54
0
3.78301e-09
0
0
-6.53676e-48
-1.27671e-50
0
3.78301e-09
0
0
3.78301e-09
3.78301e-09
0
0
-1.27671e-50
-1.04588e-46
0
0
-3.26838e-48
-1.02137e-49
-2.55342e-50
-3.26838e-48
0
3.78301e-09
-7.97944e-52
0
0
0
0
0
0
3.78301e-09
3.78301e-09
0
-1.55849e-54
-1.94811e-55
0
0
0
-8.17095e-49
0
3.78301e-09
0
-7.79243e-55
0
)
;

boundaryField
{
    fuel
    {
        type            calculated;
        value           uniform 0;
    }
    primary_air
    {
        type            calculated;
        value           uniform 0;
    }
    Secondary_air_RHS
    {
        type            calculated;
        value           uniform 0;
    }
    Secondary_air_LHS
    {
        type            calculated;
        value           uniform 0;
    }
    outlet
    {
        type            calculated;
        value           uniform 0;
    }
    stove_body
    {
        type            calculated;
        value           uniform 0;
    }
    frontAndBack
    {
        type            empty;
    }
}


// ************************************************************************* //
