/*--------------------------------*- C++ -*----------------------------------*\
  =========                 |
  \\      /  F ield         | OpenFOAM: The Open Source CFD Toolbox
   \\    /   O peration     | Website:  https://openfoam.org
    \\  /    A nd           | Version:  6
     \\/     M anipulation  |
\*---------------------------------------------------------------------------*/
FoamFile
{
    version     2.0;
    format      ascii;
    class       volScalarField;
    location    "1.5";
    object      T;
}
// * * * * * * * * * * * * * * * * * * * * * * * * * * * * * * * * * * * * * //

dimensions      [0 0 0 1 0 0 0];

internalField   nonuniform List<scalar> 
297
(
293.998
294.985
293.992
294.628
296.598
294.614
293.998
294.985
293.992
294.022
295.516
294.017
301.642
315.687
301.604
294.022
295.516
294.017
294.893
298.18
294.887
302.452
320.366
302.429
294.893
298.18
294.887
1506.67
1560.96
1643.76
1488.68
1556.75
1630.15
1533.52
1597.73
1697.5
1523.77
1584.31
1659.75
1510.04
1554.79
1659.87
1552.33
1613.1
1717.89
1526.29
1410.27
1660.24
1207.84
795.459
1271.78
1555.17
1544.78
1719.61
1037.71
869.085
1122.2
1810.63
683.021
1939.22
1031.89
878.468
1127.74
510.769
384.33
539.067
1027.57
562.192
898.055
502.479
389.482
548.263
305.415
306.42
305.973
306.206
306.397
306.514
305.748
306.263
306.108
1439.58
1358.93
1559.47
1324.1
688.764
1399.64
1468.43
1518.53
1633.4
1258.77
1355.5
1297.51
1403.82
681.546
1576.44
1272.81
1515.6
1326.4
1137.23
1350.8
1229.39
1722.63
681.266
1846.59
1137.33
1510.39
1248.43
305.089
306.676
305.106
305.779
306.925
305.929
305.026
306.635
305.169
306.324
306.556
306.264
306.489
306.988
306.556
306.629
306.694
306.409
306.712
307.116
307.113
307.097
307.297
307.203
307.116
307.148
306.774
304.914
305.09
305.476
305.612
305.702
306.028
304.857
305.008
305.375
305.897
305.951
305.928
306.35
306.402
306.574
306.07
305.882
305.967
306.741
306.173
306.099
307.17
307.139
307.165
306.668
306.421
306.149
305.285
304.885
304.744
305.808
305.509
305.408
305.294
304.989
304.711
305.861
305.83
306.027
306.491
306.293
306.297
305.873
305.898
305.892
306.081
306.374
306.631
307.094
307.069
307.099
306.026
306.105
306.741
306.523
306.435
305.716
307.021
306.78
306.291
306.438
306.386
305.739
306.172
306.223
305.645
307.464
307.207
306.804
306.241
306.242
305.743
305.899
305.676
305.361
307.812
307.488
307.355
305.891
305.704
305.367
305.502
305.19
305.053
308.691
307.91
308.059
305.498
305.232
305.076
300.862
300.946
300.881
303.867
304.553
306.845
300.869
300.968
300.889
292.962
292.962
292.962
294.637
294.8
295.198
292.963
292.962
292.962
306.008
306.846
307.193
306.534
307.053
307.296
305.812
306.522
306.59
305.77
306.346
306.928
306.885
307.301
307.575
305.774
306.334
306.323
305.433
305.543
306.654
307.43
307.566
307.605
305.411
305.805
306.011
305.148
304.672
303.757
308.185
308.662
307.934
305.128
305.279
305.594
300.92
301.002
300.899
306.966
305.029
303.382
300.875
300.851
300.787
292.962
292.962
292.962
295.359
295.153
294.537
292.962
292.962
292.962
)
;

boundaryField
{
    fuel
    {
        type            fixedValue;
        value           uniform 293;
    }
    primary_air
    {
        type            fixedValue;
        value           uniform 293;
    }
    Secondary_air_RHS
    {
        type            fixedValue;
        value           uniform 293;
    }
    Secondary_air_LHS
    {
        type            fixedValue;
        value           uniform 293;
    }
    outlet
    {
        type            inletOutlet;
        inletValue      uniform 293;
        value           nonuniform List<scalar> 
18
(
293
295.359
293
293
295.153
293
293
294.537
293
293
294.637
293
293
294.8
293
293
295.198
293
)
;
    }
    stove_body
    {
        type            fixedValue;
        value           uniform 293;
    }
    frontAndBack
    {
        type            empty;
    }
}


// ************************************************************************* //
