/*--------------------------------*- C++ -*----------------------------------*\
  =========                 |
  \\      /  F ield         | OpenFOAM: The Open Source CFD Toolbox
   \\    /   O peration     | Website:  https://openfoam.org
    \\  /    A nd           | Version:  6
     \\/     M anipulation  |
\*---------------------------------------------------------------------------*/
FoamFile
{
    version     2.0;
    format      ascii;
    class       volVectorField;
    location    "1.5";
    object      U;
}
// * * * * * * * * * * * * * * * * * * * * * * * * * * * * * * * * * * * * * //

dimensions      [0 1 -1 0 0 0 0];

internalField   nonuniform List<vector> 
297
(
(13.8685 -0.00340462 0.11782)
(13.9141 0.000136518 0.139414)
(13.8682 0.00312627 0.117625)
(-3.12425e-08 0.0346507 0.00681284)
(7.40439e-09 0.000347521 0.0143675)
(-2.09015e-08 -0.0354689 0.0071288)
(-13.8685 -0.00340431 0.117821)
(-13.9141 0.000136858 0.139417)
(-13.8682 0.00312627 0.117627)
(13.6685 -0.00192436 0.175116)
(13.6921 3.02383e-05 0.168961)
(13.6705 0.00155773 0.174997)
(4.40584e-08 0.020967 -0.132052)
(-1.75393e-08 0.000921679 -0.15141)
(2.72866e-08 -0.0230964 -0.13217)
(-13.6684 -0.00192314 0.175116)
(-13.6921 3.10307e-05 0.168959)
(-13.6705 0.00155719 0.174997)
(12.2102 -0.0334676 0.302994)
(12.2056 0.000177779 0.290278)
(12.2218 0.0328466 0.30312)
(-1.50741e-08 -0.0304188 0.239346)
(2.29819e-08 0.00097397 0.281875)
(-9.15668e-09 0.0285465 0.23972)
(-12.2101 -0.0334684 0.302993)
(-12.2054 0.000178519 0.29027)
(-12.2218 0.0328483 0.303118)
(46.8648 26.8967 5.79523)
(48.5589 -4.10234 14.7817)
(51.1057 -26.955 -0.927844)
(-0.0147014 19.5565 8.89261)
(-0.0159337 -2.01131 2.89458)
(-0.0164025 -19.8363 6.45573)
(-47.7497 28.3025 8.24561)
(-49.7402 -2.99106 13.3238)
(-52.8354 -29.0811 3.29997)
(47.1907 28.2467 21.8365)
(49.3918 -4.97884 99.344)
(51.3519 -27.6411 16.9882)
(-0.0202029 62.6107 179.428)
(-0.0218401 -0.179642 182.002)
(-0.0246465 -61.0612 182.158)
(-48.1453 29.4415 23.3304)
(-50.3121 -3.9933 110.146)
(-53.2399 -29.6942 20.382)
(46.2409 2.93229 -70.0541)
(44.3908 -2.07862 146.085)
(50.332 0.437472 -86.5443)
(0.0327961 -40.2766 260.418)
(0.0215848 2.48775 -49.8178)
(0.0313318 42.7035 265.466)
(-46.9969 1.1975 -58.1046)
(-48.5266 -1.57845 137.21)
(-52.0119 1.05243 -74.4901)
(32.8858 -40.4869 -227.925)
(26.6782 -5.00785 -29.0831)
(35.6864 44.3035 -231.348)
(0.0324152 -2.45577 -27.0261)
(0.00783996 3.46599 -136.905)
(0.0203578 4.06356 -55.1587)
(-32.6428 -38.7286 -221.501)
(-26.9276 -7.56244 -21.7373)
(-35.8209 43.4572 -223.784)
(15.961 58.5484 -123.967)
(11.9456 -10.3645 -94.9048)
(16.8503 -51.3158 -124.364)
(0.00116825 26.9273 -124.911)
(-0.00320894 14.4931 -103.31)
(-0.00572923 -25.7865 -125.103)
(-15.7003 59.7169 -121.868)
(-12.109 -14.5807 -93.6324)
(-17.1444 -48.1134 -122.264)
(9.54235 39.1602 -33.2348)
(9.56608 -0.335421 -24.1009)
(9.55458 -38.8241 -31.8193)
(0.00242415 34.4423 -30.2725)
(-0.000377805 6.58491 -29.0099)
(-0.00279087 -28.4911 -28.4225)
(-9.54711 39.9635 -32.343)
(-9.56217 -10.8067 -24.5797)
(-9.5633 -36.0678 -32.7605)
(39.5729 11.2418 -479.104)
(41.5943 -3.06528 199.658)
(42.3179 -8.0351 -500.615)
(0.21989 -19.5077 382.06)
(0.161447 5.34424 -167.585)
(0.283351 23.5434 395.594)
(-39.9272 10.3422 -461.273)
(-47.5122 -3.15324 169.161)
(-43.7312 -8.48204 -484.31)
(37.5128 -16.0378 -400.866)
(37.6617 -3.13048 196.843)
(38.3992 18.6206 -412.514)
(0.201203 -27.8897 423.914)
(0.142001 5.11479 -173.19)
(0.291348 31.4508 445.252)
(-37.383 -16.4203 -393.779)
(-42.0275 -4.17441 178.12)
(-38.7225 19.4254 -401.161)
(34.9498 -10.7483 -355.348)
(38.0734 -3.34788 186.465)
(37.8119 14.4113 -364.702)
(0.158142 0.326354 475.97)
(0.131787 4.98499 -174.221)
(0.235421 5.05936 491.777)
(-34.4569 -11.0614 -347.393)
(-40.7248 -4.9413 174.13)
(-37.7921 14.7446 -354.702)
(9.47003 62.5587 -17.8161)
(9.54882 4.62809 -16.7746)
(9.46863 -62.5891 -17.1435)
(0.000598895 51.8038 -17.7349)
(9.20287e-06 -6.1471 -17.4425)
(-0.000795594 -52.7698 -17.0293)
(-9.46768 62.0161 -17.3039)
(-9.54618 0.566026 -16.7328)
(-9.47134 -63.0573 -17.7383)
(9.55859 27.2618 -7.47458)
(9.58489 2.10264 -2.55599)
(9.55767 -28.3321 -8.00207)
(-0.00044392 37.6356 -6.52527)
(-8.79514e-05 -0.65507 -7.78558)
(0.000187804 -38.3128 -6.56692)
(-9.57136 28.9941 -8.71585)
(-9.58877 -6.16159 -2.93313)
(-9.55999 -26.7468 -7.1643)
(9.58696 1.33283 -6.58953)
(9.60531 3.08256 -0.0395095)
(9.60078 -0.903501 -2.90316)
(-0.000575163 24.0614 -3.9589)
(-9.50266e-05 -4.05919 -4.17686)
(0.00041256 -25.1826 -3.39986)
(-9.60348 3.37962 -2.89443)
(-9.60723 -2.51695 0.897099)
(-9.58762 0.139827 -5.96851)
(9.45192 -67.5334 -8.32293)
(9.49901 -60.0826 -12.4721)
(9.47363 -51.6402 -15.2214)
(-0.000536454 -56.5198 -6.25534)
(-0.00100231 -52.0296 -6.24863)
(-0.000890831 -44.6646 -6.33225)
(-9.45051 -68.6626 -7.86641)
(-9.4994 -61.6018 -11.1184)
(-9.47284 -52.8221 -14.9534)
(9.52069 -46.2185 -6.8003)
(9.54364 -44.7063 -14.2346)
(9.46941 -42.4392 -24.9696)
(0.000621189 -46.4412 0.449254)
(-0.00127844 -45.5488 2.2389)
(-0.00257908 -39.1177 3.65861)
(-9.5228 -47.7869 -4.1182)
(-9.54599 -49.5302 -12.2794)
(-9.47217 -43.3851 -23.6782)
(9.58879 10.3274 11.6753)
(9.56233 -9.40597 -16.5414)
(9.50596 -34.138 -34.3211)
(-0.00131527 -29.2208 2.68441)
(-0.0040786 -29.9766 3.59647)
(-0.00619697 -30.1643 3.50312)
(-9.58462 0.0449024 -2.7422)
(-9.57752 -21.1662 -22.5612)
(-9.51963 -36.2029 -33.7691)
(9.47147 52.4139 -14.8994)
(9.49687 61.1304 -10.9926)
(9.44864 68.1771 -7.79796)
(0.000831575 44.1466 -6.30779)
(0.000983587 51.4518 -6.18536)
(0.000419454 55.7731 -6.21887)
(-9.46958 51.1444 -15.0616)
(-9.49719 59.4167 -12.3614)
(-9.44763 66.9834 -8.23575)
(9.47063 43.0637 -23.6438)
(9.54571 49.4916 -12.0854)
(9.52241 47.6272 -4.00137)
(0.00266536 38.6387 3.62797)
(0.00137928 45.0186 2.26095)
(-0.000782701 45.7904 0.509475)
(-9.46914 42.1124 -24.7328)
(-9.54315 44.1428 -14.0332)
(-9.52213 46.1472 -6.94587)
(9.51916 36.1225 -33.6261)
(9.57767 21.2461 -21.9065)
(9.58349 1.33289 -3.10869)
(0.00632571 29.7324 3.50111)
(0.00419086 29.4488 3.6231)
(0.00132643 28.6137 2.67053)
(-9.50434 33.8163 -33.958)
(-9.56076 9.60724 -16.7583)
(-9.59043 -10.7464 12.5177)
(9.44355 16.1149 -26.7031)
(9.44464 24.3543 -18.2888)
(9.45305 37.7445 -21.4615)
(-0.000903048 13.5423 -13.5264)
(-0.00059136 22.2816 -6.86827)
(-6.02438e-05 32.5997 -8.07533)
(-9.44399 15.6143 -26.1282)
(-9.44758 23.9023 -17.8249)
(-9.45649 36.0586 -20.9914)
(9.44785 6.17742 -40.9722)
(9.46043 21.0914 -28.9968)
(9.43283 35.8925 -36.1377)
(-0.000559563 10.3405 -10.6804)
(9.89685e-05 17.855 -3.69549)
(0.00100947 28.8961 -2.26571)
(-9.45207 5.94706 -40.0996)
(-9.45996 20.9751 -27.9376)
(-9.44305 32.7444 -35.3126)
(9.50983 5.22309 -51.165)
(9.4619 22.9845 -45.2889)
(9.44923 20.4361 -55.864)
(-0.000310236 8.27472 -18.1311)
(0.000376774 18.2843 -10.6641)
(0.0019931 23.0117 -3.86119)
(-9.50982 5.2492 -50.2958)
(-9.46432 20.589 -44.2535)
(-9.45692 18.8456 -54.4484)
(9.51292 -7.1703 -81.1777)
(9.49859 -5.70564 -75.0488)
(9.50778 -10.526 -78.8067)
(0.000424516 -7.45811 -0.870265)
(0.000772693 1.97778 10.7506)
(0.00114479 -8.02221 12.7915)
(-9.51147 -6.83859 -80.5984)
(-9.4977 -4.46389 -73.6812)
(-9.50638 -11.0734 -79.1111)
(9.35512 3.10607 -144.186)
(9.35103 -0.932924 -144.671)
(9.34486 4.26586 -143.516)
(0.000547601 -4.51902 73.5618)
(0.000382547 0.439399 70.5263)
(0.00029113 -3.10044 61.5734)
(-9.35373 3.08945 -144.008)
(-9.35043 -1.36533 -144.414)
(-9.34437 4.78235 -143.072)
(8.93777 -0.0144974 -175.987)
(8.93654 -0.0233139 -175.828)
(8.93564 -0.0498725 -175.554)
(0.000229016 -0.968296 169.587)
(0.000232067 1.06619 169.085)
(0.000240308 -0.519474 165.961)
(-8.9372 -0.0159732 -175.878)
(-8.93595 -0.0275903 -175.743)
(-8.93504 -0.0561902 -175.475)
(9.4627 -36.5553 -21.2212)
(9.45922 -24.1582 -18.0812)
(9.46456 -15.8257 -26.4493)
(-6.11974e-05 -32.9604 -8.16102)
(0.00039584 -22.5293 -6.91419)
(0.000651566 -13.7002 -13.6578)
(-9.45428 -38.0064 -21.6542)
(-9.44541 -24.5797 -18.3703)
(-9.44375 -16.2229 -26.9033)
(9.44246 -33.0864 -35.6846)
(9.46141 -21.1407 -28.3272)
(9.47083 -6.01623 -40.6324)
(-0.00102275 -29.183 -2.31862)
(-0.00025018 -18.0738 -3.74382)
(0.000329993 -10.44 -10.8125)
(-9.43464 -36.0765 -36.3881)
(-9.46227 -21.2357 -29.189)
(-9.45081 -6.20582 -41.3204)
(9.45716 -19.0244 -54.9527)
(9.45762 -20.8057 -44.8556)
(9.53213 -5.31257 -50.9855)
(-0.00195844 -23.2455 -3.97774)
(-0.000463124 -18.4898 -10.7952)
(0.000134734 -8.36138 -18.3559)
(-9.44936 -20.5355 -56.3216)
(-9.46461 -23.0865 -45.6927)
(-9.51226 -5.25985 -51.658)
(9.50825 11.0784 -79.8053)
(9.47976 4.58172 -74.4409)
(9.45678 6.94102 -81.6353)
(-0.00105504 7.97624 12.6491)
(-0.000708541 -1.95537 10.1987)
(-0.000396515 7.51593 -1.26385)
(-9.50954 10.5632 -79.5048)
(-9.50063 5.71905 -75.7448)
(-9.51515 7.22191 -82.0237)
(9.34511 -4.73995 -143.867)
(9.35136 1.37588 -145.208)
(9.35468 -3.11961 -144.831)
(-0.000187589 3.15865 61.5388)
(-0.000266954 -0.419813 71.0102)
(-0.000404242 4.628 73.9442)
(-9.34413 -4.26312 -144.262)
(-9.34759 0.943441 -145.423)
(-9.3524 -3.12771 -144.937)
(8.9353 0.0557976 -176.154)
(8.93626 0.028193 -176.425)
(8.93755 0.0175481 -176.565)
(-0.000206749 0.509062 165.685)
(-0.000198892 -1.1018 168.882)
(-0.000194176 0.990432 169.244)
(-8.93582 0.0496252 -176.212)
(-8.93676 0.0231535 -176.487)
(-8.93804 0.0148827 -176.647)
)
;

boundaryField
{
    fuel
    {
        type            fixedValue;
        value           uniform (0 0 0.1);
    }
    primary_air
    {
        type            fixedValue;
        value           uniform (0 0 0.1);
    }
    Secondary_air_RHS
    {
        type            fixedValue;
        value           uniform (0 159 0);
    }
    Secondary_air_LHS
    {
        type            fixedValue;
        value           uniform (0 -159 0);
    }
    outlet
    {
        type            pressureInletOutletVelocity;
        value           nonuniform List<vector> 
18
(
(0 0 -176.154)
(-0.000206749 0.509062 165.685)
(0 0 -176.212)
(0 0 -176.425)
(-0.000198892 -1.1018 168.882)
(0 0 -176.487)
(0 0 -176.565)
(-0.000194176 0.990432 169.244)
(0 0 -176.647)
(0 0 -175.987)
(0.000229016 -0.968296 169.587)
(0 0 -175.878)
(0 0 -175.828)
(0.000232067 1.06619 169.085)
(0 0 -175.743)
(0 0 -175.554)
(0.000240308 -0.519474 165.961)
(0 0 -175.475)
)
;
    }
    stove_body
    {
        type            noSlip;
    }
    frontAndBack
    {
        type            empty;
    }
}


// ************************************************************************* //
