/*--------------------------------*- C++ -*----------------------------------*\
  =========                 |
  \\      /  F ield         | OpenFOAM: The Open Source CFD Toolbox
   \\    /   O peration     | Website:  https://openfoam.org
    \\  /    A nd           | Version:  6
     \\/     M anipulation  |
\*---------------------------------------------------------------------------*/
FoamFile
{
    version     2.0;
    format      ascii;
    class       volVectorField;
    location    "1.5";
    object      U;
}
// * * * * * * * * * * * * * * * * * * * * * * * * * * * * * * * * * * * * * //

dimensions      [0 1 -1 0 0 0 0];

internalField   nonuniform List<vector> 
297
(
(68.511 -0.0158852 0.211484)
(68.5083 -0.000270691 0.179108)
(68.511 0.015664 0.211019)
(-0.000164416 0.0182866 0.302421)
(-0.000163806 0.000350709 0.296595)
(-0.000164387 -0.0178461 0.302516)
(-68.5105 -0.00907392 0.203942)
(-68.5088 -0.000313234 0.182846)
(-68.5105 0.00875365 0.204015)
(68.6187 -0.0179368 0.172748)
(68.5442 -0.000962151 0.273286)
(68.618 0.016752 0.173336)
(-0.000164669 0.024221 0.290701)
(-0.000164057 0.00121968 0.286957)
(-0.00016463 -0.0241232 0.292655)
(-68.5392 -0.0334721 0.19211)
(-68.5391 -0.001484 0.260947)
(-68.5403 0.031876 0.191648)
(72.5613 -0.441023 0.460546)
(65.1225 -0.00416541 0.47816)
(72.6235 0.440573 0.457782)
(-0.000165818 0.205996 0.119679)
(-0.000163245 0.0125766 -0.198073)
(-0.000166012 -0.226104 0.113802)
(-70.1832 -0.356787 0.443146)
(-67.5583 -0.00772625 0.475657)
(-70.3459 0.364024 0.44351)
(63.7552 7.10743 -7.63776)
(62.0609 6.49298 -3.82425)
(54.9513 3.38573 2.99313)
(0.000428554 1.8638 4.29503)
(0.000279489 -0.378764 4.08096)
(8.75223e-05 0.340719 6.25299)
(-63.7366 7.09563 -7.71388)
(-62.1242 6.63457 -3.75579)
(-54.9821 3.45354 3.29077)
(70.1051 11.4697 -14.2045)
(70.3166 10.1205 -10.178)
(64.3607 11.0795 11.3597)
(-0.00041649 11.265 38.4584)
(-0.000557988 1.38307 29.1925)
(-0.000374639 0.327102 36.0718)
(-69.9484 11.46 -14.8119)
(-70.5085 10.3775 -10.5732)
(-64.2775 11.2688 11.2101)
(69.212 8.88516 -19.0585)
(71.1265 -11.3614 -2.97731)
(91.914 -16.6908 34.6049)
(-0.00181487 -8.34904 54.4472)
(-0.00226412 -4.52074 12.8839)
(-0.00199945 10.4683 57.1939)
(-69.0312 8.75319 -19.8687)
(-73.154 -11.8601 -3.81009)
(-93.6305 -16.2848 35.9968)
(62.8373 -0.945037 -53.4494)
(59.4172 -5.82054 -30.5989)
(71.3176 -0.482355 -38.8351)
(0.00359841 0.8164 -1.26012)
(0.00479255 8.36426 -37.6983)
(0.00687219 -5.35891 32.0365)
(-62.4887 -0.906038 -53.4551)
(-59.882 -6.42065 -30.8031)
(-72.4576 -0.285398 -38.3192)
(58.2192 20.949 -38.4434)
(59.2856 -4.56535 -38.4779)
(69.0397 -9.92898 -22.7469)
(0.00236458 -1.68556 -11.2002)
(0.00216409 3.17702 -17.3536)
(0.00831043 -8.18015 23.0744)
(-57.4814 21.3066 -38.3983)
(-60.0078 -4.86201 -38.7765)
(-72.0536 -7.56022 -22.4696)
(49.7735 22.835 -30.2528)
(55.9483 -14.6488 -29.6844)
(62.5344 -24.2555 -24.3624)
(0.00218811 0.827961 -3.87477)
(0.000906601 2.45922 -21.5598)
(0.00293272 -4.84832 21.819)
(-49.0636 23.089 -30.5082)
(-54.6035 -16.3753 -29.29)
(-63.9214 -21.782 -24.6584)
(58.4865 11.5587 -64.6095)
(59.2406 -18.8475 -16.3604)
(92.2284 -41.7685 -31.4333)
(0.002077 -6.169 75.4788)
(0.00275937 -3.38938 -39.8055)
(0.00297029 1.18265 76.7043)
(-58.1222 11.4114 -64.6665)
(-61.1024 -19.9806 -16.358)
(-95.6944 -43.4862 -30.6155)
(58.5294 6.57279 -67.7974)
(56.9706 -13.2383 -15.2632)
(75.2217 -15.4882 -42.137)
(0.00227999 -4.4899 84.3809)
(0.00318433 0.637568 -41.5102)
(0.00321675 1.54211 83.7289)
(-58.183 6.49731 -67.7927)
(-58.0427 -14.1447 -15.1862)
(-77.1492 -15.8421 -42.0599)
(60.1357 2.97099 -64.2392)
(58.3542 -10.4705 -20.218)
(67.653 -9.0743 -40.7817)
(0.00254084 -2.74825 83.6987)
(0.00342057 2.7966 -40.1867)
(0.00328768 -5.41087 90.574)
(-59.8377 2.9503 -64.2403)
(-59.4745 -11.1621 -20.0585)
(-69.1643 -9.07411 -40.3819)
(46.9153 38.2935 -8.01359)
(49.3284 0.80134 -9.75378)
(50.3429 -39.9096 -8.9784)
(-0.00216279 -3.63611 -4.5713)
(0.00418707 -8.26153 -5.90357)
(0.0072371 -2.34063 15.4357)
(-46.5497 40.6633 -9.81051)
(-50.2731 -4.721 -10.771)
(-51.344 -37.0827 -7.12879)
(46.9644 30.1494 -0.464972)
(48.3759 -3.67191 -1.79119)
(49.2792 -29.5939 3.11954)
(0.00220064 0.0492266 -3.16108)
(0.00256739 -7.20787 -5.25699)
(0.00420603 -0.372998 7.13497)
(-46.7602 28.4889 3.76843)
(-49.4688 -14.6203 -2.36622)
(-50.5113 -29.8817 -0.320797)
(46.469 2.76612 2.65432)
(48.4284 -1.34669 0.319466)
(49.5262 2.19983 -1.56851)
(0.0030136 -8.13809 -1.51701)
(0.00235258 -6.38193 -0.832268)
(0.00413971 2.6393 -0.863201)
(-48.4951 -7.92012 -2.5294)
(-49.8686 -9.4439 1.89368)
(-50.0712 -5.14946 3.70877)
(45.9499 -44.9921 -4.64977)
(45.8185 -49.8141 -8.38998)
(45.6436 -53.1278 -9.38473)
(0.0333482 -2.17271 -1.54682)
(0.0372346 -12.8845 -2.96319)
(0.0755708 -18.228 -3.29589)
(-45.0391 -39.6109 -3.04206)
(-46.2781 -45.4558 -7.71076)
(-46.6537 -41.5507 -14.281)
(48.8893 -32.2511 7.53629)
(47.2463 -34.363 7.11981)
(46.3881 -40.8031 5.15479)
(0.0245747 7.63908 1.40244)
(0.0387774 17.143 4.62826)
(0.0786291 -7.12084 10.2343)
(-48.6519 -30.9297 3.99413)
(-46.7112 -34.8824 -1.54625)
(-46.8129 -26.8525 -10.14)
(49.4964 2.24699 8.63253)
(48.4472 7.97572 9.63284)
(48.7182 18.6334 11.7576)
(0.0144935 9.20732 -1.54597)
(0.0334307 18.5138 1.21207)
(0.0734075 25.791 5.13629)
(-49.4766 -8.98781 12.7604)
(-46.9978 1.34925 13.5923)
(-46.8834 -15.3892 -14.9167)
(46.6785 42.9481 -14.5466)
(46.3019 47.3331 -7.92502)
(45.2474 41.8008 -2.96107)
(-0.0718299 19.1141 -3.16684)
(-0.0323803 12.7348 -4.18095)
(-0.0306085 5.42476 0.210199)
(-45.4151 53.9849 -9.70123)
(-45.5884 50.5036 -8.64649)
(-45.8748 46.1941 -5.1767)
(46.8419 27.9716 -11.0325)
(46.6878 36.2917 -1.83683)
(46.1227 32.1362 3.26775)
(-0.0722826 8.39463 9.85598)
(-0.0221314 -15.2115 1.92329)
(-0.0107768 -4.3882 -1.44478)
(-46.3774 41.6774 5.35291)
(-46.5589 35.6075 7.64195)
(-46.4486 33.4072 8.19609)
(46.9368 15.7989 -15.932)
(47.0371 -1.73753 14.4819)
(47.1339 8.48517 12.3538)
(-0.0571982 -22.1973 5.31247)
(-0.0213276 -13.1656 1.23434)
(-0.00473435 -8.44764 -0.232257)
(-46.8371 -20.1734 9.17663)
(-47.1002 -11.2997 5.22077)
(-47.0612 -6.79826 3.55962)
(46.3982 7.73245 -24.8848)
(46.4738 20.8104 -22.9325)
(46.4455 32.5816 -17.8007)
(0.0183329 13.1278 -9.67817)
(-0.0281177 14.9435 -6.53014)
(-0.0846223 20.8533 -3.06549)
(-44.8905 24.3358 -31.9948)
(-44.6193 31.2823 -23.6929)
(-45.9869 51.6601 -17.9654)
(46.0673 5.50521 -37.1406)
(46.1186 13.8369 -32.3984)
(46.5484 22.432 -24.6383)
(-0.0418713 7.31977 -8.60133)
(-0.101272 11.0223 2.76786)
(-0.119648 15.674 12.0981)
(-45.3401 6.01336 -55.2297)
(-45.419 22.0934 -30.3293)
(-46.6513 39.6422 -4.95632)
(47.3484 -0.626579 -49.1724)
(46.8369 7.87066 -44.669)
(47.1415 9.42785 -33.3936)
(-0.10426 4.54908 -18.3449)
(-0.134518 -5.79292 16.27)
(-0.12883 -17.7463 19.4097)
(-47.154 3.43067 -71.7273)
(-45.7268 20.7042 -21.788)
(-45.8403 -15.448 22.2232)
(46.3975 -4.01553 -78.2404)
(46.1173 -6.45176 -71.7658)
(46.0867 -3.88857 -72.7285)
(-0.31941 -2.52952 34.2405)
(-0.323635 -0.368995 48.3512)
(-0.332267 -10.8104 44.1712)
(-46.8721 -8.77559 -103.946)
(-46.6349 11.325 14.0088)
(-46.7785 -2.99572 69.0592)
(45.5863 0.952852 -138.133)
(45.5459 0.430014 -137.335)
(45.4432 0.792626 -136.918)
(-0.138904 1.08552 72.0518)
(-0.149664 3.5045 78.3013)
(-0.165521 -1.74077 76.0631)
(-45.5329 2.69871 -138.546)
(-45.5517 -5.47468 -77.0973)
(-45.4865 1.65141 111.865)
(43.6857 -0.147976 -167.38)
(43.6644 -0.0521256 -167.088)
(43.5536 -0.115345 -166.838)
(0.298859 -1.15551 162.796)
(0.314822 0.589755 173.365)
(0.335931 -0.878273 198.999)
(-42.8772 -5.5018 -156.804)
(-42.6412 -7.595 -112.845)
(-43.6624 -3.64476 -3.67832)
(46.1211 -51.0038 -17.4015)
(44.7756 -30.9521 -23.3076)
(45.1833 -24.2297 -31.5476)
(0.0868549 -20.1212 -2.86155)
(0.030551 -14.4674 -6.21904)
(-0.0146409 -12.7651 -9.3888)
(-46.4313 -31.4693 -17.3315)
(-46.4448 -20.3092 -22.3386)
(-46.3844 -7.16978 -24.2049)
(46.6959 -39.5056 -4.63645)
(45.4907 -21.6056 -29.9055)
(45.5459 -6.18225 -54.7551)
(0.124265 -14.9878 12.4558)
(0.105328 -10.8943 2.73203)
(0.0462652 -7.2809 -8.34562)
(-46.5356 -21.3027 -23.7601)
(-46.1295 -13.4257 -31.2432)
(-46.062 -5.19936 -35.9876)
(47.3822 13.3896 23.305)
(45.7695 -20.5686 -21.6793)
(47.3087 -3.56632 -71.0894)
(0.147472 20.7091 19.5586)
(0.145329 7.31533 17.2599)
(0.10924 -4.58208 -17.8843)
(-47.0679 -8.71344 -31.7297)
(-46.797 -7.48595 -43.0636)
(-47.3122 0.840442 -47.6128)
(47.3451 1.99549 69.4503)
(46.8383 -10.5262 16.5673)
(46.6894 8.75426 -102.855)
(0.352015 11.7066 44.5006)
(0.336285 0.268612 48.6784)
(0.32393 1.88861 35.0213)
(-46.0521 3.67484 -71.603)
(-46.0951 6.32242 -70.0989)
(-46.3584 3.81355 -76.1326)
(46.3121 -2.21418 112.428)
(45.771 5.69616 -74.6657)
(45.5868 -2.61056 -137.249)
(0.170979 1.7417 76.5306)
(0.152838 -3.71382 77.7185)
(0.14241 -1.4409 71.1708)
(-45.2174 -0.70611 -135.212)
(-45.5245 -0.459529 -135.616)
(-45.5747 -0.862929 -136.392)
(44.4069 3.27906 -3.28929)
(42.8507 7.58574 -111.843)
(42.9249 5.52372 -155.557)
(-0.339075 0.799965 201.877)
(-0.314008 -0.607669 174.226)
(-0.295821 1.08423 162.81)
(-43.5244 0.09842 -164.967)
(-43.6523 0.0695212 -165.58)
(-43.6788 0.13771 -165.869)
)
;

boundaryField
{
    fuel
    {
        type            fixedValue;
        value           uniform (0 0 0.25);
    }
    primary_air
    {
        type            fixedValue;
        value           uniform (0 0 2.5);
    }
    Secondary_air_RHS
    {
        type            fixedValue;
        value           uniform (0 50 0);
    }
    Secondary_air_LHS
    {
        type            fixedValue;
        value           uniform (0 -50 0);
    }
    outlet
    {
        type            pressureInletOutletVelocity;
        value           nonuniform List<vector> 
18
(
(0 0 -3.28929)
(-0.339075 0.799965 201.877)
(0 0 -164.967)
(0 0 -111.843)
(-0.314008 -0.607669 174.226)
(0 0 -165.58)
(0 0 -155.557)
(-0.295821 1.08423 162.81)
(0 0 -165.869)
(0 0 -167.38)
(0.298859 -1.15551 162.796)
(0 0 -156.804)
(0 0 -167.088)
(0.314822 0.589755 173.365)
(0 0 -112.845)
(0 0 -166.838)
(0.335931 -0.878273 198.999)
(0 0 -3.67832)
)
;
    }
    stove_body
    {
        type            noSlip;
    }
    frontAndBack
    {
        type            empty;
    }
}


// ************************************************************************* //
