/*--------------------------------*- C++ -*----------------------------------*\
  =========                 |
  \\      /  F ield         | OpenFOAM: The Open Source CFD Toolbox
   \\    /   O peration     | Website:  https://openfoam.org
    \\  /    A nd           | Version:  6
     \\/     M anipulation  |
\*---------------------------------------------------------------------------*/
FoamFile
{
    version     2.0;
    format      ascii;
    class       volScalarField;
    location    "5";
    object      O2;
}
// * * * * * * * * * * * * * * * * * * * * * * * * * * * * * * * * * * * * * //

dimensions      [0 0 0 0 0 0 0];

internalField   nonuniform List<scalar> 
297
(
0
0
0
0
0
0
0
0
0
0
0
0
0
0
0
0
0
0
0
0
0
0
0
0
0
0
0
0.0559924
0.0704467
0.139422
0.150499
0.159272
0.201475
0.0557486
0.0704353
0.140104
0
8.04392e-06
0.0192927
0.0655064
0.116488
0.101176
0
8.29769e-06
0.0200282
0
0
0
0.0435487
0.0275639
0.0727614
0
0
0
0
0
0
0
0
0
6.64546e-06
9.46066e-10
0
0
0
0
0
0
0
0
0
0
0
0
0
0
0
0
0
0
0
0
0
0
0.00320003
6.83927e-07
0.0314639
0
0
0
0
0
0
0
0
0.00967703
0
0
0
0
0
0
0
0
0
0
0
0
2.20353e-14
0
0
2.73111e-14
0
0
1.56065e-14
0
0
9.56625e-18
4.51028e-17
9.6723e-17
0
0
0
6.46891e-18
8.23696e-17
6.48689e-16
3.91634e-18
3.93538e-17
5.09622e-17
5.32243e-18
0
0
4.4427e-17
7.10835e-17
4.90516e-17
0
3.70485e-23
3.83698e-25
0
0
4.81725e-24
0
0
1.07707e-27
0
0
0
0
0
0
0
0
0
1.90961e-21
7.63671e-22
0
0
0
0
0
4.61364e-24
0
1.23246e-24
1.28239e-21
1.00359e-18
7.16685e-21
1.43172e-19
8.58153e-18
5.05923e-20
5.15063e-20
4.71368e-19
8.19096e-24
1.78825e-22
4.21468e-19
2.39355e-19
5.01069e-18
4.95113e-18
9.63659e-20
2.13743e-19
5.39993e-19
3.45491e-23
2.03047e-22
2.78899e-19
2.77806e-18
4.03101e-18
4.94799e-18
2.88976e-18
4.33996e-18
6.87183e-18
2.88003e-25
4.52884e-25
8.6345e-25
1.31449e-20
1.03476e-20
1.14481e-20
2.40832e-20
5.73412e-20
5.72718e-20
4.32702e-25
1.51066e-24
3.23377e-24
1.88022e-20
1.35077e-20
1.40893e-20
3.85728e-20
8.70601e-20
8.53319e-20
4.66528e-25
2.18076e-24
7.03388e-24
2.1047e-20
3.56433e-19
1.27442e-18
4.9407e-20
1.06652e-19
2.10895e-18
5.77976e-25
2.74366e-24
5.07575e-24
5.00287e-20
3.12512e-19
6.45899e-19
5.55672e-20
2.24515e-19
1.10808e-18
3.71602e-25
1.27252e-24
3.66458e-24
3.82184e-20
1.51632e-19
4.40435e-19
6.72875e-20
2.46967e-19
9.49154e-19
1.95082e-25
5.29394e-25
1.6721e-24
3.5422e-20
1.46928e-19
4.68777e-19
5.58865e-20
2.49278e-19
8.76206e-19
3.20757e-27
3.15959e-27
4.61136e-27
1.99607e-27
1.29501e-27
1.71329e-27
2.44025e-30
0
2.97987e-32
0
4.25707e-28
4.53428e-27
0
1.77824e-27
1.78981e-27
2.68604e-28
0
1.49946e-32
0
0
4.51196e-27
0
0
1.73544e-27
0
0
1.04504e-32
6.61459e-26
7.44635e-27
4.40825e-27
0
0
0
0
0
7.36676e-33
6.32706e-26
1.70666e-26
4.31619e-27
0
0
1.37791e-28
3.23549e-32
3.03537e-32
1.04481e-32
5.94882e-26
1.70125e-26
3.86598e-27
8.01324e-27
5.37886e-27
1.52626e-27
4.53865e-32
3.03204e-32
8.64869e-33
)
;

boundaryField
{
    fuel
    {
        type            fixedValue;
        value           uniform 0;
    }
    primary_air
    {
        type            fixedValue;
        value           uniform 0.23;
    }
    Secondary_air_RHS
    {
        type            fixedValue;
        value           uniform 0.23;
    }
    Secondary_air_LHS
    {
        type            fixedValue;
        value           uniform 0.23;
    }
    outlet
    {
        type            inletOutlet;
        inletValue      uniform 0;
        value           nonuniform List<scalar> 
18
(
0
8.01324e-27
0
0
5.37886e-27
0
0
1.52626e-27
0
0
3.5422e-20
0
0
1.46928e-19
0
0
4.68777e-19
0
)
;
    }
    stove_body
    {
        type            fixedValue;
        value           uniform 0;
    }
    frontAndBack
    {
        type            empty;
    }
}


// ************************************************************************* //
