/*--------------------------------*- C++ -*----------------------------------*\
  =========                 |
  \\      /  F ield         | OpenFOAM: The Open Source CFD Toolbox
   \\    /   O peration     | Website:  https://openfoam.org
    \\  /    A nd           | Version:  6
     \\/     M anipulation  |
\*---------------------------------------------------------------------------*/
FoamFile
{
    version     2.0;
    format      ascii;
    class       volVectorField;
    location    "5";
    object      U;
}
// * * * * * * * * * * * * * * * * * * * * * * * * * * * * * * * * * * * * * //

dimensions      [0 1 -1 0 0 0 0];

internalField   nonuniform List<vector> 
297
(
(69.0463 0.0157504 0.264794)
(69.0448 0.028013 0.25532)
(69.0477 0.0228233 0.261066)
(0.00155204 -0.00795364 0.357685)
(0.00153968 -0.0808845 0.328799)
(0.0015372 -0.0862116 0.297755)
(-69.0194 0.0458606 0.308728)
(-69.0425 0.095789 0.247614)
(-69.0442 0.0415081 0.237186)
(69.0469 -0.0363271 0.267832)
(69.0515 -0.0041418 0.298335)
(69.0779 0.0196082 0.286731)
(0.00155142 -0.175083 -0.275914)
(0.00154204 -0.211172 -0.0308782)
(0.00154526 -0.0802672 -0.186332)
(-69.0143 0.0183541 0.312539)
(-69.0451 0.10455 0.299974)
(-69.0674 0.0495919 0.257829)
(69.1069 -0.0981277 0.522685)
(69.1142 0.0444155 0.58858)
(69.203 0.106931 0.57152)
(0.0013513 -0.376868 0.57969)
(0.00135854 0.0576115 0.343923)
(0.0013026 0.316004 0.373381)
(-69.092 0.0106151 0.590026)
(-69.0943 0.293009 0.595734)
(-69.163 0.246488 0.540184)
(63.5644 7.13861 -7.66098)
(61.9663 6.54738 -3.85205)
(55.0921 3.42789 3.0577)
(-0.00042632 1.92084 4.27591)
(-0.000399571 -0.325102 4.08016)
(-0.000290802 0.360165 6.27419)
(-63.5635 7.08471 -7.64173)
(-62.0096 6.64586 -3.69238)
(-55.0865 3.44164 3.37986)
(69.5622 11.5817 -14.576)
(69.8344 10.1601 -10.3931)
(64.058 11.048 11.2946)
(-0.00113504 11.282 38.1319)
(-0.00142774 1.46751 29.1069)
(-0.00126699 0.317441 35.8781)
(-69.5348 11.4824 -14.9137)
(-70.1038 10.4367 -10.6118)
(-64.0033 11.2115 11.0883)
(68.6482 8.9906 -19.5849)
(70.7741 -11.5693 -3.18961)
(90.6566 -16.0952 34.5594)
(-0.00114306 -8.30724 53.9554)
(-0.00211797 -4.56005 12.7434)
(-0.00184963 10.4632 56.8765)
(-68.6111 8.76854 -20.0436)
(-72.9372 -11.866 -3.30893)
(-92.4796 -15.8759 36.5493)
(62.5246 -0.671112 -53.635)
(59.5309 -5.98817 -30.5927)
(70.9031 -0.173841 -38.1111)
(0.00334138 0.741312 -1.51762)
(0.00464808 8.46968 -37.5091)
(0.00652305 -5.28817 32.0867)
(-62.2748 -0.810259 -53.4405)
(-59.9867 -6.46108 -30.5637)
(-72.1234 -0.087996 -37.6059)
(57.9039 20.6849 -38.8145)
(59.4685 -4.92196 -38.5609)
(68.9006 -9.26852 -22.1896)
(0.00181011 -1.61577 -11.2113)
(0.00039036 3.49979 -17.2142)
(0.00748396 -8.15253 23.527)
(-57.3314 20.881 -38.5296)
(-60.1287 -5.01237 -38.5763)
(-71.8709 -7.06769 -21.769)
(50.0032 22.2452 -30.8209)
(56.3133 -15.353 -29.9892)
(62.5189 -24.2637 -24.1226)
(0.00145234 0.898092 -3.99651)
(-0.000770709 2.94802 -21.828)
(0.00288906 -4.90109 22.2611)
(-49.3445 22.3277 -30.656)
(-55.0397 -16.8177 -29.1955)
(-63.8402 -21.6258 -24.207)
(57.9637 11.667 -64.4753)
(59.2865 -19.1645 -16.3653)
(91.401 -41.6251 -30.5127)
(0.00337482 -6.13211 74.7252)
(0.0021808 -3.30136 -39.5618)
(0.000191393 1.21868 76.0822)
(-57.7679 11.4233 -64.3785)
(-61.1892 -20.1731 -16.1065)
(-95.035 -43.5767 -29.9262)
(58.1104 6.74193 -67.658)
(57.0973 -13.4574 -15.3427)
(74.6977 -15.263 -41.3982)
(0.0034111 -4.44856 83.4907)
(0.00261172 0.736762 -41.2416)
(0.000488855 1.54793 83.016)
(-57.933 6.5379 -67.5018)
(-58.1493 -14.2032 -14.971)
(-76.7204 -15.698 -41.3259)
(59.712 3.19743 -64.1952)
(58.4896 -10.7429 -20.2818)
(67.2654 -8.75135 -39.9825)
(0.00353915 -2.7088 82.7804)
(0.00293561 2.88624 -39.9405)
(0.000925247 -5.34832 89.694)
(-59.5247 3.03174 -64.0244)
(-59.5737 -11.253 -19.8668)
(-68.8559 -8.87501 -39.6477)
(47.2518 38.1317 -8.21959)
(49.6543 -0.624106 -9.64009)
(50.473 -40.2422 -9.05997)
(-0.00234484 -3.63833 -4.86857)
(0.00335858 -8.4767 -5.74715)
(0.00558158 -2.58436 15.9192)
(-46.8947 40.2849 -9.88261)
(-50.6037 -5.77618 -10.6954)
(-51.4985 -37.2 -7.1009)
(47.3253 29.8097 -0.534893)
(48.6472 -5.103 -1.76365)
(49.4669 -30.1401 3.12517)
(0.0020586 0.137039 -3.37239)
(0.0019341 -7.84444 -5.19449)
(0.00166306 -0.676525 7.72987)
(-47.1256 28.1301 3.73933)
(-49.7513 -15.6127 -2.50351)
(-50.6466 -30.0671 -0.314134)
(46.7932 1.83104 2.19264)
(48.8698 -2.16054 0.312322)
(49.7271 2.59084 -1.76271)
(0.00310455 -8.15459 -1.69253)
(0.00213247 -6.57997 -0.783243)
(0.00162312 2.64135 0.119474)
(-48.6795 -7.49542 -2.53686)
(-50.0467 -9.19083 1.73049)
(-50.1859 -4.79527 3.49002)
(46.3868 -45.4197 -4.66962)
(46.2803 -50.3682 -8.43104)
(46.1454 -53.79 -9.47472)
(0.033008 -2.69718 -1.59499)
(0.0378445 -13.1292 -2.87993)
(0.0766707 -18.2385 -3.32393)
(-45.3775 -39.8221 -3.01592)
(-46.6255 -45.4417 -7.65176)
(-47.0111 -41.3181 -14.2468)
(49.1684 -32.7507 7.54713)
(47.7559 -35.0406 7.09133)
(46.9448 -41.3151 5.09641)
(0.022673 7.17509 1.6596)
(0.0397588 17.5559 4.23974)
(0.0819212 -6.7869 10.2607)
(-48.8006 -31.1807 3.99177)
(-47.1019 -34.9054 -1.7852)
(-47.1801 -26.4632 -10.1803)
(49.6689 1.99028 8.49174)
(48.7626 7.747 9.34113)
(49.2291 18.6617 11.7582)
(0.0132467 9.69262 -1.88996)
(0.0336396 18.1477 1.3889)
(0.0755589 25.9649 5.36387)
(-49.586 -9.03364 12.586)
(-47.3653 1.00109 13.5142)
(-47.2561 -15.0042 -16.6533)
(47.0247 42.7428 -14.5044)
(46.6446 47.1263 -7.85425)
(45.5785 41.5708 -2.9018)
(-0.0739284 18.8539 -3.07762)
(-0.0337161 12.6214 -4.11331)
(-0.0311595 4.98764 0.335358)
(-45.7659 53.6796 -9.5945)
(-45.9399 50.2776 -8.58048)
(-46.1979 45.78 -5.0532)
(47.1876 27.8618 -11.0628)
(47.0393 36.1073 -1.97173)
(46.4809 31.9568 3.19761)
(-0.0739966 8.16657 9.70636)
(-0.0232382 -15.0673 1.81842)
(-0.011553 -4.49469 -1.61443)
(-46.7147 41.3894 5.3668)
(-46.9085 35.2474 7.59667)
(-46.8101 33.1136 8.13375)
(47.2848 15.5011 -15.6957)
(47.3898 -1.82651 14.8336)
(47.4473 8.39177 12.2471)
(-0.0589811 -22.2314 5.43607)
(-0.0224549 -12.9359 1.42809)
(-0.00540843 -8.28325 -0.210454)
(-47.1783 -19.9025 9.36412)
(-47.4422 -11.0521 5.42449)
(-47.3902 -6.40886 3.82578)
(46.7443 7.73528 -24.7864)
(46.8199 20.6812 -22.7829)
(46.7904 32.4132 -17.7234)
(0.0155165 13.033 -9.5827)
(-0.0308413 14.7951 -6.42851)
(-0.0872161 20.6225 -2.98962)
(-45.22 24.2533 -31.8039)
(-44.9509 31.1453 -23.5255)
(-46.3293 51.4301 -17.7927)
(46.4116 5.48219 -36.9689)
(46.4627 13.7379 -32.2261)
(46.8927 22.3594 -24.7248)
(-0.0449285 7.29245 -8.50082)
(-0.104096 10.9549 2.8359)
(-0.12217 15.5043 12.1078)
(-45.6784 6.01424 -55.0728)
(-45.7661 21.9386 -30.1705)
(-47.0065 39.493 -4.84768)
(47.706 -0.587831 -48.9894)
(47.1903 7.8155 -44.5851)
(47.4966 9.47667 -33.4084)
(-0.10731 4.53802 -18.2424)
(-0.137529 -5.88369 16.243)
(-0.131334 -17.8066 19.3171)
(-47.5105 3.46726 -71.5555)
(-46.078 20.6518 -21.7303)
(-46.1712 -15.1485 22.2567)
(46.7458 -4.02061 -77.9638)
(46.4627 -6.40942 -71.5132)
(46.4316 -3.902 -72.4587)
(-0.321914 -2.49578 34.42)
(-0.326176 -0.347974 48.2711)
(-0.334917 -10.835 44.1228)
(-47.2218 -8.73659 -103.738)
(-46.9937 11.248 14.5511)
(-47.1355 -2.8651 68.8949)
(45.93 0.971681 -137.886)
(45.8866 0.430638 -137.099)
(45.7767 0.808242 -136.679)
(-0.140972 1.1473 71.9198)
(-0.15121 3.54073 78.1082)
(-0.166989 -1.68668 75.9103)
(-45.8821 2.69608 -138.302)
(-45.8971 -5.50236 -76.3371)
(-45.8222 1.69424 111.76)
(44.012 -0.152098 -167.188)
(43.9911 -0.0515044 -166.896)
(43.8845 -0.118611 -166.645)
(0.301186 -1.16024 162.576)
(0.317402 0.580628 173.413)
(0.338574 -0.878761 199.017)
(-43.2004 -5.54216 -156.608)
(-42.9584 -7.58031 -112.578)
(-43.9893 -3.61406 -3.60056)
(46.6483 -51.6147 -17.5428)
(45.2243 -31.2842 -23.5475)
(45.5928 -24.4475 -31.8621)
(0.0850878 -20.1212 -2.83172)
(0.0251559 -14.4775 -6.1296)
(-0.023055 -12.8612 -9.38105)
(-46.7903 -31.4629 -17.1775)
(-46.8057 -20.0476 -22.2903)
(-46.745 -7.3048 -24.0116)
(47.1723 -39.9165 -4.75503)
(45.8684 -21.8365 -30.2242)
(45.8529 -6.25556 -55.255)
(0.124401 -15.0343 12.5496)
(0.102527 -10.8598 2.77486)
(0.0405232 -7.28392 -8.39429)
(-46.9026 -21.5551 -23.5691)
(-46.4856 -13.3742 -31.1741)
(-46.4188 -5.13321 -35.878)
(47.8799 13.1363 23.3594)
(46.1315 -20.6921 -21.8804)
(47.6628 -3.57365 -71.6083)
(0.149031 20.8346 19.722)
(0.144381 7.34145 17.4324)
(0.105582 -4.62591 -17.9746)
(-47.4555 -8.63465 -31.7931)
(-47.1579 -7.70343 -42.8682)
(-47.6821 0.75681 -47.4481)
(47.7688 1.87206 69.6966)
(47.1703 -10.4372 15.9812)
(46.8659 8.83919 -103.113)
(0.357104 11.7512 44.4298)
(0.340697 0.321154 48.9231)
(0.327211 2.0015 35.1109)
(-46.4287 3.65486 -72.1933)
(-46.4454 6.37938 -70.2201)
(-46.7089 3.9239 -76.0424)
(46.7221 -2.30617 112.19)
(46.1234 5.64307 -75.5636)
(45.6596 -2.43606 -137.405)
(0.172707 1.74552 76.6412)
(0.154271 -3.67523 77.5898)
(0.143422 -1.33679 71.7085)
(-45.4187 -0.703544 -135.32)
(-45.8707 -0.494567 -135.715)
(-45.9184 -0.922 -136.468)
(44.7692 3.22345 -3.6658)
(43.1822 7.65987 -112.315)
(43.2237 5.38553 -155.37)
(-0.342658 0.76758 201.942)
(-0.316948 -0.554505 173.645)
(-0.298136 1.05447 163.5)
(-43.8346 0.0898294 -164.908)
(-43.9772 0.0688034 -165.793)
(-44.0005 0.145104 -166.081)
)
;

boundaryField
{
    fuel
    {
        type            fixedValue;
        value           uniform (0 0 0.25);
    }
    primary_air
    {
        type            fixedValue;
        value           uniform (0 0 2.5);
    }
    Secondary_air_RHS
    {
        type            fixedValue;
        value           uniform (0 50 0);
    }
    Secondary_air_LHS
    {
        type            fixedValue;
        value           uniform (0 -50 0);
    }
    outlet
    {
        type            pressureInletOutletVelocity;
        value           nonuniform List<vector> 
18
(
(0 0 -3.6658)
(-0.342658 0.76758 201.942)
(0 0 -164.908)
(0 0 -112.315)
(-0.316948 -0.554505 173.645)
(0 0 -165.793)
(0 0 -155.37)
(-0.298136 1.05447 163.5)
(0 0 -166.081)
(0 0 -167.188)
(0.301186 -1.16024 162.576)
(0 0 -156.608)
(0 0 -166.896)
(0.317402 0.580628 173.413)
(0 0 -112.578)
(0 0 -166.645)
(0.338574 -0.878761 199.017)
(0 0 -3.60056)
)
;
    }
    stove_body
    {
        type            noSlip;
    }
    frontAndBack
    {
        type            empty;
    }
}


// ************************************************************************* //
