# Probe 0 (0 -0.07 0.5)
# Probe 1 (0 -0.04 0.5)
# Probe 2 (0 -0.07 0.3)
# Probe 3 (0 -0.07 0.33)
# Probe 4 (0 -0.04 0.3)
# Probe 5 (0 -0.04 0.33)
# Probe 6 (0 0 0.33)
# Probe 7 (0 0 0.3)
# Probe 8 (0 0.1 0.33)
# Probe 9 (0 0.1 0.3)
# Probe 10 (0 0.14 0.3)
# Probe 11 (0 0.14 0.33)
# Probe 12 (0 0.17 0.3)
# Probe 13 (0 0.17 0.33)
# Probe 14 (0 0.14 0.5)
# Probe 15 (0 0.14 0.33)
#       Probe             0             1             2             3             4             5             6             7             8             9            10            11            12            13            14            15
#        Time
          0.5       292.031       291.226       303.703        304.26       303.794       307.298       313.577       356.333        306.68       321.835       300.275       304.023       300.889       299.483       299.068       304.023
            1       291.863       291.093       303.816       304.166       304.032           308       316.283       373.395       307.302       326.165       300.553       304.555       301.051        299.87       299.243       304.555
          1.5       292.113       291.318        303.76       304.295       303.981       308.019       318.339       383.615       309.129       332.782       299.783       306.549       300.194       299.464       300.339       306.549
            2       291.907        291.21       304.059       304.448       303.455         304.6       306.094       366.833       306.757        346.69       300.238       310.739       301.035       299.484       303.678       310.739
          2.5       291.845       291.157       304.084       304.323       303.407       304.363       305.536       360.186       306.652       342.471        301.03       310.916       300.939       299.399       303.634       310.916
            3        291.86       291.188       303.956       304.116       303.158       304.217         305.2       355.135       306.382       340.527       300.454       310.453       300.972       299.898       303.462       310.453
          3.5       291.833       291.161       304.074        304.13       303.244       304.205       305.459       354.003        306.45       339.329       300.342       310.661       300.835       299.776       303.594       310.661
            4       291.827       291.142       304.093       304.176       303.327       304.152       305.306        353.43       306.503       339.125       300.723       310.655       301.204       299.922       303.309       310.655
          4.5       291.847       291.177       303.724       304.144       303.125       304.143       305.144       354.098       306.301       337.838       300.486       310.427         300.7       299.474       303.544       310.427
            5        291.86       291.184       304.151       304.193       303.371       304.168       305.271       352.947       306.333       338.665       300.683       310.614       300.393       299.093       303.653       310.614
