/*--------------------------------*- C++ -*----------------------------------*\
  =========                 |
  \\      /  F ield         | OpenFOAM: The Open Source CFD Toolbox
   \\    /   O peration     | Website:  https://openfoam.org
    \\  /    A nd           | Version:  6
     \\/     M anipulation  |
\*---------------------------------------------------------------------------*/
FoamFile
{
    version     2.0;
    format      ascii;
    class       volScalarField;
    location    "3";
    object      p;
}
// * * * * * * * * * * * * * * * * * * * * * * * * * * * * * * * * * * * * * //

dimensions      [1 -1 -2 0 0 0 0];

internalField   nonuniform List<scalar> 
297
(
118413
118414
118414
197523
197523
197523
118413
118414
118414
118415
118416
118416
197530
197531
197531
118415
118416
118416
118417
118417
118417
197532
197532
197531
118417
118417
118417
98625.4
97953.4
97011.8
163206
162291
161491
98090.1
97759.3
97497
96295.2
95604.5
95468.3
161067
158814
157257
98201.4
96438.3
94124.9
94688
92082.9
91226.9
153261
149886
152464
92320.7
90752.4
92169.7
93455.2
93445.7
94597
150470
152666
155924
96054
92232.9
94345.1
95136
95374.7
96852.8
158348
160011
162614
94679.2
96013.6
98181.6
97606.8
97730.6
98080.7
162309
162299
163005
97657.8
97198.1
97710.3
93995.9
91004.8
86451.5
137696
145406
149053
89296.9
89076.8
86254.2
94254.1
90999.6
86313.9
136856
145092
147847
89150.6
89076.6
86108.8
94872
91226.5
86788.7
138084
145557
147642
89606.1
89311.1
86609.7
97892.1
97883.3
98046
162674
162361
162501
97865.8
97292.9
97495.7
97806.4
97882.7
97943.6
162728
162443
162404
97804.9
97409.1
97500.7
97740.2
97855.3
97851.5
162762
162531
162385
97727.3
97513.8
97547.8
97774
97889
98315.5
162782
162988
163258
97765
98042.7
98477.8
97579.4
97638.2
97933.6
162762
162908
163046
97722.8
97895
98151.6
97432
97387.7
97477.4
162782
162887
162894
97718.1
97764.6
97754.5
98060.1
97863.7
97849.4
162707
162828
162892
97721.7
97858.5
97953.2
97938.4
97827.8
97753.3
162613
162777
162836
97462.8
97705
97838.4
97825.3
97791.1
97716.4
162481
162728
162809
97315.3
97626
97773.1
98382.2
98507.6
98374
162641
162629
162638
99076
98574.3
97927.8
98154.8
98245.9
98150.6
162323
162275
162390
98428.3
97756.3
97385.4
97885.8
97940.8
97874.5
161818
161768
161897
97705.9
97163.5
96947.2
96585.1
96560.1
96570
158682
158640
158499
94467.6
94444
94382.4
91681.7
91646.6
91632.3
151312
151287
151246
90853.2
90831.8
90725.5
85261
85253.6
85248.9
138735
138697
138628
87115.7
87254.6
87399.4
98597
98662.4
98607.9
163662
163919
163996
98745.6
98811
98759.3
98298
98495.7
98487.7
163361
163612
163692
98465.4
98639.6
98620
98019.9
98322.1
98302
162996
163210
163212
98183.5
98438.4
98395.6
96910.3
96958.5
97009.7
160973
161078
161079
96808.5
96842.5
96882.8
92740
92731.3
92777.3
153711
153720
153733
92732.7
92719.4
92763
85756.4
85755.4
85761.7
138178
138195
138210
85745.2
85744.6
85751.3
)
;

boundaryField
{
    fuel
    {
        type            zeroGradient;
    }
    primary_air
    {
        type            zeroGradient;
    }
    Secondary_air_RHS
    {
        type            zeroGradient;
    }
    Secondary_air_LHS
    {
        type            zeroGradient;
    }
    outlet
    {
        type            totalPressure;
        rho             rho;
        psi             none;
        gamma           1;
        p0              uniform 100000;
        value           nonuniform List<scalar> 
18
(
89269.6
100000
89254
89252.6
100000
89236.2
89288.8
100000
89272.8
88537
100000
89626.3
88504.6
100000
93658.6
88498.7
100000
99997.8
)
;
    }
    stove_body
    {
        type            zeroGradient;
    }
    frontAndBack
    {
        type            empty;
    }
}


// ************************************************************************* //
