/*--------------------------------*- C++ -*----------------------------------*\
  =========                 |
  \\      /  F ield         | OpenFOAM: The Open Source CFD Toolbox
   \\    /   O peration     | Website:  https://openfoam.org
    \\  /    A nd           | Version:  6
     \\/     M anipulation  |
\*---------------------------------------------------------------------------*/
FoamFile
{
    version     2.0;
    format      ascii;
    class       volScalarField;
    location    "3";
    object      T;
}
// * * * * * * * * * * * * * * * * * * * * * * * * * * * * * * * * * * * * * //

dimensions      [0 0 0 1 0 0 0];

internalField   nonuniform List<scalar> 
297
(
292.849
292.848
292.849
293.069
293.069
293.069
292.849
292.848
292.849
292.877
292.877
292.879
293.177
293.179
293.188
292.877
292.877
292.879
292.992
292.993
293.006
299.82
299.862
301.207
292.992
292.993
293.006
973.934
914.906
759.962
1035.26
1006.25
854.957
958.675
916.257
759.759
1213.91
1159.67
884.036
1089.45
1099
922.678
1115.51
1079.17
889.666
1308.22
1268.65
1053.35
1079.62
1138.86
968.762
1111.59
1151.26
989.207
989.179
1278.79
1319.14
900.009
1171.12
1199.58
879.068
1230.44
1262.68
914.841
1290.58
1325.65
769.672
1127.7
1215.01
775.775
1215.44
1270.81
555.503
1219.81
1328.53
469.75
828.858
1039.86
483.731
1047.29
1268.5
1328.53
1281.65
1143.81
1050.63
1143.81
1035.44
1112.74
1228.75
1088.82
1189.49
1282.38
1223.89
1004.84
1144.27
1071.1
1024.1
1229.34
1166.23
1072.6
1280.87
1306.82
963.227
1143.74
1191.6
945.405
1229.33
1245.73
376.029
545.465
551.393
312.459
307.675
302.129
302.695
344.255
365.083
368.455
371.647
365.146
318.632
307.635
302.344
305.235
309.268
307.846
344.88
338.85
334.924
319.123
315.2
305.251
305.846
306.729
303.849
300.133
300.261
300.525
300.921
301.006
301.169
300.501
300.697
300.955
300.438
300.468
300.621
301.191
301.247
301.354
300.898
300.938
301.098
300.569
300.557
300.612
301.517
301.614
301.612
301.099
301.156
301.131
302.539
310.64
310.971
300.998
302.523
303.416
299.099
299.27
299.393
310.206
370.566
369.676
322.988
332.736
329.909
302.016
302.163
302.186
306.306
355.392
359.467
329.529
332.896
325.528
306.734
304.905
304.244
302.002
301.713
301.455
300.373
301.156
300.873
298.113
299.49
299.075
302.061
301.497
301.092
300.942
301.343
302.901
298.546
300.408
300.519
302.016
301.315
300.956
301.847
307.468
319.007
298.542
301.087
306.882
301.026
300.936
300.391
300.625
306.364
309.122
298.183
300.977
303.718
298.347
298.145
297.412
299.214
301.137
303.745
294.903
295.023
298.375
292.012
291.984
291.262
287.951
287.972
285.378
291.005
291.131
302.615
300.632
300.803
300.757
301.355
301.46
301.412
300.992
301.033
301.09
300.562
300.785
300.838
301.516
301.522
301.319
300.963
301.005
301.062
300.391
300.639
300.963
301.689
301.445
301.208
300.79
300.795
300.999
299.997
300.424
300.343
301.921
300.957
299.03
300.234
300.402
300.265
298.078
297.931
298.084
300.12
299.009
298.52
298.08
297.916
298.098
291.604
291.601
291.723
287.513
287.244
287.473
291.618
291.615
291.737
)
;

boundaryField
{
    fuel
    {
        type            fixedValue;
        value           uniform 293;
    }
    primary_air
    {
        type            fixedValue;
        value           uniform 293;
    }
    Secondary_air_RHS
    {
        type            fixedValue;
        value           uniform 293;
    }
    Secondary_air_LHS
    {
        type            fixedValue;
        value           uniform 293;
    }
    outlet
    {
        type            inletOutlet;
        inletValue      uniform 293;
        value           nonuniform List<scalar> 
18
(
293
287.515
293
293
287.245
293
293
287.474
293
293
287.949
293
293
287.973
293
293
285.378
293
)
;
    }
    stove_body
    {
        type            fixedValue;
        value           uniform 293;
    }
    frontAndBack
    {
        type            empty;
    }
}


// ************************************************************************* //
