# Probe 0 (0 -0.07 0.5)
# Probe 1 (0 -0.04 0.5)
# Probe 2 (0 -0.07 0.3)
# Probe 3 (0 -0.07 0.33)
# Probe 4 (0 -0.04 0.3)
# Probe 5 (0 -0.04 0.33)
# Probe 6 (0 0 0.33)
# Probe 7 (0 0 0.3)
# Probe 8 (0 0.1 0.33)
# Probe 9 (0 0.1 0.3)
# Probe 10 (0 0.14 0.3)
# Probe 11 (0 0.14 0.33)
# Probe 12 (0 0.17 0.3)
# Probe 13 (0 0.17 0.33)
# Probe 14 (0 0.14 0.5)
# Probe 15 (0 0.14 0.33)
#       Probe             0             1             2             3             4             5             6             7             8             9            10            11            12            13            14            15
#        Time
          0.5       288.895       288.393       294.852       294.183       294.986       295.265       296.728       299.787       296.835       300.024       294.845       295.243       295.084       294.351       288.397       295.243
            1        288.89       288.389       294.847       294.178       294.953       295.244       296.635       299.575       296.738       299.729       294.745       295.193       294.951       294.346       288.394       295.193
          1.5        288.89       288.389       294.844       294.179       294.943       295.243        296.64       299.568       296.727       299.713       294.747       295.194       294.956       294.356       288.394       295.194
            2        288.89       288.389       294.835        294.22        294.95        295.24       296.631       299.559       296.742        299.75       294.726       295.209        294.94       294.385       288.398       295.209
          2.5        288.89        288.39       294.826        294.22       294.944       295.242       296.641       299.565        296.75       299.739       294.852       295.217       295.115       294.355       288.394       295.217
            3       288.891        288.39       294.849        294.18        294.95       295.241       296.636        299.56       296.725       299.719       294.748       295.192       294.957        294.33       288.394       295.192
          3.5        288.89       288.389       294.826       294.219       294.944       295.241       296.641       299.563        296.76       299.753       295.022       295.247       295.499       294.949       288.406       295.247
            4       288.892       288.392       294.831       294.222       294.946       295.242       296.647       299.573       296.735        299.72       294.749       295.197       294.954       294.381       288.397       295.197
          4.5        288.89        288.39       294.829       294.221       294.949       295.241       296.635       299.563       296.729       299.718       294.713        295.18       294.925       294.272       288.398        295.18
            5       288.892       288.393       294.837       294.187       294.944       295.242       296.637       299.569        296.73        299.72       294.747        295.19       294.956        294.34       288.394        295.19
