/*--------------------------------*- C++ -*----------------------------------*\
  =========                 |
  \\      /  F ield         | OpenFOAM: The Open Source CFD Toolbox
   \\    /   O peration     | Website:  https://openfoam.org
    \\  /    A nd           | Version:  6
     \\/     M anipulation  |
\*---------------------------------------------------------------------------*/
FoamFile
{
    version     2.0;
    format      ascii;
    class       volScalarField;
    location    "4.5";
    object      Qdot;
}
// * * * * * * * * * * * * * * * * * * * * * * * * * * * * * * * * * * * * * //

dimensions      [1 -1 -3 0 0 0 0];

internalField   nonuniform List<scalar> 
297
(
0.000213222
0.000140607
0.000140607
0.000426445
0
0
0
0
0
0
0
0
0.000426445
0
0
0.000140607
0.000213222
0.000140607
0
0
0.000213222
8.78794e-06
0
0
0
0.000140607
0
1.88616e-11
0
0
0
0
-2.05302e-09
0
3.77232e-11
-1.02651e-09
0
-2.56628e-10
0
0
0
0
0
-2.56628e-10
0
0
4.7154e-12
0
-5.13256e-10
-1.02651e-09
0
0
0
0
0
0
-5.13256e-10
0
0
0
0
4.7154e-12
-5.13256e-10
0
0
0
2.87805e-16
7.19513e-17
0
0
0
-2.05302e-09
0
1.75662e-20
0
2.8106e-19
0
4.39156e-21
0
0
0
0
4.7154e-12
0
0
0
0
0
0
0
0
0
0
0
0
0
0
0
0
-2.56628e-10
4.7154e-12
0
0
-1.02651e-09
0
0
0
0
0
1.07216e-24
0
8.57727e-24
2.14432e-24
0
0
0
0
1.04703e-27
5.23515e-28
0
0
1.04703e-27
0
1.04703e-27
0
0
0
0
0
0
0
0
0
0
0
2.04498e-30
0
0
0
0
0
0
0
0
3.9941e-33
0
3.04726e-38
0
1.27811e-31
0
0
2.04498e-30
4.99263e-34
2.55622e-31
0
0
0
0
0
0
0
0
3.04726e-38
1.99705e-33
6.54393e-29
6.09451e-38
0
1.30879e-28
0
1.99705e-33
0
0
1.95024e-36
0
0
0
0
0
0
0
0
0
0
0
0
0
1.19033e-40
0
0
0
0
0
4.54077e-46
0
0
0
0
0
0
0
0
0
0
0
0
0
0
0
2.77146e-50
1.81631e-45
2.27038e-46
0
0
0
5.54293e-50
0
0
0
0
0
0
0
0
0
0
0
1.0826e-52
0
5.67596e-47
-4.10605e-09
-4.10605e-09
0
0
1.35325e-53
5.41302e-53
0
0
0
0
0
0
0
0
9.29949e-43
4.54077e-46
0
0
0
0
0
0
0
0
0
0
0
0
0
3.04726e-38
0
0
0
0
0
0
0
1.16244e-43
0
0
2.32487e-43
0
0
0
2.32487e-43
0
0
0
0
0
0
0
0
0
0
0
0
0
0
0
1.38573e-50
0
0
0
-4.10605e-09
0
0
0
)
;

boundaryField
{
    fuel
    {
        type            calculated;
        value           uniform 0;
    }
    primary_air
    {
        type            calculated;
        value           uniform 0;
    }
    Secondary_air_RHS
    {
        type            calculated;
        value           uniform 0;
    }
    Secondary_air_LHS
    {
        type            calculated;
        value           uniform 0;
    }
    outlet
    {
        type            calculated;
        value           uniform 0;
    }
    stove_body
    {
        type            calculated;
        value           uniform 0;
    }
    frontAndBack
    {
        type            empty;
    }
}


// ************************************************************************* //
