/*--------------------------------*- C++ -*----------------------------------*\
  =========                 |
  \\      /  F ield         | OpenFOAM: The Open Source CFD Toolbox
   \\    /   O peration     | Website:  https://openfoam.org
    \\  /    A nd           | Version:  6
     \\/     M anipulation  |
\*---------------------------------------------------------------------------*/
FoamFile
{
    version     2.0;
    format      ascii;
    class       volVectorField;
    location    "4.5";
    object      U;
}
// * * * * * * * * * * * * * * * * * * * * * * * * * * * * * * * * * * * * * //

dimensions      [0 1 -1 0 0 0 0];

internalField   nonuniform List<vector> 
297
(
(12.7308 0.0198881 0.285005)
(12.7313 -5.96256e-06 0.253896)
(12.7308 -0.0198829 0.284921)
(-4.59955e-10 -0.0278385 0.251543)
(-4.57023e-10 -0.00039448 0.247169)
(-4.22987e-10 0.0276827 0.251352)
(-12.7309 0.0198899 0.285007)
(-12.7313 -2.3519e-06 0.253896)
(-12.7308 -0.0198821 0.28492)
(12.7306 0.0130275 0.298586)
(12.7323 5.58319e-05 0.269441)
(12.7307 -0.0128589 0.29862)
(-5.1253e-10 -0.0836925 -0.00335596)
(-4.93324e-10 0.00398518 0.203329)
(-4.33954e-10 0.0848346 -0.00109622)
(-12.7307 0.0130294 0.298589)
(-12.7323 5.93972e-05 0.269442)
(-12.7306 -0.0128583 0.298618)
(12.7275 0.0244879 0.491086)
(12.7333 -0.000220139 0.431196)
(12.7274 -0.024263 0.491163)
(-3.80166e-10 0.0430442 0.268746)
(-4.78628e-10 -0.0183512 0.0894712)
(-3.0005e-10 -0.0332857 0.267334)
(-12.7276 0.0244938 0.491094)
(-12.7329 -0.000198018 0.431191)
(-12.7273 -0.0242617 0.491155)
(81.0949 -12.7693 -14.7774)
(60.5799 16.0661 4.92825)
(25.9078 17.0979 12.8208)
(-0.00152853 0.0223442 6.07939)
(-0.000857431 5.47752 6.81849)
(-0.00054123 9.04586 11.7062)
(-81.4853 -13.2592 -14.8556)
(-60.0716 15.7125 3.83433)
(-25.9403 17.0942 11.7391)
(133.098 -71.5804 47.757)
(89.3181 11.039 85.8606)
(67.2297 -21.447 80.1346)
(-0.00373342 -33.1067 215.484)
(-0.0011726 18.3833 136.222)
(-0.0019165 -7.39257 119.54)
(-136.858 -76.2723 52.9228)
(-86.6983 11.7068 89.4679)
(-61.7757 -18.9084 82.8157)
(130.282 -165.327 -8.42191)
(80.9949 35.4164 183.388)
(75.5889 -8.71076 -21.1272)
(0.0105489 -79.9458 279.892)
(0.00135046 -18.599 -9.63868)
(-0.000228135 17.0501 163.23)
(-133.869 -172.004 -0.360929)
(-80.2398 36.1333 182.576)
(-71.892 -12.6659 -16.9799)
(83.3216 -73.6915 -251.583)
(45.729 -5.36257 -29.1924)
(47.0855 18.7161 -136.077)
(-0.0164745 -172.233 0.575766)
(-0.0034839 15.63 -125.351)
(0.018906 -10.7114 47.0627)
(-85.4677 -76.0947 -254.693)
(-47.934 -6.66721 -28.0021)
(-44.6519 20.3046 -121.984)
(73.7077 1.8741 -182.25)
(19.5587 9.05878 -78.896)
(19.7028 -32.7155 -88.1567)
(-0.00820512 -68.2753 -139.407)
(-0.000862077 -9.53523 -73.3233)
(0.00625351 -16.9607 -80.6084)
(-77.1158 -8.10147 -181.109)
(-23.0486 15.9448 -84.5684)
(-14.064 -19.7968 -72.899)
(8.64502 20.8261 -14.9817)
(8.63699 4.5451 -12.0465)
(8.62652 -15.5714 -17.4695)
(-0.0012417 12.9711 -11.1329)
(-0.000710354 1.97373 -16.4537)
(0.00185686 -10.1336 -15.8775)
(-8.65064 18.5018 -13.91)
(-8.64191 12.9585 -12.2099)
(-8.62734 -3.17571 -14.8049)
(113.663 -176.659 -521.89)
(67.4875 21.8715 182.303)
(70.7864 -0.172705 -285.129)
(-0.0469423 -121.421 406.589)
(-0.00137308 -20.9463 -139.734)
(0.0560998 7.89101 240.047)
(-116.506 -184.746 -529.695)
(-65.8947 21.7381 181.796)
(-67.3686 -3.22374 -270.457)
(101.775 -114.432 -450.346)
(70.0003 14.0802 175.839)
(57.1466 10.6709 -235.332)
(-0.0537832 -120.848 458.958)
(-0.00189334 -7.15433 -143.906)
(0.0760272 9.19395 264.528)
(-104.387 -119.431 -458.005)
(-68.3685 13.3646 175.447)
(-54.0447 9.81252 -220.567)
(92.761 -118.559 -391.757)
(69.5808 -8.1578 160.673)
(53.405 8.24883 -209.089)
(-0.0591515 -180.598 510.198)
(-0.00245573 -0.597012 -139.334)
(0.0925942 -1.42041 312.473)
(-95.2469 -123.117 -397.735)
(-67.9115 -10.8951 161.333)
(-50.743 7.51885 -194.295)
(8.61192 29.3476 -9.56957)
(8.61697 -8.85639 -7.61)
(8.59818 -29.3013 -6.92951)
(-0.0013483 20.2132 -8.86273)
(-0.00103979 -1.05672 -6.32959)
(-0.000165012 -16.9118 -6.56308)
(-8.61389 30.9475 -10.2046)
(-8.62614 12.0005 -7.33921)
(-8.60073 -21.6879 -5.16229)
(8.63745 17.2578 -0.490666)
(8.62879 -6.98174 0.291364)
(8.61885 -17.8575 -2.27942)
(-0.000930331 9.19542 -2.21187)
(-0.00100859 -2.03296 -3.30722)
(-0.000895952 -10.0718 -1.77029)
(-8.63977 16.747 -1.26536)
(-8.62544 -6.46873 -0.196425)
(-8.61897 -15.8251 -0.472539)
(8.63355 -4.50725 -3.97495)
(8.62398 -1.57895 0.0308241)
(8.62544 -1.14272 -4.19686)
(-0.000908897 1.68849 -4.73895)
(-0.000974339 0.623586 -1.89536)
(-0.00089751 -3.8657 -3.90227)
(-8.64538 -0.832765 -5.71046)
(-8.62898 -2.5591 1.15221)
(-8.63034 2.14301 0.640231)
(8.59466 -31.2808 -3.67558)
(8.61414 -28.0472 -5.76805)
(8.60507 -22.7148 -7.98668)
(-0.00073045 -19.2868 -3.64019)
(-0.000802987 -18.0209 -4.1477)
(-0.00109886 -13.484 -4.46452)
(-8.59802 -22.3235 -4.268)
(-8.61003 -18.4233 -7.22142)
(-8.59678 -12.0508 -9.8361)
(8.60866 -24.695 -0.683295)
(8.62248 -25.7196 -6.18425)
(8.59432 -21.7203 -12.1178)
(-0.000673933 -15.0869 1.41763)
(-0.000311116 -15.1152 1.85598)
(-0.000610482 -12.5539 2.35187)
(-8.61535 -17.4863 -2.227)
(-8.61659 -16.4274 -5.76784)
(-8.58782 -13.9809 -12.7361)
(8.62905 -9.44062 -3.78574)
(8.62701 -12.8853 -9.76089)
(8.59793 -18.9243 -16.2648)
(0.00017045 -8.26461 0.449383)
(0.00111864 -9.50818 0.786311)
(0.00133086 -10.489 -0.0656174)
(-8.6265 3.73528 4.60588)
(-8.61907 -1.94035 -2.72859)
(-8.59409 -12.5988 -15.0976)
(8.61153 21.9864 -11.8809)
(8.62665 27.1513 -8.81705)
(8.60954 31.2658 -6.24971)
(0.000230323 17.0547 -6.19285)
(-0.00035505 22.1231 -5.95189)
(-0.000667861 24.2221 -5.22624)
(-8.61134 23.179 -12.5881)
(-8.62955 28.9015 -9.81852)
(-8.60958 33.5246 -6.88224)
(8.60943 21.0573 -11.1845)
(8.63679 24.1031 -5.01437)
(8.63084 23.1269 -0.416152)
(-0.000219303 14.9777 1.22925)
(-0.000653583 18.3824 2.00135)
(-0.000785263 18.1526 2.03108)
(-8.61002 22.3359 -12.0918)
(-8.64118 25.7309 -5.55645)
(-8.62896 24.8957 -0.127434)
(8.61233 18.2106 -17.0857)
(8.64072 12.5868 -12.7398)
(8.64581 1.17608 -4.36956)
(-0.000733394 9.39548 0.547908)
(-0.000781923 7.63563 1.14987)
(-0.000872487 5.75843 0.422345)
(-8.61481 19.2757 -18.1056)
(-8.64467 12.555 -12.2274)
(-8.65059 3.21759 -3.7291)
(8.61913 -3.9127 -6.734)
(8.61881 2.01061 -16.3404)
(8.60399 12.7826 -20.1298)
(0.000760762 -2.96886 0.402885)
(0.000840049 3.40051 -7.54092)
(0.000686074 10.5459 -8.23138)
(-8.62219 -4.02314 -7.28687)
(-8.61783 2.56273 -17.3001)
(-8.60414 13.5794 -21.2026)
(8.61746 0.9027 4.71024)
(8.61699 4.08906 -19.0778)
(8.60427 14.4967 -21.3641)
(0.000728938 -1.18418 9.8098)
(0.000715836 4.38278 -5.45335)
(0.000332007 10.2239 -4.41445)
(-8.61718 1.25135 4.94523)
(-8.61583 4.64343 -20.1835)
(-8.60546 15.293 -22.5443)
(8.6102 1.54333 -0.428211)
(8.65399 3.32831 -21.7437)
(8.62604 10.8956 -26.9447)
(0.000701449 -1.36629 13.4895)
(0.000708279 4.26101 -8.7969)
(4.19888e-05 6.55604 -6.17301)
(-8.60939 1.85179 -1.11583)
(-8.65546 3.70332 -22.9018)
(-8.62564 11.2955 -28.3634)
(8.61142 3.49104 -2.95217)
(8.62308 2.97681 -30.2826)
(8.6191 -9.9495 -46.1473)
(-0.000263763 1.30832 46.1003)
(-0.000360223 2.63028 26.7955)
(-0.000422777 -11.9572 16.5863)
(-8.6144 3.92403 -3.35664)
(-8.62567 2.37129 -31.4257)
(-8.62117 -9.78808 -46.1173)
(8.52729 0.621695 -98.9386)
(8.52233 -0.104788 -104.846)
(8.53037 5.83778 -99.1394)
(-0.000471132 1.28806 71.3371)
(-0.000467235 1.87731 62.3908)
(-0.000414981 0.278671 55.1318)
(-8.52723 0.453709 -99.425)
(-8.52407 0.0428764 -105.425)
(-8.53122 5.77889 -100.135)
(8.20102 0.109267 -139.449)
(8.19697 0.07075 -139.649)
(8.19652 -0.0500656 -139.563)
(-0.000537555 0.775776 184.022)
(-0.000543812 1.17653 187.557)
(-0.000556079 0.336425 187.333)
(-8.20281 0.114775 -139.636)
(-8.1988 0.0853236 -139.838)
(-8.19837 -0.0409123 -139.746)
(8.59877 -17.0853 -11.0007)
(8.59449 -10.3331 -8.64212)
(8.59357 -5.84809 -12.0436)
(-0.00313525 -9.96301 -4.94463)
(-0.00656652 -5.26192 -3.1723)
(-0.0085874 -1.63451 -4.13032)
(-8.59427 -6.56192 -13.6127)
(-8.60225 -1.73964 -8.48739)
(-8.6078 7.71301 -3.54674)
(8.58943 -18.6073 -17.618)
(8.59356 -10.7771 -14.0448)
(8.59449 -1.43423 -15.8911)
(-0.00257935 -11.1215 -0.234743)
(-0.0056253 -5.8221 1.65121)
(-0.00780122 -0.42091 1.4338)
(-8.58642 -9.63109 -18.2075)
(-8.59416 -8.08142 -10.0009)
(-8.60489 6.83023 0.592212)
(8.59533 -11.645 -25.0612)
(8.59992 -12.7888 -19.5506)
(8.6214 -0.532756 -18.9378)
(-0.00132021 -9.29613 -1.8172)
(-0.00402924 -7.75593 -1.37989)
(-0.00648704 -0.598409 0.0633617)
(-8.60698 -6.4809 -23.2253)
(-8.60847 -9.02277 -12.6847)
(-8.60307 1.36301 4.08406)
(8.6105 7.44966 -34.5195)
(8.60873 2.8219 -33.8423)
(8.61059 -1.25814 -32.0684)
(0.00291172 8.05543 22.2417)
(0.00229023 -2.04879 26.1753)
(0.00202946 -1.04184 31.4336)
(-8.59509 4.4991 -25.9642)
(-8.59003 -2.0112 -17.4983)
(-8.58488 -2.76215 -0.132104)
(8.52878 -3.74518 -93.9156)
(8.53014 0.649268 -96.0455)
(8.52607 0.186757 -95.7522)
(0.00592816 0.875366 56.8977)
(0.00653697 -1.0351 59.9451)
(0.006992 -0.496736 62.2714)
(-8.50801 -2.64252 -92.1126)
(-8.5014 -0.233567 -95.0826)
(-8.50464 -0.132323 -89.6566)
(8.19368 0.0572749 -135.505)
(8.19381 0.0728701 -135.66)
(8.19517 0.0241032 -135.646)
(0.00285256 0.194229 186.778)
(0.00291903 -0.541354 187.058)
(0.0030729 -0.233126 185.662)
(-8.18331 -0.0113835 -133.849)
(-8.18315 -0.133527 -133.866)
(-8.18427 -0.117764 -133.729)
)
;

boundaryField
{
    fuel
    {
        type            fixedValue;
        value           uniform (0 0 0.25);
    }
    primary_air
    {
        type            fixedValue;
        value           uniform (0 0 2.5);
    }
    Secondary_air_RHS
    {
        type            fixedValue;
        value           uniform (0 66.6667 0);
    }
    Secondary_air_LHS
    {
        type            fixedValue;
        value           uniform (0 -66.6667 0);
    }
    outlet
    {
        type            pressureInletOutletVelocity;
        value           nonuniform List<vector> 
18
(
(0 0 -135.505)
(0.00285256 0.194229 186.778)
(0 0 -133.849)
(0 0 -135.66)
(0.00291903 -0.541354 187.058)
(0 0 -133.866)
(0 0 -135.646)
(0.0030729 -0.233126 185.662)
(0 0 -133.729)
(0 0 -139.449)
(-0.000537555 0.775776 184.022)
(0 0 -139.636)
(0 0 -139.649)
(-0.000543812 1.17653 187.557)
(0 0 -139.838)
(0 0 -139.563)
(-0.000556079 0.336425 187.333)
(0 0 -139.746)
)
;
    }
    stove_body
    {
        type            noSlip;
    }
    frontAndBack
    {
        type            empty;
    }
}


// ************************************************************************* //
