/*--------------------------------*- C++ -*----------------------------------*\
  =========                 |
  \\      /  F ield         | OpenFOAM: The Open Source CFD Toolbox
   \\    /   O peration     | Website:  https://openfoam.org
    \\  /    A nd           | Version:  6
     \\/     M anipulation  |
\*---------------------------------------------------------------------------*/
FoamFile
{
    version     2.0;
    format      ascii;
    class       volScalarField;
    location    "0.0125";
    object      N2;
}
// * * * * * * * * * * * * * * * * * * * * * * * * * * * * * * * * * * * * * //

dimensions      [0 0 0 0 0 0 0];

internalField   nonuniform List<scalar> 
3773
(
0.579203
0.578835
0.57817
0.577176
0.578111
0.57867
0.581027
0.662813
0.672295
0.666506
0.671056
0.673697
0.66937
0.663869
0.580764
0.597902
0.597527
0.595886
0.597441
0.597416
0.58211
0.578988
0.586682
0.587191
0.585739
0.585929
0.590049
0.580059
0.580628
0.592679
0.596372
0.595998
0.596786
0.597071
0.582357
0.663765
0.671362
0.668418
0.672632
0.674881
0.66905
0.664328
0.582634
0.581851
0.579978
0.578096
0.580804
0.580807
0.583216
0.687796
0.702892
0.699785
0.704008
0.702173
0.701255
0.69032
0.978886
0.987562
0.986435
0.987472
0.987566
0.986856
0.979238
0.972521
0.969919
0.963202
0.965804
0.967311
0.959951
0.973723
0.974933
0.983864
0.983919
0.982603
0.982989
0.986451
0.976613
0.972634
0.973536
0.96519
0.965206
0.968914
0.962005
0.974068
0.979278
0.987912
0.986896
0.987552
0.987882
0.987086
0.979461
0.69105
0.699795
0.703023
0.704362
0.704344
0.702456
0.691505
0.762678
0.783445
0.786132
0.79095
0.787107
0.783785
0.76108
0.976075
0.986663
0.987659
0.988389
0.987793
0.987049
0.97604
0.991021
0.998513
0.997401
0.997665
0.997742
0.997835
0.990835
0.991812
0.999263
0.999355
0.999434
0.999447
0.999488
0.99193
0.990751
0.998348
0.997786
0.997664
0.997958
0.997873
0.990823
0.976236
0.987052
0.987411
0.987831
0.987501
0.987099
0.976029
0.759181
0.781141
0.782686
0.784441
0.785038
0.781943
0.758408
0.890049
0.90835
0.914247
0.916492
0.911621
0.909116
0.888158
0.983255
0.993829
0.994389
0.994639
0.993777
0.993667
0.983049
0.991887
0.999819
0.999798
0.999813
0.999861
0.99983
0.991874
0.9924
0.99994
0.99997
0.999983
0.999981
0.999931
0.992387
0.991869
0.99986
0.999818
0.999864
0.99988
0.99982
0.991881
0.983072
0.993527
0.994167
0.993862
0.993885
0.993624
0.982919
0.885295
0.906022
0.910355
0.910442
0.910134
0.907763
0.884555
0.959056
0.975108
0.977259
0.977515
0.977102
0.975421
0.958204
0.987826
0.998214
0.998442
0.998435
0.998491
0.99823
0.987694
0.991987
0.999905
0.999974
0.999978
0.99998
0.999956
0.991984
0.992429
0.999982
0.999999
0.999999
0.999998
0.999943
0.992403
0.991987
0.999946
0.999973
0.999978
0.999982
0.999958
0.991992
0.987641
0.998113
0.998284
0.998372
0.998438
0.998196
0.987576
0.956703
0.973621
0.975438
0.975845
0.976841
0.974869
0.956392
0.97829
0.995949
0.996275
0.996359
0.996151
0.996013
0.977961
0.9894
0.999608
0.999758
0.999774
0.999744
0.999653
0.989367
0.992092
0.999891
0.999997
0.999998
0.999996
0.999972
0.992092
0.992532
0.999987
1
1
1
0.999932
0.992477
0.992088
0.999942
0.999998
0.999995
0.999998
0.999974
0.992093
0.989318
0.999645
0.999744
0.999753
0.999726
0.99969
0.989305
0.977182
0.995535
0.995918
0.996078
0.99579
0.995925
0.977139
1
1
1
1
1
1
1
1
1
1
1
1
1
1
1
1
1
1
1
1
1
1
1
1
1
1
1
1
1
1
1
1
1
1
1
1
1
1
1
1
1
1
1
1
1
1
1
1
1
0.997425
0.998503
0.999115
0.999256
0.999269
0.999268
0.999022
0.997097
0.998024
0.998525
0.998905
0.998973
0.998987
0.998943
0.995128
0.995376
0.995433
0.99573
0.996038
0.996149
0.996264
0.992281
0.992995
0.992526
0.991172
0.99231
0.993113
0.992726
0.995333
0.996222
0.996633
0.996657
0.996559
0.99622
0.995497
0.997181
0.998222
0.998703
0.998543
0.998516
0.998097
0.996615
0.997794
0.998909
0.999122
0.999229
0.999227
0.999018
0.997673
0.998033
0.999768
0.999996
0.999991
0.999986
0.999988
0.999988
0.997926
0.999672
0.999969
0.999971
0.999953
0.999921
0.999888
0.996165
0.997685
0.998122
0.998112
0.997977
0.997626
0.997358
0.993171
0.994015
0.99375
0.992092
0.993247
0.993662
0.993292
0.997288
0.998359
0.99832
0.997919
0.998281
0.99826
0.997048
0.99936
0.99995
0.999934
0.999906
0.999833
0.999635
0.998494
0.999799
0.999983
0.999974
0.999971
0.99997
0.999944
0.999888
0.998704
0.999972
0.999996
0.999987
0.999977
0.999981
0.999988
0.999064
0.999949
0.999984
0.999973
0.999938
0.999875
0.999769
0.997532
0.998605
0.998948
0.998968
0.9989
0.998191
0.997332
0.994431
0.994475
0.994408
0.99321
0.993795
0.994948
0.99431
0.998214
0.999054
0.998604
0.997709
0.998245
0.998478
0.998106
0.99974
0.999953
0.999888
0.999851
0.999783
0.999721
0.999649
0.99991
0.999989
0.999981
0.999975
0.999981
0.999973
0.999976
0.999296
0.999999
0.999994
0.999982
0.999974
0.999975
0.999984
0.999595
0.999994
0.999994
0.999967
0.99991
0.999789
0.999626
0.997791
0.999079
0.999263
0.999238
0.999182
0.998471
0.997223
0.994818
0.995385
0.99555
0.995213
0.994965
0.995147
0.994594
0.998514
0.999141
0.99897
0.998095
0.998469
0.998849
0.998473
0.999834
0.999945
0.999898
0.999842
0.999799
0.999782
0.999752
0.99995
0.999993
0.999986
0.999979
0.999981
0.999973
0.999977
0.999671
0.999997
0.99999
0.999978
0.99997
0.999971
0.999978
0.999708
0.999987
0.999989
0.999933
0.999827
0.999694
0.999508
0.998028
0.999252
0.999465
0.999361
0.999341
0.998805
0.997294
0.995703
0.99651
0.99693
0.996691
0.99679
0.99576
0.994872
0.99857
0.999102
0.999226
0.998813
0.998985
0.998849
0.998234
0.999914
0.999967
0.999913
0.999852
0.999768
0.999647
0.999606
0.999974
0.999993
0.999992
0.999984
0.999977
0.999974
0.999979
0.9998
0.999996
0.999988
0.999976
0.99997
0.999967
0.99998
0.999858
0.999974
0.999976
0.999869
0.999754
0.999669
0.999532
0.998829
0.999386
0.999546
0.999492
0.999364
0.999016
0.997812
0.997144
0.997154
0.997351
0.997648
0.997712
0.996998
0.995464
0.998587
0.999047
0.999336
0.999305
0.999297
0.99877
0.997797
0.999966
0.999969
0.999914
0.999797
0.999728
0.999552
0.999471
0.999991
0.999991
0.999991
0.99998
0.999972
0.999975
0.999987
0.999934
0.999991
0.999987
0.999984
0.999986
0.99999
0.999997
0.999928
0.999978
0.999925
0.999866
0.999832
0.999794
0.999815
0.999161
0.999585
0.999631
0.999624
0.999489
0.999053
0.998215
0.997682
0.997498
0.998378
0.998178
0.99849
0.998018
0.99689
0.998818
0.999193
0.999467
0.999502
0.999306
0.998769
0.997967
0.999994
0.999947
0.999886
0.999801
0.99973
0.99966
0.99973
0.999996
0.999989
0.999988
0.999979
0.999976
0.999977
0.999994
1
0.999996
0.999994
0.999999
1
1
1
0.999996
0.999981
0.999965
0.999955
0.999986
0.999999
1
0.999804
0.999705
0.99976
0.999637
0.999706
0.999938
1
0.998342
0.998538
0.998776
0.998802
0.999107
0.999035
0.999085
0.999292
0.99936
0.999643
0.999565
0.999494
0.999552
0.999691
0.999994
0.999978
0.999968
0.999934
0.999921
0.999969
0.999994
1
1
1
0.999999
0.999999
1
1
1
0.999997
0.999995
0.999999
1
1
1
0.999997
0.999987
0.99997
0.999966
0.999996
1
1
0.99991
0.999823
0.999833
0.999767
0.999916
0.999974
1
0.998908
0.99903
0.999104
0.999213
0.999274
0.999497
0.999686
0.999505
0.999566
0.999763
0.999691
0.999845
0.999997
1
0.999996
0.999988
0.999967
0.999937
0.999981
1
1
1
1
1
0.999999
1
1
1
1
0.999998
0.999999
1
1
1
1
0.999999
0.999995
0.99999
0.99998
0.999997
0.999999
1
0.999944
0.999903
0.999889
0.999877
0.999945
0.99996
1
0.999318
0.999373
0.999418
0.999342
0.999507
0.999753
0.999909
0.999741
0.999779
0.999866
0.999859
0.999979
0.99999
1
0.999998
0.999996
0.999982
0.999968
0.999998
0.999999
1
1
1
1
1
1
1
1
1
0.999999
1
1
1
1
1
0.999999
0.999998
0.999993
0.999988
0.999995
0.999999
1
0.999963
0.999953
0.999941
0.999937
0.999971
0.999993
1
0.999569
0.999579
0.999652
0.999608
0.999699
0.999891
0.999987
0.999907
0.99989
0.999931
0.999939
0.999991
0.999995
1
0.999999
0.999997
0.999992
0.999991
0.999996
0.999998
0.999999
1
1
1
1
1
1
1
1
1
1
1
1
1
1
0.999999
0.999996
0.99999
0.999991
0.999995
0.999998
0.999999
0.999976
0.99996
0.999958
0.999966
0.999974
0.999997
0.999999
0.999744
0.999698
0.999724
0.999724
0.999821
0.999959
0.999998
0.999961
0.999946
0.999958
0.999953
0.999962
0.999993
1
0.999999
0.999997
0.999997
0.999997
0.999998
0.999999
0.999999
1
1
1
0.999999
1
1
1
0.999999
0.999999
1
1
1
1
1
0.999997
0.999994
0.999995
0.999996
0.999998
0.999999
0.999999
0.999989
0.999979
0.999982
0.999988
0.999983
0.999994
0.999999
0.9999
0.999827
0.999849
0.999826
0.999883
0.999965
0.999999
0.999989
0.999979
0.999982
0.999977
0.999975
0.999989
0.999999
0.999998
0.999997
0.999998
0.999998
0.999998
0.999998
0.999999
1
1
1
1
1
1
1
1
1
1
1
1
1
1
0.999998
0.999999
0.999999
0.999999
1
1
1
0.999996
0.999994
0.999995
0.999996
0.999996
0.999997
0.999999
0.999955
0.999926
0.999934
0.999921
0.999925
0.999965
0.999991
0.999997
0.999994
0.999995
0.999994
0.999992
0.999995
0.999998
0.999999
0.999999
1
0.999999
0.999998
0.999999
0.999999
1
1
1
1
1
1
1
0.999992
0.999987
0.999986
0.999995
0.999995
0.999996
1
1
0.999926
0.999896
0.999886
0.999911
0.999911
1
0.999211
0.999533
0.999727
0.999473
0.999457
0.999104
0.999454
0.997711
0.997792
0.998392
0.99823
0.998638
0.998124
0.997173
0.998824
0.999119
0.999452
0.999444
0.999323
0.998707
0.997934
1
0.999842
0.999825
0.999811
0.999771
0.999774
0.999932
1
0.999985
0.999989
0.999988
0.999984
0.999986
1
1
0.999996
0.999989
0.999997
0.999997
0.999998
1
1
0.999958
0.999917
0.999905
0.999937
0.999939
1
0.999242
0.999533
0.99973
0.999479
0.999457
0.999193
0.999994
0.997729
0.997821
0.998406
0.998266
0.998682
0.998173
0.997371
0.998846
0.999128
0.999451
0.999443
0.999316
0.998703
0.997969
1
0.999897
0.999858
0.999847
0.999808
0.999819
0.999969
1
0.999991
0.999994
0.999992
0.99999
0.999992
1
1
0.999996
0.999989
0.999998
0.999998
0.999999
1
1
0.999961
0.99992
0.999909
0.999946
0.999953
1
0.999323
0.999537
0.99974
0.999479
0.99946
0.999317
1
0.997781
0.997869
0.998426
0.998294
0.998709
0.998206
0.997527
0.998866
0.999127
0.999446
0.999447
0.999307
0.998697
0.99805
1
0.999909
0.999875
0.999864
0.999821
0.999837
0.999981
1
0.999992
0.999995
0.999994
0.999991
0.999994
1
1
0.999995
0.999988
0.999998
0.999998
0.999999
1
1
0.999959
0.999918
0.999909
0.999949
0.99997
1
0.999382
0.999549
0.999747
0.999489
0.999469
0.999404
1
0.997813
0.997908
0.99846
0.99834
0.998756
0.998276
0.997757
0.998909
0.999131
0.999447
0.999459
0.999298
0.998692
0.99811
1
0.999912
0.999894
0.999892
0.99983
0.999866
0.999982
1
0.999993
0.999997
0.999996
0.999992
0.999994
1
1
0.999994
0.999987
0.999998
0.999998
0.999999
1
1
0.999963
0.999924
0.999915
0.999957
0.999979
1
0.999441
0.999573
0.999746
0.999492
0.999474
0.999493
1
0.997889
0.997938
0.998479
0.998369
0.998781
0.998317
0.998037
0.998971
0.99914
0.999443
0.999465
0.999278
0.998693
0.998233
1
0.999892
0.999916
0.999904
0.999852
0.999879
0.999982
1
0.999995
0.999998
0.999998
0.999993
0.999994
1
1
0.999994
0.999986
0.999998
0.999999
1
1
1
0.999963
0.99994
0.999931
0.999962
0.999989
1
0.999465
0.999573
0.999745
0.99949
0.999488
0.999549
1
0.997924
0.998007
0.998508
0.998384
0.998792
0.998419
0.998144
0.999025
0.999163
0.999443
0.999466
0.999267
0.9987
0.998322
1
0.999877
0.999941
0.999916
0.99987
0.999914
0.999984
1
0.999998
0.999999
0.999998
0.999996
0.999998
1
1
0.99999
0.999988
0.999999
1
1
1
1
0.999939
0.999953
0.999942
0.999975
0.999994
1
0.999526
0.999576
0.999739
0.999478
0.999494
0.999622
1
0.998006
0.99804
0.998532
0.99842
0.998802
0.998454
0.998245
0.999053
0.999171
0.999447
0.999462
0.99924
0.998743
0.998573
1
0.999908
0.999955
0.999926
0.999884
0.999933
1
1
1
1
0.999999
0.999998
1
1
1
1
1
1
1
1
1
1
1
1
1
1
1
1
1
1
0.999999
0.999998
0.999992
0.999992
0.999997
0.99996
0.999946
0.999953
0.999942
0.999952
0.999967
0.99999
1
0.999998
0.999995
0.999995
0.999993
0.999992
0.999996
1
1
1
0.999999
0.999999
1
1
1
1
1
1
1
1
1
1
1
1
1
1
1
1
1
1
1
1
1
1
1
1
0.999998
0.999996
0.999991
0.999991
0.999992
0.999996
0.999964
0.999953
0.999959
0.999949
0.999955
0.999969
0.999989
1
0.999997
0.999996
0.999994
0.999992
0.999993
0.999996
1
1
1
1
1
1
1
1
1
1
1
1
1
1
1
1
1
1
1
1
1
1
1
1
1
1
1
1
0.999999
0.999996
0.999992
0.999988
0.999989
0.999992
0.999995
0.999971
0.999959
0.999962
0.999954
0.999957
0.999971
0.999984
0.999999
0.999993
0.999993
0.999991
0.99999
0.999991
0.999994
1
1
1
0.999999
0.999999
0.999999
1
1
1
1
1
1
1
1
1
1
1
1
1
1
1
1
1
1
1
1
1
1
0.999997
0.999994
0.999991
0.999988
0.999988
0.999989
0.999993
0.999977
0.999964
0.999966
0.99996
0.999961
0.999972
0.999983
0.999998
0.999992
0.999993
0.999991
0.999989
0.999989
0.999991
1
1
1
1
1
1
1
1
1
1
1
1
1
1
1
1
1
1
1
1
1
1
1
1
1
1
1
1
0.999997
0.999993
0.999991
0.999992
0.999989
0.99999
0.999993
0.999979
0.999967
0.999969
0.999966
0.999965
0.999972
0.999983
0.999996
0.999992
0.999994
0.999993
0.99999
0.99999
0.999991
1
1
1
1
1
1
1
1
1
1
1
1
1
1
1
1
1
1
1
1
1
1
1
1
1
1
1
1
0.999997
0.999996
0.999995
0.999994
0.999991
0.999991
0.999992
0.999982
0.999976
0.999976
0.999976
0.999971
0.999973
0.999982
0.999996
0.999996
0.999996
0.999996
0.999993
0.999992
0.999992
1
1
1
1
1
1
1
1
1
1
1
1
1
1
1
1
1
1
1
1
1
1
1
1
1
1
1
1
0.999998
0.999999
0.999997
0.999997
0.999995
0.999994
0.999994
0.999989
0.99999
0.999988
0.999989
0.999984
0.999982
0.999983
0.999997
0.999998
0.999998
0.999998
0.999997
0.999995
0.999994
1
1
1
1
1
1
1
1
1
1
1
1
1
1
1
1
1
1
1
1
1
1
1
1
1
1
1
1
0.999998
0.999999
1
1
1
1
1
0.999993
0.999996
0.999998
0.999999
1
1
1
0.999997
0.999997
0.999998
0.999999
1
1
1
1
1
1
1
1
1
1
1
1
1
1
1
1
1
1
1
1
1
1
1
1
1
1
1
1
1
1
1
0.999998
0.999998
0.999999
1
1
1
1
0.999991
0.999995
0.999996
0.999998
0.999999
0.999999
1
0.999997
0.999997
0.999998
0.999998
0.999999
1
1
1
1
1
1
1
1
1
1
1
1
1
1
1
1
1
1
1
1
1
1
1
1
1
1
1
1
1
1
0.999997
0.999997
0.999998
0.999999
1
1
1
0.999991
0.999993
0.999995
0.999996
0.999997
0.999998
0.999999
0.999995
0.999995
0.999996
0.999997
0.999998
0.999999
1
1
1
1
1
1
1
1
1
1
1
1
1
1
1
1
1
1
1
1
1
1
1
1
1
1
1
1
1
0.999995
0.999996
0.999997
0.999998
0.999999
0.999999
1
0.999989
0.99999
0.999992
0.999993
0.999995
0.999996
0.999997
0.999994
0.999994
0.999994
0.999995
0.999996
0.999997
0.999998
0.999999
1
1
1
1
1
1
1
1
1
1
1
1
1
1
1
1
1
1
1
1
1
1
1
1
1
1
1
0.999993
0.999994
0.999995
0.999996
0.999997
0.999998
0.999999
0.999986
0.999988
0.99999
0.999991
0.999993
0.999994
0.999995
0.999992
0.999993
0.999994
0.999994
0.999995
0.999996
0.999996
1
1
1
1
1
1
1
1
1
1
1
1
1
1
1
1
1
1
1
1
1
1
1
1
1
1
1
1
0.999992
0.999993
0.999994
0.999994
0.999995
0.999996
0.999997
0.999984
0.999986
0.999987
0.999989
0.999989
0.999991
0.999992
0.999992
0.999993
0.999993
0.999994
0.999994
0.999995
0.999996
1
1
1
1
1
1
1
1
1
1
1
1
1
1
1
1
1
1
1
1
1
1
1
1
1
1
1
1
0.999994
0.999994
0.999994
0.999995
0.999995
0.999996
0.999996
0.999985
0.999986
0.999987
0.999988
0.999989
0.999989
0.99999
0.999994
0.999994
0.999994
0.999995
0.999995
0.999995
0.999996
1
1
1
1
1
1
1
1
1
1
1
1
1
1
1
1
1
1
1
1
1
1
1
1
1
1
1
1
1
1
1
1
1
1
1
1
1
1
1
1
1
0.999979
1
1
1
1
1
1
1
1
1
1
1
1
1
1
1
1
1
1
1
1
1
1
1
1
1
1
1
1
1
1
1
1
1
1
1
1
1
1
1
1
1
1
1
1
1
1
0.999999
0.999993
0.999978
1
1
1
1
1
1
1
1
1
1
1
1
1
1
1
1
1
1
1
1
1
1
1
1
1
1
1
1
1
1
1
1
1
1
1
1
1
1
1
1
1
0.999999
1
1
0.999999
0.999999
0.999996
0.999989
0.999979
1
1
1
1
1
1
1
1
1
1
1
1
1
1
1
1
1
1
1
1
1
1
1
1
1
1
1
1
1
1
1
1
1
1
1
1
1
1
1
1
0.999999
0.999999
0.999999
0.999998
0.999997
0.999995
0.999992
0.999987
0.999981
1
1
1
0.999999
0.999999
0.999999
0.999998
1
1
1
1
1
1
1
1
1
1
1
1
1
1
1
1
1
1
1
1
1
1
1
1
1
1
1
1
1
1
1
0.999999
0.999999
0.999999
0.999998
0.999997
0.999996
0.999994
0.999993
0.99999
0.999987
0.999983
0.999999
0.999999
0.999999
0.999998
0.999998
0.999997
0.999997
1
1
1
1
1
1
1
1
1
1
1
1
1
1
1
1
1
1
1
1
1
1
1
1
1
1
1
1
1
1
0.999999
0.999999
0.999999
0.999998
0.999997
0.999996
0.999994
0.999993
0.99999
0.999989
0.999987
0.999984
0.999999
0.999999
0.999998
0.999998
0.999998
0.999997
0.999997
1
1
1
1
1
1
1
1
1
1
1
1
1
1
1
1
1
1
1
1
1
1
1
1
1
1
1
1
1
1
1
1
0.999999
0.999999
0.999998
0.999995
0.999994
0.999993
0.999992
0.999991
0.99999
0.999989
0.999999
0.999999
0.999999
0.999998
0.999998
0.999998
0.999997
1
1
1
1
1
1
1
1
1
1
1
1
1
1
1
1
1
1
1
1
1
1
1
1
1
1
1
1
1
1
1
1
1
1
1
1
1
1
1
1
1
1
1
1
1
1
1
1
1
1
1
1
1
1
1
1
1
1
1
1
1
1
1
1
1
1
1
1
1
1
1
1
1
1
1
1
1
1
1
1
1
1
1
1
1
1
1
1
1
1
1
1
1
1
1
1
1
1
1
1
1
1
1
1
1
1
1
1
1
1
1
1
1
1
1
1
1
1
1
1
1
1
1
1
1
1
1
1
1
1
1
1
1
1
1
1
1
1
1
1
1
1
1
1
1
1
1
1
1
1
1
1
1
1
1
1
1
1
1
1
1
1
1
1
1
1
1
1
1
1
1
1
1
1
1
1
1
1
1
1
1
1
1
1
1
1
1
0.999999
0.999999
1
1
1
1
1
1
1
1
1
1
1
1
1
1
1
1
1
1
1
1
1
1
1
1
1
1
1
1
1
1
1
1
1
1
1
1
1
1
1
1
1
1
1
1
1
0.999999
0.999999
0.999999
0.999998
1
1
1
1
1
1
1
1
1
1
1
1
1
1
1
1
1
1
1
1
1
1
1
1
1
1
1
1
1
1
1
1
1
1
1
1
1
1
1
1
1
1
1
1
0.999999
0.999999
0.999998
0.999997
0.999996
1
1
1
1
1
1
0.999999
1
1
1
1
1
1
1
1
1
1
1
1
1
1
1
1
1
1
1
1
1
1
1
1
1
1
1
1
1
1
1
1
1
1
1
1
0.999999
0.999998
0.999997
0.999997
0.999996
0.999996
1
1
1
1
1
0.999999
0.999999
1
1
1
1
1
1
1
1
1
1
1
1
1
1
1
1
1
1
1
1
1
1
1
1
1
1
1
1
1
1
1
1
1
1
1
1
0.999999
0.999999
0.999998
0.999998
0.999998
0.999998
1
1
1
1
1
1
1
1
1
1
1
1
1
1
1
1
1
1
1
1
1
1
1
1
1
1
1
1
1
1
1
1
1
1
1
1
1
1
1
1
1
1
1
0.999999
0.999999
0.999999
0.999999
0.999999
0.999999
1
1
1
1
1
1
1
1
1
1
1
1
1
1
1
1
1
1
1
1
1
1
1
1
1
1
1
1
1
1
1
1
1
1
1
1
1
1
1
1
1
1
1
0.999999
0.999999
0.999999
0.999999
0.999999
0.999999
1
1
1
1
1
1
1
1
1
1
1
1
1
1
1
1
1
1
1
1
1
1
1
1
1
1
1
1
1
1
1
1
1
1
1
1
1
1
1
1
1
1
1
1
1
1
0.999999
0.999999
0.999999
1
1
1
1
1
1
1
1
1
1
1
1
1
1
1
1
1
1
1
1
1
1
1
1
1
1
1
1
1
1
1
1
1
1
1
1
1
1
1
1
1
1
1
1
1
1
1
0.999999
0.999999
1
1
1
1
1
1
1
1
1
1
1
1
1
1
1
1
1
1
1
1
1
1
1
1
1
1
1
1
1
1
1
1
1
1
1
1
1
1
1
1
1
1
1
1
1
1
1
1
1
1
1
1
1
1
1
1
1
1
1
1
1
1
1
1
1
1
1
1
1
1
1
1
1
1
1
1
1
1
1
1
1
1
1
1
1
1
1
1
1
1
1
1
1
1
1
1
1
1
1
1
1
1
1
1
1
1
1
1
1
1
1
1
1
1
1
1
1
1
1
1
1
1
1
1
1
1
1
1
1
1
1
1
1
1
1
1
1
1
1
1
1
1
1
1
1
1
1
1
1
1
1
1
1
1
1
1
1
1
1
1
1
1
1
1
1
1
1
1
1
1
1
1
1
1
1
1
1
1
1
1
1
1
1
1
1
1
1
1
1
1
1
1
1
1
1
1
1
1
1
1
1
1
1
1
1
1
1
1
1
1
1
1
1
1
1
1
1
1
1
1
1
1
1
1
1
1
1
1
1
1
1
1
1
1
1
1
1
1
0.999999
0.999999
0.999999
0.999999
1
1
1
1
1
1
1
1
1
1
1
1
1
1
1
1
1
1
1
1
1
1
1
1
1
1
1
1
1
1
1
1
1
1
1
1
1
1
1
1
1
1
1
1
1
0.999997
0.999998
0.999998
0.999999
0.999999
0.999999
1
0.999999
1
1
1
1
1
1
1
1
1
1
1
1
1
1
1
1
1
1
1
1
1
1
1
1
1
1
1
1
1
1
1
1
1
1
0.999999
1
1
1
1
1
1
0.999996
0.999997
0.999997
0.999998
0.999998
0.999999
1
0.999997
0.999999
1
1
1
1
1
1
1
1
1
1
1
1
1
1
1
1
1
1
1
1
1
1
1
1
1
1
1
1
1
1
1
1
1
0.999998
0.999999
1
1
1
1
1
0.999994
0.999995
0.999996
0.999997
0.999997
0.999998
0.999999
0.999996
0.999997
0.999999
1
1
1
1
1
1
1
1
1
1
1
1
1
1
1
1
1
1
1
1
1
1
1
1
1
1
1
1
1
1
1
1
0.999997
0.999998
0.999998
0.999999
1
1
1
0.999991
0.999992
0.999993
0.999994
0.999996
0.999997
0.999999
0.999996
0.999996
0.999997
0.999999
1
1
1
1
1
1
1
1
1
1
1
1
1
1
1
1
1
1
1
1
1
1
1
1
1
1
1
1
1
1
1
0.999999
0.999999
0.999999
0.999999
1
1
1
0.999995
0.999995
0.999996
0.999996
0.999996
0.999997
0.999998
0.999999
0.999998
0.999998
0.999999
1
1
1
1
1
1
1
1
1
1
1
1
1
1
1
1
1
1
1
1
1
1
1
1
1
1
1
1
1
1
1
0.999999
0.999999
0.999999
1
1
1
1
0.999997
0.999997
0.999997
0.999997
0.999998
0.999997
0.999998
0.999999
0.999999
0.999999
1
1
1
1
1
1
1
1
1
1
1
1
1
1
1
1
1
1
1
1
1
1
1
1
1
1
1
1
1
1
1
1
0.999999
0.999999
1
1
1
1
1
0.999997
0.999997
0.999997
0.999998
0.999998
0.999998
0.999998
0.999999
0.999999
0.999999
1
1
1
1
1
1
1
1
1
1
1
1
1
1
1
1
1
1
1
1
1
1
1
1
1
1
1
1
1
1
1
1
1
0.999999
1
1
1
1
1
0.999997
0.999998
0.999998
0.999998
0.999998
0.999998
0.999999
0.999999
0.999999
0.999999
1
1
1
1
1
1
1
1
1
1
1
1
1
1
1
1
1
1
1
1
1
1
1
1
1
1
1
1
1
1
1
1
1
1
1
1
1
1
1
0.999998
0.999998
0.999998
0.999998
0.999998
0.999998
0.999999
0.999999
0.999999
1
1
1
1
1
1
1
1
1
1
1
1
1
1
1
1
1
1
1
1
1
1
1
1
1
1
1
1
1
1
1
1
1
1
1
1
1
1
1
1
0.999998
0.999998
0.999998
0.999999
0.999999
0.999999
0.999999
1
1
1
1
1
1
1
1
1
1
1
1
1
1
1
1
1
1
1
1
1
1
1
1
1
1
1
1
1
1
1
1
1
1
1
1
1
1
1
1
1
1
0.999999
0.999999
0.999999
0.999999
0.999999
0.999999
0.999999
1
1
1
1
1
1
1
1
1
1
1
1
1
1
1
1
1
1
1
1
1
)
;

boundaryField
{
    fuel
    {
        type            fixedValue;
        value           uniform 0;
    }
    primary_air
    {
        type            fixedValue;
        value           uniform 0.77;
    }
    Secondary_air_RHS
    {
        type            fixedValue;
        value           uniform 0.77;
    }
    Secondary_air_LHS
    {
        type            fixedValue;
        value           uniform 0.77;
    }
    outlet
    {
        type            inletOutlet;
        inletValue      uniform 0;
        value           nonuniform List<scalar> 
98
(
1
1
1
0.999999
1
1
1
1
1
1
0.999999
1
1
1
1
1
1
0.999999
1
1
1
1
1
1
0.999999
1
1
1
1
1
1
0.999999
1
1
1
1
1
1
0.999999
1
1
1
1
1
1
0.999999
1
1
1
1
1
1
1
1
1
1
1
1
1
1
1
1
1
1
1
1
1
1
1
1
1
1
1
1
1
1
1
1
1
1
1
1
1
1
1
1
1
1
1
1
1
1
1
1
1
1
1
1
)
;
    }
    stove_body
    {
        type            fixedValue;
        value           uniform 0;
    }
    frontAndBack
    {
        type            empty;
    }
}


// ************************************************************************* //
