/*--------------------------------*- C++ -*----------------------------------*\
  =========                 |
  \\      /  F ield         | OpenFOAM: The Open Source CFD Toolbox
   \\    /   O peration     | Website:  https://openfoam.org
    \\  /    A nd           | Version:  6
     \\/     M anipulation  |
\*---------------------------------------------------------------------------*/
FoamFile
{
    version     2.0;
    format      ascii;
    class       volScalarField;
    location    "0.0125";
    object      O2;
}
// * * * * * * * * * * * * * * * * * * * * * * * * * * * * * * * * * * * * * //

dimensions      [0 0 0 0 0 0 0];

internalField   nonuniform List<scalar> 
3773
(
0
0
0
0
0
0
0
0
0
0
0
0
0
0
0
0
0
0
0
0
0
0
0
0
0
0
0
0
0
0
0
0
0
0
0
0
0
0
0
0
0
0
0
0
0
0
0
0
0
0
0
0
0
0
0
0
0
0
0
0
0
0
0
0
0
0
0
0
0
0
0
0
0
0
0
0
0
0
0
0
0
0
0
0
0
0
0
0
0
0
0
0
0
0
0
0
0
0
0
0
0
0
0
0
0
0
0
0
0
0
0
0
0
0
0
0
0
0
0
0
0
0
0
0
0
0
0
0
0
0
0
0
0
0
0
0
0
0
0
0
0
0
0
0
0
0
0
0
0
0
0
0
0
0
0
0
0
0
0
0
0
0
0
0
0
0
0
0
0
0
0
0
0
0
0
0
0
0
0
0
0
0
0
0
0
0
0
0
0
0
0
0
0
0
0
0
0
0
0
0
0
0
0
0
0
0
0
0
0
0
0
0
0
0
0
0
0
0
0
0
0
0
0
0
0
0
0
0
0
0
0
0
0
0
0
0
0
0
0
0
0
0
0
0
0
0
0
0
0
0
0
0
0
0
0
0
0
0
0
0
0
0
0
0
0
0
0
0
0
0
0
0
0
0
0
0
0
0
0
0
0
0
0
0
0
0
0
0
0
0
0
0
0
0
0
0
0
0
0
0
0
0
0
0
0
0
0
0
0
0
0
0
0
0
0
0
0
0
0
0
0
0
0
0
0
0
0
0
0
0
0
0
0
0
0
0
0
0
0
0
0
0
0
0.00257456
0.00149676
0.000885227
0.000743963
0.000731339
0.00073177
0.000977982
0.00290348
0.00197561
0.00147528
0.00109511
0.00102688
0.00101256
0.00105703
0.004872
0.00462402
0.00456707
0.00426979
0.0039621
0.00385054
0.00373586
0.0077185
0.00700452
0.00747409
0.00882817
0.00768991
0.00688742
0.00727385
0.00466708
0.00377845
0.00336715
0.00334306
0.00344074
0.00377977
0.00450303
0.00281929
0.00177761
0.00129702
0.00145704
0.00148357
0.00190348
0.00338507
0.00220581
0.00109071
0.000878024
0.000770608
0.000773068
0.000982294
0.00232695
0.00196722
0.000231518
4.4081e-06
9.15337e-06
1.3763e-05
1.21389e-05
1.18525e-05
0.00207367
0.000328489
3.0605e-05
2.86172e-05
4.67316e-05
7.93568e-05
0.000112073
0.00383456
0.00231476
0.00187753
0.00188792
0.00202347
0.00237441
0.00264187
0.00682855
0.00598455
0.00624992
0.00790767
0.00675334
0.00633804
0.00670817
0.00271218
0.00164104
0.0016797
0.00208144
0.00171883
0.00173958
0.0029521
0.000640086
4.98727e-05
6.5888e-05
9.41225e-05
0.00016737
0.000364932
0.00150629
0.000201269
1.70404e-05
2.60091e-05
2.92664e-05
2.97151e-05
5.63531e-05
0.000112051
0.00129561
2.82982e-05
4.05668e-06
1.34276e-05
2.25444e-05
1.91848e-05
1.21903e-05
0.000936147
5.11104e-05
1.60503e-05
2.71656e-05
6.15146e-05
0.000125287
0.000231054
0.00246782
0.00139534
0.00105227
0.00103229
0.00110009
0.00180941
0.00266782
0.00556875
0.00552529
0.00559224
0.0067903
0.00620547
0.00505236
0.00569021
0.00178629
0.00094641
0.0013962
0.00229073
0.00175522
0.00152202
0.00189401
0.000260114
4.70866e-05
0.000111852
0.000149428
0.000216727
0.000279111
0.000350789
8.95437e-05
1.10544e-05
1.87282e-05
2.4772e-05
1.91764e-05
2.65854e-05
2.36498e-05
0.000703617
1.21331e-06
5.9394e-06
1.81594e-05
2.63579e-05
2.50888e-05
1.63056e-05
0.000405009
6.11164e-06
6.44199e-06
3.34972e-05
8.99846e-05
0.000211481
0.000374216
0.00220933
0.0009214
0.000736851
0.000762182
0.000817515
0.00152886
0.00277689
0.00518234
0.00461525
0.00445011
0.00478711
0.00503534
0.00485289
0.00540593
0.00148564
0.000859233
0.00103008
0.00190502
0.00153064
0.00115137
0.00152728
0.000165769
5.45896e-05
0.000101571
0.000157723
0.000201098
0.000217683
0.000248431
4.98217e-05
7.27612e-06
1.39036e-05
2.09638e-05
1.92069e-05
2.74736e-05
2.34784e-05
0.000329407
2.7251e-06
9.53244e-06
2.19711e-05
2.98928e-05
2.89232e-05
2.16438e-05
0.000292353
1.31017e-05
1.09005e-05
6.65262e-05
0.000173286
0.000305902
0.000492483
0.00197152
0.000748238
0.00053473
0.000638648
0.000659431
0.00119542
0.00270589
0.00429734
0.00348965
0.00307034
0.00330879
0.00320952
0.00423973
0.00512826
0.00142958
0.000897751
0.000774134
0.00118721
0.00101545
0.00115096
0.00176582
8.55819e-05
3.32557e-05
8.72979e-05
0.000148262
0.000231709
0.00035287
0.00039386
2.61981e-05
7.05954e-06
8.46832e-06
1.62829e-05
2.2858e-05
2.63209e-05
2.10194e-05
0.000200129
4.44895e-06
1.17752e-05
2.4417e-05
3.02026e-05
3.2619e-05
2.02987e-05
0.000141877
2.60961e-05
2.37161e-05
0.000131395
0.000245833
0.000331467
0.000467782
0.00117097
0.000614006
0.000454048
0.000507674
0.000635562
0.000984297
0.00218836
0.00285629
0.00284576
0.00264902
0.0023524
0.00228797
0.00300246
0.00453585
0.00141339
0.000953144
0.000663578
0.000694964
0.000702805
0.00123047
0.00220333
3.40391e-05
3.13419e-05
8.57819e-05
0.000203133
0.000272315
0.000448262
0.000529014
8.56019e-06
9.21032e-06
9.01192e-06
1.95129e-05
2.77391e-05
2.5191e-05
1.28866e-05
6.62246e-05
8.94489e-06
1.33375e-05
1.60056e-05
1.36922e-05
9.75388e-06
2.71933e-06
7.19087e-05
2.23852e-05
7.54472e-05
0.000134174
0.000168499
0.000206239
0.000184839
0.000839116
0.00041471
0.000368981
0.000375642
0.000511414
0.000947203
0.00178454
0.00231791
0.00250228
0.00162214
0.00182233
0.00150957
0.00198188
0.00311025
0.00118207
0.000806586
0.000532896
0.000498447
0.000694373
0.00123104
0.00203279
5.99742e-06
5.33969e-05
0.000113838
0.000198994
0.000270084
0.000339981
0.000270073
4.48485e-06
1.13411e-05
1.20112e-05
2.11705e-05
2.37649e-05
2.33271e-05
5.88552e-06
2.98884e-08
3.91949e-06
6.18012e-06
6.47731e-07
2.56113e-07
1.04272e-07
7.1286e-08
3.67113e-06
1.94942e-05
3.45284e-05
4.4594e-05
1.3604e-05
6.71618e-07
1.62978e-07
0.000195977
0.000295248
0.000240474
0.00036326
0.000294038
6.1669e-05
1.14635e-07
0.0016581
0.00146212
0.00122439
0.00119776
0.000893268
0.000964969
0.000914897
0.000707627
0.000640316
0.000356972
0.000434679
0.000505684
0.000447596
0.000309228
5.6557e-06
2.16884e-05
3.20794e-05
6.60605e-05
7.87319e-05
3.14804e-05
5.79589e-06
0
1.44493e-07
2.57226e-07
9.09949e-07
5.56718e-07
2.48188e-07
6.2341e-08
3.6543e-07
2.67468e-06
5.43652e-06
1.07913e-06
3.26034e-07
1.55341e-07
7.38786e-08
2.79637e-06
1.31796e-05
2.96646e-05
3.36366e-05
4.02558e-06
3.26045e-07
1.69244e-07
8.98005e-05
0.000176538
0.000166775
0.000233186
8.35276e-05
2.5949e-05
1.1941e-07
0.00109168
0.000969971
0.000895585
0.000787477
0.000726152
0.000502837
0.000313804
0.00049535
0.000434226
0.000237275
0.000309178
0.000155231
3.49874e-06
8.10762e-08
4.3103e-06
1.18478e-05
3.31876e-05
6.32212e-05
1.86883e-05
4.79495e-07
1.90814e-07
3.81246e-08
1.38357e-07
2.69268e-07
7.48209e-07
4.66622e-07
1.96361e-07
5.96124e-08
2.42287e-07
1.5033e-06
7.06541e-07
3.78998e-07
2.79412e-07
1.77953e-07
1.15793e-07
9.59446e-07
5.23566e-06
9.85405e-06
2.04602e-05
3.33347e-06
7.83132e-07
2.82836e-07
5.56117e-05
9.69757e-05
0.000110596
0.000123354
5.48615e-05
4.01636e-05
1.92997e-07
0.000682083
0.000627033
0.00058213
0.000658495
0.000493052
0.000247091
9.06285e-05
0.000258737
0.000220615
0.000133622
0.000140886
2.06172e-05
9.92426e-06
1.72978e-07
2.41248e-06
4.27479e-06
1.84204e-05
3.18073e-05
2.34361e-06
9.94887e-07
3.59069e-07
7.26548e-08
1.76488e-07
4.12357e-07
2.95685e-07
2.58265e-07
1.64886e-07
1.26027e-07
1.46604e-07
5.92743e-07
3.30581e-07
3.37274e-07
2.84841e-07
2.12232e-07
1.40563e-07
6.50512e-07
2.12249e-06
6.82257e-06
1.21321e-05
4.61536e-06
1.21446e-06
4.72745e-07
3.70111e-05
4.67262e-05
5.86376e-05
6.32325e-05
2.91656e-05
6.88326e-06
3.26502e-07
0.000430733
0.000421021
0.000347923
0.000391954
0.000300699
0.000108548
1.31552e-05
9.33169e-05
0.000109635
6.89761e-05
6.06979e-05
8.95413e-06
4.54509e-06
3.81815e-07
9.92697e-07
2.66699e-06
7.62995e-06
8.57429e-06
4.15738e-06
1.64311e-06
5.94348e-07
9.555e-08
1.0881e-07
3.90203e-07
3.95012e-07
3.36502e-07
3.14158e-07
2.26017e-07
2.66167e-07
4.40224e-07
3.13565e-07
3.87075e-07
2.82433e-07
2.26511e-07
2.16985e-07
1.45784e-06
3.96302e-06
9.78518e-06
9.48735e-06
4.64015e-06
1.63038e-06
5.7138e-07
2.42719e-05
4.0308e-05
4.17227e-05
3.40579e-05
2.64071e-05
3.03719e-06
5.97377e-07
0.000256406
0.000302268
0.000276484
0.000276363
0.000179418
4.11368e-05
1.63871e-06
3.85165e-05
5.4169e-05
4.18072e-05
4.65673e-05
3.83259e-05
6.72792e-06
4.89685e-07
6.64621e-07
3.03671e-06
3.21882e-06
2.63199e-06
1.95476e-06
1.41763e-06
6.88233e-07
1.0432e-07
7.4948e-08
3.26061e-07
5.28962e-07
4.85473e-07
4.46641e-07
3.2904e-07
7.47351e-07
6.20285e-07
3.13528e-07
2.28273e-07
1.94116e-07
2.76045e-07
3.12632e-07
2.80773e-06
5.60255e-06
5.42022e-06
4.03406e-06
2.30067e-06
1.26479e-06
5.59643e-07
1.07422e-05
2.054e-05
1.8017e-05
1.2275e-05
1.65131e-05
6.35064e-06
9.82853e-07
0.000100316
0.000173469
0.000151297
0.000173786
0.000117313
3.52856e-05
8.36349e-07
1.06584e-05
2.13218e-05
1.76873e-05
2.31479e-05
2.47687e-05
1.06197e-05
1.43402e-06
1.75741e-06
2.8879e-06
2.33961e-06
2.26654e-06
2.17731e-06
1.50837e-06
7.08091e-07
5.82989e-08
5.72978e-08
2.10247e-07
4.5497e-07
4.52701e-07
3.97206e-07
3.11695e-07
4.07592e-07
1.57649e-07
1.3299e-07
1.49994e-07
5.70423e-08
9.20121e-08
1.35434e-07
1.54233e-06
1.35554e-06
9.28206e-07
6.38599e-07
4.98105e-07
3.64311e-07
2.37267e-07
3.87748e-06
5.53654e-06
5.23574e-06
3.90598e-06
4.48474e-06
3.01264e-06
1.26645e-06
4.54499e-05
7.43228e-05
6.58567e-05
7.86572e-05
7.53883e-05
3.47876e-05
8.53239e-06
3.37582e-06
5.74611e-06
5.26602e-06
5.98693e-06
7.63863e-06
5.49632e-06
2.40745e-06
1.01817e-06
5.96169e-07
4.83926e-07
8.34844e-07
1.74903e-06
1.43184e-06
6.25259e-07
8.75185e-09
6.57203e-08
9.88667e-08
1.37538e-07
1.4401e-07
1.86123e-07
2.17019e-07
7.88916e-06
1.25617e-05
1.41409e-05
5.19316e-06
4.85624e-06
3.84335e-06
0
0
7.40754e-05
0.000104253
0.000113838
8.93801e-05
8.94277e-05
0
0.000788715
0.000467301
0.000272958
0.000527287
0.000542698
0.000895564
0.000545519
0.00228905
0.00220845
0.0016077
0.00176983
0.00136227
0.00187615
0.00282728
0.0011755
0.000880588
0.000547708
0.000556418
0.000676706
0.00129322
0.00206625
0
0.00015799
0.0001753
0.000189251
0.000228654
0.00022595
6.76812e-05
0
1.45755e-05
1.07427e-05
1.19978e-05
1.57463e-05
1.38461e-05
0
0
4.34819e-06
1.08081e-05
2.81516e-06
3.01284e-06
1.8804e-06
0
0
4.18362e-05
8.32913e-05
9.51753e-05
6.26369e-05
6.06127e-05
0
0.000757631
0.000467344
0.000270323
0.000520781
0.000542717
0.00080739
5.55697e-06
0.00227057
0.00217876
0.00159374
0.00173359
0.00131796
0.00182694
0.0026295
0.00115429
0.000871646
0.000549478
0.000556971
0.000683929
0.0012968
0.00203142
0
0.000102573
0.00014226
0.000153039
0.000191768
0.00018121
3.05846e-05
0
9.21765e-06
6.35536e-06
7.88995e-06
1.02707e-05
7.66761e-06
0
0
4.00118e-06
1.05302e-05
2.22193e-06
2.40293e-06
1.3163e-06
0
0
3.90651e-05
7.9906e-05
9.13385e-05
5.43374e-05
4.74689e-05
0
0.000677473
0.000462775
0.00025986
0.000520573
0.00053988
0.000682931
0
0.00221925
0.00213094
0.0015737
0.00170599
0.0012908
0.00179445
0.00247313
0.00113444
0.000872669
0.000554236
0.000552535
0.000693245
0.0013035
0.00194955
0
9.11453e-05
0.00012481
0.000136407
0.000178946
0.000163004
1.89416e-05
0
7.84681e-06
4.95566e-06
6.47783e-06
8.64727e-06
6.21462e-06
0
0
4.97902e-06
1.24028e-05
2.2182e-06
1.84445e-06
7.93793e-07
0
0
4.09792e-05
8.23132e-05
9.14239e-05
5.13765e-05
2.97492e-05
0
0.000618198
0.000450691
0.000253425
0.000511325
0.00053074
0.000596457
0
0.00218677
0.00209156
0.00154043
0.00166006
0.00124358
0.00172385
0.0022435
0.00109085
0.000869076
0.000553383
0.000540547
0.000702447
0.00130822
0.00188994
0
8.82373e-05
0.000106153
0.000108169
0.000170091
0.000134497
1.77477e-05
0
6.76526e-06
3.05694e-06
3.67498e-06
8.09437e-06
6.1167e-06
0
0
5.9621e-06
1.31847e-05
2.22863e-06
1.58602e-06
6.59341e-07
0
0
3.70098e-05
7.5666e-05
8.49357e-05
4.2649e-05
2.14361e-05
0
0.000558843
0.000426675
0.000254019
0.00050753
0.000525942
0.000507311
0
0.00211132
0.00206213
0.00152093
0.00163073
0.00121859
0.00168299
0.00196271
0.00102914
0.000859972
0.000556534
0.000535113
0.000722225
0.00130694
0.00176748
0
0.000107825
8.35703e-05
9.6408e-05
0.000148353
0.000120595
1.7822e-05
0
4.58751e-06
2.2812e-06
2.4951e-06
7.42507e-06
5.93164e-06
0
0
6.10316e-06
1.36386e-05
2.04134e-06
8.41884e-07
3.26221e-07
0
0
3.71956e-05
5.985e-05
6.94082e-05
3.84466e-05
1.05026e-05
0
0.000534628
0.000426507
0.000255387
0.000510166
0.000511793
0.000451416
0
0.00207567
0.00199347
0.00149167
0.00161628
0.00120756
0.00158108
0.00185554
0.000974603
0.000836537
0.000557467
0.000534441
0.000732934
0.0013003
0.00167788
0
0.000123047
5.87699e-05
8.42545e-05
0.000130443
8.61318e-05
1.64122e-05
0
2.20888e-06
9.99414e-07
1.63674e-06
3.95645e-06
2.27324e-06
0
0
1.02773e-05
1.15617e-05
1.0185e-06
3.21976e-07
1.05822e-07
0
0
6.05787e-05
4.72861e-05
5.84715e-05
2.48122e-05
5.68815e-06
0
0.000473906
0.000424276
0.000261097
0.00052186
0.000506041
0.000378195
0
0.00199393
0.00195953
0.00146775
0.00158016
0.00119849
0.00154602
0.00175494
0.000947171
0.000828651
0.000553185
0.000538294
0.00075995
0.00125698
0.00142748
0
9.21095e-05
4.53974e-05
7.39903e-05
0.000116475
6.74842e-05
0
0
2.63734e-07
2.62542e-07
8.9049e-07
2.08897e-06
3.69837e-07
0
6.7297e-09
1.6598e-08
2.35561e-08
2.39563e-08
1.86758e-08
1.28261e-08
3.12871e-09
4.64208e-09
2.60652e-08
8.05931e-08
1.09984e-07
1.65759e-07
1.2261e-07
6.18792e-08
1.01446e-08
1.91032e-07
6.07865e-07
1.91161e-06
7.954e-06
7.98864e-06
2.92398e-06
4.01262e-05
5.35823e-05
4.73675e-05
5.84802e-05
4.83074e-05
3.28275e-05
9.7367e-06
9.54773e-09
1.84269e-06
4.69454e-06
4.70464e-06
7.38992e-06
8.19774e-06
3.63768e-06
6.22381e-10
3.69491e-08
2.78427e-07
5.76802e-07
6.23254e-07
4.85185e-07
1.22936e-07
9.39744e-10
4.46847e-08
6.14506e-08
5.37391e-08
3.49412e-08
2.54092e-08
5.19647e-09
2.13094e-08
3.76368e-08
4.05799e-08
4.38507e-08
3.94961e-08
1.97557e-08
6.8301e-09
1.69826e-08
9.94089e-08
2.0303e-07
2.37858e-07
3.19824e-07
2.54011e-07
8.7963e-08
7.67999e-08
1.52126e-06
4.21637e-06
8.69115e-06
8.81758e-06
7.58147e-06
3.83779e-06
3.59584e-05
4.74671e-05
4.11066e-05
5.11611e-05
4.47941e-05
3.05251e-05
1.14332e-05
1.67073e-07
3.30755e-06
4.18215e-06
5.93629e-06
8.30335e-06
7.26996e-06
4.40187e-06
3.08408e-09
1.40455e-07
3.14285e-07
3.65666e-07
4.13077e-07
4.32033e-07
1.92509e-07
3.31717e-09
3.71841e-08
4.15507e-08
4.26686e-08
3.98281e-08
2.44295e-08
1.10942e-08
2.86933e-08
5.52514e-08
6.92274e-08
7.43843e-08
5.69353e-08
3.74061e-08
2.24241e-08
1.11148e-07
1.99776e-07
3.05344e-07
4.12038e-07
4.97544e-07
4.12603e-07
1.89897e-07
1.38152e-06
3.69831e-06
7.81978e-06
1.18899e-05
1.11345e-05
8.40104e-06
5.32247e-06
2.93555e-05
4.08403e-05
3.78421e-05
4.6153e-05
4.25551e-05
2.92825e-05
1.56339e-05
5.58949e-07
7.45305e-06
6.68255e-06
9.46147e-06
1.00813e-05
9.31388e-06
6.36003e-06
7.77522e-09
2.3291e-07
4.47705e-07
5.08129e-07
5.2799e-07
5.41581e-07
3.96495e-07
9.15413e-09
6.47067e-08
1.23978e-07
1.29572e-07
9.64538e-08
6.98139e-08
3.35755e-08
5.8639e-08
8.62211e-08
1.15682e-07
1.20722e-07
1.07168e-07
8.40631e-08
7.85989e-08
2.63633e-07
3.76223e-07
4.19104e-07
4.71668e-07
4.58034e-07
4.01703e-07
4.17564e-07
2.6513e-06
6.19688e-06
8.86858e-06
1.23505e-05
1.22715e-05
1.10845e-05
7.36164e-06
2.28455e-05
3.6441e-05
3.4063e-05
3.97737e-05
3.87511e-05
2.78932e-05
1.71324e-05
2.47666e-06
8.21595e-06
7.11715e-06
9.29051e-06
1.13367e-05
1.07481e-05
9.00502e-06
4.40836e-08
3.01782e-07
4.20687e-07
4.37857e-07
4.86704e-07
4.97912e-07
4.98559e-07
2.95663e-08
1.03277e-07
1.64438e-07
1.60494e-07
1.25997e-07
1.07556e-07
1.08006e-07
6.5927e-08
9.74373e-08
1.0681e-07
1.07722e-07
9.03514e-08
7.82392e-08
7.0142e-08
3.05723e-07
3.55857e-07
3.81837e-07
3.96411e-07
3.56959e-07
3.42383e-07
3.32527e-07
3.3174e-06
6.66639e-06
8.57303e-06
8.28882e-06
1.0522e-05
9.79544e-06
7.22192e-06
2.07246e-05
3.28411e-05
3.08461e-05
3.42954e-05
3.47418e-05
2.84507e-05
1.69953e-05
3.86767e-06
7.69547e-06
6.11515e-06
7.31828e-06
1.02963e-05
9.97929e-06
9.13661e-06
1.04057e-07
2.83939e-07
2.86939e-07
2.03606e-07
2.73834e-07
3.00302e-07
3.10971e-07
4.06183e-08
1.08521e-07
1.39526e-07
1.06782e-07
8.64032e-08
6.1588e-08
4.40049e-08
6.83913e-08
8.27141e-08
7.19515e-08
6.49443e-08
5.24421e-08
5.4165e-08
4.34629e-08
2.18299e-07
2.29949e-07
2.31519e-07
2.33887e-07
1.91328e-07
1.89619e-07
1.87106e-07
3.16634e-06
3.51926e-06
4.85663e-06
5.53504e-06
9.12279e-06
9.22475e-06
7.99331e-06
1.82584e-05
2.39121e-05
2.42274e-05
2.40297e-05
2.87591e-05
2.67346e-05
1.83659e-05
3.92326e-06
3.97486e-06
3.71636e-06
4.34478e-06
6.87237e-06
8.3738e-06
7.70305e-06
1.53851e-07
2.51772e-07
1.10565e-07
7.76472e-08
1.13794e-07
1.3638e-07
1.55429e-07
6.70626e-08
1.06475e-07
1.02819e-07
6.08211e-08
3.99167e-08
3.20849e-08
3.33013e-08
6.12376e-08
5.96068e-08
5.57651e-08
5.08586e-08
3.92781e-08
3.50126e-08
3.10982e-08
8.94359e-08
9.39732e-08
8.17991e-08
7.46361e-08
6.23828e-08
6.32617e-08
7.4495e-08
1.97233e-06
1.44932e-06
2.60747e-06
3.10749e-06
4.6154e-06
5.58235e-06
6.07195e-06
1.11706e-05
9.52148e-06
1.20868e-05
1.12626e-05
1.5951e-05
1.75122e-05
1.65518e-05
2.59573e-06
1.53519e-06
1.56765e-06
2.00173e-06
3.44101e-06
4.84071e-06
5.71202e-06
1.45949e-07
1.70999e-07
1.13705e-07
7.77191e-08
6.29851e-08
5.01731e-08
5.24107e-08
7.43929e-08
9.27795e-08
8.23609e-08
6.38847e-08
4.95064e-08
4.09981e-08
3.20039e-08
8.22514e-10
4.71603e-10
4.75143e-10
4.49334e-10
3.64162e-10
2.85488e-10
1.59051e-10
2.57877e-08
6.76604e-09
3.28542e-10
1.93025e-10
1.55899e-10
4.15713e-11
2.30565e-11
2.10956e-06
1.48828e-06
1.18091e-08
4.34264e-09
6.34268e-09
7.24964e-09
8.67504e-09
7.30453e-06
4.22159e-06
2.09164e-06
8.12922e-07
3.05794e-07
1.72269e-07
1.36902e-07
2.71308e-06
2.52728e-06
2.07632e-06
5.29721e-07
2.27406e-09
2.72382e-09
4.33803e-09
5.18145e-08
4.13272e-08
3.91509e-08
8.23506e-09
7.1841e-11
5.0762e-11
4.28008e-11
9.92507e-10
4.28786e-10
4.19414e-10
2.57587e-10
2.53736e-10
2.47838e-10
1.85103e-10
3.68254e-09
2.81482e-09
2.88371e-09
2.76131e-09
2.41127e-09
1.79108e-09
7.83272e-10
6.70145e-08
3.11118e-08
1.98828e-08
2.86989e-09
5.09521e-10
3.3731e-10
1.87109e-10
2.40935e-06
2.02048e-06
1.40951e-06
2.37133e-07
5.70804e-09
7.25702e-09
1.04437e-08
8.53873e-06
5.09369e-06
3.5345e-06
2.37774e-06
1.32143e-06
6.92302e-07
4.73688e-07
2.99536e-06
2.82066e-06
2.38358e-06
1.85574e-06
7.72879e-07
3.58167e-09
5.53355e-09
1.31696e-07
1.04239e-07
9.03798e-08
5.46765e-08
1.48243e-08
2.7485e-10
2.34824e-10
3.24477e-09
1.65545e-09
1.60755e-09
1.50328e-09
1.30923e-09
1.23267e-09
7.57627e-10
1.80442e-08
1.31399e-08
1.16223e-08
1.00853e-08
8.80613e-09
6.32126e-09
2.66528e-09
1.44455e-07
6.90665e-08
4.41097e-08
1.71275e-08
8.3593e-09
1.37179e-09
1.00311e-09
3.00693e-06
2.59174e-06
2.00211e-06
1.32454e-06
4.14314e-07
8.45593e-09
1.23623e-08
8.8971e-06
7.4109e-06
5.2333e-06
3.78166e-06
3.09623e-06
2.09697e-06
1.439e-06
5.14451e-06
4.57037e-06
3.84873e-06
3.04455e-06
2.24972e-06
1.19993e-06
1.85836e-07
3.09839e-07
2.05901e-07
1.69232e-07
1.13509e-07
6.70476e-08
1.22104e-08
1.48283e-09
2.50403e-08
1.07953e-08
8.55002e-09
5.78264e-09
4.63842e-09
3.66353e-09
1.73959e-09
5.44473e-08
5.08228e-08
4.29558e-08
2.28572e-08
2.03662e-08
1.58228e-08
5.18695e-09
2.68794e-07
1.95602e-07
1.49314e-07
6.58689e-08
2.77102e-08
8.09248e-09
6.48241e-09
5.46097e-06
4.23108e-06
3.0974e-06
2.14653e-06
1.36855e-06
5.42249e-07
1.19231e-07
1.12674e-05
1.02958e-05
7.99598e-06
6.95066e-06
5.15836e-06
3.88286e-06
3.08125e-06
6.3935e-06
6.0701e-06
5.5864e-06
5.23848e-06
4.17924e-06
3.26833e-06
2.25307e-06
5.05414e-07
4.22976e-07
3.98607e-07
3.00295e-07
2.12533e-07
1.20404e-07
2.27434e-08
1.1382e-07
8.27182e-08
6.33218e-08
2.47024e-08
1.14507e-08
1.08378e-08
4.55138e-09
5.51183e-08
6.88206e-08
7.57597e-08
6.36658e-08
4.48315e-08
3.11677e-08
1.53505e-08
2.73131e-07
2.69116e-07
2.06276e-07
1.31626e-07
8.21716e-08
4.99233e-08
3.26115e-08
6.82565e-06
6.0362e-06
5.4867e-06
4.17786e-06
3.17637e-06
2.29849e-06
1.40134e-06
1.36139e-05
1.20898e-05
1.00092e-05
9.06227e-06
7.05319e-06
6.31404e-06
4.69459e-06
7.85675e-06
6.63154e-06
6.30762e-06
5.60837e-06
5.24196e-06
4.37594e-06
3.6013e-06
2.86215e-07
2.35993e-07
2.15871e-07
1.6356e-07
1.47488e-07
1.42076e-07
1.25689e-07
5.38331e-08
4.58875e-08
4.09709e-08
2.84519e-08
2.13836e-08
1.80422e-08
1.04236e-08
4.97388e-08
6.84401e-08
6.65115e-08
5.56008e-08
4.13982e-08
3.28019e-08
1.96693e-08
2.13287e-07
2.12601e-07
1.57902e-07
9.78607e-08
7.12137e-08
4.19491e-08
2.63484e-08
7.80074e-06
7.11101e-06
6.34337e-06
5.72083e-06
4.65856e-06
4.00459e-06
2.58356e-06
1.61214e-05
1.36812e-05
1.28587e-05
1.12292e-05
1.059e-05
9.06057e-06
8.18826e-06
7.71852e-06
7.37912e-06
6.8061e-06
6.08192e-06
5.6345e-06
4.79746e-06
4.13285e-06
1.52375e-07
1.18539e-07
1.02665e-07
7.4994e-08
6.60687e-08
5.62563e-08
3.8381e-08
4.15099e-08
3.9859e-08
3.23511e-08
2.79892e-08
2.50507e-08
2.1969e-08
1.32907e-08
3.08282e-08
3.03542e-08
2.90779e-08
2.74783e-08
2.50627e-08
2.23181e-08
1.94556e-08
8.18144e-08
9.19399e-08
9.65998e-08
9.25534e-08
8.27296e-08
7.52745e-08
5.39946e-08
6.14044e-06
5.9838e-06
5.62032e-06
5.1469e-06
4.68801e-06
4.14381e-06
3.62775e-06
1.50906e-05
1.39895e-05
1.28593e-05
1.21686e-05
1.11566e-05
1.0553e-05
9.63816e-06
5.97861e-06
5.92593e-06
5.78325e-06
5.46694e-06
5.177e-06
4.51359e-06
4.3204e-06
5.13473e-08
4.93979e-08
4.7005e-08
4.44141e-08
4.1401e-08
3.71064e-08
3.07353e-08
3.0068e-08
2.96093e-08
2.82358e-08
2.69793e-08
2.4636e-08
2.28775e-08
1.78325e-08
2.82652e-10
4.89703e-10
9.47853e-10
1.91319e-09
2.17664e-09
2.14364e-09
2.07913e-09
1.022e-10
2.16779e-10
5.4667e-10
1.26741e-09
1.59641e-09
1.87851e-09
2.16432e-09
1.4753e-11
3.56955e-11
9.85369e-11
1.9394e-10
6.43479e-10
2.71006e-09
5.1922e-09
1.72829e-10
1.34156e-10
2.06436e-10
2.23231e-10
5.21503e-10
3.19125e-09
2.11349e-05
5.06895e-11
2.21256e-10
4.77602e-10
4.54139e-10
4.38299e-10
3.87831e-10
4.0712e-10
1.98165e-10
2.8714e-10
3.17431e-10
4.16913e-10
4.41122e-10
4.5736e-10
4.63688e-10
4.21755e-10
5.76152e-10
5.82891e-10
6.78641e-10
7.67621e-10
7.90585e-10
8.04368e-10
1.67123e-09
4.33912e-09
1.40314e-08
1.76093e-08
1.78367e-08
1.66055e-08
1.56192e-08
1.17101e-09
3.16555e-09
1.01248e-08
1.27081e-08
1.34115e-08
1.61151e-08
1.66877e-08
1.60255e-10
6.89788e-10
1.17854e-09
2.69843e-09
1.98257e-08
3.3544e-08
6.78048e-08
2.72385e-08
4.24916e-08
9.5377e-08
2.01546e-07
1.18432e-06
6.64094e-06
2.2169e-05
6.54461e-10
2.68235e-09
4.14984e-09
3.90952e-09
3.59006e-09
3.20041e-09
2.66793e-09
1.81001e-09
2.42734e-09
2.7883e-09
3.75005e-09
3.80284e-09
3.67177e-09
3.22063e-09
1.41643e-09
3.21085e-09
4.08648e-09
6.19471e-09
6.61712e-09
6.3503e-09
5.17458e-09
7.26375e-09
2.55794e-08
3.71239e-08
3.68944e-08
3.41865e-08
2.89136e-08
1.98385e-08
1.64704e-08
2.71458e-08
4.14202e-08
3.72441e-08
3.42747e-08
7.42282e-08
1.00195e-07
2.10702e-09
5.08948e-09
8.9886e-09
1.5141e-08
1.65792e-07
4.50785e-07
7.80474e-07
3.07112e-07
4.87972e-07
7.40332e-07
1.27783e-06
4.02618e-06
1.11506e-05
2.11385e-05
1.48336e-08
3.03258e-08
3.15114e-08
2.56675e-08
1.90742e-08
1.27668e-08
9.74933e-09
1.46871e-08
1.68515e-08
1.85648e-08
2.05598e-08
2.03424e-08
1.89781e-08
1.70918e-08
4.17824e-09
1.52821e-08
2.09546e-08
2.40084e-08
2.30252e-08
2.21262e-08
1.77538e-08
1.99656e-08
4.61216e-08
4.80947e-08
4.61828e-08
4.0772e-08
3.68464e-08
4.1503e-08
7.07312e-08
1.0191e-07
1.13021e-07
1.17484e-07
1.17423e-07
1.46069e-07
1.91509e-07
9.04183e-08
1.18607e-07
1.68173e-07
2.89859e-07
4.92149e-07
8.26512e-07
1.21038e-06
1.09458e-06
1.60267e-06
3.03572e-06
4.59015e-06
7.68562e-06
1.25635e-05
1.85037e-05
9.93185e-08
1.98523e-07
2.80661e-07
5.52687e-07
8.32274e-07
1.25979e-06
1.89016e-06
3.48246e-08
3.31929e-08
3.34382e-08
3.70591e-08
2.83882e-08
2.69763e-08
2.41061e-08
1.43836e-08
3.07225e-08
3.72509e-08
3.13039e-08
2.24427e-08
2.03532e-08
1.78789e-08
3.49671e-08
5.04655e-08
5.44409e-08
5.57002e-08
5.63266e-08
5.67535e-08
6.20948e-08
1.29574e-07
1.63501e-07
1.89078e-07
2.17446e-07
2.29242e-07
2.5355e-07
2.82162e-07
1.70959e-07
2.70204e-07
3.9061e-07
5.04271e-07
7.8426e-07
1.19504e-06
1.74893e-06
2.58097e-06
3.62518e-06
5.7059e-06
7.45262e-06
9.73408e-06
1.28791e-05
1.72437e-05
6.47865e-07
9.41509e-07
1.2827e-06
2.07642e-06
2.48824e-06
3.15839e-06
3.40995e-06
6.10156e-08
6.42872e-08
6.93658e-08
7.00291e-08
6.28729e-08
6.14433e-08
8.38014e-08
2.64992e-08
4.44834e-08
4.16038e-08
3.51345e-08
3.09311e-08
2.66476e-08
3.19734e-08
4.01392e-08
4.88805e-08
5.23418e-08
5.49004e-08
5.74216e-08
5.9247e-08
6.30982e-08
1.12946e-07
1.09781e-07
1.10954e-07
1.24002e-07
1.52708e-07
1.81027e-07
2.03638e-07
2.87838e-07
4.09705e-07
5.47092e-07
8.40237e-07
9.90159e-07
1.88186e-06
2.61687e-06
4.29964e-06
6.40067e-06
7.25884e-06
9.84942e-06
1.09553e-05
1.33776e-05
1.58781e-05
8.88201e-07
1.14317e-06
1.60454e-06
1.81095e-06
2.32984e-06
2.69945e-06
3.291e-06
9.7775e-08
1.03355e-07
1.18821e-07
1.22288e-07
1.24878e-07
1.31491e-07
1.36033e-07
3.59112e-08
5.19192e-08
5.55282e-08
5.5503e-08
5.5989e-08
5.64104e-08
5.8509e-08
3.82354e-08
4.08102e-08
3.74912e-08
4.21494e-08
5.20661e-08
5.57979e-08
5.94269e-08
7.53643e-08
6.30197e-08
4.91944e-08
3.56182e-08
3.30292e-08
4.43755e-08
7.25365e-08
1.95137e-07
1.90425e-07
1.87348e-07
2.56552e-07
6.26771e-07
1.44353e-06
1.96708e-06
5.21944e-06
5.84477e-06
6.86762e-06
8.49891e-06
9.22248e-06
1.04175e-05
1.08529e-05
1.00254e-06
1.19247e-06
1.42687e-06
1.77135e-06
2.06162e-06
2.42e-06
2.57239e-06
9.00003e-08
9.37098e-08
1.07549e-07
1.12466e-07
1.14853e-07
1.24352e-07
1.2922e-07
4.16503e-08
5.39455e-08
6.03906e-08
6.26801e-08
6.45396e-08
6.75216e-08
6.84773e-08
1.75262e-12
2.57502e-12
7.08437e-12
1.19396e-11
2.84313e-11
4.10448e-11
8.67494e-11
1.18028e-12
1.87627e-12
4.26869e-12
7.40071e-12
1.93869e-11
2.67431e-11
5.87043e-11
1.38237e-10
3.52226e-11
1.35002e-11
8.69174e-12
9.42426e-12
9.93659e-12
1.14482e-11
9.547e-10
2.4795e-11
3.63047e-11
4.23481e-11
4.73797e-11
6.95547e-11
1.12471e-10
1.63586e-10
5.13583e-11
2.80071e-11
2.41177e-11
2.54075e-11
2.95066e-11
3.62792e-11
8.39703e-12
1.6988e-11
1.99402e-11
2.59359e-11
4.7364e-11
7.47953e-11
1.35409e-10
6.60547e-12
7.48266e-12
1.72458e-11
2.43939e-11
4.16321e-11
8.46228e-11
1.28527e-10
1.74912e-12
3.32851e-12
1.44731e-11
3.58853e-11
9.10305e-11
1.35902e-10
4.20214e-10
1.00642e-12
3.73217e-12
8.58917e-12
2.86763e-11
6.54414e-11
1.37187e-10
3.77332e-10
3.917e-10
3.23329e-10
4.10971e-10
2.32242e-10
1.14791e-10
8.25255e-11
8.61685e-11
2.47189e-09
3.42136e-09
7.12822e-09
1.02831e-08
1.25185e-08
1.75874e-08
1.99569e-08
3.67937e-10
4.11389e-10
5.93443e-10
5.27042e-10
3.21079e-10
2.89272e-10
3.10418e-10
8.079e-12
2.46767e-11
3.28237e-11
7.34202e-11
1.92483e-10
4.39499e-10
7.96563e-10
4.94203e-12
7.58693e-12
2.68929e-11
5.37247e-11
1.39652e-10
2.97228e-10
5.79824e-10
9.06472e-13
3.77203e-12
2.02705e-11
6.85707e-11
1.43119e-10
2.34731e-10
1.25308e-09
2.15437e-12
7.86923e-12
1.79258e-11
8.91102e-11
2.82876e-10
1.39292e-09
4.3976e-09
7.957e-10
1.59099e-09
2.43441e-09
8.16998e-10
3.90726e-10
4.71573e-10
7.59315e-10
7.15173e-09
1.9666e-08
4.0419e-08
5.67993e-08
7.76518e-08
1.3874e-07
1.75727e-07
8.69791e-10
1.64667e-09
2.96332e-09
1.66778e-09
1.2401e-09
1.38711e-09
3.12975e-09
1.98058e-11
3.82937e-11
4.97815e-11
2.2136e-10
1.54405e-09
3.56246e-09
8.55902e-09
3.67013e-12
8.56171e-12
3.57675e-11
9.46107e-11
3.07873e-10
5.81601e-10
1.26481e-09
1.57844e-12
5.51851e-12
3.06048e-11
9.59415e-11
1.6678e-10
3.33078e-10
1.6922e-09
5.35067e-12
1.20688e-11
3.77636e-11
4.68455e-10
1.91517e-09
9.67503e-09
2.08435e-08
2.27315e-09
6.35838e-09
1.04498e-08
4.63144e-09
2.25623e-09
1.58253e-09
1.83128e-08
2.54865e-08
9.68345e-08
1.88225e-07
2.97318e-07
4.59764e-07
5.95772e-07
8.0528e-07
2.90011e-09
6.82779e-09
1.0793e-08
6.41322e-09
3.71918e-09
5.51464e-09
1.0615e-08
2.68097e-11
5.44696e-11
9.60022e-11
1.22344e-09
6.32683e-09
2.46933e-08
2.77445e-08
4.22856e-12
1.22054e-11
5.06733e-11
1.36484e-10
3.98578e-10
9.64982e-10
2.24507e-09
1.90095e-12
6.33706e-12
3.55929e-11
1.07364e-10
1.92074e-10
3.6553e-10
2.00459e-09
7.99588e-12
1.83778e-11
1.34682e-10
1.95372e-09
7.82088e-09
2.51798e-08
7.1732e-08
6.2882e-09
1.31825e-08
1.43262e-08
5.32507e-09
1.35084e-08
3.45922e-08
8.87513e-08
5.70341e-08
1.65265e-07
3.5458e-07
6.22483e-07
1.00426e-06
1.32367e-06
1.95006e-06
8.22383e-09
1.53329e-08
1.69602e-08
1.22406e-08
4.34492e-08
1.40367e-07
2.37438e-07
3.13591e-11
7.09514e-11
2.02821e-10
4.88813e-09
2.49591e-08
4.36474e-08
6.70149e-08
4.49932e-12
1.33804e-11
5.72426e-11
1.66879e-10
4.92873e-10
1.26278e-09
2.43666e-09
2.08154e-12
6.98985e-12
3.88996e-11
1.13451e-10
2.03942e-10
3.85836e-10
2.79902e-09
1.052e-11
2.65284e-11
4.07218e-10
4.18084e-09
2.13009e-08
5.97813e-08
8.92019e-08
1.10232e-08
2.35854e-08
2.61188e-08
7.1492e-09
2.47404e-08
1.19756e-07
1.88296e-07
8.04854e-08
3.20164e-07
8.52873e-07
1.33366e-06
1.89987e-06
3.05896e-06
3.62244e-06
1.37867e-08
2.72997e-08
2.29178e-08
1.81477e-08
9.35326e-08
4.15103e-07
6.54678e-07
3.66154e-11
9.30816e-11
5.67435e-10
9.49284e-09
3.73745e-08
7.35162e-08
8.59192e-08
4.65526e-12
1.40674e-11
6.20863e-11
1.78147e-10
5.32105e-10
1.35549e-09
3.42461e-09
2.15753e-12
7.35443e-12
4.04922e-11
1.15837e-10
2.1185e-10
3.9255e-10
3.02937e-09
1.30289e-11
3.99091e-11
9.07138e-10
7.23816e-09
3.78297e-08
4.89441e-08
7.75759e-08
2.77454e-08
5.49791e-08
2.61809e-08
2.69006e-08
9.81122e-08
1.50363e-07
1.86787e-07
2.6455e-07
9.09589e-07
1.71692e-06
2.5425e-06
3.21571e-06
3.97144e-06
4.34507e-06
3.29069e-08
6.30775e-08
6.41917e-08
1.57224e-07
4.88822e-07
6.73601e-07
9.06734e-07
4.02063e-11
1.2851e-10
1.0658e-09
1.50727e-08
5.57726e-08
7.64796e-08
8.60572e-08
4.58616e-12
1.41931e-11
6.50205e-11
1.84996e-10
5.56409e-10
1.395e-09
4.19397e-09
7.85624e-13
7.75686e-12
2.94794e-11
1.1785e-10
1.99686e-10
3.96783e-10
8.13002e-10
1.78988e-11
8.11121e-11
1.33749e-10
7.02572e-11
1.26571e-08
6.67753e-09
4.82569e-08
2.91063e-08
3.06571e-08
2.11731e-08
1.70571e-08
4.92795e-08
7.5996e-08
9.59448e-08
3.51921e-07
9.9257e-07
1.32809e-06
1.63491e-06
1.73913e-06
1.81826e-06
1.65132e-06
3.53904e-08
3.41324e-08
3.65712e-08
6.76403e-08
2.04564e-07
3.14396e-07
3.56164e-07
5.28318e-11
2.56607e-10
5.32042e-10
1.06734e-09
1.73056e-08
2.69441e-08
5.08031e-08
2.22867e-12
1.42623e-11
4.5413e-11
1.90937e-10
4.47488e-10
1.41362e-09
1.8378e-09
9.52951e-13
7.88124e-12
3.74646e-11
1.11747e-10
2.24343e-10
1.72444e-10
8.80574e-10
2.42314e-11
1.43621e-10
4.47356e-10
9.94721e-10
1.88682e-09
2.0799e-09
9.8842e-09
1.3317e-08
1.23188e-08
1.18039e-08
1.13673e-08
2.39708e-08