/*--------------------------------*- C++ -*----------------------------------*\
  =========                 |
  \\      /  F ield         | OpenFOAM: The Open Source CFD Toolbox
   \\    /   O peration     | Website:  https://openfoam.org
    \\  /    A nd           | Version:  6
     \\/     M anipulation  |
\*---------------------------------------------------------------------------*/
FoamFile
{
    version     2.0;
    format      ascii;
    class       volScalarField;
    location    "0.0125";
    object      p;
}
// * * * * * * * * * * * * * * * * * * * * * * * * * * * * * * * * * * * * * //

dimensions      [1 -1 -2 0 0 0 0];

internalField   nonuniform List<scalar> 
3773
(
42203
42203.2
42204
42203.9
42203.7
42202.8
42202.6
102418
102418
102417
102417
102417
102418
102419
138322
138322
138322
138322
138322
138322
138322
150386
150386
150386
150386
150386
150386
150386
138322
138322
138321
138321
138322
138321
138321
102419
102419
102419
102418
102418
102419
102420
42202.1
42202.5
42203.5
42203.8
42203.4
42202.5
42202.1
42198.9
42198.8
42199.4
42199.3
42199.2
42198.5
42198.5
102418
102418
102418
102418
102417
102418
102419
138322
138322
138322
138322
138322
138322
138322
150387
150387
150387
150387
150387
150387
150388
138322
138322
138322
138322
138322
138322
138322
102419
102419
102419
102419
102418
102419
102419
42198
42198.3
42199
42199.4
42199
42198.1
42198
42192.2
42192
42192.4
42192.3
42192.2
42191.7
42191.9
102420
102420
102420
102420
102420
102421
102420
138323
138323
138323
138323
138323
138323
138323
150389
150389
150389
150389
150389
150389
150389
138323
138323
138323
138323
138323
138323
138323
102420
102420
102421
102421
102420
102421
102421
42191.4
42191.5
42192.2
42192.4
42192
42191.3
42191.5
42184.8
42184.6
42184.9
42184.7
42184.6
42184.2
42184.6
102425
102425
102425
102425
102425
102425
102425
138324
138324
138324
138323
138323
138323
138324
150390
150390
150390
150390
150390
150390
150390
138324
138324
138324
138324
138324
138324
138324
102425
102425
102425
102425
102424
102425
102426
42184.1
42183.9
42184.6
42184.6
42184.2
42183.8
42184.1
42178.8
42178.7
42179
42179
42178.7
42178.3
42178.6
102430
102430
102429
102429
102430
102430
102431
138324
138323
138323
138323
138323
138323
138323
150390
150390
150389
150390
150390
150391
150390
138324
138323
138323
138323
138323
138323
138323
102430
102430
102430
102430
102429
102430
102431
42177.9
42177.8
42178.6
42178.4
42177.9
42177.6
42177.9
42175.9
42176.1
42176.6
42176.7
42176.3
42175.8
42175.6
102431
102430
102430
102430
102430
102431
102432
138323
138323
138323
138322
138323
138322
138323
150390
150389
150389
150389
150390
150390
150390
138323
138323
138323
138324
138323
138323
138323
102431
102431
102430
102430
102430
102430
102432
42174.5
42174.9
42175.9
42175.7
42175.3
42174.8
42174.5
42175.8
42176.2
42176.7
42177
42176.6
42176
42175.4
102430
102429
102429
102428
102429
102430
102431
138323
138322
138322
138322
138323
138322
138322
150390
150390
150389
150389
150390
150391
150390
138323
138323
138323
138323
138323
138323
138323
102430
102430
102429
102428
102429
102429
102431
42174.1
42174.8
42175.9
42175.8
42175.3
42174.7
42174.1
62098.3
61907.8
61950.5
62119.4
62240.8
62280.6
62272.7
148756
148337
148167
148255
148449
148567
148654
198991
198830
198704
198641
198639
198681
198726
215712
215638
215572
215493
215444
215419
215420
199189
199138
199099
199023
198959
198932
198985
149052
149038
148987
148948
148865
148785
148876
62586.7
62513
62511.9
62610.8
62725.6
62755.9
62770
61458.8
61328.7
61443.5
61632.7
61780.6
61839
61884.8
147794
147519
147421
147507
147700
147824
147943
198403
198268
198156
198101
198116
198165
198199
215313
215239
215172
215115
215091
215085
215107
198664
198594
198549
198507
198507
198532
198620
148358
148301
148263
148230
148174
148240
148421
62005
61907.5
61894.7
61961.3
62117.8
62235.8
62342
61068.4
61060.5
61138.4
61217.1
61290.1
61341.3
61397.5
147175
147077
147020
147060
147134
147193
147236
197870
197836
197795
197763
197754
197749
197737
214896
214831
214796
214782
214772
214749
214751
198151
198075
198061
198066
198080
198101
198130
147699
147640
147625
147589
147553
147700
147813
61409.4
61353
61351.2
61379.3
61520.3
61670
61789.2
60963.9
60962.2
60942.1
60893.1
60880.4
60911
60956.5
146909
146826
146786
146739
146729
146721
146681
197594
197566
197543
197514
197498
197459
197410
214622
214546
214499
214486
214468
214422
214410
197776
197711
197697
197644
197560
197481
197461
147270
147217
147179
147035
146897
146918
147027
61150.1
61116.2
61134.7
61103.3
61118.9
61218.5
61338.6
60873
60829.4
60757.1
60685
60636.4
60631.5
60715.7
146727
146626
146612
146551
146507
146517
146553
197376
197330
197347
197368
197386
197384
197398
214389
214308
214277
214285
214321
214323
214335
197584
197452
197383
197315
197250
197161
197158
147114
147003
146835
146647
146481
146377
146427
61206.8
61156.8
61096.7
60952.2
60842.9
60844.3
60883.5
60792.2
60690.5
60603.1
60601.2
60589.9
60568.1
60573.6
146659
146558
146484
146446
146427
146466
146575
197223
197213
197261
197299
197382
197483
197623
214203
214173
214183
214244
214380
214487
214583
197434
197293
197229
197230
197283
197295
197338
147037
146863
146611
146466
146392
146373
146454
61298.3
61220.6
60994.6
60817.6
60714.9
60670.2
60692.4
60786.8
60619.1
60510.6
60637.4
60772.1
60845.8
60824
146707
146568
146417
146422
146562
146642
146837
197239
197301
197276
197290
197455
197648
197949
214201
214317
214267
214360
214550
214704
214800
197211
197189
197195
197272
197393
197506
197604
146786
146608
146520
146489
146506
146610
146788
61182.8
61073.8
60922.6
60872.2
60837.2
60885
60950
60375.8
60276
60172.5
60441.9
61111.2
61520.8
61512.5
146479
146267
146055
146127
146488
146711
146935
197342
197297
197240
197215
197220
197286
197523
214373
214399
214415
214369
214336
214411
214535
197316
197307
197368
197490
197635
197973
198336
146340
146373
146431
146670
146896
147144
147486
60517
60843.5
61074.8
61357.6
61412.4
61343.1
61402.2
60291.1
60219.7
60080.6
60173.1
60518.4
61156
61508.2
146055
145930
145777
145733
145910
146370
146759
196989
197019
197014
196954
196895
196899
197179
214227
214252
214229
214115
213983
213938
214145
197368
197327
197285
197284
197268
197394
197853
146344
146265
146249
146372
146460
146779
147216
60529.3
60576
60990.9
60934.4
60938.4
60995.7
61154.3
60479.7
60472.4
60390.9
60365.4
60591.1
61140.1
61536.3
145870
145835
145780
145663
145666
146168
146805
196599
196707
196742
196694
196592
196643
197038
213828
213890
213893
213796
213651
213557
213806
197270
197230
197157
197055
196938
196966
197439
146750
146559
146373
146317
146297
146575
147106
61051
60827.8
60920.5
60765.9
60785.9
60862.3
61043.6
60749.1
60829.1
60738.4
60672.1
60767.1
61147.4
61512
146097
146033
145876
145648
145553
146001
146926
196599
196662
196627
196464
196280
196348
196818
213583
213664
213656
213506
213308
213207
213412
197099
197135
197045
196833
196613
196699
197210
147049
146871
146448
146248
146333
146793
147582
61796.8
61226.3
60629.5
60624.4
60856.8
61032
61261.2
60682.4
60946.5
61039
60949.6
60921.6
61213.9
61617.2
146165
146097
145986
145676
145623
146207
147469
196816
196741
196602
196312
196034
196062
196689
213744
213686
213528
213239
212950
212791
212975
196989
197138
197006
196661
196318
196312
196806
146500
146963
146562
146348
146393
146731
147584
61405
61673.2
60530.7
60504
60833.3
61056.7
61355.7
60411
60935.4
61264.2
60852.6
60695.5
61183.3
61948.7
145790
145883
146023
145901
145903
146809
148559
196811
196735
196585
196332
196061
196028
196721
213883
213701
213437
213160
212903
212536
212505
197091
197180
196993
196524
196097
195900
196123
146223
146644
146421
145881
145447
145707
146524
60695
62005
60745.2
60206.3
60177.6
60373
60767.4
59302
61914.8
61300.1
60561.9
60747.7
61224.2
62029.2
144550
146372
146637
146122
145773
146469
148341
196414
196793
196796
196582
196289
196055
196252
213426
213357
213248
213094
212780
211910
211180
197257
197487
197168
196461
195809
195302
195301
146821
148529
147622
145670
144656
144748
145618
62667.4
65239.6
62519.3
60681.5
59842.6
59925.2
60139.9
60763.6
60557.5
60506.6
61031.4
61603.4
61674.4
61438.1
146711
146543
146426
146631
146933
146894
147186
197213
197206
197165
197169
197386
197587
198023
214100
214136
214154
214301
214407
214510
214702
197095
197156
197201
197340
197587
197707
197994
146682
146792
146956
146941
146889
146921
147412
60963
61287.5
61622.6
61839.4
61498.9
61382.4
61427.7
60757.9
60545.6
60491.5
61045.8
61671.2
61753.2
61474.8
146709
146535
146424
146643
146946
146953
147239
197216
197200
197152
197170
197386
197575
198044
214084
214139
214160
214269
214378
214507
214712
197086
197160
197208
197342
197552
197727
198026
146665
146815
147015
147006
146940
146976
147488
60932.2
61292.9
61691.6
61956.1
61541.7
61403.2
61448.2
60732.8
60534.7
60478.9
61035.8
61731
61822.5
61504.6
146696
146521
146408
146632
146938
147020
147285
197232
197200
197147
197183
197381
197541
198056
214092
214145
214173
214244
214352
214510
214712
197099
197168
197223
197348
197515
197751
198046
146647
146823
147081
147072
146991
147038
147541
60901.8
61297.8
61756.1
62112.4
61574.6
61423
61449.1
60708.1
60527.7
60468.4
60997.9
61820
61922.6
61570.1
146682
146505
146394
146620
146938
147061
147322
197243
197200
197148
197200
197368
197508
198043
214120
214156
214189
214243
214334
214504
214691
197120
197180
197238
197358
197501
197776
198070
146626
146821
147150
147139
147042
147086
147576
60874.5
61328.7
61853.8
62272.3
61648.8
61474.8
61461.5
60692.1
60519.8
60457.8
60939.4
61950.3
62061.6
61677.3
146667
146487
146380
146613
146949
147075
147350
197248
197201
197152
197212
197347
197479
197998
214150
214172
214207
214255
214323
214487
214658
197136
197192
197252
197371
197509
197802
198101
146601
146829
147215
147186
147089
147109
147599
60846.6
61361.3
61945.9
62323.8
61771.5
61561.7
61499.6
60679.9
60502
60451.7
60850.8
62022.4
62164.2
61764.9
146649
146468
146360
146603
146968
147074
147367
197249
197202
197158
197219
197325
197451
197938
214177
214196
214230
214268
214315
214467
214627
197150
197205
197266
197387
197529
197829
198136
146573
146845
147253
147208
147120
147111
147606
60815.3
61350
61928.2
62256.9
61881.3
61630
61564
60658.8
60478.3
60437.4
60743.3
61936.4
62116.1
61751.4
146630
146447
146330
146575
146962
147047
147348
197253
197208
197167
197219
197310
197430
197885
214200
214221
214254
214281
214311
214450
214610
197166
197216
197281
197404
197549
197858
198171
146546
146829
147215
147177
147121
147112
147590
60781.5
61284.9
61822.9
62134.7
61862.2
61604.3
61609.2
69245.7
67211.8
63028.1
61182.2
60955.8
61025.9
60889.1
151297
149599
147451
146772
146096
145906
146136
197202
196973
196658
196418
196132
195926
194620
212105
212866
212932
212847
212569
211919
209327
197596
198789
197744
196455
195501
194961
193935
152169
155686
151981
147231
145185
144505
144337
68904.1
70721.6
65604.7
61950.4
60477.4
60363
60392.1
71047.4
67679.5
63273.5
61382.5
60950
60751.7
60127
152675
150610
147635
146561
146114
145710
145372
197317
196956
196546
196273
196023
195778
194385
211997
212855
212903
212813
212505
211786
209420
197761
199296
197934
196452
195433
194688
193708
153546
156986
152378
147680
145519
144564
144022
69129.1
70827.2
65703.4
62228
60760.4
60384
60078
70638.1
67245.4
63230.3
61531.5
60875.1
60429.6
59423
152584
150540
147924
146746
146236
145664
144811
197365
196953
196562
196256
196037
195623
194352
212108
212970
213034
212916
212506
211724
209812
197814
199552
198049
196505
195463
194540
193659
153188
156512
151955
147842
145887
144777
143998
68213.1
69846.6
65103.5
62302.6
61021.9
60392.7
59907.9
69385.2
66278.5
63087.3
61584.3
60939
60347.6
59228.8
152324
150299
148130
147043
146349
145650
144554
197386
197022
196659
196354
196125
195613
194417
212243
213160
213231
213115
212638
211862
210144
197661
199486
198095
196642
195531
194560
193601
152138
155352
151017
147856
146072
145001
144159
67233.7
68510.1
64510.8
62219.2
61087.4
60495.7
60041.3
68748.6
65671.3
63053.3
61617.4
60973.9
60348.8
59246.9
152233
150165
148324
147216
146516
145796
144557
197422
197127
196817
196540
196271
195780
194491
212421
213371
213443
213336
212873
212166
210411
197744
199387
198181
196821
195640
194661
193591
152031
154336
150451
147859
146112
145145
144433
67065.6
67779.8
64235.4
62173.9
61052.3
60591.7
60252.7
68714.2
65423.7
63007.1
61647.5
60965.8
60339.3
59242.7
152265
150060
148369
147331
146642
145932
144566
197561
197246
196997
196710
196410
195978
194585
212630
213522
213633
213498
213125
212487
210673
197994
199464
198280
196964
195736
194753
193647
152766
154075
150234
147754
146028
145181
144591
67660.3
67898
64202.8
62177.5
61011.2
60654.7
60384.9
69174.1
65439.7
63030.2
61720.3
60992.2
60370.7
59265.5
152552
150144
148458
147481
146721
146023
144579
197752
197347
197135
196813
196512
196053
194694
212846
213569
213755
213576
213324
212653
210935
198354
199644
198397
197086
195827
194815
193749
153844
154862
150336
147727
146003
145226
144682
68312.4
68688.6
64412.8
62225.2
61010.7
60759.5
60528.9
60914
60374.2
60015.4
60581.7
63161.4
68530.5
76771.9
144232
143184
142728
142537
142758
144169
147645
191540
192022
192347
191671
189964
187374
184583
203820
204697
205380
204815
203064
200261
196590
189640
190131
191114
191198
190176
188364
186055
142987
142159
142230
142532
143407
145797
149816
60784.7
60224.9
59937.3
60945.1
64000
70144
78994.2
59829.2
59549.3
59430.3
59706.3
61207.6
65430.7
72692.3
143788
142940
142218
141770
141664
142822
145702
192451
192149
192089
191519
189855
187356
184491
206092
205577
205422
204728
203027
200302
196679
191236
190883
191130
190830
189961
188340
186045
142527
141793
141509
141501
142172
144037
147498
59822.4
59428.1
59246.2
59816.7
61847.1
66721.4
74735.5
58859.1
58912.8
58989.1
58966
59251.8
61376.3
66628.3
143327
142432
141533
140867
140445
140850
142528
192743
192065
191686
191127
189650
187274
184362
207397
206181
205343
204421
202784
200258
196805
191939
191087
190580
189989
189383
188315
186295
142543
141710
141056
140658
140803
141940
144604
59251
58956.7
58785.9
58906.5
59820.4
62659.9
68765.8
58683.2
58732.6
58724.8
58696.3
58702.7
59193.4
61508.4
143133
142195
141224
140340
139682
139349
139571
192721
191803
191013
190179
188872
186897
184205
207868
206493
205268
204023
202312
199797
196423
192057
190977
189926
188976
188193
187410
185900
142797
141888
141021
140372
140100
140528
142303
59377.2
59058.6
58874.3
58885.6
59306.5
60682.9
64547.6
58663.7
58552
58425.9
58402.9
58567.1
58907.1
59919.2
143204
142246
141192
140119
139208
138473
137868
192649
191554
190434
189262
187823
185905
183436
208042
206592
205183
203646
201719
198924
195127
191953
190793
189480
188169
186945
185817
184566
143171
142297
141399
140627
140065
139960
140796
59643.4
59311.7
59130.2
59210.2
59667.8
60717.9
62883.5
58628.8
58386.3
58111.7
58011.7
58381.3
59310.3
60688.5
143243
142332
141195
139995
138940
138217
137515
192637
191410
190095
188670
186957
184652
181659
208205
206701
205151
203445
201306
197941
192821
191893
190642
189225
187747
186184
184483
182579
143374
142591
141784
141077
140505
140134
140232
59752.7
59396.4
59266.3
59480.7
60131.1
61306.9
62699.8
58644.7
58315.2
58033.2
57922.4
58409.6
59654.6
61255.9
143238
142357
141167
139914
138902
138236
137504
192638
191373
189984
188436
186544
183844
179232
208397
206918
205289
203512
201215
197407
189717
191905
190583
189117
187606
185902
183778
180249
143458
142741
142031
141427
141008
140654
140559
59959.1
59672.1
59525.1
59805.5
60647.1
61889.2
63113.2
85804.9
78502.4
73326.6
70203.8
68895.5
69150.5
70234.5
161842
158763
156646
155118
154269
154284
154254
193268
194568
195698
196649
197392
197829
197862
200472
202816
204959
206669
207997
209022
209650
187611
188637
189552
190466
191487
192844
194551
152435
148380
145773
144706
144816
146124
148097
79262.3
71244
65803.5
62918.1
62304.6
63535.4
65456.7
82225.4
76184.2
72174.9
69141.7
67351.3
67346.3
69095.7
160370
157899
155953
154318
153488
153278
153105
193131
194410
195586
196723
197475
197762
197653
200447
202747
204753
206503
207905
208989
210006
187426
188575
189276
189965
191018
192473
194295
150543
147103
144807
143748
143584
144579
147100
75882.9
68636.7
64147.6
61661
60863.5
61744.6
63853.5
78204.5
74641.3
71880.9
68848.8
66646
66076.2
67596
158602
157147
155458
153727
153185
153252
153076
193010
194236
195448
196795
197630
197714
197578
200482
202812
204721
206439
207897
209128
210301
187636
188484
188959
189540
190561
192021
193986
148134
145427
143789
142833
142311
143054
145809
71289.8
66043.8
62826.4
60562.6
59476.4
60068.1
62363.4
76115.2
74117.8
72036.3
69426.5
67348.8
66749.4
67595.9
157872
156800
155216
153976
153481
153408
153123
192804
193966
195095
196357
197264
197457
197415
200287
202698
204630
206343
207932
209339
210549
188151
188640
188811
189348
190344
191756
193751
146711
144759
143786
142683
141655
142254
144826
68155.5
65084
62447.8
60189.2
58925.4
59253.6
61421.5
75153.9
73738.8
72039.8
70330.6
68920.7
68400.1
68737.3
157063
156283
155073
154423
154076
153751
153305
191967
193307
194575
195840
196756
197177
197355
199456
202172
204455
206359
208039
209519
210769
187633
188348
188896
189538
190527
192018
194093
146249
144954
144019
142765
141880
142553
145206
66889.8
65038
62694.3
60567.4
59267.6
59574.3
61776.9
74188.9
73098.2
71904.9
71239.4
70600.7
70253
70008.9
155611
155058
154480
154558
154600
154200
153506
190232
192336
194111
195525
196515
197040
197401
197513
201328
204332
206517
208277
209766
211000
185554
187137
188452
189567
190768
192469
194584
145537
144949
144180
143100
142727
143935
146853
66625.9
65310.1
63149.3
61322.9
60374.1
60911.4
63187.6
73374.5
72700.2
71969.9
71740.7
71630.5
71486.3
70952.6
154178
154341
154407
154594
154750
154551
153930
188059
191751
193956
195427
196424
197091
197521
194891
200851
204363
206736
208517
209974
211166
182904
186359
188349
189644
191001
192871
195041
144829
145226
144627
143903
143998
145624
148500
66689.1
65560.8
63674.2
62121.1
61589.3
62306
64326.6
100841
102747
102182
100637
98467.2
95669.9
91914.4
175302
176299
176042
174126
171247
168082
165142
191913
191540
191163
190874
190906
191342
192148
197727
197350
196652
195822
195774
196832
198390
189664
189079
188267
187415
186771
186558
186832
173558
174105
173319
170459
166163
161539
157131
98423.9
100913
100957
99151
95787.5
91385.2
86285.5
97625.7
98676
99018.7
98096.7
96151.8
93386.6
88766.1
173258
173003
172727
170944
168346
165894
163306
191085
190333
189923
189875
190207
190959
191945
197985
197089
195977
195134
195349
196624
198280
188672
187716
186837
186268
185996
186120
186587
171977
171113
169466
166459
162561
158546
154620
96338.3
97195.4
97633.2
96148.7
92689.6
88306.5
83009
95910.9
95713.7
95281.1
94299.3
92464.8
89483.7
84306.7
172613
171182
169251
166940
164773
162916
160832
190017
189168
188648
188702
189334
190464
191726
198027
196706
195302
194645
194992
196192
198078
187476
186403
185460
185138
185352
185909
186674
171062
168239
164769
161183
157817
154521
151275
95243.6
94429.2
93309.5
91472.9
88076.7
83689.7
78087.8
93943.6
92839
91551.4
90121.3
88134.4
85130.9
80509.9
170784
168173
165317
163058
161462
160190
158938
188553
187810
187296
187548
188583
190067
191486
197542
196203
194630
193753
193950
195259
197609
185537
184631
183968
184104
184951
186006
187067
167539
163592
159333
156277
153698
151232
148897
92518
90757.4
88677.3
86180.3
82826.7
78752.5
73433.9
90427.2
89356.1
87948.6
86303.7
84282.9
81538.5
78057.5
166532
163778
160956
159296
158382
157807
157375
186097
185648
185551
186175
187476
189064
190559
196660
195235
193389
192027
191940
193954
196750
182769
182188
182099
182876
184248
185645
186740
161937
158304
154578
152499
150739
149055
147664
87840.8
86423.1
84402.9
81800.3
78713.1
74885
70486.7
85592.9
85314.9
84349
83107.8
81170.7
79014.9
76309.2
160796
158505
156288
155679
155063
155015
155099
182912
182446
182645
183538
184952
186449
188204
194732
193119
190857
189423
189542
191049
193663
179700
179147
179454
180787
182413
183504
184344
155834
153207
150741
149844
148452
147116
145995
82306.6
81986.7
80567.9
78702.8
75890.3
72771.9
69045.4
79604.5
80204.3
79748.8
79215.7
77563.3
76079.7
73671
154317
152881
151045
151189
150572
151341
151136
179322
178802
179139
180127
180935
181131
182353
192171
190165
187406
185539
184709
184553
186627
176588
175931
176523
178140
178813
177963
177848
149701
148187
146624
146992
145491
144173
142296
76238.2
77083.9
76185.2
75180.2
72880.3
70858.9
67568.6
60527.5
60187.7
60111.1
59759.4
59787.5
59747.2
60066.7
134201
133096
132353
132161
132003
131815
130945
166349
165804
165089
164113
161980
158619
154790
176863
175215
172564
169396
165690
161285
156070
164413
163750
162708
161194
158555
154801
150901
130527
129688
128680
127801
126974
125997
124724
57278.9
56805.3
56874.9
56282.5
56250.7
55888.2
55803.8
52921.2
52771.2
52617.4
52586.9
52679.5
52728.4
52805.9
121490
121256
121236
121533
121895
121579
121400
152179
152009
152042
152266
152310
152085
151718
161024
160612
160054
159571
159277
159046
158388
149769
149572
149470
149613
149720
149623
149315
117590
117229
116802
116701
117164
117777
117994
50538.7
50474
50207.3
50212.2
50355.1
50610.6
50913
47051.9
47121.2
47277.7
47384.4
47429.3
47438.2
47409.4
109803
110074
110457
110834
111078
111227
111420
141442
141460
141652
142230
143049
143653
143900
150635
150635
150782
151164
151770
152419
152532
139342
139389
139667
140351
141299
142152
142531
107304
107617
108118
108757
109368
109851
110146
46151.3
46195.8
46334
46450.9
46575.6
46666.3
46689
42412
42426.1
42502.4
42581.5
42642.9
42744.2
42805.7
99204.1
99303
99486.3
99705.9
99909.5
100060
100144
131180
131171
131235
131413
131629
131781
131826
141286
141250
141236
141280
141373
141483
141451
130209
130193
130243
130418
130627
130798
130853
97880.5
98027.2
98278.8
98594.7
98925.4
99200
99352.1
41753.9
41883.3
42081.9
42275.7
42381.3
42456.6
42533.9
39990.8
40055.9
40052
40060.6
40081.1
40055.5
40029.6
92578.9
92606.8
92551.7
92503.8
92478.7
92462.9
92448.5
122394
122309
122206
122116
122040
121963
121897
132157
132032
131854
131674
131523
131406
131251
122177
122093
121954
121813
121656
121526
121408
92244.6
92260.9
92252.9
92236.5
92213.5
92192
92179.4
39942.6
39968.1
39972.6
39971.3
40018.7
40064.2
40043.6
39852.5
39855
39852.1
39855.6
39850.8
39857.2
39855.9
89401.6
89401.5
89402.1
89410.7
89419.2
89416.5
89417.5
115095
115021
114964
114947
114916
114878
114820
123307
123154
122996
122860
122755
122718
122508
115082
115044
114976
114910
114806
114732
114652
89339.8
89342.5
89348.3
89350.1
89345.9
89341.2
89338.5
39859.8
39854.5
39858
39865.9
39871.5
39881.7
39886.2
48165.7
48162.7
48160
48158.5
48159.4
48160.2
48160.8
86456.8
86472.8
86505.6
86548.8
86585.6
86607.5
86618.3
106963
106929
106952
107030
107065
107105
107073
113608
113487
113432
113400
113361
113497
113266
106935
106938
106951
106988
106967
106989
106963
86429.1
86438.8
86458.4
86481.3
86498.6
86511.5
86519.9
48190.4
48177
48158.5
48146.1
48139.5
48135.9
48133.8
84278.7
89974
94667.3
97873.9
99834.4
102955
106131
151831
155675
159606
163568
168157
174185
178212
182453
181057
180529
181555
183630
185996
187211
193074
190508
189939
191115
193169
195207
196428
184201
182965
182313
182545
183411
184328
185006
154458
158554
162336
165463
167274
167573
166822
86442
92061.3
96836.7
100248
101850
101685
99019.4
80814.4
87143.2
92107.2
95918.3
97943.9
99670.4
102002
149573
153374
157150
160791
164510
169006
173025
182111
180469
179694
180493
182190
184132
185375
193045
190084
189297
190526
192769
195092
196435
184076
182667
181809
181782
182501
183402
184288
151858
155621
159054
162145
164096
164884
165539
82619.2
88589
93408.2
96974
98256.5
97544.3
96570.8
74860.3
82118.6
87713.2
91949.4
94664.1
95717.8
96654.3
145652
149246
152968
156491
159758
162949
165695
181725
179849
178737
179029
180334
181782
182775
193021
189548
188329
189519
191922
194738
196597
184241
182600
181300
180856
181374
182442
183423
148491
151994
155169
158156
160882
163440
165660
76908.1
83587.1
88615.6
92103.5
93806.7
94726.2
95604
68191.9
75976.5
82293.8
86871.2
90085.5
91214.8
91246.9
141367
144143
147664
151300
154415
156908
158387
181308
179335
177786
177256
177859
178841
179478
192600
188752
186927
188009
190732
194181
196431
184297
182738
181022
179947
180094
181104
182075
145743
149255
152121
154836
157668
161071
164339
71795.5
78774.9
83772
87324.7
89853.7
91881.4
93598.8
64281
69968.1
75724.8
80959.1
84493.2
86078.7
86440
138466
139994
142751
146382
149447
151283
152075
180919
178671
176581
175082
174827
175328
175670
190898
186800
184304
185380
188756
193008
195966
183355
181990
180356
178794
178341
179014
179856
143785
147885
150183
152110
154412
157752
160751
68632.3
75211.7
80204.1
83521.6
86472.9
89002.2
90116
63554.7
66556.1
69946.6
74471.7
78147.3
80728.1
82687.4
137011
137474
139366
142386
144905
146236
147264
178916
176617
174564
172475
171413
171407
171618
187122
183136
181277
181943
185358
190242
193622
180868
179622
178097
176370
175411
175623
176530
142095
146483
148315
149413
150414
153083
155100
67019.7
72795.5
76918.7
80217.9
83041.5
85463.9
84928.3
62979.6
64593.7
66277
69173.9
72150
74983.7
78574.4
136172
136841
137865
139117
140575
141812
142980
172514
171145
171181
169682
167834
167441
167870
178258
174901
175064
176875
180624
186011
190136
174330
173779
173634
172789
171470
171199
172239
140919
143963
144362
144786
144945
147229
147907
65492.6
69885
72533.2
75709.2
78259
80493.3
78509.4
57539.3
57085
57085.6
57137.6
57671.7
57815.9
57665.8
124199
124612
124666
124186
123869
124145
124725
139177
143495
147747
150668
152207
153204
153977
137581
144322
150361
155582
160023
163905
166646
139377
143581
147890
151324
153101
154098
154746
122872
122877
122916
122946
123043
123222
123504
54759.8
54224.2
53926.8
53465.4
53267.5
52370.7
52707.7
45917.2
45669.7
45152.6
44518.4
43906.3
43433.2
43002.9
102590
102485
102273
101959
101652
101302
100870
129364
129650
129959
130280
130583
130940
131228
136723
137485
138064
138788
139653
140585
141270
130136
130320
130602
130988
131251
131457
131634
102661
102497
102529
102596
102581
102377
102299
45498.7
45204
44899
44505
44276
44203.4
44285.5
39541.9
39380.5
39266.5
39194.3
39123.7
39057.3
39080.9
91223.9
91005.9
90734.3
90484.8
90254.9
90019.1
89930.1
120201
119984
119515
118957
118390
118034
118000
129898
129755
129098
128437
127938
127675
127662
120513
120301
119822
119228
118625
118244
118120
91038.9
90891.7
90732
90574.5
90372.8
90128.8
89942.4
38946.5
38929.5
38804
38799.3
38848.8
38854.2
38840.1
37600.2
37622.4
37607.8
37576.6
37610
37670.2
37655.4
86197
86180.3
86118
86031.5
85909.5
85788.8
85715.4
113847
113793
113596
113351
113037
112877
112908
123297
123261
122929
122632
122409
122319
122387
113981
113954
113739
113502
113199
112965
112988
86080.3
86073.3
86021.4
85956.1
85896.9
85828.6
85806.4
37659.7
37630.5
37637.9
37611.3
37627.6
37676.8
37724.8
37143.9
37149.8
37158.9
37190.8
37160.2
37150.1
37154.8
85646.1
85656.8
85657.6
85643.9
85640.9
85640.1
85646.9
112174
112238
112242
112289
112303
112288
112332
120178
120340
120359
120418
120551
120781
121038
112073
112126
112085
112084
112081
112099
112285
85591
85567.7
85561.8
85547.9
85562.1
85567.1
85567.7
37325.6
37332.1
37345.2
37384
37347.2
37330.8
37319.9
38710.7
38727.9
38779.9
38851.6
38797.4
38749.7
38725.5
87144.3
87136.7
87129.8
87135.5
87141
87150.7
87162.8
111480
111529
111511
111530
111508
111462
111514
118146
118407
118356
118419
118567
118749
119038
111456
111504
111478
111496
111451
111418
111494
87333.8
87338.9
87348.5
87356.7
87352.8
87354.2
87355.3
38968.1
39003.5
39071.2
39142.2
39075.9
39013
38979.5
49380.2
49381.8
49365.8
49335.2
49353
49362.7
49365.4
86928
86929.8
86937.1
86935.7
86887.5
86839.6
86811.7
107090
107116
107070
107052
106931
106804
106792
113358
113644
113447
113505
113562
113566
113776
107405
107434
107386
107385
107239
107123
107122
87362.9
87361.7
87365
87361.9
87312.2
87265.8
87240.6
49395.6
49384.9
49361.2
49337.9
49364.3
49385.9
49394.3
)
;

boundaryField
{
    fuel
    {
        type            zeroGradient;
    }
    primary_air
    {
        type            zeroGradient;
    }
    Secondary_air_RHS
    {
        type            zeroGradient;
    }
    Secondary_air_LHS
    {
        type            zeroGradient;
    }
    outlet
    {
        type            totalPressure;
        rho             rho;
        psi             none;
        gamma           1;
        p0              uniform 100000;
        value           nonuniform List<scalar> 
98
(
45095.5
75466.3
100000
100000
100000
75996.7
45206.6
45068.9
75433
100000
100000
100000
75936.3
45193.9
45075.5
75532
100000
100000
100000
75988
45215.7
44930.6
75366.3
100000
100000
100000
75837.8
45059.7
45087.4
75399.7
100000
100000
100000
75860.7
45210.8
45077.5
75239.1
100000
100000
100000
75719.1
45192
45094.3
75119.7
100000
100000
100000
75630.1
45208.2
45093.3
75461.8
100000
100000
100000
75375.5
45116.8
45075.2
75494.9
100000
100000
100000
75413.7
45088.2
45077.4
75536.2
100000
100000
100000
75448
45087.3
45080.9
75572.9
100000
100000
100000
75413.4
45087.1
45085.8
75606.1
100000
100000
100000
75415.5
45089.1
45089.2
75638.5
100000
100000
100000
75437.6
45091.7
45116.3
75668
100000
100000
100000
75484.2
45118.2
)
;
    }
    stove_body
    {
        type            zeroGradient;
    }
    frontAndBack
    {
        type            empty;
    }
}


// ************************************************************************* //
