/*--------------------------------*- C++ -*----------------------------------*\
  =========                 |
  \\      /  F ield         | OpenFOAM: The Open Source CFD Toolbox
   \\    /   O peration     | Website:  https://openfoam.org
    \\  /    A nd           | Version:  6
     \\/     M anipulation  |
\*---------------------------------------------------------------------------*/
FoamFile
{
    version     2.0;
    format      ascii;
    class       surfaceScalarField;
    location    "0.0125";
    object      phi;
}
// * * * * * * * * * * * * * * * * * * * * * * * * * * * * * * * * * * * * * //

dimensions      [1 0 -1 0 0 0 0];

internalField   nonuniform List<scalar> 
10143
(
-1.26246e-07
-3.35469e-05
4.28502e-05
-3.20376e-07
-3.27719e-05
4.24053e-05
-4.8003e-08
-3.30407e-05
4.2331e-05
2.4375e-07
-3.27697e-05
4.21699e-05
2.42646e-07
-3.2545e-05
4.21749e-05
2.07689e-07
-3.2923e-05
4.23628e-05
-3.34576e-05
4.28334e-05
4.94045e-07
-8.36162e-06
-1.4929e-05
3.15043e-07
-7.86409e-06
-1.40411e-05
-6.75033e-07
-8.20144e-06
-1.31739e-05
-4.44851e-07
-8.33458e-06
-1.42233e-05
-6.14249e-08
-7.86835e-06
-1.46015e-05
-5.57188e-07
-8.01567e-06
-1.37127e-05
-8.33434e-06
-1.49214e-05
-1.18756e-07
-7.49375e-06
3.73148e-06
5.8753e-07
-7.34866e-06
3.12626e-06
2.94212e-07
-7.72787e-06
4.20787e-06
-9.36197e-08
-7.82607e-06
4.70456e-06
9.46501e-08
-7.61045e-06
4.03907e-06
-4.53631e-07
-7.80727e-06
5.02564e-06
-7.35666e-06
3.00164e-06
-2.39769e-07
7.47755e-06
3.03393e-06
-6.01237e-08
7.4339e-06
2.76205e-06
-8.49883e-08
7.70722e-06
2.35927e-06
-2.79141e-07
7.8723e-06
2.3178e-06
-4.3834e-07
7.5978e-06
2.74536e-06
-2.25625e-07
7.723e-06
2.0009e-06
7.33416e-06
2.87889e-06
2.64793e-08
8.36765e-06
3.59518e-06
5.0898e-07
8.13727e-06
3.32774e-06
1.70955e-07
8.11784e-06
4.54021e-06
-3.81111e-07
7.89877e-06
5.28613e-06
-9.05698e-08
7.90386e-06
4.00156e-06
-5.50213e-07
8.0156e-06
4.71905e-06
8.31994e-06
2.97458e-06
5.25674e-07
3.36303e-05
-1.49774e-05
3.30436e-07
3.30464e-05
-1.39581e-05
-3.26555e-07
3.31139e-05
-1.37069e-05
-1.24004e-07
3.26979e-05
-1.45787e-05
3.91458e-07
3.26754e-05
-1.46325e-05
-4.06202e-07
3.31334e-05
-1.35544e-05
3.35755e-05
-1.49018e-05
-1.30407e-07
4.29419e-05
-3.7063e-07
4.27519e-05
-7.18712e-08
4.24056e-05
1.96224e-07
4.20952e-05
2.04496e-07
4.23271e-05
2.33657e-07
4.25198e-05
4.30037e-05
-1.25975e-07
-4.21461e-06
5.53695e-05
-3.33753e-07
-4.94321e-06
5.59346e-05
-3.89834e-08
-5.28191e-06
5.58613e-05
2.80076e-07
-5.45837e-06
5.59278e-05
2.02044e-07
-4.7431e-06
5.56644e-05
2.52191e-07
-5.13876e-06
5.589e-05
-4.40465e-06
5.55515e-05
1.64597e-07
1.25169e-05
-3.2343e-05
-1.11054e-07
1.14194e-05
-3.10959e-05
-8.14061e-07
1.11514e-05
-2.93878e-05
-1.32805e-08
9.38856e-06
-3.0565e-05
3.28328e-07
1.12836e-05
-3.18042e-05
1.00199e-07
1.10207e-05
-3.0215e-05
1.23467e-05
-3.2095e-05
5.59635e-08
-2.93991e-07
4.074e-06
3.03636e-07
-7.48187e-08
2.37634e-06
4.51796e-07
-4.42335e-07
3.89451e-06
4.86685e-07
-7.63062e-07
3.00881e-06
6.26691e-07
-4.79065e-07
3.85495e-06
-2.24481e-07
-3.96244e-07
5.23058e-06
-8.75847e-08
2.7464e-06
-1.56477e-07
1.89531e-07
5.76702e-06
2.16914e-07
-4.82456e-08
5.32139e-06
-1.44895e-07
5.19234e-07
4.78999e-06
-6.08991e-07
6.17867e-07
4.50003e-06
-9.30263e-07
4.74971e-07
5.17403e-06
-4.53273e-07
2.95602e-07
3.77046e-06
3.37016e-08
5.36201e-06
-2.79389e-08
-1.2301e-05
3.7577e-06
8.53524e-08
-1.19103e-05
2.67272e-06
2.47555e-07
-1.08684e-05
3.6467e-06
1.86482e-08
-1.07454e-05
4.80636e-06
4.08753e-07
-1.15442e-05
3.34101e-06
-2.83255e-07
-1.13614e-05
4.85452e-06
-1.24801e-05
2.8124e-06
1.60567e-07
4.59425e-06
-3.24185e-05
-3.41097e-08
4.56581e-06
-3.09561e-05
-4.05378e-07
5.53883e-06
-3.02148e-05
3.18822e-07
4.94292e-06
-3.18471e-05
8.17282e-07
4.82826e-06
-3.2649e-05
1.92958e-07
5.39267e-06
-3.01203e-05
4.55192e-06
-3.21816e-05
-1.55068e-07
5.57199e-05
-4.20209e-07
5.61111e-05
-3.04299e-08
5.59813e-05
1.44694e-07
5.54936e-05
1.7181e-07
5.57107e-05
3.14654e-07
5.61418e-05
5.58796e-05
1.0865e-07
1.61623e-05
5.42363e-05
-4.22418e-07
1.59265e-05
5.65562e-05
-3.31202e-08
1.5822e-05
5.63704e-05
5.15658e-07
1.57385e-05
5.65532e-05
2.45913e-07
1.58433e-05
5.65704e-05
5.9069e-08
1.59807e-05
5.61821e-05
1.60891e-05
5.44863e-05
3.39167e-07
1.50978e-05
-2.893e-05
4.83472e-07
1.45031e-05
-2.81834e-05
-5.48749e-07
1.51402e-05
-2.69801e-05
-3.69657e-07
1.33015e-05
-2.75829e-05
2.41439e-08
1.16505e-05
-2.70376e-05
-1.4333e-08
1.3718e-05
-2.66251e-05
1.51448e-05
-2.83484e-05
-5.33185e-08
1.66257e-07
5.30851e-06
-4.48214e-08
4.42608e-07
2.90235e-06
5.45668e-07
1.39587e-07
4.95653e-06
8.20778e-07
1.21157e-08
2.8611e-06
4.52368e-07
-1.81451e-07
2.85088e-06
-9.65643e-09
1.16626e-06
4.83544e-06
5.75589e-07
3.51049e-06
-2.40676e-07
-3.83314e-07
9.02958e-06
1.71973e-07
-7.52377e-07
8.53357e-06
-2.82093e-07
-9.05233e-08
7.98967e-06
-4.86454e-07
2.37403e-07
7.06323e-06
-9.56812e-07
1.23989e-07
7.86205e-06
-2.6931e-07
-1.12941e-06
7.78208e-06
-6.13685e-07
8.7752e-06
-1.13293e-07
-1.51459e-05
4.8754e-06
-1.33744e-07
-1.40524e-05
2.42829e-06
5.55158e-07
-1.50281e-05
4.20656e-06
-7.1005e-09
-1.07164e-05
3.05568e-06
2.67129e-07
-1.36884e-05
3.27826e-06
-1.62708e-08
-1.43465e-05
4.71753e-06
-1.53981e-05
3.83646e-06
1.6795e-07
-1.56528e-05
-2.91376e-05
3.84702e-07
-1.58279e-05
-2.74872e-05
-6.25639e-07
-1.55453e-05
-2.75403e-05
3.8554e-07
-1.50865e-05
-2.73325e-05
3.73908e-07
-1.60275e-05
-2.86007e-05
-5.29839e-08
-1.56964e-05
-2.68825e-05
-1.5717e-05
-2.90184e-05
7.00348e-08
5.47078e-05
-5.12201e-07
5.68357e-05
-7.02643e-08
5.628e-05
1.131e-07
5.63991e-05
4.84e-08
5.59837e-05
1.02739e-07
5.63155e-05
5.49592e-05
-2.45497e-07
2.43478e-05
4.86307e-05
-1.67419e-07
2.4187e-05
5.11513e-05
1.30595e-07
2.50993e-05
4.99353e-05
3.96983e-07
2.50557e-05
5.01616e-05
3.69035e-07
2.52035e-05
5.05061e-05
3.60852e-07
2.45173e-05
5.04831e-05
2.43637e-05
4.90408e-05
7.61665e-07
1.3641e-05
-2.02673e-05
1.11442e-06
1.36912e-05
-2.0811e-05
-1.4868e-08
1.60285e-05
-2.03386e-05
-1.1828e-06
1.63647e-05
-2.15876e-05
-2.23304e-07
1.31499e-05
-1.85704e-05
-4.15958e-07
1.42527e-05
-1.88596e-05
1.42977e-05
-1.98905e-05
-4.3271e-08
-1.743e-07
5.43852e-06
-4.5294e-07
-1.92181e-07
3.8044e-06
4.89107e-07
-1.06511e-06
7.57376e-06
8.46334e-07
2.67678e-07
5.08449e-06
4.53569e-07
-1.13128e-06
4.08156e-06
1.63126e-07
8.63647e-07
5.02124e-06
9.37287e-08
3.97477e-06
-2.51507e-07
1.89987e-08
1.09482e-05
2.26794e-07
-2.00412e-07
9.92149e-06
-4.06593e-07
1.08111e-06
8.43424e-06
-4.80951e-07
1.33749e-06
8.06989e-06
-1.00866e-06
9.01045e-07
8.31438e-06
-1.93054e-07
-6.91435e-07
1.03179e-05
-1.03851e-07
1.06964e-05
-2.12165e-07
-1.36562e-05
4.9689e-06
-3.12845e-07
-1.4253e-05
3.09004e-06
5.04127e-07
-1.60013e-05
6.76752e-06
1.82331e-07
-1.29401e-05
4.07363e-06
1.56084e-07
-1.29352e-05
3.77344e-06
2.8073e-07
-1.48259e-05
5.06909e-06
-1.40901e-05
4.22917e-06
6.48988e-07
-2.36674e-05
-2.06267e-05
7.48919e-07
-2.4217e-05
-2.01579e-05
-7.68919e-07
-2.46705e-05
-2.05064e-05
1.21346e-07
-2.47515e-05
-1.89275e-05
1.0021e-07
-2.44353e-05
-1.98667e-05
-4.29816e-07
-2.43699e-05
-1.92998e-05
-2.3756e-05
-2.06946e-05
-1.21975e-07
4.96859e-05
-4.06161e-07
5.17538e-05
-3.00023e-07
5.05082e-05
4.29946e-08
5.07241e-05
7.48872e-08
5.07064e-05
1.49942e-07
5.07523e-05
4.99443e-05
-6.52757e-07
3.04672e-05
3.6264e-05
5.45166e-08
2.9863e-05
3.82082e-05
2.54159e-07
3.02655e-05
3.69045e-05
3.97168e-07
3.05334e-05
3.69243e-05
5.96157e-07
3.12852e-05
3.67912e-05
6.832e-07
3.0316e-05
3.76922e-05
3.07987e-05
3.64232e-05
9.28915e-07
1.35311e-05
-8.89995e-06
1.12685e-06
1.32292e-05
-9.99741e-06
2.78375e-07
1.51189e-05
-1.04005e-05
-1.31227e-06
1.60288e-05
-1.18887e-05
-6.29806e-07
1.56891e-05
-9.87784e-06
-6.86459e-07
1.4658e-05
-8.88729e-06
1.4632e-05
-9.15956e-06
1.69237e-07
-8.09399e-07
5.38567e-06
-4.64255e-07
-2.71762e-07
3.70594e-06
3.98899e-07
-4.35872e-07
7.87502e-06
7.18611e-07
2.7801e-07
6.09547e-06
3.94641e-07
-1.83559e-07
5.83603e-06
1.98861e-07
-4.13306e-08
5.50298e-06
-2.53108e-07
4.62911e-06
-3.81491e-07
4.14816e-07
1.14216e-05
4.63838e-08
8.21749e-09
1.05576e-05
-4.49086e-07
4.70021e-07
9.45066e-06
-4.35737e-07
4.03442e-07
9.41654e-06
-6.79336e-07
5.41611e-07
9.30524e-06
-3.02359e-07
3.34838e-07
1.09233e-05
3.29771e-07
1.12358e-05
-1.76197e-07
-1.35442e-05
4.86624e-06
-2.59294e-07
-1.44912e-05
3.38798e-06
3.01303e-07
-1.51222e-05
7.29071e-06
2.34309e-07
-1.58429e-05
5.80011e-06
2.10758e-08
-1.35869e-05
4.03905e-06
2.93337e-07
-1.4805e-05
5.44776e-06
-1.41494e-05
4.61499e-06
1.00713e-06
-3.00566e-05
-9.44012e-06
6.68622e-07
-2.99542e-05
-1.01708e-05
-3.20166e-07
-3.02493e-05
-1.01851e-05
-3.27489e-07
-3.12401e-05
-9.83655e-06
-3.00445e-07
-3.03703e-05
-9.2388e-06
-6.13221e-07
-3.03366e-05
-9.03201e-06
-3.02763e-05
-9.62606e-06
-2.97638e-07
3.7429e-05
-4.77155e-07
3.9626e-05
-2.56768e-07
3.76069e-05
-1.22301e-07
3.73387e-05
1.63071e-07
3.78967e-05
2.38875e-07
3.79706e-05
3.7474e-05
-7.38062e-07
3.30237e-05
2.1459e-05
2.05357e-07
3.22976e-05
2.25961e-05
2.6796e-07
3.22784e-05
2.23453e-05
3.04147e-07
3.2457e-05
2.20779e-05
4.81207e-07
3.25277e-05
2.17467e-05
8.40483e-07
3.25197e-05
2.24069e-05
3.34052e-05
2.13245e-05
1.12146e-06
1.519e-05
5.52651e-07
6.93199e-07
1.53036e-05
-7.38203e-07
3.39253e-07
1.50118e-05
-8.02514e-07
-1.03603e-06
1.5868e-05
-1.99307e-06
-9.33794e-07
1.53218e-05
-8.93594e-07
-7.50352e-07
1.52075e-05
1.24925e-07
1.60271e-05
1.02732e-07
4.40951e-07
-2.91478e-06
8.66305e-06
-3.72047e-07
-1.62007e-06
6.9919e-06
3.34234e-07
-1.57775e-06
9.21981e-06
6.70475e-07
-1.56661e-06
8.60096e-06
2.33052e-07
-1.02513e-06
8.0564e-06
1.42727e-07
-1.95603e-06
8.23569e-06
-1.85018e-06
8.03593e-06
-6.07457e-07
2.33297e-06
7.80598e-06
-8.93037e-08
1.23555e-06
8.2632e-06
-4.26761e-07
1.43915e-06
7.93769e-06
-4.51288e-07
1.22971e-06
7.85875e-06
-4.55782e-07
1.32627e-06
8.15179e-06
-4.23376e-07
2.16051e-06
7.83504e-06
1.94783e-06
8.17363e-06
6.34318e-08
-1.54438e-05
8.15605e-06
-1.84737e-07
-1.53344e-05
5.77218e-06
2.73896e-07
-1.54742e-05
9.03661e-06
-3.43801e-08
-1.52836e-05
7.99063e-06
2.10728e-08
-1.56823e-05
6.62533e-06
1.749e-07
-1.53101e-05
8.21767e-06
-1.58133e-05
7.95445e-06
9.82088e-07
-3.29223e-05
-9.57063e-08
4.15363e-07
-3.25557e-05
-8.36198e-07
1.02075e-07
-3.24276e-05
-8.20343e-07
-9.10523e-08
-3.24604e-05
-8.22112e-07
-6.66703e-07
-3.18512e-05
-1.07808e-06
-5.09943e-07
-3.27092e-05
1.41087e-07
-3.31439e-05
-3.23244e-08
-2.45311e-07
2.21336e-05
-5.69694e-07
2.50734e-05
-2.01951e-07
2.24727e-05
-9.95662e-09
2.26523e-05
-3.16823e-08
2.36855e-05
2.81028e-07
2.25138e-05
2.2036e-05
-8.65855e-07
3.66857e-05
2.30413e-07
3.63129e-05
1.91766e-07
3.72454e-05
4.78068e-07
3.65328e-05
4.61785e-07
3.64711e-05
1.06395e-06
3.63959e-05
3.67315e-05
1.19638e-06
1.93594e-05
4.04747e-07
1.90795e-05
6.82096e-07
1.92014e-05
-5.67459e-07
1.91644e-05
-1.07725e-06
1.93065e-05
-4.56626e-07
1.89675e-05
1.96423e-05
8.60226e-07
6.27449e-07
-4.98335e-07
1.02485e-06
5.81826e-07
6.33361e-07
8.63965e-07
7.84633e-07
5.07657e-07
1.00755e-06
1.58917e-07
1.03376e-06
1.1025e-06
-6.17313e-07
-8.00775e-07
-1.08489e-07
-1.01573e-06
-5.50248e-07
-6.8223e-07
-5.87918e-07
-9.80916e-07
-5.96023e-07
-5.50465e-07
-5.99274e-07
-9.89457e-07
-1.10363e-06
2.08867e-07
-1.9377e-05
-3.22158e-07
-2.01466e-05
3.7227e-07
-1.91313e-05
8.79662e-09
-1.95523e-05
5.05322e-07
-1.94638e-05
2.3923e-07
-1.90248e-05
-1.96311e-05
3.99427e-07
-3.65475e-05
5.85395e-07
-4.05188e-05
3.62083e-07
-3.65509e-05
6.54096e-08
-3.71531e-05
-8.78466e-07
-3.91889e-05
-2.79571e-07
-3.64804e-05
-3.66638e-05
-1.8606e-07
-9.3418e-07
-2.98505e-07
2.10656e-07
-2.52268e-07
3.52894e-07
-0.00380964
0.000847986
0.00319467
-0.00596127
0.00140378
0.000925296
-0.00584596
0.00229346
-0.00224869
-0.00415137
0.00286315
-0.00439004
-0.00244535
0.00300077
-0.00452177
-0.000473891
0.00287836
-0.00465777
0.00249953
-0.00278282
-0.00988322
0.00517655
0.00584353
-0.014131
0.00384675
0.00205445
-0.0144298
0.00356779
-0.000742179
-0.0110203
0.00401328
-0.00430116
-0.00716325
0.00492531
-0.00549614
-0.00374142
0.00578045
-0.0060303
0.00583639
-0.00678427
-0.00328332
0.00249814
0.00567123
-0.00549926
0.00234052
0.00342705
-0.0070475
0.00220886
0.00264242
-0.0069179
0.00154648
0.00213433
-0.00531239
0.00124883
0.00193305
-0.00302501
0.00130733
0.00209246
0.00130003
0.00146651
0.000352165
-0.00286067
0.00516126
0.00100583
-0.00221368
0.00400128
0.00125479
-0.00202846
0.00412695
0.000579142
-0.00194349
0.00436022
0.000129937
-0.00229916
0.00425117
0.000266323
-0.00287424
0.00434033
-0.0035725
0.00551538
-0.00129389
-0.00489803
0.00292567
-0.000492406
-0.00484982
0.00141517
0.00136927
-0.00516746
0.000904657
0.00326597
-0.00516332
0.000957975
0.00412356
-0.00448803
0.00101717
0.00343672
-0.00404753
0.00159201
-0.00427003
0.00387442
-0.00358621
-0.00291655
0.0017303
-0.00339435
-0.00258375
-0.0022527
-0.00227712
-0.00268972
-0.0033678
-0.00126069
-0.00304094
-0.00293446
0.00137811
-0.0035933
-0.00325826
0.00249631
-0.00380438
-0.0010569
-0.00370789
0.00217819
-0.00382281
0.00109829
-0.0047255
-0.00145383
-0.00448781
-0.00271904
-0.00283962
-0.00445974
-0.00107785
-0.00512523
0.000432052
-0.0050741
-0.00302956
-0.00194287
0.000912874
0.00440118
-0.00309797
0.00138616
0.00084612
-0.00231418
0.00185507
-0.0047455
-0.00107344
0.00189263
-0.00739684
-0.000403702
0.00227509
-0.00732089
-0.000370648
0.00250149
-0.00703934
0.00239431
-0.00539948
-0.0043129
0.00381248
0.00752678
-0.00661463
0.0032299
0.0027657
-0.00612614
0.00312938
-0.0022833
-0.00439972
0.0026112
-0.00652441
-0.00305079
0.00316995
-0.00751903
-0.00183792
0.00379346
-0.00831087
0.00429129
-0.0103081
-0.000953632
0.0019158
0.00825382
-0.00246848
0.00174604
0.00612211
-0.00335961
0.00159422
0.00474576
-0.00400588
0.000954708
0.0041216
-0.00338041
0.000305031
0.00391986
-0.00188909
2.40583e-05
0.00416845
-2.89739e-05
0.00372842
0.00132157
-0.0017564
0.00766993
0.00174345
-0.00110613
0.00653971
0.0018061
-0.000330522
0.00609639
0.000845462
0.000236585
0.00610852
0.000119154
-0.000446677
0.00587253
-0.000215597
-0.00147931
0.00636507
-0.00220423
0.00771975
0.000145913
-0.00443838
0.00507025
0.000624483
-0.00400929
0.00344522
0.0014057
-0.00388091
0.00325795
0.00165094
-0.00321958
0.00370926
0.00126168
-0.00279502
0.00335445
0.00046669
-0.00321605
0.00377443
-0.00334737
0.00513506
-0.00267191
-0.00220461
0.00233634
-0.00304173
-0.00166663
-0.00401304
-0.00449472
-0.00148643
-0.00416376
-0.00596786
-0.00112158
-0.00336719
-0.00474983
-0.00214201
-0.00482075
-0.00244745
-0.00285346
-0.00346965
-0.00242448
-0.000971406
-0.00311113
0.00220758
-0.00428297
-0.00175562
-0.00453342
-0.00379761
-0.00393232
-0.00601953
-0.00301537
-0.00800609
-0.00227087
-0.00851235
-0.00755746
-0.000982665
0.0010104
0.00450488
-0.00106815
0.00144584
-0.000370577
-0.000575112
0.0013979
-0.00649533
-0.000448067
0.00131701
-0.00871474
2.57612e-05
0.00148277
-0.00912463
-0.000224051
0.00192065
-0.0085378
0.00206241
-0.0074881
-0.00250217
0.00321592
0.00803825
-0.00181931
0.00277642
0.000967503
-0.00125584
0.00278632
-0.00399656
-0.00133493
0.0017984
-0.00671834
-0.00141106
0.00169652
-0.0074397
-0.00074462
0.00244838
-0.00927394
0.00307291
-0.0118524
-0.000422733
0.00189603
0.00972771
4.70626e-05
0.00110721
0.00702269
-3.50196e-05
0.00148279
0.00578613
-0.000587266
0.000678749
0.0054332
-0.000842537
0.000195052
0.00533141
-0.000721182
0.000159934
0.00610805
-0.000121413
0.00604466
0.0018914
-0.00181568
0.00968734
0.00188298
-0.00101282
0.00884226
0.00185475
-0.000355759
0.00802805
0.000517203
0.000363567
0.007744
-8.93445e-05
-0.000741391
0.00751336
-0.00026728
-0.0015697
0.00842326
-0.00189982
0.0094973
0.000353476
-0.00468348
0.00721365
0.00153164
-0.0029855
0.00389128
0.00176579
-0.00233034
0.00456546
0.00148247
-0.00172987
0.00561455
0.000446701
-0.00203096
0.00527454
-2.83065e-05
-0.0032679
0.00562064
-0.00382063
0.00672401
-0.00333033
-0.00131161
0.0024662
-0.00547843
-0.00067797
-0.0040749
-0.0071457
-0.000410937
-0.00426433
-0.00729326
-0.000264308
-0.0044284
-0.00598671
-0.00101421
-0.0068367
-0.00364014
-0.00155647
-0.00727456
-0.000951221
-0.00728854
-0.00161919
0.00269198
-0.00203361
-0.00188182
-0.00155992
-0.00452119
-0.000981365
-0.00669998
-0.000689521
-0.00914801
-0.0010108
-0.00960878
-0.00938981
-0.000588832
0.000674764
0.00453381
-0.000459035
0.00146524
-0.00181394
-0.000106303
0.000706935
-0.00742755
-0.000252803
0.00076064
-0.00919861
-0.000293726
0.000983954
-0.00993004
-0.000341584
0.00136669
-0.00968446
0.00119784
-0.00887332
-0.00108744
0.00216656
0.00783125
0.00039289
0.00212328
-0.00099639
0.000831634
0.00161456
-0.00513708
-0.000340967
0.00130913
-0.00594245
-0.00106874
0.00114646
-0.00670618
-0.000324893
0.00163002
-0.0101033
0.00135063
-0.0122135
-0.000836101
0.00146858
0.0110553
0.000800454
0.000604403
0.00663133
0.00119602
0.000971636
0.00568749
0.00124615
0.000348527
0.00595899
0.00104293
4.91758e-05
0.00621961
0.000919294
8.06784e-05
0.00748547
-8.84044e-05
0.0081215
0.00152366
-0.00137453
0.011243
0.00166587
-0.000669431
0.0101368
0.00173463
-0.000209844
0.00915354
0.00109896
-6.41912e-05
0.00875724
0.00100778
-0.000899786
0.0085254
0.000977925
-0.000651172
0.00926153
-0.000227323
0.0107827
-0.000192959
-0.00379109
0.00953841
0.000875695
-0.00244715
0.00422859
0.00160957
-0.00198647
0.00519607
0.00197073
-0.00170159
0.00648078
0.00087616
-0.00158423
0.00669059
0.000221103
-0.00205042
0.00735822
-0.0024289
0.00885048
-0.00368762
-0.00046562
0.00295913
-0.00586113
-0.000249806
-0.00398359
-0.00586493
-0.000489305
-0.00549642
-0.00494202
-0.0008249
-0.00594247
-0.00444531
-0.000533225
-0.00816798
-0.00277673
-0.00112722
-0.00958717
-0.000584183
-0.0116693
-0.000387088
0.00270996
-0.000853754
-0.00156209
0.000136825
-0.00579591
0.00096642
-0.00812762
0.001094
-0.00966176
0.000381847
-0.00986839
-0.00944635
-0.000356176
0.000826939
0.00420979
-0.000456079
0.00122791
-0.00278601
-0.000969532
0.000627856
-0.00741821
-0.00071762
4.88961e-05
-0.00938305
-0.000660399
0.000595439
-0.0104789
-0.000454811
0.000389638
-0.0101646
-0.000271965
-0.00892426
0.000433452
0.0017409
0.00685043
0.00112148
0.00163621
-0.00191484
0.00108766
0.00119661
-0.00547441
-0.00127959
0.00079402
-0.00422496
-0.00232751
0.000289724
-0.00525386
-0.00119442
-1.14497e-05
-0.010715
-0.000652656
-0.012985
0.000226433
0.00112948
0.0113406
0.00139617
0.000631558
0.00621285
0.00206984
0.000496591
0.00531934
0.00210176
9.28096e-05
0.0061842
0.00144987
0.000168069
0.00654961
0.00104582
-8.41155e-05
0.00756035
-0.000264834
0.0083499
0.00161235
-0.00154934
0.012567
0.00131373
-0.000120686
0.0112751
0.00112565
0.000198729
0.00961998
0.000797254
0.000245307
0.00889417
0.000975176
0.000140892
0.00836945
0.000914749
0.000499396
0.00878449
0.00106591
0.010461
0.000247036
-0.00316849
0.0106553
0.000929052
-0.00259225
0.0057649
0.00181874
-0.00157459
0.00577618
0.00227808
-0.00092047
0.00684584
0.00154208
2.41626e-05
0.00715804
0.000650541
0.000208595
0.00821651
0.000153031
0.0100407
-0.0016223
-0.000910179
0.00250535
-0.00309856
-0.000966631
-0.00396007
-0.00283391
-0.00110328
-0.00597736
-0.00282094
-0.000960901
-0.00569337
-0.00318829
0.000133178
-0.00777454
-0.00166895
-0.000524692
-0.010191
-0.000511459
-0.0124841
0.000205346
0.00166915
2.01504e-05
-0.00224333
0.00132286
-0.00795804
0.0018608
-0.00942995
0.00201496
-0.00952737
0.00109792
-0.00932346
-0.00872118
-8.83969e-05
0.000995134
0.00347706
-0.000777595
0.000833384
-0.00282755
-0.0026168
0.000681614
-0.0061491
-0.00177807
-0.00143844
-0.0086707
-0.000912783
-0.00131743
-0.00988438
2.45672e-06
-0.0011641
-0.00978615
-0.000490542
-0.0082788
0.00132418
0.00194784
0.00480672
0.00135848
0.00136306
-0.00235317
-0.000491289
0.00133209
-0.00416657
-0.00302755
2.86827e-05
-0.00308461
-0.00340386
-0.00123562
-0.0048752
-0.00212038
-0.00132776
-0.0116953
-0.00149108
-0.0139473
0.00148197
0.00126114
0.0102585
0.00209681
0.000125904
0.00641934
0.002684
-0.000257574
0.0058807
0.00204668
-0.000299482
0.00668162
0.000582624
-0.000357109
0.00670529
2.97882e-05
-0.000227546
0.00661076
-0.000209484
0.00666026
0.00201833
-0.00133642
0.0132113
0.00127998
-0.000169272
0.0122734
0.00082505
0.000319411
0.00941564
0.000104224
0.000508577
0.00880339
0.00021702
0.000317416
0.00763798
0.000179493
0.000977923
0.00767088
0.0016472
0.00889325
0.0019473
-0.00301454
0.0101535
0.00203134
-0.00204741
0.00732261
0.00210106
-0.000632288
0.00636764
0.00175343
0.000247112
0.00708943
0.000470543
0.000565508
0.00789989
0.00018235
0.00122833
0.00796142
0.00144203
0.0100473
0.00043001
-0.00197976
0.00128455
-0.000513697
-0.00145818
-0.003379
-0.00154637
-0.000301394
-0.00502087
-0.00238575
0.000450061
-0.00486221
-0.00353182
0.000785515
-0.00666157
-0.00177075
-0.000213561
-0.0102116
-0.00010655
-0.0124372
-0.000336189
0.000169609
0.000168463
-0.00398158
0.00122326
-0.00911748
0.00191738
-0.00950992
0.00236874
-0.00904348
0.0012705
-0.00832154
-0.00743074
0.000716773
0.00123722
0.0016448
-0.00172149
0.000356362
-0.000693079
-0.00353437
-0.000530187
-0.00372371
-0.00243604
-0.00207151
-0.00762114
-0.000984762
-0.00188148
-0.00936033
0.000294849
-0.00164459
-0.00926946
-0.000714591
-0.00721882
0.000614731
0.00222416
0.00311884
-0.00299622
0.00187827
-0.000229202
-0.00729482
0.00124987
-0.00158551
-0.00745849
0.000100617
-0.00498044
-0.00497726
-0.00143271
-0.00756308
-0.00234532
-0.00269813
-0.0129738
-0.00265091
-0.0140715
0.00132842
0.000938497
0.00961498
0.00214367
-3.65686e-05
0.00693036
0.00139882
0.000185823
0.00720917
-0.000669345
0.000395388
0.00796108
-0.00249911
0.000273812
0.00631931
-0.00377755
0.000753663
0.00406211
0.00138206
-0.00142907
0.000295155
-0.000440201
0.0142013
-0.00078364
-0.00098549
0.0141443
-0.000921122
-0.000899458
0.0105471
-0.00290282
-0.000235094
0.011435
-0.00181832
-0.000402346
0.00738025
-0.00166806
0.000815432
0.00752926
0.00110679
0.00762012
0.0019048
-0.00226782
0.0098865
0.00203704
-0.00162645
0.00755826
0.00117747
-0.000236009
0.00617054
0.000720651
0.000402582
0.00651411
-0.00205375
0.000510836
0.00946133
-0.00147458
0.0017648
0.0061836
0.00162615
0.0077705
0.00089009
-0.00217851
0.000563345
-0.00141958
-0.000865732
-0.00156623
-0.00306013
0.000921217
-0.00435714
-0.00332084
0.00120176
-0.00526239
-0.00487984
0.00101618
-0.00540811
-0.00231214
0.000371843
-0.0110154
0.000368615
-0.0130949
-0.00172399
-8.31362e-05
-0.00124169
-0.00511255
0.000548517
-0.00980203
0.00197152
-0.00957742
0.00225548
-0.00811687
0.00144556
-0.00700711
-0.00552918
7.73113e-05
-0.00132125
0.00410668
-0.00279656
-0.000693707
-0.000406882
0.00225006
-0.000971958
-0.000296858
-0.00108658
-0.00114037
0.00187919
-0.000260526
0.00117752
-0.00751682
0.00631862
0.000682775
0.00305571
-0.0129164
0.00900265
0.00040705
0.00375088
-0.011439
0.007958
0.00242299
-0.00777266
0.00587134
-0.00385889
0.000685501
0.00606822
-0.00400125
-0.00619454
0.000450531
0.00281279
-0.00117027
-0.0087055
-0.000221878
-0.000286532
0.00203275
-0.00747615
-0.000967031
-0.00432462
0.00533717
-0.00420807
-0.000640792
-0.00868784
0.00923874
-0.00171586
0.000509237
-0.0132299
0.0141496
0.00182506
-0.015888
0.0148889
0.000767437
-0.000484514
0.00880625
-0.00900611
0.000284819
-0.000620385
0.0082728
-0.00716591
-0.00178293
-0.000351616
0.00911287
-0.00732619
-0.00532996
-0.00029388
0.0107134
-0.00828196
-0.00694708
-9.37766e-05
0.00828011
-0.00764737
-0.00239546
0.000493277
-0.00276048
-0.00192475
0.00184319
-0.0103711
0.00766818
-0.000488646
0.000322572
0.013052
-0.0134605
-0.00176912
0.000202054
0.0120964
-0.0117026
-0.00294872
-0.000126364
0.011563
-0.0105916
-0.00453211
-0.00054131
0.0117264
-0.0098532
-0.00568517
-0.00134421
0.0118834
-0.00948316
-0.00498118
-0.00234612
0.0104902
-0.00842483
-0.00344493
0.00760786
-0.00734697
0.000467496
-0.000835368
0.00981111
-0.00941034
-0.000314893
-0.000585698
0.00883698
-0.00762651
-0.00316691
-1.60382e-05
0.00828591
-0.0060244
-0.00738208
0.000618226
0.00953848
-0.00686302
-0.00986176
0.0015619
0.00676902
-0.00746855
-0.00663024
0.00181085
-0.00195949
-0.00560777
0.000188244
-0.00626096
-0.00427118
-0.00185092
-0.000530813
0.004016
-0.00234255
-0.00163835
-0.001933
0.000662895
0.000692416
-0.0023762
-0.00289774
-0.0011203
0.00502018
-0.00453837
-0.00201893
-0.00026483
0.00523048
-0.00367127
-0.00172728
-0.00269664
0.00523552
-0.00106216
-0.00322522
-0.0087142
0.0113814
-0.0015332
-0.012849
0.0137095
-0.00142911
0.00219505
-0.00118631
0.00186101
-0.00974437
0.0046716
0.002179
-0.0136715
0.010685
0.00289888
-0.011105
0.00844096
0.00267936
-0.00793775
0.00651194
0.000459086
-0.00635042
0.0054073
-0.00466609
0.00368077
0.00105945
-0.00121789
0.00429938
0.00111255
-0.000683929
0.00297561
0.00208217
-0.000938374
-0.00111283
0.0039845
0.000244488
-0.00958459
0.00226004
0.00129936
-0.0124252
0.000838166
0.00187951
-0.011812
0.000910934
-0.00770066
-0.00175688
0.000555738
0.0062614
-0.00354562
-8.14983e-06
0.00410689
-0.00569916
-0.000748169
0.00182768
-0.00573644
-0.00172388
-0.00220451
-0.00321274
-0.0007658
-0.00907032
-0.000943438
0.00126961
-0.014819
0.000251112
-0.0161112
0.000452603
-0.000662708
0.00916298
-0.000359986
-0.000516885
0.00920365
-0.00329102
0.000113721
0.0108083
-0.0064272
0.000449213
0.0112829
-0.00497449
-0.000224801
0.00587266
-0.00106244
-0.00104384
-0.0047855
0.000633826
-0.0122555
-0.00114128
0.000161488
0.013246
-0.00224691
-0.000208848
0.0129071
-0.00313438
-0.000515008
0.0131433
-0.00412713
-0.000785506
0.0139508
-0.00480762
-0.00123632
0.0135269
-0.00566654
-0.00111408
0.0113642
-0.0028588
0.00542065
-7.77748e-05
-0.000750768
0.0104102
-0.00190797
-0.000116239
0.0100582
-0.00527839
0.000580212
0.0100484
-0.00781901
0.000961792
0.00981875
-0.00643284
0.00115914
0.00264736
-0.00287064
-0.000361286
-0.00655757
-0.00065478
-0.0116182
-0.000467603
-9.03615e-05
0.00389721
-0.000264122
-0.00055734
0.00102873
-0.00255003
3.10628e-05
0.00177244
-0.00413901
2.53726e-06
0.0024169
-0.00262121
-0.000660117
-0.00216305
-0.000318059
-0.00129771
-0.0099301
-8.94591e-05
-0.0135693
0.000392939
0.00172437
0.00348571
-0.0133924
0.00329057
-0.0133895
0.00303474
-0.0107595
0.00158528
-0.00703509
-0.000459254
-0.00545226
-0.00502004
0.00112295
-0.000480294
0.00365893
0.00209384
-0.000491672
0.0025296
0.00528702
0.000465146
-0.00470001
0.00610007
0.000726915
-0.0110226
0.00470074
0.00128273
-0.0121768
0.00242288
0.0017866
-0.0111977
0.00199734
-0.0070957
-6.22786e-05
0.000564004
0.00534206
-0.00030167
0.000422276
0.00350045
0.000261995
7.77351e-05
0.00181866
0.00101381
-0.00136582
-0.00070657
0.000687155
-0.000486908
-0.00688183
0.000275411
0.00167775
-0.0142535
0.00195969
-0.0156678
-0.000143622
-0.000490408
0.00989165
-0.00158492
0.000170344
0.010454
-0.0036852
0.000716982
0.0118876
-0.00579402
0.000413404
0.0112504
-0.00459508
-0.000742223
0.00458034
-0.00128056
-0.00201947
-0.00482891
0.00104555
-0.0130489
-0.00158169
-0.000263702
0.0144421
-0.00210111
-0.000769401
0.0143359
-0.00160771
-0.00134462
0.0147117
-0.00226297
-0.000625399
0.0156254
-0.00376325
-0.000692027
0.0149277
-0.00626383
0.000302017
0.0115491
-0.00205975
0.00225682
2.00256e-05
-0.0014729
0.0109938
-0.00149039
-0.000545998
0.0108102
-0.00453886
9.22679e-05
0.011157
-0.00567953
-0.000174393
0.0100675
-0.00317168
-0.00136437
0.000487854
-0.000759419
-0.00253785
-0.00647023
-0.00283247
-0.011921
-0.000108203
-0.000328084
0.00295199
-0.000639405
0.000301043
0.000773622
-0.00166924
0.000460041
0.00246814
0.000105492
-0.000627602
0.00120921
0.00242709
-0.000734811
-0.00496691
0.00272613
-0.000873167
-0.0118413
0.000557458
-0.0141471
0.0014146
-1.75352e-06
0.00342461
-0.0150378
0.00378239
-0.0132629
0.00175531
-0.00933213
-3.89558e-05
-0.00586782
-0.00112042
-0.00506528
-0.00533915
0.000159369
7.48947e-05
0.00343249
0.00276245
0.000574098
-0.000555513
0.00771074
0.000744615
-0.0101355
0.00797817
0.00103008
-0.0121869
0.00621599
0.00152791
-0.0118079
0.00298179
0.00189751
-0.00970987
0.00221489
-0.00618896
-0.000101795
0.000378711
0.00519021
0.00138934
0.000629181
0.00205937
0.00264237
-0.000357559
0.00190949
0.00396486
-0.00134702
0.000587134
0.00422662
-0.000448309
-0.00502085
0.00276404
0.00244417
-0.0131946
0.00466003
-0.0151795
-0.000289093
-0.000379694
0.0103591
-0.00112235
0.000447926
0.0109995
-0.00278699
0.000605912
0.012239
-0.00442059
7.23141e-05
0.0111888
-0.00397197
-0.000912204
0.00436933
-0.00127112
-0.000655576
-0.00476324
0.00215753
-0.012155
-0.00145168
0.000422756
0.0147665
-0.0011094
-0.0006309
0.0149339
5.26384e-05
-0.00101581
0.0151434
-0.000625665
0.000326889
0.0160901
-0.00342656
0.000844809
0.0159966
-0.00466268
0.000486459
0.0117044
-0.00222669
0.00200615
0.000708085
-0.00128017
0.0114089
-0.000324646
-0.000948112
0.011586
-0.0023
-0.000792148
0.0123929
-0.000927131
-0.00138105
0.00998022
6.97946e-05
-0.00257848
0.00255282
0.000714036
-0.00357166
-0.00343363
-0.0059693
-0.00783209
0.000352682
-0.00153602
0.00304134
-0.000838384
-0.000176511
0.00125737
0.000543436
0.00055773
-0.000239385
0.00769184
0.000268637
-0.00741261
0.0114559
0.000385424
-0.0116701
0.00876314
0.000612651
-0.0133619
0.00112326
-0.0124827
0.00207426
-0.00342354
0.0032778
-0.0162687
0.00232012
-0.0116787
1.74336e-05
-0.00671064
-0.000497598
-0.00488346
-0.00042875
-0.00439928
-0.00448501
0.000472928
-0.000578574
0.00375527
0.0065798
0.00166171
-0.00807993
0.00937233
0.000162824
-0.0129849
0.00969694
-0.000562972
-0.0118243
0.00641229
0.000664801
-0.00905436
0.0014101
0.00140981
-0.00596446
0.000431818
-0.00507903
-0.000914714
8.69088e-05
0.00565038
0.00108755
-0.000176093
0.00210791
0.00372692
-0.00158013
0.00120579
0.00799327
-0.00212925
-0.00193907
0.0112072
0.000406678
-0.00783833
0.00833181
0.00361067
-0.0123556
0.00635612
-0.0126107
-0.000239325
-0.000342288
0.0105236
-4.21516e-05
-0.000449722
0.0106584
-0.000748962
-0.000370776
0.0114362
-0.00134149
-7.79338e-05
0.00952901
-0.000268705
-0.00110787
0.0046164
0.000350878
-1.38607e-05
-0.00208183
0.00257829
-0.00836192
-0.000494973
0.00084377
0.0137642
9.57319e-05
6.58731e-05
0.0136556
0.00163708
-0.000260857
0.0134907
0.00163113
0.00143732
0.0146815
-0.00164537
0.00290976
0.0153565
-0.00348899
0.000872097
0.01276
-0.00196012
0.00311782
0.000986117