/*--------------------------------*- C++ -*----------------------------------*\
  =========                 |
  \\      /  F ield         | OpenFOAM: The Open Source CFD Toolbox
   \\    /   O peration     | Website:  https://openfoam.org
    \\  /    A nd           | Version:  6
     \\/     M anipulation  |
\*---------------------------------------------------------------------------*/
FoamFile
{
    version     2.0;
    format      ascii;
    class       volScalarField;
    location    "0.0125";
    object      T;
}
// * * * * * * * * * * * * * * * * * * * * * * * * * * * * * * * * * * * * * //

dimensions      [0 0 0 1 0 0 0];

internalField   nonuniform List<scalar> 
3773
(
290.536
290.411
290.502
290.407
290.357
290.471
290.562
291.295
291.08
291.439
291.092
290.89
291.347
291.387
306.919
308.528
308.616
308.564
308.546
308.477
306.915
311.607
311.882
311.917
311.885
311.883
311.977
311.622
306.956
308.307
308.634
308.601
308.584
308.519
306.978
291.49
291.18
291.508
291.036
291.04
291.57
291.481
290.595
290.429
290.535
290.412
290.403
290.537
290.593
286.197
285.724
285.861
285.549
285.434
285.785
286.419
272.349
276.209
277.153
276.602
275.825
276.409
272.955
313.027
311.685
311.706
312.244
311.741
311.696
313.264
325.171
325.314
325.418
325.552
325.457
325.381
325.67
313.407
312.395
312.238
312.127
312.072
311.884
313.505
272.9
274.735
277.018
275.71
276.102
276.877
273.004
286.582
285.711
286.174
285.75
285.773
286.115
286.64
270.528
268.301
267.131
266.175
267.147
268.154
271.421
261.42
264.877
266.931
266.95
263.33
264.344
261.552
313.745
311.835
312.118
314.45
313.12
311.769
313.46
326.787
325.839
326.198
326.853
326.489
325.572
326.673
313.741
312.118
312.647
313.479
313.391
311.991
313.516
261.948
264.531
266.216
263.584
264.273
264.813
261.965
272.428
268.526
268.857
269.048
268.486
269.362
272.684
240.609
238.821
237.307
237.159
237.701
238.794
241.201
256.278
260.626
262.796
264.182
259.074
260.133
256.284
313.659
311.713
312.709
312.747
314.287
310.72
313.35
326.858
326.186
326.757
327.072
327.237
326.075
326.755
313.663
310.897
313.325
314.798
314.275
310.838
313.44
256.754
260.371
262.12
259.791
259.888
260.322
256.643
242.227
239.3
238.972
238.138
238.372
239.555
242.44
223.154
222.624
223.311
223.29
221.828
222.463
223.376
254.361
259.039
261.087
262.166
258.598
258.753
254.215
313.872
311.89
311.663
311.784
312.033
310.337
313.655
326.938
326.291
326.691
326.62
326.688
325.815
326.923
313.77
310.795
312.383
313.241
313.24
310.777
313.742
254.689
258.996
260.253
259.565
258.507
258.731
254.525
223.828
223.114
223.541
221.737
221.908
222.741
223.911
218.514
218.507
219.022
219.729
218.306
218.046
218.502
256.556
261.54
261.938
262.539
261.44
261.39
256.044
314.916
312.035
311.803
311.239
310.897
310.959
314.364
327.289
326.514
326.339
326.51
326.04
326.616
327.236
314.644
312.102
311.342
311.675
311.403
311.997
314.471
256.58
260.594
261.11
262.031
262.748
260.52
256.27
218.692
218.326
219.227
217.575
218.718
218.108
218.664
213.449
212.191
212.764
214.284
213.822
213.463
213.46
256.302
258.486
255.714
256.984
257.356
257.451
256.135
311.771
312.243
310.337
311.119
309.92
311.426
310.326
333.239
334.741
334.426
334.412
335.096
333.119
335.228
311.765
317.271
311.445
310.062
318.851
311.845
310.425
256.496
245.482
256.702
256.007
249.186
257.137
256.247
213.649
212.413
213.707
212.799
212.563
213.341
213.547
333.723
337.37
337.843
338.817
339.002
339.397
338.476
328.821
331.734
332.035
332.122
333.294
334.104
334.591
320.227
323.035
323.58
323.896
324.115
324.294
324.061
319.108
323.171
324.013
325.137
325.011
324.616
320.963
329.901
328.26
328.765
330.225
330.318
330.677
330.364
330.5
328.261
329.459
329.704
330.233
331.168
330.643
330.797
332.439
335.884
336.952
338.363
337.483
333.027
332.152
335.669
337.518
339.642
340.164
340.619
340.683
325.82
326.878
327.13
328.941
331.251
332.683
334.932
318.719
321.56
322.353
322.388
321.994
322.007
321.946
318.054
321.897
323.304
326.246
324.469
322.894
319.502
329.431
326.198
328.065
329.576
329.382
330.264
330.344
329.865
326.113
326.209
324.663
328.032
332.333
333.061
331.375
333.733
337.632
339.128
341.595
341.619
340.858
327.778
329.508
337.967
339.521
341.544
342.052
342.594
322.416
321.977
324.681
328.713
330.13
330.792
334.389
316.919
317.462
319.478
320.357
318.37
316.426
317.416
316.048
318.784
323.533
329.446
325.145
321.204
316.252
327.817
323.645
325.598
329.567
328.369
328.195
329.184
328.536
325.667
321.174
320.941
326.373
330.095
332.488
330.496
332.6
336.144
337.949
342.136
341.924
340.973
325.363
328.266
338.506
339.397
342.045
343.8
344.761
321.164
323.139
326.749
329.919
330.089
330.12
333.197
313.832
313.399
317.28
319.194
317.768
312.606
309.213
312.39
315.087
324.406
333.82
329.635
321.766
314.107
323.387
318.535
321.908
328.129
326.935
325.616
323.718
325.383
325.921
322.744
323.612
326.848
328.618
331.859
327.963
331.315
336.613
340.877
343.269
342.49
340.521
324.509
333.348
337.772
339.368
342.243
344.995
345.437
315.487
325.57
330.465
330.177
328.734
329.179
332.177
305.875
308.275
315.472
317.976
316.672
307.351
303.979
309.046
312.907
325.469
335.49
332.032
323.222
313.581
316.054
316.368
318.295
323.535
324.018
317.108
320.941
321.002
330.437
328.019
326.513
326.682
327.716
332.271
327.6
331.355
340.879
344.43
344.142
343.372
341.166
320.829
335.569
337.739
339.652
342.798
345.359
345.946
309.664
325.566
332.066
329.076
326.37
329.121
334.601
300.176
304.319
314.924
317.329
316.909
305.787
301.721
307.055
312.783
326.193
338.164
333.921
324.394
313.867
313.732
313.766
314.805
320.816
320.687
312.148
314.192
324.139
332.593
329.87
326.716
325.834
326.756
332.252
329.76
336.323
345.352
346.024
344.371
344.748
342.582
316.497
335.223
337.819
340.043
344.887
349.268
347.969
313.76
331.872
332.398
331.608
331.9
334.352
340.38
300.514
309.412
315.733
318.044
316.546
304.465
303.15
307.008
314.681
328.245
337.712
333.675
327.085
317.702
312.875
312.067
313.348
321.414
313.465
308.705
310.765
331.181
332.736
330.287
328.807
326.729
331.394
338.7
333.988
342.141
345.56
345.938
345.453
345.637
343.851
324.728
335.448
336.127
337.386
343.437
351.825
350.709
330.885
337.535
338.355
338.8
344.213
348.108
348.459
309.864
316.478
319.858
321.61
318.88
334.947
347.399
309.433
319.699
331.212
335.421
329.051
325.177
324.714
307.028
309.83
318.163
316.632
311.37
322.181
328.817
331.176
336.38
339.279
337.741
336.469
344.227
348.321
334.517
346.085
349.073
349.673
349.566
349.098
346.76
327.317
333.572
334.79
337.159
341.748
348.083
350.216
332.03
336.113
336.278
338.076
343.235
347.157
347.985
317.9
319.913
321.564
323.761
331.93
346.188
349.088
317.114
326.471
334.521
334.917
330.315
331.441
335.313
307.539
312.258
320.268
318.86
327.306
345.073
348.593
332.406
337.104
334.743
331.642
337.586
347.455
350.669
333.93
345.387
348.776
348.944
348.698
348.674
347.486
328.831
333.244
335.022
339.508
342.578
347.792
350.047
332.499
336.22
336.671
336.763
341.87
345.83
348.418
321.18
323.652
325.295
328.935
336.985
345.614
348.587
324.47
331.989
335.357
335.659
333.117
335.399
340.704
312.389
317.82
323.489
325.213
336.137
348.215
351.509
332.693
338.243
335.671
332.545
338.952
347.625
351.782
333.743
343.897
348.671
349.13
348.815
349.094
349.656
329.247
332.456
338.408
342.682
344.158
348.057
349.84
331.614
336.382
336.346
336.006
340.015
345.119
348.907
323.803
325.297
326.7
330.814
339.97
345.102
348.652
330.813
334.376
336.667
337.201
335.433
338.692
345.672
319.01
321.498
326.844
329.961
340.255
348.252
352.13
332.335
338.554
336.309
338.514
342.787
347.377
351.551
333.648
345.984
348.441
349.66
350.273
350.744
351.124
328.815
339.11
344.076
345.347
348.284
350.681
350.643
330.478
336.181
335.368
335.962
339.065
344.941
349.316
326.1
329.493
328.917
331.429
338.36
342.502
348.807
337.232
340.315
340.947
340.639
337.918
342.02
347.675
321.924
323.027
327.972
333.077
338.049
346.811
352.377
333.044
339.825
343.824
344.891
346.509
348.104
351.36
342.388
348.055
349.373
351.326
351.446
351.107
351.278
324.685
339.082
348.106
349.062
351.251
351.878
351.05
330.927
336.706
340.883
341.755
343.562
348.798
352.474
327.417
331.276
331.338
331.653
335.064
337.861
349.012
343.146
344.585
343.632
341.978
339.277
341.652
349.154
323.125
325.826
330.393
332.208
337.158
342.311
351.441
331.508
344.715
345.113
346.792
348.583
349.605
352.16
346.91
350.779
354.008
353.984
353.057
352.25
351.373
335.407
341.335
352.157
351.794
352.676
351.922
352.489
341.657
344.699
346.475
347.708
349.249
352.562
353.989
339.217
343.095
343.557
344.025
342.473
342.495
345.77
342.439
345.572
345.249
344.447
342.765
342.634
346.613
334.277
341.92
344.287
344.25
343.391
343.644
346.682
340.784
345.773
349.193
351.638
350.96
350.831
353.114
337.466
349.13
355.168
354.506
353.04
353.076
353.489
316.459
335.302
336.761
339.568
344.676
351.691
349.686
319.032
331.93
333.337
336.475
339.431
342.251
346.842
301.018
309.678
315.921
320.284
315.818
305.322
314.212
307.214
315.663
327.42
336.886
330.685
325.472
317.529
311.492
311.933
313.577
322.077
313.07
308.886
311.281
326.838
329.344
330.561
331.731
329.501
337.496
344.454
338.57
342.844
346.947
347.86
347.139
347.822
345.866
316.952
335.934
336.766
339.347
344.347
351.786
349.887
320.635
334.802
335.233
337.114
341.008
343.886
347.723
301.224
309.893
316.039
320.359
315.467
306.769
328.577
307.233
315.738
327.563
336.833
330.677
325.442
317.581
311.253
311.651
313.674
322.215
312.943
308.786
311.08
325.72
332.495
332.652
333.558
331.027
339.185
345.483
337.671
343.612
347.639
348.281
347.575
348.05
346.034
317.308
335.017
336.573
339.14
343.794
351.885
349.922
321.482
335.363
335.6
337.268
341.793
344.836
348.067
301.368
310.175
316.118
320.542
315.27
309.886
339.058
307.265
315.826
327.733
336.821
330.483
325.288
317.855
310.626
311.348
313.916
322.238
312.613
308.525
310.837
325.871
333.287
333.458
334.569
331.488
340.016
346.079
336.943
344.137
348.119
348.92
347.85
348.208
346.07
317.413
333.906
336.217
338.853
343.626
351.925
350.043
323.652
335.421
335.289
337.23
342.196
345.873
348.275
301.67
310.944
316.497
320.545
315.132
312.771
344.457
307.351
315.97
328.069
336.813
330.217
324.935
318.266
310.349
311.119
314.027
322.255
312.314
308.089
310.419
326.211
333.573
334.599
335.899
331.743
340.689
346.526
336.345
344.73
348.562
349.421
348.034
348.417
346.225
318.177
335.727
336.129
338.567
343.629
352.103
350.318
324.656
335.846
335.889
337.569
342.664
346.588
348.414
301.868
311.246
316.716
320.663
315.2
315.921
346.356
307.413
316.286
328.302
336.814
330.134
324.569
319.198
309.829
310.719
314.164
322.297
311.842
307.965
310.077
326.4
331.961
335.862
337.021
332.796
341.302
347.018
336.259
345.553
348.942
349.689
348.488
348.716
346.303
318.923
335.699
336.096
338.281
343.717
352.193
350.601
325.35
335.789
336.358
338.098
343.022
347.362
348.46
302.406
311.753
316.989
320.816
315.294
317.509
346.958
307.556
316.473
328.684
336.808
330.11
323.933
319.119
309.515
310.507
314.525
322.293
311.378
307.653
309.435
326.587
331.451
338.005
337.809
334.005
342.556
347.59
336.105
346.045
349.088
349.772
349.075
349.14
346.511
319.95
335.508
336.19
338.173
343.645
352.051
350.741
325.487
334.367
337.177
338.404
343.688
347.781
348.516
302.711
312.078
317.323
321.345
315.604
319.969
347.225
307.641
316.812
328.937
336.792
330.268
323.915
319.286
308.83
310.042
314.68
322.243
310.685
307.21
308.887
326.128
333.654
339.02
338.334
334.719
343.177
348.186
334.58
346.274
349.137
349.729
349.336
349.237
346.766
335.078
360.053
337.469
334.61
330.766
329.712
325.734
341.075
350.338
353.596
359.702
352.831
353.106
347.907
356.407
357.805
357.441
356.672
353.085
347.225
345.532
342.727
346.536
347.348
345.914
343.547
342.581
345.319
355.73
355.789
356.072
355.43
354.62
351.044
347.895
344.521
352.89
359.657
351.935
349.772
347.309
346.682
334.494
348.234
336.013
324.795
321.725
320.897
318.397
359.521
341.534
336.044
334.302
332.019
331.309
330.452
354.53
360.308
355.851
354.162
350.899
349.13
347.9
359.914
356.95
353.56
352.588
351.77
349.93
346.228
343.36
347.031
347.769
346.519
344.07
342.615
344.7
355.231
356.653
357.053
354.324
352.512
351.816
349.166
350.523
359.671
352.545
349.653
348.295
347.774
346.195
344.405
344.001
339.705
335.585
330.694
329.324
327.293
356.427
341.775
339.678
338.628
339.899
339.811
338.51
358.625
355.127
352.936
351.759
350.755
349.88
349.418
355.384
354.106
353.415
352.245
351.539
350.819
348.23
344.084
347.574
348.364
347.188
344.862
342.763
343.766
357.693
356.565
355.259
352.881
350.484
349.458
349.402
355.613
358.84
353.551
351.524
349.506
349.022
348.463
353.7
345.901
348.257
347.006
342.996
342.082
342.115
350.36
346.507
346.714
345.525
345.824
349.476
350.043
355.68
354.767
353.977
353.605
352.335
351.913
352.207
354.535
353.578
353.154
352.355
351.202
350.473
349.853
345.656
347.758
348.854
347.717
345.707
343.437
343.698
357.695
355.077
353.648
352.31
350.222
349.233
348.659
358.623
355.805
354.417
352.645
352.132
351.583
351.344
355.733
348.081
352.356
351.095
350.922
351.027
350.488
351.388
351.279
348.971
347.927
349.665
351.988
352.319
355.605
354.858
354.421
354.202
354.473
354.6
354.37
354.083
353.256
353.203
353.394
352.604
351.548
350.779
345.815
348.195
349.326
348.82
346.52
344.502
343.468
355.398
354.656
353.04
352.149
350.595
349.629
348.464
358.475
355.417
354.131
352.92
352.122
351.73
351.395
353.891
351.251
352.448
351.843
351.638
351.98
351.703
354.588
353.639
352.611
352.565
352.72
353.321
352.036
355.954
355.064
354.724
355.063
356.081
356.538
356.399
353.884
354.197
354.194
353.827
352.956
351.16
350.525
346.14
348.545
350.292
350.194
347.541
345.62
344.049
353.076
354.309
352.719
352.123
351.248
349.384
348.555
355.826
355.936
353.256
351.239
350.46
350.638
350.857
352.323
353.213
353.023
352.878
352
351.422
350.673
357.942
356.192
351.971
350.583
350.09
349.771
348.898
359.084
356.884
356.347
356.665
356.857
356.638
356.191
355.102
355.162
354.692
353.976
353.178
352.403
350.466
346.833
349.052
350.908
350.833
349.828
347.186
345.37
352.451
355.005
353.865
352.953
351.84
350.688
349.465
356.218
357.652
355.161
352.959
352.117
351.806
351.767
352.999
356.767
354.362
350.978
349.143
348.751
348.574
318.377
313.323
310.496
310.566
318.389
331.856
338.354
345.807
344.692
343.325
341.026
340.201
341.007
346.493
344.71
346.309
359.651
359.951
358.796
357.756
357.544
345.827
346.461
350.112
354.406
357.112
357.131
356.837
347.74
348.538
348.87
356.263
359.28
358.806
358.916
343.003
342.059
340.923
340.477
340.659
343.812
346.946
315.829
314.15
312.627
313.345
320.796
329.583
335.46
328.277
326.312
326.113
325.119
327.255
334.567
338.918
347.181
346.711
345.211
343.359
342.746
343.192
345.523
344.831
345.054
346.85
356.744
358.62
357.429
356.989
345.896
346.151
346.886
348.444
350.932
352.848
352.763
348.214
348.508
348.603
349.579
353.81
357.327
357.325
344.316
343.194
342.433
341.909
341.79
342.32
346.294
326.166
324.809
324.279
324.174
326.2
329.98
335.917
337.438
339.99
342.275
342.814
340.601
340.197
338.754
349.128
347.859
347.423
346.959
346.046
345.87
346.446
345.798
345.065
344.845
346.861
355.307
357.043
356.533
345.299
345.213
345.27
345.102
345.774
346.436
347.834
348.848
348.341
348.116
347.972
348.018
350.955
355.861
347.506
346.519
345.753
345.179
344.955
344.955
346.034
342.39
341.529
340.089
339.29
336.733
336.455
337.338
351.626
352.846
352.944
352.543
351.338
348.322
338.472
350.762
350.296
350.146
349.994
349.401
349.249
349.148
348.464
347.45
345.691
345.093
345.982
348.663
354.761
344.757
344.588
344.466
344.09
343.925
343.226
343.264
348.53
348.228
347.687
347.305
346.873
346.894
349.382
350.208
348.969
347.952
347.1
346.171
345.753
345.761
350.063
349.791
349.184
348.91
348.575
347.581
343.453
352.274
352.255
352.416
352.341
352.473
352.693
348.042
354.644
354.526
353.99
353.851
353.913
354.529
354.252
348.808
348.363
347.652
346.599
345.154
345.151
346.337
343.565
343.457
343.225
342.927
342.575
341.537
340.994
347.667
347.518
347.088
346.882
346.531
346
346.012
349.502
348.974
347.819
347.376
346.916
346.891
346.148
351.104
350.633
350.354
349.964
349.908
351.34
349.225
351.64
351.766
351.433
351.127
351.563
352.84
354.34
355.778
355.544
354.868
354.548
354.534
354.77
354.689
348.93
348.615
348.228
347.893
347.159
345.157
344.828
343.105
342.788
341.992
341.627
340.327
339.477
337.601
347.41
346.954
346.407
345.784
345.396
344.444
344.575
350.061
349.746
349.285
349.151
348.813
348.892
349.07
349.75
349.483
349.308
349.51
350.357
351.963
352.98
348.911
348.632
348.46
348.809
350.015
352.292
356.06
355.619
355.216
354.442
354.052
353.551
353.089
352.827
348.929
348.501
348.036
347.475
346.62
345.484
342.877
344.339
343.279
342.609
341.394
340.427
338.026
334.831
347.228
346.584
345.718
345.175
344.041
343.365
340.62
351.364
350.9
350.528
350.011
349.726
349.655
349.697
347.943
347.558
347.525
348.053
349.331
351.547
353.687
344.31
336.694
330.747
327.999
326.878
327.729
330.21
349.923
346.105
343.841
342.747
341.023
341.162
340.71
358.488
358.137
357.927
357.456
356.708
355.7
355.681
358.27
358.626
358.48
359.131
359.075
358.401
347.929
355.373
355.012
353.653
353.546
353.783
354.499
355.028
347.596
343.444
340.65
339.895
339.941
340.656
342.947
340.822
334.013
324.346
322.197
322.006
323.71
330.321
345.346
340.718
340.513
342.113
341.689
341.296
342.275
350.478
348.415
348.38
348.522
349.458
350.493
351.174
357.932
357.574
357.623
358.586
358.844
359.175
359.492
356.522
357.136
357.477
357.661
357.028
354.087
346.893
353.425
353.381
353.198
352.957
353.094
353.479
354.433
347.724
345.546
343.576
343.39
343.353
343.702
345.937
341.923
336.37
331.337
330.873
330.053
332.722
334.649
347.096
354.498
360.62
360.837
361.556
361.253
354.911
355.42
357.258
359.764
359.947
361.036
361.466
361.012
357.674
358.035
358.837
360.984
360.657
358.401
357.393
356.076
356.544
356.765
356.785
354.652
350.291
346.493
354.216
354.639
354.874
354.918
354.829
354.864
355.476
351.423
349.171
349.202
349.979
350.331
350.293
351.582
342.392
341.749
343.047
343.82
342.951
345.353
346.164
356
361.734
360.846
359.053
358.889
359.044
358.66
360.854
361.252
360.074
358.983
358.537
357.784
357.257
359.716
359.193
359.099
358.85
356.419
355.517
355.119
353.664
353.768
353.314
351.877
350.24
348.979
346.916
355.342
354.974
354.951
355.226
355.566
355.895
356.821
354.203
353.81
354.662
354.744
354.812
355.463
356.262
345.853
353.374
353.262
351.185
350.378
349.999
351.266
358.434
361.162
358.483
356.959
356.052
354.64
353.78
359.911
359.053
357.848
357.357
356.874
356.742
356.65
357.032
356.396
355.894
355.246
355.061
354.933
354.408
349.843
349.597
349.513
349.275
348.61
347.699
347.001
352.847
352.627
352.596
352.797
353.097
353.73
354.771
354.409
354.401
353.925
353.692
354.013
354.732
356.978
350.935
353.82
351.638
348.938
348.31
348.981
351.865
360.192
361.443
359.273
358.333
356.353
356.551
355.851
359.54
359.415
358.682
358.5
358.444
357.696
357.407
354.145
354.453
354.98
355.22
355.463
354.823
354.332
345.363
345.674
346.433
346.633
346.716
346.654
346.638
349.84
349.501
349.873
350.486
350.769
351.637
352.467
353.923
352.723
352.398
351.635
351.582
353.109
354.569
352.754
353.186
351.266
347.818
345.898
346.995
349.674
358.504
361.51
361.034
358.601
358.584
358.738
358.676
359.21
361.383
361.533
361.349
360.912
360.709
359.807
352.949
357.109
357.976
358.536
357.586
356.173
355.354
341.639
343.627
344.682
345.126
345.841
346.152
346.638
346.724
348.334
349.102
349.544
350.246
350.651
351.323
352.216
352.639
351.768
351.054
350.723
351.557
353.113
353.516
353.684
350.849
347.732
346.493
346.692
349.509
364.056
362.172
361.926
359.115
357.361
353.117
348.209
363.539
360.701
360.577
358.327
357.2
354.332
352.914
362.62
361.281
360.996
359.876
359.614
358.872
358.776
358.616
359.07
358.305
357.818
357.634
357.858
358.131
361.687
360.158
359.918
358.624
358.041
356.954
356.002
363.563
359.773
359.996
357.743
355.89
353.228
350.325
364.431
362.448
363.683
361.32
356.517
353.661
345.718
364.671
359.157
358.766
356.308
354.99
351.16
347.388
364.391
356.705
354.668
353.799
353.557
352.81
351.941
362.646
359.956
358.756
358.234
357.74
357.3
357.65
358.306
357.393
355.989
355.419
355.262
355.49
356
360.702
358.7
356.926
356.189
355.743
354.492
353.948
360.322
355.326
352.944
352.068
351.683
350.892
348.991
362.01
359.147
358.891
355.611
353.443
351.114
345.265
355.632
355.187
355.229
353.131
352.666
347.705
344.681
353.498
351.43
351.711
352.778
353.89
354.568
355.282
359.866
358.212
357.34
356.807
357.004
357.005
357.403
357.482
356.36
355.411
355.068
355.067
355.277
355.708
357.297
356.341
355.294
354.601
354.46
354.292
354.179
352.155
349.001
349.784
350.908
352.38
352.103
351.938
357.382
355.003
354.977
351.673
350.827
347.075
343.679
354.897
349.706
351.654
348.941
349.413
343.166
343.312
349.582
348.135
350.999
354.958
357.474
359.84
359.732
356.836
356.634
356.495
356.325
356.634
357.76
359.206
357.309
356.065
354.963
354.453
354.049
353.687
353.653
355.966
355.296
354.177
354.117
354.538
354.877
355.424
348.256
346.138
349.072
352.94
355.021
356.335
355.766
354.083
349.101
350.288
345.274
345.536
343.957
343.132
352.313
344.589
347.059
342.727
344.913
336.766
341.694
347.093
346.747
351.347
359.421
360.38
361.439
360.122
355.459
354.936
355.041
356.562
358.089
358.878
357.997
356.561
354.403
352.805
351.696
350.594
350.16
350.175
353.925
353.237
353.478
354.364
355.3
354.636
353.25
344.501
344.037
348.687
354.293
357.345
358.111
355.111
350.907
343.395
345.814
339.935
342.973
340.332
341.256
346.773
338.813
343.126
339.706
341.441
334.56
341.543
341.29
342.857
352.053
361.176
361.234
361.08
359.642
352.511
353.195
353.867
354.856
356.296
355.327
353.236
354.703
353.697
352.089
350.341
347.493
346.292
345.409
351.321
351.831
350.991
352.231
352.753
351.146
349.482
339.257
341.14
347.806
355.103
358.444
356.605
354.445
346.336
338.445
340.215
333.449
338.5
334.577
340.649
341.606
334.768
340.183
336.44
339.52
332.295
339.5
337.159
339.82
352.803
361.259
361.383
361.628
358.143
350.513
349.928
350.907
351.647
351.249
349.816
351.235
353.37
350.228
345.289
342.823
339.33
338.261
337.96
349.107
348.538
348.321
348.539
346.53
343.741
344.106
334.928
338.113
345.335
354.739
358.057
355.859
352.282
337.424
336.01
337.583
331.089
336.382
331.907
338.735
334.656
330.604
333.751
333.67
334.792
330.025
331.535
328.939
332.745
339.773
350.814
345.428
352.521
349.682
340.815
342.387
340.229
343.022
344.834
347.094
343.04
337.821
339.294
340.85
340.203
338.546
337.998
333.84
340.427
340.928
338.895
339.15
339.813
341.639
336.719
328.232
330.538
334.253
342.335
343.677
351.898
345.901
331.224
330.143
330.74
328.281
329.452
329.45
330.336
312.183
310.312
310.426
305.12
313.304
304.952
314.094
324.18
327.367
331.6
337.652
339.525
331.71
341.495
337.164
337.669
335.405
333.559
333.793
336.559
337.419
333.599
335.177
335.132
335.148
334.545
335.339
334.447
336.359
335.615
335.285
334.506
332.678
332.835
333.604
321.48
324.228
327.208
334.185
339.968
341.552
342.081
308.612
304.934
306.589
302.203
303.196
305.512
315.119
299.84
299.446
299.202
298.577
298.828
299.391
298.96
319.397
317.809
318.114
318.937
318.951
319.982
319.702
334.42
331.159
332.93
331.997
331.866
334.865
333.692
324.911
326.268
326.393
327.378
329.325
331.127
331.645
332.214
331.687
330.446
328.341
331.164
331.59
331.853
317.233
316.431
316.48
317.388
317.329
317.383
318.676
298.8
297.867
297.531
296.993
297.179
298.032
297.57
290.867
290.319
290.942
291.095
290.946
291.588
291.531
313.68
314.022
311.362
311.295
311.751
310.825
310.623
326.635
327.162
324.445
328.154
328.698
331.451
330.444
321.097
322.412
322.445
323.305
325.165
326.678
326.693
329.393
328.444
325.639
324.813
327.906
328.806
329.494
309.976
312.548
312.372
312.229
310.417
310.099
310.284
288.5
289.974
290.687
291.037
290.813
291.018
290.865
283.229
283.564
282.831
283.447
282.773
282.301
283.039
308.718
306.934
306.659
307.527
307.497
307.771
307.489
319.921
319.219
318.153
319.259
320.479
322.972
321.973
312.758
314.128
314.072
314.897
316.734
318.332
318.546
321.667
320.393
320.788
319.758
320.341
322.613
323.766
306.655
306.733
306.813
307.095
306.87
307.357
306.992
283.339
282.669
282.703
282.871
282.939
283.935
283.879
281.102
281.059
281.025
280.978
280.971
280.982
281.005
304.815
304.715
304.716
304.947
305.087
304.845
304.924
318.541
317.637
316.999
318.09
318.843
321.489
320.398
308.472
309.789
309.804
310.838
312.734
314.339
314.644
320.28
319.32
319.62
318.501
319.309
321.823
322.866
304.859
304.848
304.948
305.125
305.047
304.923
304.999
281.221
281.169
281.154
281.136
281.138
281.146
281.184
291.964
291.956
291.95
291.944
291.938
291.937
291.942
305.87
305.838
305.876
305.897
305.91
305.925
305.941
310.031
308.815
308.836
309.18
309.088
311.629
310.861
289.421
290.739
290.935
292.422
294.396
295.757
296.464
311.431
310.69
310.458
309.317
310.695
313.604
314.129
305.92
305.931
305.901
305.895
305.904
305.916
305.942
292.022
292.005
291.99
291.975
291.971
291.97
291.97
347.682
352.74
356.764
358.223
359.603
362.601
364.605
349.448
351.41
352.459
353.005
353.638
355.269
355.672
357.593
357.127
356.817
356.85
357.233
357.838
357.833
356.165
355.125
355.191
355.751
356.941
358.104
358.902
359.204
359.186
359.406
359.863
360.291
360.685
362.388
350.107
353.591
355.279
357.372
359.819
359.237
362.772
343.639
351.304
354.908
357.92
361.765
359.891
362.491
346.559
352.78
357.76
357.718
361.763
364.423
365.667
348.944
351.114
352.406
352.672
352.901
351.458
351.555
356.501
356.161
355.725
355.643
355.806
355.65
355.513
352.144
351.709
351.964
353.046
354.729
357.12
358.534
357.28
356.997
357.211
357.353
357.723
359.902
362.192
348.035
349.711
351.152
351.537
352.333
354.63
363.215
341.085
346.847
351.12
353.129
356.514
356.52
362.075
339.73
347.738
354.008
352.741
358.247
362.136
354.007
348.158
349.935
350.596
350.176
351.164
348.874
347.555
355.622
355.274
354.868
354.743
354.517
352.975
352.875
347.804
347.605
347.967
348.973
350.95
353.609
355.978
356.376
356.583
356.73
356.175
356.041
356.858
359.247
348.698
349.66
351.67
350.267
348.916
348.211
352.73
338.415
342.651
348.399
349.233
354.445
356.355
356.692
338.571
342.597
346.516
342.222
351.816
359.352
346.237
349.994
350.133
349.256
346.854
346.95
345.77
341.065
355.223
353.786
352.616
351.904
351.692
350.829
350.588
343.77
343.881
344.498
345.977
348.92
352.528
355.451
354.54
355.384
355.221
354.352
354.224
355.14
355.47
348.491
349.43
353.077
352.326
349.586
345.606
346.854
339.981
341.46
347.448
346.907
353.59
354.039
355.972
337.153
337.447
337.083
331.448
345.08
352.385
341.089
354.964
354.263
347.008
341.538
343.294
340.96
334.156
349.779
353.407
353.191
350.948
350.354
348.256
348.887
340.179
339.653
340.143
341.519
343.52
347.561
353.342
347.046
351.92
355.034
354.544
353.612
352.63
353.993
346.523
345.981
353.076
354.002
352.473
345.371
345.064
338.643
336.207
346.316
343.231
351.857
349.513
356.829
338.435
332.759
332.692
325.591
340.882
348.438
334.216
356.352
356.961
350.458
339.26
342.459
336.393
330.399
343.7
345.128
348.766
348.061
347.356
346.556
346.535
335.958
336.089
336.856
340.146
342.791
346.197
350.645
344.353
344.882
351.181
351.488
351.015
351.065
350.456
348.071
342.665
350.562
351.099
353.48
342.471
340.709
339.366
327.303
340.367
336.596
348.087
340.793
350.695
334.874
329.522
329.284
322.66
336.137
339.597
331.728
353.706
356.126
351.951
335.309
342.362
333.334
328.733
339.469
338.861
342.447
344.474
343.806
342.416
345.191
328.915
328.698
329.211
332.329
335.4
340.065
347.965
338.443
338.752
340.213
345.502
347.182
346.385
348.572
350.783
341.565
347.813
348.531
351.176
337.984
335.649
338.025
322.759
335.559
327.173
337.501
330.47
338.508
319.323
317.989
320.412
320.477
327.437
329.141
330.507
338.468
334.067
332.664
331.902
330.084
329.672
326.571
329.079
335.719
336.66
332.354
332.979
333.188
332.807
319.018
327.093
329.018
331.138
330.997
327.267
324.477
324.914
334.617
331.834
332.461
332.932
336.715
335.134
337.845
330.473
328.913
330.06
329.669
328.92
328.204
318.871
319.642
317.113
320.63
328.752
324.928
328.65
303.828
304.944
301.901
301.369
292.1
292.577
295.682
318.161
317.259
315.947
319.163
316.904
312.304
312.631
329.446
326.878
324.858
325.247
326.818
329.204
330.296
319.093
320.347
319.678
319.853
321.08
321.4
318.32
325.233
324.806
323.4
322.564
324.712
327.351
328.147
317.149
312.902
315.844
321.671
319.808
317.325
311.748
302.876
304.191
296.802
293.02
292.454
291.605
300.769
284.177
281.807
284.838
284.784
284.644
284.223
284.508
310.483
307.497
307.457
311.197
307.005
307.064
305.173
327.124
324.427
322.714
322.828
321.827
323.052
324.32
316.435
317.798
315.992
314.716
312.749
311.701
307.341
322.666
322.53
320.001
319.067
319.824
324.454
324.092
311.736
309.567
307.963
309.514
306.645
306.624
307.098
281.749
282.655
284.531
283.574
283.736
283.564
284.138
277.737
277.872
277.76
277.221
277.949
277.143
278.42
305.345
305.017
304.607
305.578
303.9
301.808
302.569
321.09
322.373
322.141
320.699
318.389
319.522
321.641
312.353
314.721
311.512
310.05
307.02
306.027
302.22
316.161
316.185
316.622
316.736
315.913
319.489
319.13
302.819
303.708
303.248
304.886
301.934
301.39
301.611
276.766
276.662
277.003
277.051
276.708
276.665
277.001
275.551
275.256
275.226
275.735
275.402
275.461
275.603
301.224
301.221
301.265
304.495
301.025
300.623
300.687
321.008
322.64
320.835
319.04
318.496
319.684
321.877
309.475
310.835
308.984
308.037
305.797
304.991
301.479
315.693
316.332
316.866
314.529
315.781
319.484
319.321
300.822
300.936
300.697
303.608
300.543
300.325
300.485
275.792
275.673
275.768
276.02
275.754
275.698
275.771
276.895
276.723
276.798
277.502
276.944
276.886
276.916
302.259
302.39
302.465
303.459
301.956
301.978
302.008
322.556
322.633
319.988
318.854
320.495
322.104
323.93
307.873
308.515
307.165
306.452
304.669
303.932
300.575
316.79
317.726
317.436
314.499
317.971
321.416
321.378
302.268
302.298
302.141
303.376
301.761
301.968
301.955
277.111
277.091
277.309