/*--------------------------------*- C++ -*----------------------------------*\
  =========                 |
  \\      /  F ield         | OpenFOAM: The Open Source CFD Toolbox
   \\    /   O peration     | Website:  https://openfoam.org
    \\  /    A nd           | Version:  6
     \\/     M anipulation  |
\*---------------------------------------------------------------------------*/
FoamFile
{
    version     2.0;
    format      ascii;
    class       volVectorField;
    location    "0.0125";
    object      U;
}
// * * * * * * * * * * * * * * * * * * * * * * * * * * * * * * * * * * * * * //

dimensions      [0 1 -1 0 0 0 0];

internalField   nonuniform List<vector> 
3773
(
(40.2759 -0.0120151 0.512304)
(40.2649 -0.0183475 0.513769)
(40.288 -0.0143101 0.510734)
(40.2916 0.00974015 0.507347)
(40.2688 0.0126664 0.510397)
(40.2762 0.0162109 0.52281)
(40.2492 0.0208952 0.529499)
(10.6801 0.0366154 -0.0927222)
(10.6284 -0.0334195 -0.0830118)
(10.6684 -0.0308876 -0.0695707)
(10.6346 0.000621274 -0.0741605)
(10.6151 0.00955029 -0.0721682)
(10.6518 0.02177 -0.0544579)
(10.6785 -0.0266192 -0.0562504)
(4.3069 0.0280768 0.051016)
(4.29847 -0.00705515 0.052911)
(4.30042 -0.0167832 0.0606172)
(4.30268 0.0118751 0.0622071)
(4.29966 0.0142394 0.0623608)
(4.29861 0.00411124 0.0712686)
(4.30445 -0.0156963 0.0618639)
(-2.36473e-05 0.00389605 0.0559827)
(-2.90657e-05 0.00629943 0.0570159)
(-4.36257e-05 0.0104843 0.0544172)
(-2.70745e-05 -0.0064578 0.0527029)
(-8.76015e-06 -0.0161265 0.0525097)
(-4.08088e-05 -0.0156065 0.0465879)
(-2.75125e-05 -0.0124613 0.0498846)
(-4.30759 0.0255821 0.0530224)
(-4.30479 -0.00606048 0.0533338)
(-4.30265 -0.0162042 0.0581869)
(-4.30288 0.00689791 0.0619427)
(-4.30127 0.00748403 0.0597352)
(-4.29973 -0.000767899 0.0667949)
(-4.30482 -0.0158546 0.0576385)
(-10.6828 0.0334125 -0.0983091)
(-10.6363 -0.0352467 -0.0835451)
(-10.6619 -0.0243618 -0.07234)
(-10.6251 0.00751305 -0.0771343)
(-10.615 0.0189563 -0.07295)
(-10.6613 0.0330392 -0.0540544)
(-10.6798 -0.0221476 -0.0567995)
(-40.2271 -0.0115717 0.516053)
(-40.217 -0.021421 0.515308)
(-40.2626 -0.0157517 0.515954)
(-40.2773 0.00778803 0.51276)
(-40.2303 0.010594 0.511277)
(-40.2498 0.017025 0.526109)
(-40.2171 0.0204933 0.534208)
(37.8848 -0.0182899 0.770723)
(37.5718 -0.0151248 0.755831)
(37.6408 -0.00735937 0.763101)
(37.5298 0.00793672 0.759043)
(37.5452 0.00813071 0.757394)
(37.6072 0.0141739 0.75863)
(37.8725 0.0274923 0.771173)
(8.61811 0.0150512 -0.277739)
(8.70197 -0.0428146 -0.269204)
(8.73671 -0.0371651 -0.247012)
(8.71448 0.00247061 -0.250198)
(8.6898 0.0228856 -0.265589)
(8.71134 0.0389022 -0.242191)
(8.63573 -0.00374766 -0.247266)
(3.67207 0.0385901 -0.00172217)
(3.66111 -0.00868473 -0.00325254)
(3.67367 -0.0249233 0.0135778)
(3.67523 0.015918 0.0135172)
(3.6666 0.0301348 0.0136012)
(3.67949 0.015748 0.0318708)
(3.67267 -0.0214011 0.0130722)
(-1.34599e-05 0.00727136 0.0313791)
(-2.95052e-06 0.0106007 0.0303045)
(-2.18689e-05 0.0130278 0.0266392)
(-2.53795e-05 -0.00974816 0.0249727)
(1.07497e-05 -0.0241011 0.0259443)
(-2.03751e-05 -0.0212905 0.0148612)
(-1.88648e-05 -0.0151614 0.0223723)
(-3.67627 0.0338298 -0.00385798)
(-3.66279 -0.0139684 -0.00387675)
(-3.67622 -0.025074 0.00955576)
(-3.6749 0.0108344 0.0161405)
(-3.6675 0.0220936 0.00887779)
(-3.67788 0.0108051 0.0252534)
(-3.67482 -0.0211092 0.00783021)
(-8.63382 0.0185186 -0.282795)
(-8.65406 -0.0427566 -0.263047)
(-8.73026 -0.0325304 -0.251474)
(-8.68596 0.00854064 -0.265632)
(-8.6972 0.0318589 -0.266806)
(-8.72505 0.049148 -0.240274)
(-8.63625 -0.00258505 -0.247165)
(-37.8822 -0.0166088 0.769361)
(-37.6218 -0.0184878 0.76802)
(-37.6286 -0.0135875 0.758777)
(-37.5508 0.00653007 0.74457)
(-37.5541 0.00657801 0.762594)
(-37.631 0.0152536 0.763024)
(-37.8824 0.0267283 0.775061)
(34.6491 -0.051512 1.33017)
(34.0405 -0.00119632 1.32529)
(33.8499 0.00458056 1.31272)
(33.6542 0.0114712 1.31163)
(33.8369 0.00392481 1.30883)
(34.0167 0.0021058 1.31575)
(34.789 0.0520368 1.32678)
(8.28407 -0.00318652 -0.164587)
(8.34884 -0.0257493 -0.162518)
(8.40947 -0.0236674 -0.160349)
(8.40677 -0.00446688 -0.169722)
(8.29496 0.0164876 -0.162058)
(8.33036 0.0298145 -0.157246)
(8.2884 0.00934604 -0.167976)
(3.64638 0.0356229 0.0418563)
(3.61045 -0.0107374 0.0251363)
(3.61575 -0.0251657 0.0377444)
(3.64227 0.0148763 0.027042)
(3.62673 0.0346144 0.0288347)
(3.61094 0.0191877 0.0392113)
(3.64344 -0.0235667 0.0243917)
(-1.90246e-06 0.00827418 0.0512519)
(2.34498e-05 0.00844633 0.0472915)
(-5.39922e-06 0.00986999 0.0439315)
(-9.91967e-06 -0.009138 0.0401359)
(3.34436e-05 -0.0239177 0.0443855)
(3.50434e-06 -0.0190845 0.038639)
(-1.01532e-05 -0.0145078 0.0458557)
(-3.64681 0.0322349 0.0354926)
(-3.61402 -0.0152587 0.0230932)
(-3.62108 -0.0242854 0.0324994)
(-3.63096 0.00986664 0.032758)
(-3.62946 0.0241174 0.026672)
(-3.6134 0.0144703 0.0360927)
(-3.64409 -0.0231002 0.0246347)
(-8.30022 0.000900009 -0.16319)
(-8.33641 -0.0270739 -0.161005)
(-8.38795 -0.0267466 -0.161779)
(-8.30252 0.000420924 -0.160031)
(-8.32631 0.0287749 -0.172949)
(-8.34503 0.0360456 -0.158113)
(-8.30155 0.00668981 -0.171804)
(-34.9486 -0.0410548 1.34145)
(-34.1051 -0.00463212 1.32687)
(-34.1227 -0.00641045 1.3254)
(-34.1198 0.00180186 1.32559)
(-34.0389 -0.00336633 1.30503)
(-34.1992 -0.00376098 1.32432)
(-34.9936 0.045033 1.33908)
(29.0403 -0.0814472 1.10467)
(28.571 0.00343589 1.13107)
(28.3083 0.00663691 1.09959)
(28.2597 0.015717 1.08915)
(28.3915 0.00857133 1.11452)
(28.5573 -0.000255165 1.12248)
(29.1384 0.07745 1.12126)
(8.09133 -0.00734886 -0.157741)
(8.18476 -0.0113572 -0.159052)
(8.25102 -0.0113642 -0.158611)
(8.29363 -0.0121133 -0.174979)
(8.13607 0.0106844 -0.149435)
(8.16995 0.0228809 -0.151554)
(8.09238 0.0118452 -0.157293)
(3.64341 0.0319987 0.0431811)
(3.60628 -0.0122177 0.0281159)
(3.61784 -0.0250387 0.0480899)
(3.6183 0.0113442 0.0335243)
(3.63595 0.0355293 0.0297895)
(3.59485 0.0210831 0.0366746)
(3.63988 -0.0241661 0.0287221)
(1.30201e-05 0.00944298 0.0648688)
(3.3842e-05 0.00815633 0.0597774)
(1.16643e-05 0.00866336 0.0542902)
(1.80787e-05 -0.00935741 0.0496741)
(5.16441e-05 -0.026083 0.0528056)
(3.06011e-05 -0.0183964 0.0579566)
(2.21389e-07 -0.0139346 0.062381)
(-3.64353 0.028568 0.0380068)
(-3.59682 -0.0152605 0.0235166)
(-3.62483 -0.0228649 0.0415344)
(-3.64181 0.00771939 0.0285562)
(-3.63581 0.0252745 0.0280581)
(-3.59623 0.0176058 0.0356175)
(-3.64088 -0.0231635 0.0293133)
(-8.10724 -0.00292567 -0.157214)
(-8.17818 -0.0151109 -0.153463)
(-8.23073 -0.0227409 -0.162666)
(-8.15861 -0.0070076 -0.154895)
(-8.16151 0.0253355 -0.156456)
(-8.17627 0.0286283 -0.151483)
(-8.10427 0.00792149 -0.160632)
(-29.3029 -0.0695132 1.1357)
(-28.6609 -0.00190252 1.14414)
(-28.561 -0.00682606 1.11044)
(-28.4601 -0.00084314 1.11529)
(-28.4926 -0.00599628 1.12184)
(-28.6673 -0.0110319 1.13239)
(-29.3391 0.066759 1.14351)
(26.0425 -0.0932785 0.720931)
(25.7734 0.0027951 0.755887)
(25.8248 0.0100232 0.723001)
(25.819 0.0176927 0.730736)
(25.6551 0.0151688 0.731065)
(25.7508 0.00318267 0.741198)
(26.0797 0.0921581 0.734379)
(8.01215 -0.00743814 -0.0911249)
(8.11665 -0.00577391 -0.0986083)
(8.18027 -0.00636586 -0.098789)
(8.21452 -0.0128213 -0.104015)
(8.10184 0.00773748 -0.0891342)
(8.10765 0.0180831 -0.0883201)
(8.00811 0.0105112 -0.0926497)
(3.64527 0.0288992 0.0405823)
(3.6078 -0.00890739 0.0288981)
(3.60508 -0.0234113 0.0573515)
(3.60656 0.00655423 0.0430303)
(3.60938 0.0358824 0.0374049)
(3.58981 0.0195026 0.0391986)
(3.64279 -0.024909 0.0324751)
(2.6217e-05 0.00804573 0.0727309)
(2.45066e-05 0.00572703 0.0659368)
(1.94893e-05 0.0051149 0.057605)
(4.64919e-05 -0.00886243 0.0557237)
(3.73175e-05 -0.0222453 0.0562653)
(5.2002e-05 -0.0169179 0.0673754)
(1.19343e-05 -0.0122185 0.0694392)
(-3.64415 0.0253336 0.0365847)
(-3.59512 -0.0126879 0.0257601)
(-3.6134 -0.0225669 0.0514778)
(-3.62333 0.0039323 0.0366731)
(-3.62336 0.0265448 0.0289082)
(-3.59491 0.0152205 0.0377021)
(-3.64375 -0.0241322 0.0314858)
(-8.02331 -0.00225093 -0.0940154)
(-8.11588 -0.00746182 -0.0984299)
(-8.15484 -0.0172723 -0.0934235)
(-8.13319 -0.0104628 -0.0932513)
(-8.09926 0.0198225 -0.0895609)
(-8.10733 0.0223743 -0.0874234)
(-8.01836 0.00650849 -0.0943123)
(-26.1523 -0.0845539 0.748249)
(-25.8497 -0.00266014 0.767524)
(-25.8751 -0.0045767 0.745304)
(-25.6611 -0.00218716 0.727755)
(-25.6683 -0.00787432 0.745954)
(-25.7905 -0.0121433 0.749526)
(-26.1662 0.0804472 0.75616)
(25.258 -0.0891535 0.368122)
(25.0331 0.00646095 0.387766)
(25.0877 0.0112224 0.394681)
(25.1675 0.0156287 0.391281)
(25.0074 0.0111388 0.368824)
(24.9797 0.00445328 0.387324)
(25.261 0.0935249 0.369757)
(8.07562 -0.00406394 -0.035078)
(8.19002 -0.0041168 -0.0395118)
(8.20186 -0.00656669 -0.0268499)
(8.22091 -0.0115975 -0.0333573)
(8.18631 0.00491508 -0.0275)
(8.18513 0.0159584 -0.0199525)
(8.05965 0.00590233 -0.0247423)
(3.65707 0.0261683 0.062907)
(3.60941 -0.00384315 0.0509006)
(3.60654 -0.0188803 0.0761126)
(3.60008 0.00317374 0.0691142)
(3.59613 0.0336129 0.0677377)
(3.59683 0.0163273 0.0638228)
(3.65065 -0.0263018 0.0595605)
(3.04829e-05 0.00480007 0.0729494)
(8.84873e-06 0.00124497 0.0704612)
(1.69824e-05 0.00356896 0.0638883)
(7.74338e-05 -0.00873392 0.0628089)
(3.08114e-06 -0.0192337 0.0629716)
(5.70884e-05 -0.0164886 0.0676938)
(2.18872e-05 -0.0104081 0.0718262)
(-3.65394 0.0229728 0.0579201)
(-3.61008 -0.00825171 0.0431998)
(-3.60122 -0.0182472 0.072136)
(-3.60511 -0.00143182 0.0658333)
(-3.60197 0.0244646 0.0556687)
(-3.60883 0.0131134 0.0627658)
(-3.65188 -0.0254523 0.0599635)
(-8.07689 -0.00131441 -0.0385128)
(-8.16034 -0.00407953 -0.0407264)
(-8.17612 -0.014184 -0.0264551)
(-8.20498 -0.00779339 -0.02265)
(-8.22755 0.0216086 -0.0310293)
(-8.15794 0.0183979 -0.021363)
(-8.0671 0.00272472 -0.030114)
(-25.2934 -0.0836278 0.386161)
(-25.0181 0.000554785 0.426919)
(-25.116 -0.005604 0.398512)
(-24.9248 -0.000638138 0.394555)
(-25.0599 -0.00844621 0.385393)
(-24.9883 -0.0150782 0.388728)
(-25.2908 0.0836656 0.383512)
(24.403 -0.0922735 0.294341)
(24.259 0.00794784 0.309615)
(24.3242 0.0104711 0.310803)
(24.4979 0.014644 0.312356)
(24.4453 0.012985 0.302324)
(24.4045 0.00882837 0.309345)
(24.4046 0.0977256 0.2953)
(8.02492 -0.00643244 0.00550522)
(8.09335 -0.00334135 0.0131373)
(8.00647 -0.00679992 0.0298582)
(8.04623 -0.00859156 0.0231243)
(8.05793 0.0119928 0.0255397)
(8.06084 0.0219994 0.0342976)
(8.01961 0.00856294 0.0246268)
(3.6064 0.0304174 0.019596)
(3.61192 -0.00213266 0.00575621)
(3.58984 -0.0182146 0.0226118)
(3.59893 0.0043031 0.0215364)
(3.58505 0.043021 0.0201846)
(3.60249 0.0212566 0.0201698)
(3.5896 -0.0339835 0.0177966)
(3.15572e-05 0.00735579 -0.000523557)
(1.54579e-05 0.000754794 4.5161e-05)
(1.60746e-05 0.00275875 -0.00335846)
(0.000103232 -0.0112261 -0.00495269)
(5.189e-06 -0.0243876 -0.00443522)
(5.75634e-05 -0.0183807 -0.00525706)
(2.8462e-05 -0.0141446 -0.000903279)
(-3.60633 0.0243373 0.0128399)
(-3.67004 -0.00955201 -0.00460113)
(-3.60266 -0.0181817 0.0195706)
(-3.5867 -0.00312214 0.0164879)
(-3.68837 0.0347114 0.0130176)
(-3.60734 0.0218247 0.0205997)
(-3.59074 -0.032449 0.0193466)
(-8.03119 -0.00441059 0.00455139)
(-7.68623 -0.00636042 0.035217)
(-8.03751 -0.0127554 0.0247301)
(-8.01588 -0.00540173 0.0307963)
(-7.80226 0.0245147 0.0351602)
(-8.05122 0.0189958 0.0283743)
(-8.02325 0.00378473 0.0163539)
(-24.4267 -0.0815637 0.305164)
(-24.2843 -0.003023 0.338614)
(-24.4323 -0.0162724 0.310895)
(-24.3286 0.00309973 0.312945)
(-24.3013 -0.00974147 0.329725)
(-24.3911 -0.0196225 0.303923)
(-24.4153 0.0914759 0.299533)
(37.6657 -23.2573 3.65784)
(38.1275 -32.8267 -21.0724)
(38.1252 -30.2892 -31.1989)
(38.1705 -22.6262 -39.1467)
(38.2067 -16.4195 -39.0084)
(38.258 -8.55176 -39.0286)
(38.1809 3.15701 -25.5027)
(10.064 -20.4554 0.17643)
(10.1902 -30.8361 -15.5938)
(10.2103 -33.3662 -20.534)
(10.1893 -26.5661 -27.0628)
(10.201 -19.1001 -27.7658)
(10.2236 -10.0495 -28.5904)
(10.231 -1.51545 -27.568)
(3.58956 -8.09923 2.75775)
(3.63993 -6.86852 -5.45606)
(3.65315 -10.8654 -8.15718)
(3.6475 -11.11 -9.58304)
(3.63937 -11.0213 -9.96793)
(3.63534 -5.93883 -8.10455)
(3.62601 0.89232 -7.17139)
(0.00974714 -5.12777 2.52825)
(0.0153525 1.50764 0.0172679)
(0.0197614 1.81794 0.200938)
(0.0191967 1.35498 0.637634)
(0.0161035 0.371782 0.367415)
(0.0126075 -0.328888 0.596644)
(0.0128372 5.60393 2.33683)
(-3.67876 -9.62464 -4.16884)
(-3.65875 -0.0377257 -13.9676)
(-3.66571 1.2553 -16.1923)
(-3.6813 3.37372 -16.1189)
(-3.68498 6.26223 -14.6178)
(-3.69077 5.90775 -12.8049)
(-3.6795 10.091 -2.23796)
(-10.0836 -12.0414 -9.78887)
(-10.0111 -5.03681 -15.7884)
(-10.0524 -7.67261 -21.3087)
(-10.0532 -3.9359 -23.3656)
(-10.0596 -3.41698 -22.9838)
(-10.0911 4.90151 -21.5548)
(-10.0706 13.863 -6.41521)
(-37.2155 -16.4669 -7.24353)
(-37.4562 -22.5215 -20.9677)
(-37.8224 -24.9306 -28.0179)
(-37.8793 -19.162 -36.6301)
(-37.9846 -13.4789 -37.8208)
(-37.8316 -3.33578 -33.6819)
(-37.3601 12.7266 -9.07309)
(37.6229 -17.4598 24.2118)
(38.0765 -19.5907 8.01435)
(38.1786 -13.6358 -28.792)
(38.3137 -4.42538 -51.4686)
(38.3877 -1.93311 -53.5017)
(38.4555 -3.46045 -54.9191)
(38.4764 1.66435 -38.491)
(10.0517 -13.1303 20.2688)
(10.1117 -12.4817 12.2622)
(10.1075 -18.46 -2.88014)
(10.1275 -8.64593 -18.7153)
(10.179 -7.09948 -24.0104)
(10.2235 -7.44358 -27.0648)
(10.2721 4.16472 -31.7723)
(3.61426 -6.21895 13.1405)
(3.65927 -1.72381 10.9035)
(3.67342 -5.50744 9.03632)
(3.66633 -5.79032 7.92476)
(3.64986 -6.76683 6.72578)
(3.64263 -5.16395 5.22757)
(3.63546 3.92844 2.28551)
(0.0128514 -3.82338 11.3538)
(0.016255 2.74006 9.85043)
(0.0196647 3.27795 9.7117)
(0.0204866 2.16151 10.211)
(0.0196474 0.028674 9.29425)
(0.0183589 -1.01548 9.1817)
(0.020824 4.90693 11.2218)
(-3.70086 -9.24136 7.59723)
(-3.66599 3.27566 8.10544)
(-3.6857 1.59534 6.25782)
(-3.70117 2.71423 5.93186)
(-3.70118 1.75823 5.55029)
(-3.70697 -0.106666 7.75422)
(-3.69604 8.26097 9.10966)
(-10.119 -11.8053 7.89743)
(-9.99756 -2.69352 -10.285)
(-9.99568 -9.58653 -13.6023)
(-9.93566 -10.6336 -10.006)
(-10.0442 -16.1743 -13.1554)
(-10.1764 -8.95808 -3.67431)
(-10.1817 8.67861 5.27769)
(-37.4263 -16.1356 10.1021)
(-37.7531 -21.4496 -16.9517)
(-38.1852 -24.4238 -30.077)
(-38.2981 -21.085 -46.2301)
(-38.4434 -20.0968 -57.1891)
(-38.4106 -15.6344 -59.9962)
(-38.2649 -1.37518 -47.8265)
(37.2567 -13.9733 38.5897)
(37.4329 -5.20723 6.04617)
(38.2745 -4.59747 -43.6024)
(38.4641 -1.64095 -66.0457)
(38.6969 0.366535 -68.3932)
(38.7422 -0.942156 -65.1598)
(38.7832 2.44542 -57.2895)
(9.97434 -9.23584 27.8086)
(9.98334 -4.27132 8.08006)
(10.0565 -5.78185 -9.02184)
(10.15 -0.656559 -21.5173)
(10.1821 -3.06321 -24.2283)
(10.2136 -4.84101 -27.8301)
(10.3113 4.8303 -38.0673)
(3.61723 -7.27504 22.2733)
(3.62187 1.98332 17.4299)
(3.65168 -0.898706 14.4685)
(3.65947 -0.464523 13.14)
(3.63183 -1.19713 12.8044)
(3.60456 -3.22078 13.838)
(3.6137 5.31016 12.2152)
(0.0137759 -2.81405 19.0156)
(0.0118479 3.50982 17.8566)
(0.0133473 3.65983 17.3685)
(0.0155081 2.35476 17.4203)
(0.0164557 -0.832773 16.8816)
(0.0175339 -1.81508 17.9288)
(0.0192759 4.1107 19.0333)
(-3.70759 -10.2321 16.3193)
(-3.65823 4.66199 11.0364)
(-3.68186 2.29824 12.0461)
(-3.72728 2.65325 14.5727)
(-3.71582 1.32632 13.8926)
(-3.70516 -1.6862 14.0661)
(-3.70948 8.4159 16.6788)
(-10.1346 -8.89443 10.18)
(-10.0254 -8.35878 -13.6284)
(-9.88593 -15.0439 -12.1447)
(-9.87254 -15.9942 -10.7458)
(-10.0506 -16.9278 -16.4568)
(-10.1563 -8.60255 -13.6806)
(-10.2136 1.16015 -7.01098)
(-37.5097 -12.8678 18.6507)
(-37.7719 -13.0775 -17.5324)
(-38.1623 -8.45637 -35.3918)
(-38.3455 -8.36687 -53.4852)
(-38.603 -1.01006 -74.2201)
(-38.6222 -6.51787 -77.2304)
(-38.3722 1.38657 -74.4303)
(36.9467 -11.779 38.5941)
(37.2673 3.61265 -6.24783)
(38.4 -4.16709 -57.1346)
(38.5227 -3.16741 -73.12)
(38.8722 0.643484 -79.5366)
(39.052 -3.36945 -76.077)
(39.0975 4.11983 -68.5528)
(9.94258 -8.49771 25.8019)
(10.0228 1.09979 -1.07226)
(10.124 0.837074 -15.5365)
(10.2279 1.4337 -21.2008)
(10.2312 -2.05508 -24.0023)
(10.2386 -3.85405 -32.0224)
(10.306 3.62831 -40.3857)
(3.58567 -7.90092 25.2793)
(3.57825 2.49443 16.3323)
(3.62683 0.935095 14.4139)
(3.65073 2.27259 14.3899)
(3.6344 2.00544 14.1783)
(3.57391 -0.365163 16.1664)
(3.53745 5.13591 17.2111)
(0.00881613 -2.86573 23.491)
(0.0070952 3.1578 21.4701)
(0.00776164 3.64825 19.5854)
(0.00672268 2.65542 19.3368)
(0.0031884 1.08516 18.6399)
(0.00110942 -0.424726 20.3344)
(0.00247517 3.41991 22.5597)
(-3.67042 -10.0056 22.595)
(-3.61436 3.17088 10.5495)
(-3.65261 1.914 12.5598)
(-3.73171 3.07233 15.4046)
(-3.72826 2.28032 15.5673)
(-3.71233 -1.24759 16.9035)
(-3.68461 7.58769 19.8182)
(-10.0492 -7.3324 9.76613)
(-10.0574 -11.1149 -11.4973)
(-9.97177 -13.8296 -13.4683)
(-10.0079 -12.8948 -15.8631)
(-10.1005 -10.9124 -25.6046)
(-10.1229 -6.84201 -30.6104)
(-10.1972 -0.607553 -37.7913)
(-37.2293 -2.14409 24.1092)
(-37.6321 -8.15302 -10.6298)
(-38.2482 -1.94815 -35.8936)
(-38.7114 -0.805067 -54.348)
(-38.7624 10.7588 -76.0024)
(-38.73 4.26625 -80.3231)
(-38.4485 7.31713 -78.0278)
(36.8377 -10.6726 35.8445)
(37.8711 6.50468 -17.7786)
(38.4348 -7.90804 -61.1109)
(38.533 -9.02918 -77.0336)
(38.9402 -1.69815 -85.6485)
(39.2695 -3.48128 -82.6822)
(39.1567 3.43994 -74.4023)
(9.78121 -6.22008 25.054)
(10.0992 4.22597 -4.82748)
(10.2557 2.76638 -16.7631)
(10.2681 -0.431099 -16.9339)
(10.2206 -5.51988 -19.6869)
(10.2443 -5.32244 -34.0415)
(10.3016 1.29653 -40.5612)
(3.49361 -5.50329 27.1573)
(3.52331 2.81922 14.5921)
(3.60526 2.78339 12.4827)
(3.63505 3.77531 13.8196)
(3.62344 3.06724 14.3382)
(3.51634 0.406027 17.208)
(3.47533 3.17335 18.8852)
(0.010001 -1.98247 25.6762)
(0.00594401 3.02718 22.4367)
(0.0018068 2.51436 19.9544)
(-0.00275399 1.95826 19.2956)
(-0.00702054 1.22253 18.3543)
(-0.0112102 0.276137 19.5136)
(-0.011686 2.25472 22.6094)
(-3.58688 -6.20069 25.2244)
(-3.59168 1.78529 11.0521)
(-3.61997 2.34115 12.1345)
(-3.6925 3.67893 15.2261)
(-3.71169 3.80037 16.459)
(-3.63878 -0.892644 18.4397)
(-3.68186 7.36197 22.732)
(-9.91319 -1.23877 9.39098)
(-10.195 -7.1642 -13.3691)
(-10.1244 -7.29906 -20.903)
(-10.0969 -6.95181 -21.7215)
(-10.1087 -6.8675 -27.5424)
(-10.1254 -6.78152 -34.1729)
(-10.2478 2.4142 -41.7057)
(-37.1084 0.581372 19.2972)
(-37.5655 -1.69041 -10.7087)
(-38.5817 1.25116 -51.737)
(-39.0283 5.83354 -73.5437)
(-38.9627 13.8993 -80.2276)
(-38.8621 9.42036 -82.0039)
(-38.667 10.2602 -77.7557)
(36.4606 -5.77655 33.3126)
(38.2012 2.17923 -21.9455)
(38.4769 -13.7148 -59.3523)
(38.4139 -13.4104 -75.1495)
(38.7624 -6.77027 -87.3326)
(39.1028 -3.11477 -86.639)
(39.3301 5.3485 -76.9478)
(9.59834 -1.32533 20.2311)
(10.1018 4.54798 -3.60946)
(10.3313 -0.0888765 -17.1531)
(10.2339 -5.22782 -11.2701)
(10.1526 -7.84298 -15.2956)
(10.2532 -7.34909 -36.803)
(10.4269 1.63416 -45.9372)
(3.42563 -1.15959 25.14)
(3.47245 3.40073 15.0346)
(3.59824 3.65231 13.1699)
(3.6292 4.34729 14.9203)
(3.63066 2.52911 15.2161)
(3.50677 -0.708616 15.7865)
(3.45583 1.4852 16.8502)
(0.0100722 0.620353 26.391)
(0.00390815 2.91669 24.7227)
(-0.00163065 2.18415 21.3534)
(-0.00362413 0.916592 20.4236)
(-0.0051548 0.123362 17.7758)
(-0.00947141 -0.402612 18.043)
(-0.0138726 1.70329 21.2096)
(-3.55745 -1.10882 23.2174)
(-3.56612 3.16663 14.9657)
(-3.58886 3.28168 13.7018)
(-3.66592 3.82212 16.3908)
(-3.67769 2.51915 16.6819)
(-3.58775 -2.30872 18.3742)
(-3.60881 4.81875 22.8941)
(-10.0012 1.39597 4.15097)
(-10.2552 -1.65722 -13.6412)
(-10.2039 -3.81256 -20.5681)
(-10.12 -4.50453 -18.4508)
(-10.1191 -6.43548 -25.12)
(-10.1304 -8.69355 -32.193)
(-10.2684 2.91589 -40.6917)
(-37.328 -3.23234 7.77139)
(-38.0062 -1.50057 -24.7041)
(-38.8925 1.75561 -81.1694)
(-39.0008 6.78132 -86.2347)
(-38.8824 14.6241 -81.4975)
(-39.1679 12.0596 -80.3885)
(-38.9864 11.1405 -74.8798)
(36.007 4.84023 22.9463)
(38.1818 -8.11326 -16.9692)
(38.4548 -18.2891 -48.5806)
(38.3127 -15.8134 -76.1464)
(38.7542 -8.39788 -89.8871)
(39.2653 -4.35134 -88.4414)
(39.4584 8.69071 -75.2265)
(9.7352 2.56111 10.7327)
(10.3106 -2.80889 -11.4879)
(10.3483 -15.6103 -16.0265)
(10.3044 -17.0323 -18.3747)
(10.3042 -13.869 -23.0211)
(10.3637 -9.93065 -39.3195)
(10.5597 4.70436 -49.3958)
(3.42382 1.02893 21.1165)
(3.53588 2.6955 15.0771)
(3.61935 2.18518 14.5804)
(3.65311 2.61212 17.2191)
(3.63561 -1.8518 17.2801)
(3.49444 -5.31548 14.1033)
(3.46825 -2.10012 8.31323)
(-0.00133137 1.06359 28.9294)
(-0.00553121 1.58407 24.8356)
(-0.00416369 -1.12983 23.102)
(-0.0009353 -2.86481 20.2264)
(-0.00320155 -2.86619 20.1061)
(-0.0071967 -2.61052 19.0209)
(-0.017037 -0.411672 20.0449)
(-3.55976 0.745614 22.2874)
(-3.57439 3.06848 15.9772)
(-3.58454 2.50701 13.6157)
(-3.68208 2.75288 15.4798)
(-3.6044 -0.655982 14.5126)
(-3.54823 -4.83507 16.7917)
(-3.56465 3.04035 18.7962)
(-10.227 -0.864235 -1.45031)
(-10.2853 -1.69217 -16.1506)
(-10.2326 -6.65108 -20.8838)
(-10.1867 -6.36239 -21.4022)
(-10.1442 -10.0492 -24.9441)
(-10.2564 -10.5288 -35.5862)
(-10.4446 2.8516 -44.945)
(-37.8174 -7.20801 -0.237066)
(-38.5489 -14.3537 -45.3684)
(-38.7887 0.000614884 -88.829)
(-38.8546 5.72325 -90.4702)
(-38.8377 14.8601 -82.429)
(-39.1253 10.9579 -73.1042)
(-38.9795 10.687 -61.4674)
(36.9313 3.14633 36.0077)
(38.2936 -13.5001 12.2823)
(38.3271 -6.96454 -17.3543)
(38.4726 15.0217 -68.8465)
(38.9921 11.9005 -85.4001)
(39.6933 -6.09336 -83.5864)
(39.4889 -0.998075 -56.4379)
(10.3033 -7.25362 15.6271)
(10.5361 -16.6326 2.58812)
(10.5832 -22.804 -8.98965)
(10.5574 -15.8844 -20.079)
(10.6246 -13.7935 -33.7358)
(10.7301 -10.1295 -52.2176)
(10.7596 12.4713 -51.865)
(3.54449 1.17196 18.2694)
(3.63461 0.543967 16.7349)
(3.69044 -0.617624 17.0334)
(3.70683 -5.09598 20.4304)
(3.6549 -11.6362 17.0291)
(3.82928 -12.3204 -4.50249)
(3.96278 10.6282 -20.7701)
(-0.00124945 -0.0945246 26.2945)
(0.000504547 -1.35383 24.3882)
(0.00661077 -3.71408 23.3614)
(0.0142957 -6.24338 22.8656)
(0.0211838 -8.80736 21.8966)
(0.0346647 -8.68053 19.1506)
(0.0410046 -3.73032 14.8774)
(-3.51941 0.541153 20.374)
(-3.5548 0.777162 17.2351)
(-3.64993 -1.50909 13.4583)
(-3.61426 -9.76508 16.6161)
(-3.53748 -16.6873 13.9678)
(-3.64216 -13.0618 -1.04847)
(-3.69849 -4.66486 -9.33384)
(-10.3203 -5.97 8.72027)
(-10.4528 -6.25485 -3.50271)
(-10.5242 -3.7794 -10.5651)
(-10.4539 -11.5746 -6.331)
(-10.3793 -13.1083 -19.2992)
(-10.6779 -2.94199 -39.876)
(-10.8064 11.5714 -45.5149)
(-38.0501 -17.6447 18.3266)
(-39.2321 3.95398 -55.5002)
(-39.3922 16.126 -95.789)
(-39.2958 15.127 -83.3183)
(-39.3804 18.8127 -60.603)
(-39.602 6.01532 -49.3467)
(-39.1541 8.52371 -30.0499)
(37.1432 3.80354 36.0009)
(37.9521 1.18215 26.4148)
(38.1945 -0.621833 0.0204908)
(38.3946 29.3711 -64.3974)
(38.8441 26.6576 -97.0235)
(39.2269 13.3068 -98.2586)
(39.3167 -0.859451 -64.6613)
(10.3597 -4.82741 19.5486)
(10.5024 -8.71843 12.4105)
(10.5334 -15.4332 6.72373)
(10.5787 -15.389 -9.37125)
(10.6924 -9.21599 -31.8235)
(10.7269 -6.01438 -53.9801)
(10.6781 11.48 -57.1772)
(3.66296 0.89112 19.261)
(3.69511 0.500262 18.7202)
(3.72311 -2.23453 21.4636)
(3.74805 -9.2769 24.0035)
(3.82824 -15.1598 13.1796)
(3.95562 -8.0447 -17.7662)
(3.97209 16.0299 -32.8932)
(0.0186472 -0.591796 27.0738)
(0.0156102 -2.37453 26.0518)
(0.0141188 -4.30339 26.0935)
(0.0171965 -6.40591 27.1698)
(0.0191717 -9.0792 25.8629)
(0.0254912 -8.53693 21.1963)
(0.0351905 -2.13557 13.5668)
(-3.52231 0.750481 21.6737)
(-3.58547 -0.380336 20.002)
(-3.67821 -5.53415 20.048)
(-3.65141 -13.3731 21.378)
(-3.73766 -18.3518 7.52107)
(-3.91279 -7.27747 -21.192)
(-3.92564 9.88971 -31.7066)
(-10.367 -5.75219 11.8844)
(-10.5109 0.215934 3.45852)
(-10.3982 -3.26545 6.15223)
(-10.2986 -11.9724 8.4106)
(-10.4727 -16.5859 -6.96505)
(-10.766 3.05536 -36.4017)
(-10.8588 13.873 -50.9227)
(-37.974 -17.6997 17.243)
(-39.179 26.6454 -105.272)
(-38.8605 18.4787 -109.006)
(-39.2241 17.558 -90.4835)
(-39.3614 17.267 -64.4925)
(-39.5841 -0.748873 -51.4867)
(-39.2966 4.97859 -42.6537)
(37.2821 4.44206 33.7504)
(37.7408 2.78567 24.3591)
(38.1088 14.9543 -10.7052)
(38.5479 40.4937 -83.9126)
(38.7471 38.7069 -98.759)
(39.1042 27.9097 -94.6987)
(39.4154 7.166 -65.3096)
(10.3349 -4.28235 19.9544)
(10.4767 0.0032825 14.7815)
(10.5031 -3.06676 8.09968)
(10.5067 -4.17074 -3.54779)
(10.6429 2.88591 -30.1472)
(10.6897 4.50476 -53.6878)
(10.698 13.2447 -58.8401)
(3.70307 0.423227 21.4479)
(3.73577 -0.875033 21.8928)
(3.75669 -4.02466 25.6144)
(3.79171 -9.84463 26.6609)
(3.8872 -14.9858 11.652)
(3.94503 -8.40794 -9.88445)
(3.95127 20.0539 -34.0756)
(0.0339355 -1.28588 29.0462)
(0.0270916 -2.81893 28.7763)
(0.0216929 -3.33799 29.6665)
(0.0188937 -4.37391 31.2255)
(0.0179969 -7.13713 30.3321)
(0.0168326 -9.66266 27.3747)
(0.0213626 -0.445976 9.5801)
(-3.54386 0.0859847 23.7022)
(-3.61983 0.267233 23.287)
(-3.69576 -3.90719 24.1449)
(-3.71472 -11.6751 23.806)
(-3.83513 -14.2394 3.12108)
(-3.94777 -4.89375 -16.1868)
(-3.95623 18.9786 -32.9412)
(-10.2928 -4.97938 12.6098)
(-10.5007 0.524297 3.84529)
(-10.4166 -2.32626 8.27057)
(-10.324 -5.93126 10.8316)
(-10.5201 -4.53651 -7.72539)
(-10.7574 13.1435 -38.4453)
(-10.8717 21.0113 -53.4333)
(-37.8205 -15.5999 7.60822)
(-38.9835 30.4773 -116.94)
(-39.0974 21.0745 -110.687)
(-39.5612 15.0065 -86.1827)
(-39.4689 6.11911 -51.1505)
(-39.6343 -7.71456 -43.9661)
(-39.5931 7.0816 -46.5238)
(37.3406 2.4473 29.1412)
(37.5946 -1.80745 17.7343)
(38.2431 31.8004 -66.976)
(38.6405 49.559 -95.9571)
(38.7798 48.3695 -97.7994)
(39.1059 33.0929 -87.8135)
(39.4703 11.5076 -53.1117)
(10.2577 -5.00398 19.0332)
(10.4351 2.61745 10.5388)
(10.4426 4.98768 4.12215)
(10.4372 0.029816 -1.98863)
(10.5484 7.68756 -19.8807)
(10.6554 20.5485 -48.5211)
(10.708 19.1471 -53.4902)
(3.70798 -1.1502 24.5987)
(3.73174 0.94792 25.4743)
(3.75363 -2.88721 29.3036)
(3.79884 -8.94633 26.5969)
(3.91274 -13.6028 9.89785)
(3.93924 -7.29427 -12.0409)
(3.92716 22.8531 -30.384)
(0.025803 -1.22733 33.1682)
(0.0246919 -2.00722 33.4176)
(0.0219418 -1.23292 34.0601)
(0.0194366 -1.67404 36.5361)
(0.0174296 -5.80884 35.5706)
(0.0185159 -9.17054 26.6107)
(0.0211493 3.38407 4.19015)
(-3.59254 0.403767 26.7903)
(-3.6343 2.53742 27.097)
(-3.71932 -1.59291 28.4867)
(-3.75963 -7.79248 24.0759)
(-3.86275 -3.79376 -1.80895)
(-3.91937 -1.43531 -12.6852)
(-3.91705 23.4176 -25.1758)
(-10.1795 -3.47283 11.16)
(-10.4434 0.875138 4.2197)
(-10.4454 -3.04589 12.1762)
(-10.5013 3.70416 -0.353561)
(-10.5756 24.9704 -23.8845)
(-10.6596 31.9389 -39.69)
(-10.7846 31.0752 -41.3396)
(-37.5304 -9.63385 -4.96525)
(-39.0871 27.5761 -129.27)
(-39.5954 14.2035 -110.841)
(-39.6339 5.34488 -64.9756)
(-39.55 1.29779 -39.7535)
(-39.7349 -5.37697 -31.7066)
(-39.8892 14.4748 -38.3218)
(37.2756 -6.71266 26.7345)
(38.3219 24.9189 -26.1887)
(38.5137 51.8318 -98.9924)
(38.3994 56.3466 -97.5076)
(39.037 54.5235 -89.044)
(39.495 27.1166 -65.6389)
(39.6785 9.9197 -37.6077)
(10.2373 -4.99834 19.5319)
(10.4131 2.24671 7.27532)
(10.3704 3.63455 7.5996)
(10.3866 5.90617 4.72348)
(10.4733 23.0342 -13.1079)
(10.5934 34.5326 -38.702)
(10.653 32.5141 -42.0637)
(3.73268 -0.549188 26.1508)
(3.7681 1.13173 26.6345)
(3.75733 0.669551 29.3003)
(3.79851 -5.36593 27.0369)
(3.87309 -8.30902 9.91744)
(3.87935 -1.88094 -11.3406)
(3.8705 25.8065 -25.3677)
(0.00908006 -0.535297 33.3524)
(0.0210278 -0.244053 34.0958)
(0.0215203 2.11762 35.1513)
(0.0186078 2.34974 36.2822)
(0.0149977 -3.02122 35.5561)
(0.0133813 -7.41261 26.9621)
(0.00636145 6.49645 7.18293)
(-3.65796 0.73223 27.0681)
(-3.63928 3.40834 27.0846)
(-3.71548 4.09225 29.6447)
(-3.77406 1.33149 22.8707)
(-3.81876 5.8702 10.8615)
(-3.8907 1.63333 -3.57828)
(-3.90033 23.3319 -11.2655)
(-10.2513 -1.34937 13.725)
(-10.431 0.781253 2.03755)
(-10.6485 28.5657 -20.5508)
(-10.6351 48.1137 -50.4495)
(-10.566 52.748 -49.9748)
(-10.5765 46.329 -46.9569)
(-10.7125 40.251 -30.7849)
(-38.3614 43.155 -33.2192)
(-39.1504 5.85396 -142.35)
(-39.7987 -5.48136 -98.9449)
(-39.7755 14.6885 -52.105)
(-39.7386 18.0293 -32.4296)
(-39.6853 10.7715 -23.3168)
(-39.7853 23.4192 -12.1188)
(36.7624 -22.8485 47.4377)
(37.6264 74.7616 -115.688)
(38.5459 57.1659 -110.794)
(39.0711 58.3518 -98.1715)
(39.834 49.2559 -71.221)
(39.8221 13.7711 -37.1391)
(39.6674 25.2752 -25.6632)
(10.2814 -7.0467 24.8106)
(10.4405 -2.72143 -5.95271)
(10.512 21.3148 -10.0628)
(10.5569 47.5132 -17.5377)
(10.5308 63.5839 -33.1312)
(10.5256 57.7923 -36.7227)
(10.5926 46.2613 -27.615)
(3.76758 -2.02623 27.6987)
(3.79439 -1.14302 25.067)
(3.77579 0.394601 26.849)
(3.78559 -0.215094 22.9456)
(3.81575 1.51341 17.9622)
(3.77485 1.84644 5.18467)
(3.77797 28.4856 -8.17168)
(0.0149033 -0.450311 33.6278)
(0.0238212 0.271564 33.103)
(0.0218803 3.09821 34.1431)
(0.0102422 5.72976 36.384)
(0.00190274 2.81777 37.1099)
(-0.00683706 -4.36761 33.3289)
(-0.0327415 15.3251 16.2041)
(-3.68731 0.195075 26.0247)
(-3.68269 1.34261 24.4957)
(-3.74295 5.68018 26.4)
(-3.78819 7.47553 26.1346)
(-3.85612 12.058 24.1339)
(-3.88798 9.65325 9.24343)
(-3.93849 23.7798 1.09148)
(-10.2788 -3.79375 14.0942)
(-10.5817 12.2199 -61.3375)
(-10.5495 61.5041 -69.9611)
(-10.655 60.8504 -65.282)
(-10.799 59.1061 -53.1526)
(-10.8293 47.9787 -44.0437)
(-10.821 35.0309 -14.8188)
(-38.7288 140.461 -141.352)
(-39.0318 -28.1413 -141.96)
(-40.2231 -28.3774 -65.1944)
(-40.181 22.089 -52.1717)
(-40.1133 23.2453 -31.5357)
(-40.0241 7.8484 -9.07383)
(-39.8305 18.6029 14.8873)
(37.68 143.207 -133.548)
(37.3417 101.35 -144.851)
(39.4896 20.1101 -112.855)
(39.7895 34.7468 -83.6511)
(39.8868 -20.211 27.1323)
(39.6142 -21.0072 32.5187)
(39.6974 7.75041 27.9771)
(10.7447 67.7416 -24.5629)
(10.5475 76.8662 -45.7139)
(10.5066 96.7108 -45.5026)
(10.6205 92.2475 -43.4948)
(10.7848 81.9552 -39.5508)
(10.758 65.9775 -38.2378)
(10.6162 46.4894 -1.27096)
(3.95205 13.718 8.09575)
(3.87601 13.3242 6.75873)
(3.86238 15.7821 8.20621)
(3.8917 23.3433 7.24197)
(3.87723 23.4694 9.65534)
(3.79446 22.7163 8.28692)
(3.67935 24.0739 22.397)
(0.0448855 1.16574 40.0729)
(0.037262 0.543432 33.5938)
(0.020116 5.16785 31.1946)
(-0.00652028 13.2108 33.6783)
(-0.0257767 16.9109 34.2291)
(-0.0405127 8.31675 32.1193)
(-0.0518398 11.9127 47.0768)
(-3.75583 5.67389 9.04685)
(-3.73259 14.4168 -0.529583)
(-3.81549 27.6436 -2.12842)
(-3.93315 35.0278 5.74271)
(-3.97581 31.3016 16.746)
(-3.93244 31.7776 18.6205)