/*--------------------------------*- C++ -*----------------------------------*\
  =========                 |
  \\      /  F ield         | OpenFOAM: The Open Source CFD Toolbox
   \\    /   O peration     | Website:  https://openfoam.org
    \\  /    A nd           | Version:  6
     \\/     M anipulation  |
\*---------------------------------------------------------------------------*/
FoamFile
{
    version     2.0;
    format      ascii;
    class       surfaceScalarField;
    location    "0.5";
    object      phi;
}
// * * * * * * * * * * * * * * * * * * * * * * * * * * * * * * * * * * * * * //

dimensions      [1 0 -1 0 0 0 0];

internalField   nonuniform List<scalar> 
675
(
3.84322e-06
-1.07511e-05
0.000134837
-3.45067e-06
-1.18283e-05
0.000146665
-1.06498e-05
0.000135051
-2.73925e-06
1.10238e-05
0.000200832
2.93358e-06
1.21954e-05
0.000190536
1.10942e-05
0.000200805
3.46434e-06
0.000135395
-3.88395e-06
0.000147082
0.000135173
6.90091e-06
-1.87218e-05
0.000145075
-6.23421e-06
-1.86371e-05
0.000176434
-1.87179e-05
0.000145885
-2.02944e-06
1.94343e-05
0.000168708
2.23279e-06
1.83344e-05
0.000154041
1.92947e-05
0.000168811
6.27762e-06
0.000146933
-7.02032e-06
0.00017671
0.0001459
1.85667e-05
-5.30263e-06
-1.68817e-05
7.98889e-05
-3.28802e-06
-5.08073e-05
2.53647e-06
5.1158e-05
-8.0473e-05
4.71908e-06
1.70276e-05
-1.87715e-05
0.0103172
0.0072838
-0.0143921
0.000270805
0.00940185
0.00384085
0.00926513
-0.00577241
0.00592756
-0.00720875
0.0139295
-0.00306399
-0.00933393
0.0331
-0.00933146
0.0209091
0.0103783
-0.0143785
0.000508197
0.00373271
-0.00560181
0.0271398
0.0182373
-0.0597396
-0.023434
-0.0078714
0.0623051
0.0177534
-0.0469278
0.00649427
-0.0184387
0.0441821
-0.00980596
0.00778081
0.0338249
-0.0176148
0.046544
0.0268794
-0.0596673
-0.0236963
0.0621085
-0.0468805
0.00557154
0.046225
-0.111503
-0.00629742
0.00276375
0.0714338
0.0466527
-0.0998432
-0.0889388
-0.0462342
0.225643
0.0883286
-0.00270042
-0.137934
-0.0466368
0.228227
0.00588153
-0.11175
-0.00610509
0.0714184
-0.0995877
-0.0485994
-0.0525277
-0.0393618
0.14052
0.0461795
0.0110891
-0.0471619
-0.0586774
-0.0508003
-0.0330815
0.130094
0.00915657
0.0525856
0.0582105
-0.172428
0.00100955
-0.011045
-0.132577
0.162889
0.0507684
0.0780132
-0.178515
-0.0487877
-0.0392229
0.140627
0.0459841
-0.0471282
-0.0586598
-0.0331626
0.129947
0.0047922
-0.0160161
-0.0281191
-0.0161639
0.00955169
-0.0357448
-0.0288648
-0.0203497
0.045805
0.0159687
-0.0195414
-0.027096
-0.00954878
-0.0405588
0.0288732
-0.00676069
0.00487706
-0.0281124
-0.0160609
-0.0357263
-0.0203194
-0.00920544
0.00269361
-0.0215915
-0.0214463
-0.000594468
-0.0228942
-0.0195825
-0.0221989
0.0211308
-0.0026727
-0.035338
0.0145034
0.000644095
-0.0351964
0.0195474
-0.0314231
-0.00920647
-0.0215631
-0.0214067
-0.0228668
-0.0221643
-0.00174005
-0.00123935
-0.121085
0.00166774
0.000302346
0.0677256
-0.00101209
-0.109859
-0.0051278
0.00124854
0.207859
0.00588342
-0.00029371
-0.148346
0.00100541
0.21181
-0.00175574
-0.121291
0.00164639
0.0677245
-0.109643
-0.0017067
-0.000505593
-0.131241
0.00162934
-0.000535596
0.0649271
-0.000320396
-0.120382
-0.0024967
0.000512813
0.189369
0.00302785
0.000535887
-0.154939
0.000315498
0.194434
-0.00172584
-0.131405
0.00161241
0.0649241
-0.120199
-0.00373138
0.000358505
0.00350232
-0.000982059
0.00049772
-0.00274781
-0.00035458
0.00324102
0.000982676
-0.000500045
-0.00377277
0.00347615
0.00806806
-0.00178235
-0.00963532
-0.0182362
-0.00755922
-0.0012719
-0.005988
-0.00200863
-0.00939773
-0.0183461
0.00775295
0.00178426
-0.0232859
-0.0233854
-0.01007
0.00127709
-0.0199332
0.00201012
-0.0221845
-0.023341
0.0080462
-0.0096358
-0.0181835
-0.00753866
-0.00599786
-0.00939423
-0.0182928
0.00458317
0.000140017
-0.00155133
-0.0128011
-0.00539047
0.00151142
0.00248215
-4.91676e-05
-0.00181609
-0.0129167
0.00467777
-0.000132563
-0.0107175
-0.0169886
-0.00441258
-0.00150311
-0.00784031
5.71267e-05
-0.0096436
-0.0170744
0.00457231
-0.00155644
-0.0127781
-0.00538256
0.00246183
-0.00181989
-0.0128934
-0.000100101
0.001445
-0.0028899
0.000156369
0.00223411
0.00131864
-0.0029718
0.00123028
-0.00143455
-0.00908383
-0.00216338
-0.00222519
-0.0013084
-0.00919511
-9.20267e-05
-0.0028926
0.000153036
-0.00296868
-0.0166649
-0.000489132
-0.00118958
-0.0171832
0.0019755
-0.00145489
0.00239285
-0.00611829
-0.0134558
-0.0224914
0.000489733
-0.00183475
-0.0197682
-0.00197134
0.00121749
-0.00238842
0.00265613
-0.0176485
-0.0166132
-0.00118734
-0.0171308
-0.00145147
-0.00611761
-0.0133996
-0.0128878
-0.000568346
-0.000647626
-0.013044
0.00131238
-0.00260876
0.000229279
-0.00688086
-0.0125088
-0.0189443
0.000569792
-0.00110936
-0.0156857
-0.00130948
0.000574773
-0.000222731
0.00344273
-0.0160257
-0.0128642
-0.000644206
-0.0130196
-0.00260323
-0.00688067
-0.0124774
-0.00370459
8.76727e-05
-0.00599505
-0.000316035
-0.00184138
-0.0110327
-0.0101379
-8.52813e-05
-0.0102015
0.000316315
0.0018413
-0.0104467
-0.00369564
-0.00598027
-0.0110178
0.0170624
0.00238063
-0.0060848
-0.0133561
0.0165532
0.00197346
-0.00146192
-0.000468512
-0.00121197
0.0196389
-0.00237528
0.002619
-0.0175073
0.0223501
-0.00196856
0.00122457
0.000469663
-0.00198014
0.0170098
-0.00608139
-0.0133016
0.0165014
-0.00145775
-0.00120994
0.0129676
0.000222371
-0.00683942
-0.0124333
0.012811
0.00132328
-0.00262622
-0.000548671
-0.000650862
0.0155616
-0.00021655
0.00340622
-0.0159153
0.0188589
-0.00131952
0.000563776
0.000550509
-0.00121568
0.012944
-0.00683671
-0.0124031
0.0127874
-0.00261838
-0.00064755
0.00597266
-0.00183185
-0.0109783
0.00364317
-0.000294424
0.00010487
0.0101306
0.00183198
-0.0103935
0.0100995
0.000294228
-0.000101761
0.00596125
-0.0109641
0.00363942
0.00576845
0.00196972
-0.00773703
0.00898628
0.0017898
-0.0050064
0.00202735
-0.00639574
0.00806382
-0.00196091
-0.00413575
0.0130021
-0.00178191
-0.00136939
-0.00201936
-0.000461798
0.00572855
-0.00768833
0.00893407
-0.00498621
-0.00638546
0.00439997
0.00170708
-0.013843
0.00829737
0.00159886
-0.0105015
0.00117036
-0.0117007
0.00608298
-0.00170011
-0.00681401
0.0115589
-0.00159357
-0.00365567
-0.00116133
-0.00248972
0.00437737
-0.0137648
0.00827043
-0.0104717
-0.0116782
0.00528542
0.00366857
-0.0227961
0.00593132
0.00186206
-0.0130084
0.000898602
-0.0176451
0.0066458
-0.00365533
-0.00613821
0.010697
-0.00186394
-0.00398349
-0.000898585
-0.000392166
0.00525214
-0.0226713
0.00591392
-0.0129964
-0.0176257
-0.00632726
0.0123649
-0.0288294
-0.0010614
0.0106445
-0.0289144
0.0104965
-0.0291986
0.00125511
-0.0123653
0.0173269
-0.00225468
-0.0106721
0.0208327
-0.0105141
0.0183537
-0.00626293
-0.0287695
-0.0010319
-0.0288952
-0.0291674
0.000370259
0.00593675
-0.0351322
0.000874399
0.00598007
-0.0353944
0.00659574
-0.0349158
-0.00191214
-0.00596337
0.0311324
-0.00117517
-0.0060054
0.0320746
-0.0066174
0.0303849
0.000386916
-0.0351155
0.000874835
-0.0353844
-0.0349057
4.56448e-06
0.0183075
-0.000195184
0.0182391
0.018256
-0.000535569
-0.0183151
0.000195272
-0.0182461
-0.0182634
8.30381e-06
-0.000193254
-0.00905936
0.0020365
-0.00643173
-0.0058185
0.00179769
-0.00503757
0.00198225
-0.00779989
-0.0131032
-0.00202887
-0.000483555
-0.00813361
-0.00179018
-0.00138507
-0.00197399
-0.00418053
-0.00900318
-0.0064241
-0.00577665
-0.00501571
-0.00774975
-0.00835185
0.00118522
-0.0117727
-0.00443353
0.00161064
-0.0105655
0.00171781
-0.0139503
-0.0116437
-0.00117428
-0.00250961
-0.00613036
-0.00160535
-0.0036857
-0.00171075
-0.00688532
-0.00832205
-0.0117526
-0.00440952
-0.0105326
-0.0138691
-0.00596509
0.000900253
-0.0177395
-0.00532699
0.00187277
-0.0130754
0.00369061
-0.0229671
-0.0107774
-0.000902261
-0.000379776
-0.0066924
-0.00187592
-0.00402496
-0.00367711
-0.00621274
-0.00594304
-0.0177285
-0.00529123
-0.0130594
-0.0228367
0.00107197
0.0105052
-0.0293116
0.00637725
0.0106653
-0.029041
0.012404
-0.0289888
0.00223583
-0.0105257
0.0184061
-0.00130525
-0.0106943
0.0208664
-0.0124043
0.017281
0.0010348
-0.0292839
0.00630705
-0.0290209
-0.0289289
-0.000861809
0.00658087
-0.0350269
-0.000355024
0.00596215
-0.0355061
0.00591658
-0.0352567
0.00121486
-0.00660141
0.0303664
0.00196376
-0.00598643
0.0320589
-0.00594315
0.0310973
-0.000864147
-0.0350174
-0.000371515
-0.0354962
-0.0352398
0.000199871
0.0182279
3.44662e-06
0.018212
0.0182798
-0.000183753
-0.018235
0.000558164
-0.0182192
-0.0182875
0.000197826
-4.82398e-07
)
;

boundaryField
{
    fuel
    {
        type            calculated;
        value           nonuniform List<scalar> 
36
(
0.00012967
0.000215895
0.00012967
0.000129671
0.000215896
0.00012967
0.000129671
0.000215895
0.00012967
-0.00012967
-0.000215895
-0.00012967
-0.000129671
-0.000215896
-0.000129671
-0.000129671
-0.000215895
-0.00012967
0
0
0
0
0
0
0
0
0
0
0
0
0
0
0
0
0
0
)
;
    }
    primary_air
    {
        type            calculated;
        value           nonuniform List<scalar> 9(-0.00319316 -0.00530367 -0.00319308 -0.00319301 -0.00530504 -0.00319299 -0.003193 -0.00530606 -0.00319303);
    }
    Secondary_air_RHS
    {
        type            calculated;
        value           nonuniform List<scalar> 9(0.0126973 0.0202862 0.0127087 0.0124752 0.0197714 0.0124862 0.0127181 0.0201621 0.0127265);
    }
    Secondary_air_LHS
    {
        type            calculated;
        value           nonuniform List<scalar> 9(0.0125628 0.0204271 0.0125468 0.0123704 0.0199717 0.0123551 0.0126536 0.0204052 0.0126418);
    }
    outlet
    {
        type            calculated;
        value           nonuniform List<scalar> 
18
(
-0.053454
0.0670123
-0.0534495
-0.053521
0.0677474
-0.0535164
-0.0535323
0.0682219
-0.0535271
-0.0534435
0.0682897
-0.0534382
-0.053433
0.0678281
-0.0534282
-0.0533663
0.0670989
-0.0533616
)
;
    }
    stove_body
    {
        type            calculated;
        value           uniform 0;
    }
    frontAndBack
    {
        type            empty;
        value           nonuniform 0();
    }
}


// ************************************************************************* //
