/*--------------------------------*- C++ -*----------------------------------*\
  =========                 |
  \\      /  F ield         | OpenFOAM: The Open Source CFD Toolbox
   \\    /   O peration     | Website:  https://openfoam.org
    \\  /    A nd           | Version:  6
     \\/     M anipulation  |
\*---------------------------------------------------------------------------*/
FoamFile
{
    version     2.0;
    format      ascii;
    class       volScalarField;
    location    "0.5";
    object      Qdot;
}
// * * * * * * * * * * * * * * * * * * * * * * * * * * * * * * * * * * * * * //

dimensions      [1 -1 -3 0 0 0 0];

internalField   nonuniform List<scalar> 
297
(
0
0
-9.26466e-05
-0.000185293
-0.000122189
0
-0.000153741
0
-0.000153741
0
0
0
0
-0.000122189
-0.000185293
-9.26466e-05
-9.26466e-05
0
4.46027e-10
0
-4.63229e-05
0
0
0
-7.68707e-05
1.11507e-10
-4.63233e-05
-1.6391e-11
8.92053e-10
-3.2782e-11
0
0
-2.62256e-10
-1.6391e-11
0
0
0
8.83858e-10
0
1.78411e-09
0
1.78411e-09
8.92053e-10
-8.1955e-12
0
0
0
0
-8.1955e-12
0
0
0
0
0
8.92053e-10
-4.09775e-12
0
1.78411e-09
0
0
8.92053e-10
-4.09775e-12
0
0
1.78411e-09
0
0
0
0
0
0
8.92053e-10
0
1.78411e-09
0
0
0
0
0
0
0
0
-8.1955e-12
0
0
-1.02444e-12
0
0
8.83858e-10
0
0
0
0
0
0
8.92053e-10
0
8.92053e-10
0
0
-8.1955e-12
0
0
0
0
0
-8.1955e-12
0
1.78411e-09
0
0
0
0
-3.63953e-27
-1.81977e-27
0
0
0
0
0
0
0
0
0
0
0
0
0
-1.1107e-31
0
3.56821e-09
0
-1.1107e-31
-3.55423e-30
-1.1107e-31
-1.38837e-32
0
0
0
0
0
0
0
0
0
0
0
-1.69479e-36
-2.64811e-38
0
0
0
0
0
0
0
0
0
0
-6.77916e-36
0
0
-6.46511e-42
1.78411e-09
0
0
-1.05924e-37
0
-6.46511e-42
1.78411e-09
1.78411e-09
0
-4.13767e-40
0
0
-6.62027e-39
0
-1.26272e-44
0
0
0
0
0
3.56821e-09
-2.06883e-40
0
0
-4.13767e-40
0
-3.67499e-55
1.78411e-09
0
-1.47e-54
-1.20422e-50
0
0
-1.20422e-50
1.78411e-09
0
0
0
0
0
0
1.78411e-09
0
0
-1.43554e-57
0
0
0
3.56821e-09
0
1.78411e-09
-5.87998e-54
0
-2.87108e-57
0
0
-5.74217e-57
-1.47e-54
3.56821e-09
1.78411e-09
0
0
-1.75237e-61
0
0
1.78411e-09
0
1.78411e-09
-1.75237e-61
0
0
0
0
0
0
1.78411e-09
1.78411e-09
0
0
1.78411e-09
0
1.78411e-09
1.78411e-09
0
0
0
0
0
0
0
0
0
0
3.56821e-09
-2.29687e-56
-3.8535e-49
-1.176e-53
-1.14843e-56
0
0
0
0
0
0
0
0
0
-1.47e-54
0
0
-2.35199e-53
0
0
-2.93999e-54
0
1.78411e-09
0
1.78411e-09
0
0
0
1.78411e-09
-8.97214e-59
1.78411e-09
-3.50474e-61
0
0
0
1.78411e-09
1.78411e-09
0
0
0
0
)
;

boundaryField
{
    fuel
    {
        type            calculated;
        value           uniform 0;
    }
    primary_air
    {
        type            calculated;
        value           uniform 0;
    }
    Secondary_air_RHS
    {
        type            calculated;
        value           uniform 0;
    }
    Secondary_air_LHS
    {
        type            calculated;
        value           uniform 0;
    }
    outlet
    {
        type            calculated;
        value           uniform 0;
    }
    stove_body
    {
        type            calculated;
        value           uniform 0;
    }
    frontAndBack
    {
        type            empty;
    }
}


// ************************************************************************* //
