/*--------------------------------*- C++ -*----------------------------------*\
  =========                 |
  \\      /  F ield         | OpenFOAM: The Open Source CFD Toolbox
   \\    /   O peration     | Website:  https://openfoam.org
    \\  /    A nd           | Version:  6
     \\/     M anipulation  |
\*---------------------------------------------------------------------------*/
FoamFile
{
    version     2.0;
    format      ascii;
    class       volScalarField;
    location    "5";
    object      p;
}
// * * * * * * * * * * * * * * * * * * * * * * * * * * * * * * * * * * * * * //

dimensions      [1 -1 -2 0 0 0 0];

internalField   nonuniform List<scalar> 
297
(
121042
121041
121039
201679
201680
201680
121038
121041
121043
121042
121041
121039
201679
201680
201680
121038
121041
121043
121042
121041
121039
201679
201680
201680
121038
121041
121043
97209.2
97150.6
97228.7
161613
161569
161621
97210.6
97151.5
97230.1
97309.7
96605.4
97334.8
160882
161032
160951
97321.1
96606.1
97329.2
94082.8
93888.5
94237.2
151946
157019
152236
94085.4
93888.3
94237.5
91589.1
94393.8
91332.4
156223
155683
156209
91580.8
94392.4
91338.5
96291.1
96504.7
96190.9
160615
159875
160580
96291
96504.5
96192.5
96358.5
96727.2
96334
160499
161068
160561
96358.2
96726.2
96334.7
74140.3
91615.4
74512.3
122023
152727
121488
74070.1
91613.7
74519.7
74045.4
91501.4
74273.5
120372
152763
119479
73971.3
91499.8
74280.3
76316
91811.1
76442.3
122703
153825
121642
76250.2
91809.2
76446.8
96934.2
97062.5
96930.9
161345
161637
161321
96933.3
97061.7
96930.8
97040.8
97063.9
97029.8
161580
161715
161551
97039.8
97063.4
97029.5
97047.7
97060.1
97040
161694
161731
161661
97046.8
97059.6
97039.7
97158.3
97343.7
97756.2
161504
161634
161878
97157.4
97342.3
97753.1
97074.5
97136.7
97397.7
161522
161553
161666
97074
97136
97396
96995.5
96889.7
96780.7
161608
161549
161521
96995.2
96889.6
96780.9
97755.8
97344.4
97160.2
161887
161648
161524
97753.7
97343.3
97159
97397.9
97136.8
97075.8
161676
161568
161544
97396.9
97136.1
97074.8
96783.3
96891
96997.6
161533
161565
161631
96783.2
96890.7
96996.8
98629
98470.3
98180.1
162650
162506
162236
98619.9
98463.1
98175.7
98401
98202.5
97875.7
162356
162232
161972
98393.8
98197.4
97872.9
98125.1
97909.7
97510.9
161983
161846
161651
98119.5
97906.1
97509.4
96661.8
96586.5
96443.8
160233
160159
160059
96663
96587.9
96445.4
91050.8
91077.7
91125.3
151015
151017
151016
91053.4
91079.8
91127.3
83567.1
83567.4
83569.7
134758
134758
134750
83568.7
83568.9
83571.2
98181.7
98472.5
98631.9
162230
162502
162647
98176.1
98464.4
98621.9
97876.6
98203.8
98402.8
161965
162227
162352
97872.6
98197.7
98394.8
97510.3
97909.6
98125.4
161644
161841
161978
97508
97905.3
98119.2
96437.6
96580.6
96656
160048
160149
160223
96439.4
96582.1
96657.3
91112.8
91065.2
91038.3
150996
150996
150995
91115.4
91067.9
91041.4
83554.6
83552.3
83552
134726
134734
134734
83556.4
83554.1
83553.9
)
;

boundaryField
{
    fuel
    {
        type            zeroGradient;
    }
    primary_air
    {
        type            zeroGradient;
    }
    Secondary_air_RHS
    {
        type            zeroGradient;
    }
    Secondary_air_LHS
    {
        type            zeroGradient;
    }
    outlet
    {
        type            totalPressure;
        rho             rho;
        psi             none;
        gamma           1;
        p0              uniform 100000;
        value           nonuniform List<scalar> 
18
(
87318.6
100000
87320.8
87287.1
100000
87289.3
87277.9
100000
87280.4
87291.7
100000
87293.8
87300.9
100000
87302.7
87332.4
100000
87334.1
)
;
    }
    stove_body
    {
        type            zeroGradient;
    }
    frontAndBack
    {
        type            empty;
    }
}


// ************************************************************************* //
