/*--------------------------------*- C++ -*----------------------------------*\
  =========                 |
  \\      /  F ield         | OpenFOAM: The Open Source CFD Toolbox
   \\    /   O peration     | Website:  https://openfoam.org
    \\  /    A nd           | Version:  6
     \\/     M anipulation  |
\*---------------------------------------------------------------------------*/
FoamFile
{
    version     2.0;
    format      ascii;
    class       volScalarField;
    location    "3.5";
    object      O2;
}
// * * * * * * * * * * * * * * * * * * * * * * * * * * * * * * * * * * * * * //

dimensions      [0 0 0 0 0 0 0];

internalField   nonuniform List<scalar> 
297
(
0
0
0
0
0
0
0
0
0
0
0
0
0
0
0
0
0
0
0
0
0
0
0
0
0
0
0
0.0670447
0.0835883
0.155789
0.16505
0.161219
0.206308
0.0628427
0.0769157
0.142517
0
7.97121e-06
0.0217215
0.0771917
0.126169
0.108087
0
5.87561e-06
0.00951248
0
0
0
0.0500318
0.0248267
0.0750477
0
0
0
0
9.16775e-11
0
0
0
0
3.06555e-05
1.28079e-09
0
0
0
0
0
0
0
0
0
0
0
0
0
0
0
0
0
0
0
0
0
0
0.00726264
5.45997e-07
0.0308086
0
0
0
0
0
0
0
0
0.0105992
0
1.08609e-08
0
0
0
0
0
0
0
0
0
0
0
0
0
0
0
0
0
0
0
6.30462e-21
1.02611e-17
6.28727e-17
0
0
0
3.74821e-18
0
0
2.34818e-21
3.82247e-18
8.2017e-17
0
0
0
1.31302e-18
2.12354e-18
0
0
2.56731e-18
6.298e-19
0
1.55135e-17
5.97058e-20
0
0
2.93426e-24
0
9.03127e-19
6.354e-19
0
0
0
0
0
0
3.08752e-17
2.27354e-17
1.55691e-17
0
0
0
0
0
0
3.79245e-21
0
0
0
0
0
1.83405e-20
1.65747e-18
0
1.03135e-20
8.56845e-21
0
3.06979e-22
0
0
1.93049e-20
3.46107e-19
1.9021e-17
2.30306e-20
9.48658e-21
3.12814e-21
1.63844e-19
2.63405e-19
4.03572e-19
2.12048e-18
3.57894e-18
6.77111e-18
1.4723e-25
6.69028e-26
4.68956e-25
7.22246e-21
3.07357e-21
3.97527e-21
2.13459e-20
2.10264e-20
2.04922e-20
2.18107e-25
1.07972e-25
7.31016e-25
7.31868e-21
3.1343e-21
4.09751e-21
2.23952e-20
2.19858e-20
2.12535e-20
2.54134e-25
1.25114e-25
7.73578e-25
1.31876e-20
2.3886e-20
9.41608e-20
2.26906e-20
2.30533e-20
1.38396e-18
1.01801e-25
1.35996e-25
3.94019e-25
8.57673e-21
1.35894e-20
3.74092e-20
2.30155e-20
4.92958e-20
6.33693e-19
6.99004e-26
1.38645e-25
4.38707e-25
6.22649e-21
1.30599e-20
2.01353e-20
2.62942e-20
8.48262e-20
4.30818e-19
4.69564e-26
1.12218e-25
3.52789e-25
8.85686e-21
3.25771e-20
1.01898e-19
2.20857e-20
9.7997e-20
3.65338e-19
6.57991e-19
6.37602e-19
6.22186e-19
1.7523e-19
1.49898e-19
2.79477e-19
9.98456e-24
7.97931e-24
1.20996e-23
6.30363e-19
6.03414e-19
5.8584e-19
2.00607e-19
1.72273e-19
2.80717e-19
9.43793e-24
6.67865e-24
1.50081e-23
1.16615e-17
5.97421e-19
5.76662e-19
1.28607e-20
3.83356e-20
3.16257e-19
9.6286e-24
6.29615e-24
1.22177e-23
5.81949e-18
9.63084e-19
5.40028e-19
1.09534e-20
1.72734e-20
1.64579e-19
1.08957e-23
6.18228e-24
6.51733e-24
5.78743e-18
2.07132e-18
5.12337e-19
2.82805e-20
1.39952e-19
1.68528e-19
9.73219e-24
4.44249e-24
2.25404e-24
5.74884e-18
1.71903e-18
4.21099e-19
1.63471e-18
6.79489e-19
2.32047e-19
9.57416e-24
3.93389e-24
1.35924e-24
)
;

boundaryField
{
    fuel
    {
        type            fixedValue;
        value           uniform 0;
    }
    primary_air
    {
        type            fixedValue;
        value           uniform 0.23;
    }
    Secondary_air_RHS
    {
        type            fixedValue;
        value           uniform 0.23;
    }
    Secondary_air_LHS
    {
        type            fixedValue;
        value           uniform 0.23;
    }
    outlet
    {
        type            inletOutlet;
        inletValue      uniform 0;
        value           nonuniform List<scalar> 
18
(
0
1.63471e-18
0
0
6.79489e-19
0
0
2.32047e-19
0
0
8.85686e-21
0
0
3.25771e-20
0
0
1.01898e-19
0
)
;
    }
    stove_body
    {
        type            fixedValue;
        value           uniform 0;
    }
    frontAndBack
    {
        type            empty;
    }
}


// ************************************************************************* //
