/*--------------------------------*- C++ -*----------------------------------*\
  =========                 |
  \\      /  F ield         | OpenFOAM: The Open Source CFD Toolbox
   \\    /   O peration     | Website:  https://openfoam.org
    \\  /    A nd           | Version:  6
     \\/     M anipulation  |
\*---------------------------------------------------------------------------*/
FoamFile
{
    version     2.0;
    format      ascii;
    class       surfaceScalarField;
    location    "3.5";
    object      phi;
}
// * * * * * * * * * * * * * * * * * * * * * * * * * * * * * * * * * * * * * //

dimensions      [1 0 -1 0 0 0 0];

internalField   nonuniform List<scalar> 
675
(
-2.26702e-06
-3.77668e-05
0.000167737
-2.85864e-06
-3.90232e-05
0.000167358
-4.14258e-05
0.000166335
4.69064e-06
3.76146e-05
0.000131071
4.97762e-06
3.90823e-05
0.000132717
4.33005e-05
0.000131323
-2.6492e-06
0.000167617
-3.78765e-06
0.000167587
0.000166912
-1.18165e-06
-6.02515e-05
0.000229335
-3.41163e-06
-5.39325e-05
0.000223729
-6.49114e-05
0.000228066
2.02583e-05
6.02528e-05
-9.69399e-06
2.84728e-06
5.39044e-05
4.22726e-05
6.66679e-05
2.47591e-06
-1.50096e-06
0.000229171
-4.32191e-06
0.000224129
0.000229126
-1.39177e-05
0.000115854
3.3725e-06
7.90783e-05
0.000104106
1.07602e-05
-0.000115846
3.97506e-07
-7.92036e-05
-0.000104201
-1.44357e-05
2.75514e-06
0.00623494
0.00475623
-0.00778818
0.00715614
0.00522184
-0.00295688
0.00791396
0.00239797
-0.000178721
-0.00554841
0.0157777
-0.00422217
-0.00605823
0.0205866
-0.00900171
0.0179008
0.00615893
-0.00850223
0.00720786
-0.00392496
0.0013581
0.0117977
0.00670658
-0.0262724
0.00923885
0.00371456
-0.00409391
0.00809679
0.00355271
0.00413156
-0.00672704
0.0251355
0.00814657
-0.00371329
0.0240367
-0.00931946
0.0434963
0.0146752
-0.0298693
0.0112678
-0.00420426
0.00332927
-0.00832855
0.0248889
-0.0428637
-0.00868392
0.0118512
-0.0155955
0.0181604
-0.0232922
-0.0490106
-0.0238695
0.122868
0.041793
-0.0123655
-0.0425773
-0.0198496
0.123283
-0.00499865
-0.0487869
-0.00494727
-0.0166261
-0.0214771
-0.0205593
-0.00880604
-0.024723
0.0540594
0.00274663
0.0028807
-0.0439137
0.0176657
-0.0101277
-0.0249572
0.0377851
0.0158444
0.0194887
0.0489821
-0.0931686
-0.00353805
-0.00218263
-0.0298324
0.0541929
0.00844
0.0686404
-0.0907672
-0.00742356
-0.0323639
0.0592707
0.00966637
-0.0387465
0.0194463
-0.0168628
0.0349559
-0.00331662
-0.00732051
-0.0141151
-0.00981904
-0.00626186
-0.03123
-0.0129454
-0.0218325
0.0182428
0.00853566
0.0148399
-0.00915399
0.00735317
-0.0161071
0.00575087
0.0407872
0.00486074
-0.0287217
0.0020696
-0.0286257
-0.00906841
0.0109605
-0.00910191
-0.0159912
-0.00175682
0.0019876
-0.0204506
-0.00546203
-0.0179271
0.000906647
0.00034081
0.00450192
-0.00306189
0.00120526
-0.0112524
0.0127658
0.0196371
-0.0113032
-0.0170212
-0.0192705
-0.0194129
-0.0154847
-0.000700753
-0.00251129
-0.045587
-0.00139534
-0.000943764
-0.0139613
-0.00231452
-0.0283225
-0.00356089
0.00217425
0.112257
0.00273766
0.000524809
-0.0503491
0.00199145
0.112091
-0.000817268
-0.0517015
-0.000838506
-0.0160811
-0.0262744
-0.000992247
-0.000599692
-0.0499168
-0.000520961
-0.000398746
-0.0140384
-0.00145916
-0.0333242
-0.00159432
0.00103976
0.102763
0.00230895
-0.000136681
-0.0545194
0.00129605
0.10205
-0.00092555
-0.0556246
8.64578e-05
-0.0172308
-0.0308337
-0.00192352
0.000146078
-0.000276255
0.00197655
-0.0017495
-0.00128564
0.0015469
0.00171193
-0.00135267
0.00164329
-0.00068971
0.000171621
0.00735709
-0.00380711
-0.00416441
-0.0153915
-0.0044799
-0.00114934
-0.00743398
-0.00137823
-0.00449261
-0.0164847
-0.0025843
0.00148982
-0.00402268
0.00576548
-0.0020506
0.000638475
-0.0135357
0.00467039
0.0102841
0.00129263
0.00329002
-0.00384892
-0.0149392
-0.00834834
-0.00710245
-0.00310737
-0.0160093
0.00981675
0.000678
-0.000446251
-0.0142098
-0.00121683
0.00192016
0.00171345
0.00181362
0.00452883
-0.0119976
0.000365072
-0.00284559
-0.00415452
0.00330177
-0.00265606
-0.00151141
-0.00704799
0.00062693
0.00459799
0.00425571
0.00177679
0.00385734
-0.0123168
-0.00891953
0.00210469
0.00107325
-0.012434
0.00217469
0.00290826
-0.00552366
0.000402184
0.00351961
0.00307485
0.00191985
-0.00287494
-0.00405076
0.00568716
-0.00304932
-0.00332076
-0.002249
0.00690157
-0.000375372
0.000194358
-0.00155343
-0.00269794
-0.0176258
-0.000334827
0.00148882
-0.017571
-0.00191481
0.00187381
-0.00165303
0.00197553
-0.0178832
-0.00317474
0.00196525
0.00218292
-0.00441307
-0.00158364
0.000896226
-0.00280746
0.00286772
-0.00615369
-0.0153735
0.00130103
-0.0167838
-0.000204141
-0.00696665
-0.0126591
-0.0127455
-0.000533842
0.00278597
-0.0125373
2.78542e-05
0.00165034
-0.000279013
0.00178045
-0.0120561
0.00362247
0.00167476
0.000597595
0.00305454
-0.00113855
0.00261946
-0.000110865
0.00746878
-0.0017119
-0.0119485
0.00249308
-0.013416
8.9729e-05
-0.00979035
-0.0107378
0.00471117
1.53733e-05
0.00639862
-2.28479e-05
-0.00136195
0.00954093
0.00788312
-0.000365283
0.0112877
-0.000822592
0.00157614
0.0157905
-0.000586065
-0.00134856
-0.00959814
0.0163416
0.00294611
-0.00762686
-0.0116684
0.0151005
-2.89871e-05
0.00125536
-0.00304208
0.00273463
0.00215152
0.00150469
0.004479
-0.00520009
-0.00205571
0.00176355
0.00239098
0.000653926
6.10544e-06
0.0170513
0.00222401
-0.0177706
0.0164702
0.00234192
0.00218849
0.0139309
2.86658e-06
-0.0101249
-0.0114426
0.0130996
0.00128164
0.000795132
-0.0017902
0.00340574
-0.00206422
0.000696551
0.00783855
-0.00200122
-0.0016502
0.000296843
0.00295333
0.000350893
-0.000493288
0.0124794
0.00243402
-0.0119994
0.0128391
0.002276
0.003058
0.0024496
-0.0018808
-0.0107038
0.0023316
0.000907209
0.000211529
-0.00989186
0.00128207
0.0145572
-0.0059458
-9.26072e-05
-0.000546117
-0.00488343
0.00859277
-0.00270462
-0.00416648
0.00304493
0.00111426
0.00412462
0.00298158
-0.0112798
0.0025242
-0.0100746
0.00216491
-0.0018464
0.00272231
0.00358824
-7.41604e-05
0.00162219
-0.000931453
0.00183351
0.0120732
-0.0139221
0.0187555
-0.00675884
5.20492e-05
-0.0023747
0.00242617
0.00105713
0.00619225
0.00268729
-0.0225335
0.00173145
-0.0170581
0.00208996
-0.00148127
0.00453307
0.00398391
0.000254467
0.00215138
-0.000769078
0.00630551
0.00895257
-0.0243598
0.0134244
-0.0109803
0.000703679
-0.00446539
0.00151825
0.00399952
0.0101121
0.00663377
-0.043746
0.00195205
-0.0195998
-0.00286892
-0.00415001
0.0130642
-0.00588846
0.000595794
0.0112013
0.00134584
0.0155694
0.00992998
-0.0384433
0.00267899
-0.00313723
0.0133166
0.0180323
0.01126
-0.0252969
-0.00419726
0.0161416
-0.0376237
0.0149567
-0.0387381
-0.00854116
-0.0016122
0.0344888
-0.00778381
0.00376741
0.0228469
0.00287966
0.0198648
0.00706593
-0.0471245
0.0154088
-0.00771493
0.0316023
0.00836599
0.00637506
-0.0400201
0.00529428
0.00667839
-0.0412147
0.00720732
-0.0406353
0.0121072
-0.00279883
0.0315831
0.0134749
-0.00328783
0.0314334
0.00109859
0.0394526
-0.00449474
-0.0454273
0.00208423
-0.0175794
0.034788
0.000893479
0.0142562
1.71008e-05
0.0151738
0.0146499
0.00554519
-0.0232553
0.0053998
-0.0222064
-0.0210092
-0.0161853
-0.0159825
-0.0187005
0.000941116
-0.000118974
-0.0120013
0.000107116
-0.00680497
0.00189221
-0.0138946
-0.00399942
-0.00252338
0.00129178
-0.00246164
-0.00310212
0.0016575
-0.00306177
0.002475
-0.00445382
-0.0107533
0.00443177
-0.0120098
0.00135831
-0.0133456
0.000859555
0.000314913
-0.00889007
-0.000149496
-0.0111106
0.00153292
-0.0243186
-0.00409424
-0.00163405
0.00614759
-0.00318049
-0.00220487
0.0027834
-0.00241585
0.00322121
-0.00603577
-0.0170999
0.00174527
-0.0220004
0.00067818
-0.00180571
-0.00128514
0.0129445
-0.00967372
-0.000432008
-0.00281374
0.00425693
-0.0382525
0.00741809
-0.00139029
0.014657
0.00288321
-0.00490232
0.0117705
-0.00157436
0.0119054
-0.00860438
-0.019492
0.00361257
-0.0391259
0.00271168
-0.015973
-0.00237426
0.0313013
-0.00712486
-0.00333605
-0.00841028
0.00161117
-0.0470655
0.00632093
-0.0152462
0.0211501
0.00826532
-0.0167964
0.0232288
-0.0122249
0.0339708
0.00317303
-0.037842
-0.0156528
-0.0370362
-0.0251001
-0.00198973
-0.00113012
0.0343074
0.00418845
0.00322978
-0.0178605
0.00249954
-0.0454341
-0.0128127
-0.00729063
0.0400228
-0.0115612
-0.00680524
0.0318928
-0.0067362
0.0315132
-0.00484334
-0.0404047
-0.00785538
-0.040929
-0.0398033
0.0160222
0.020701
0.0161082
0.0221039
0.0230056
-0.0046215
-0.014565
-0.00487286
-0.0149962
-0.014335
2.0418e-05
-0.000775578
)
;

boundaryField
{
    fuel
    {
        type            calculated;
        value           nonuniform List<scalar> 
36
(
0.000127541
0.000211098
0.000127539
0.000127541
0.000211098
0.00012754
0.00012754
0.000211098
0.00012754
-0.000127541
-0.000211098
-0.00012754
-0.000127541
-0.000211098
-0.00012754
-0.00012754
-0.000211098
-0.00012754
0
0
0
0
0
0
0
0
0
0
0
0
0
0
0
0
0
0
)
;
    }
    primary_air
    {
        type            calculated;
        value           nonuniform List<scalar> 9(-0.00319269 -0.00527746 -0.00319401 -0.00319274 -0.00527838 -0.00319474 -0.00319243 -0.00527988 -0.00319468);
    }
    Secondary_air_RHS
    {
        type            calculated;
        value           nonuniform List<scalar> 9(0.0059488 0.00962118 0.00595252 0.00593922 0.00959283 0.00594341 0.00593342 0.00960081 0.00593847);
    }
    Secondary_air_LHS
    {
        type            calculated;
        value           nonuniform List<scalar> 9(0.00593398 0.00948376 0.00590617 0.00592071 0.00944626 0.00588921 0.00591916 0.00947574 0.00588357);
    }
    outlet
    {
        type            calculated;
        value           nonuniform List<scalar> 
18
(
-0.00243774
0.0799448
-0.0549808
-0.0400261
0.069267
-0.0551208
-0.0522999
0.0639879
-0.054907
-0.0551628
0.0635566
-0.0524949
-0.0555048
0.0689425
-0.0399876
-0.0552602
0.0805035
-0.00220975
)
;
    }
    stove_body
    {
        type            calculated;
        value           uniform 0;
    }
    frontAndBack
    {
        type            empty;
        value           nonuniform 0();
    }
}


// ************************************************************************* //
