/*--------------------------------*- C++ -*----------------------------------*\
  =========                 |
  \\      /  F ield         | OpenFOAM: The Open Source CFD Toolbox
   \\    /   O peration     | Website:  https://openfoam.org
    \\  /    A nd           | Version:  6
     \\/     M anipulation  |
\*---------------------------------------------------------------------------*/
FoamFile
{
    version     2.0;
    format      ascii;
    class       volScalarField;
    location    "3.5";
    object      T;
}
// * * * * * * * * * * * * * * * * * * * * * * * * * * * * * * * * * * * * * //

dimensions      [0 0 0 1 0 0 0];

internalField   nonuniform List<scalar> 
297
(
291.483
291.476
291.481
293.003
293.001
293.001
291.482
291.475
291.481
291.558
291.506
291.525
293.58
293.282
293.371
291.557
291.506
291.524
291.944
291.763
291.789
299.127
305.739
306.564
291.942
291.764
291.788
375.801
366.523
332.117
329.241
332.546
319.248
376.804
369.116
337.552
409.31
406.974
384.313
370.055
348.321
337.329
407.783
405.752
388.49
409.204
399.902
464.78
386.541
397.029
384.051
407.98
398.993
483.235
375.662
347.27
392.985
430.211
414.546
441.22
374.094
366.278
400.452
382.359
346.814
367.204
430.141
411.368
441.216
345.617
365.898
401.89
354.003
327.38
339.329
430.075
363.106
441.22
322.061
353.323
382.224
410.416
361.359
470.56
403.164
412.22
413.309
407.642
373.777
490.601
395.97
347.124
425.908
415.08
412.129
419.327
395.182
366.395
437.819
384.356
344.633
413.548
427.433
412.392
438.632
384.73
366.309
423.559
317.854
314.499
310.979
370.816
355.726
441.255
307.56
321.836
330.944
305.844
306.141
306.469
309.676
335.779
426.913
303.466
319.483
321.965
305.459
305.773
306.45
312.971
327.837
360.155
305.144
318.428
316.866
301.137
300.847
300.342
321.514
305.321
305.004
304.317
303.471
303.943
306.236
302.115
301.917
412.025
368.281
328.622
317.121
305.66
305.878
306.464
305.488
310.661
361.639
359.249
346.823
315.328
308.814
308.897
303.244
303.191
313.76
304.757
338.761
371.479
299.436
303.215
305.743
303.663
303.369
305.89
308.957
322.083
310.516
301.46
302.397
303.258
304.205
304.286
305.383
312.964
314.418
312.132
304.101
303.28
303.731
304.074
303.465
303.051
303.689
304.631
304.405
299.531
300.214
299.34
304.012
303.02
302.567
303.809
304.64
304.555
299.059
301.4
301.186
304.13
302.75
302.193
303.842
306.743
309.288
298.309
302.801
304.128
302.418
302.379
301.41
303.02
306.177
307.165
298.171
300.088
300.626
298.912
298.801
297.816
299.668
301.976
303.335
294.675
294.599
296.375
291.833
291.829
291.161
292.343
290.298
286.787
290.91
290.766
299.643
300.214
301.108
300.835
304.46
304.65
304.146
302.748
303.315
303.53
301.456
301.762
300.453
304.478
304.647
304.236
302.556
303.164
303.743
311.63
302.38
299.776
335.433
315.407
306.909
302.037
302.948
304.053
303.107
300.388
296.832
319.74
311.118
304.466
301.293
302.655
302.769
300.405
295.794
293.202
311.38
307.513
302.468
297.108
297.235
298.317
303.594
291.916
291.181
291.615
291.28
293.171
291.072
291.751
291.821
)
;

boundaryField
{
    fuel
    {
        type            fixedValue;
        value           uniform 293;
    }
    primary_air
    {
        type            fixedValue;
        value           uniform 293;
    }
    Secondary_air_RHS
    {
        type            fixedValue;
        value           uniform 293;
    }
    Secondary_air_LHS
    {
        type            fixedValue;
        value           uniform 293;
    }
    outlet
    {
        type            inletOutlet;
        inletValue      uniform 293;
        value           nonuniform List<scalar> 
18
(
293
291.615
293
293
291.281
293
293
293.174
293
293
292.342
293
293
290.301
293
293
286.788
293
)
;
    }
    stove_body
    {
        type            fixedValue;
        value           uniform 293;
    }
    frontAndBack
    {
        type            empty;
    }
}


// ************************************************************************* //
