/*--------------------------------*- C++ -*----------------------------------*\
  =========                 |
  \\      /  F ield         | OpenFOAM: The Open Source CFD Toolbox
   \\    /   O peration     | Website:  https://openfoam.org
    \\  /    A nd           | Version:  6
     \\/     M anipulation  |
\*---------------------------------------------------------------------------*/
FoamFile
{
    version     2.0;
    format      ascii;
    class       volVectorField;
    location    "3.5";
    object      U;
}
// * * * * * * * * * * * * * * * * * * * * * * * * * * * * * * * * * * * * * //

dimensions      [0 1 -1 0 0 0 0];

internalField   nonuniform List<vector> 
297
(
(77.1261 -0.0327278 0.248018)
(77.124 -0.0129958 0.242972)
(77.1254 0.0256239 0.250432)
(-0.000183224 0.0498902 0.338359)
(-0.000138729 0.0165863 0.333256)
(-0.000103141 -0.0373231 0.344558)
(-77.1265 -0.0332607 0.247808)
(-77.1241 -0.016125 0.243619)
(-77.1255 0.0228614 0.251146)
(77.1358 -0.0153521 0.278486)
(77.125 -0.00677502 0.27841)
(77.1255 -0.00139789 0.27617)
(-0.00018375 0.139071 -0.175865)
(-0.000138417 0.0593536 -0.0349977)
(-0.000101795 -0.142523 -0.169129)
(-77.136 -0.0161925 0.27828)
(-77.125 -0.00979541 0.27945)
(-77.1256 -0.00371671 0.277722)
(77.2395 -0.0988897 0.558232)
(77.2013 -0.0196668 0.56056)
(77.1994 0.0547292 0.558042)
(-0.000160034 -0.24527 0.464093)
(-0.000125608 0.047356 0.312362)
(-8.6879e-05 0.193134 0.472146)
(-77.2394 -0.102211 0.558216)
(-77.2019 -0.0222446 0.560753)
(-77.1994 0.0545989 0.559439)
(65.1287 4.64153 -5.61789)
(63.4241 4.74331 -2.69673)
(57.028 2.80267 1.08457)
(0.00529217 1.04436 4.48468)
(0.00813879 -0.628517 3.91386)
(0.00874481 0.0968901 5.23154)
(-65.3171 6.62701 -5.54556)
(-63.8874 4.797 -3.04552)
(-58.0262 2.37228 1.51403)
(71.369 6.79614 -9.11157)
(70.9955 7.02659 -7.60204)
(66.9635 7.74924 13.547)
(0.00504677 9.81161 37.2738)
(0.00851459 0.671346 26.2894)
(0.00976115 0.66767 34.7396)
(-71.0601 11.7298 -9.53192)
(-70.7037 8.58697 -6.94594)
(-67.7564 8.99089 10.7594)
(70.4149 4.10991 -11.7056)
(69.4277 -7.2004 -5.60427)
(80.1977 -24.0867 19.1746)
(-0.00200234 -7.78936 51.8357)
(0.00129583 -3.71923 11.5455)
(0.0139418 7.68058 52.0248)
(-70.164 10.5715 -13.617)
(-69.2866 -9.56162 -3.69793)
(-83.3839 -12.7267 24.5371)
(65.579 -6.4545 -43.6133)
(60.2579 -2.32729 -28.6655)
(68.1058 -10.5233 -39.577)
(0.0223665 -2.17839 1.97573)
(-0.00138041 8.54426 -32.6524)
(0.00452855 -5.88922 25.0292)
(-64.5745 3.02216 -58.2266)
(-63.5561 -1.99182 -27.5082)
(-69.4643 2.43081 -37.1634)
(67.1039 11.0141 -30.1318)
(60.3535 -0.64595 -36.9014)
(63.8956 -22.9034 -25.8716)
(0.0219132 0.114973 -2.67517)
(-0.0120416 5.15211 -14.4718)
(-0.023124 -5.72196 20.5806)
(-60.4469 14.2827 -35.281)
(-63.7194 -3.74905 -36.2954)
(-70.44 -3.47339 -19.9682)
(61.9388 19.1472 -27.6689)
(57.1359 14.4947 -34.5262)
(59.1741 -30.9277 -31.132)
(0.0563074 -2.53453 6.15986)
(0.00251848 0.0843529 -16.9664)
(-0.0355011 -2.8019 18.4215)
(-56.2678 13.3639 -30.5723)
(-61.5305 -20.8784 -28.1174)
(-66.6541 -21.1801 -20.8866)
(60.5965 6.56428 -51.4649)
(58.6282 -9.80585 -14.4961)
(74.5702 -40.6278 -32.9514)
(-0.0778387 -5.95617 70.6908)
(-0.0155049 -2.35824 -34.819)
(0.0106501 -0.0239866 68.812)
(-62.0142 12.6034 -58.3751)
(-61.7344 -14.0213 -16.4216)
(-78.2117 -25.1651 -32.3958)
(60.5223 1.38962 -55.3502)
(57.5948 -6.08803 -12.8554)
(66.3208 -22.4719 -40.1218)
(-0.0742775 -4.91776 78.6639)
(-0.0158295 1.08415 -36.2982)
(0.0113063 0.138647 75.4309)
(-58.733 6.692 -62.1638)
(-61.7169 -9.35521 -16.5204)
(-68.6094 -7.93873 -37.9726)
(62.4993 -2.19671 -52.5682)
(59.4888 -3.81925 -16.957)
(61.0027 -17.9442 -40.4381)
(-0.0808791 -3.82602 77.7107)
(-0.0140184 3.04881 -34.9432)
(0.0132126 -5.35895 78.3308)
(-52.3187 5.77866 -61.2672)
(-62.8673 -7.72813 -20.5083)
(-63.0122 -4.2194 -38.2158)
(54.3488 41.0219 -7.97948)
(53.9583 14.1898 -9.2309)
(53.6371 -41.9185 -9.00052)
(0.019841 -6.38411 -0.234442)
(-0.00524911 -5.50394 -6.99049)
(-0.0175468 2.16775 12.7142)
(-52.9024 37.5548 -9.18204)
(-55.3426 -17.864 -10.1885)
(-56.4675 -41.1882 -8.12947)
(52.8754 38.1123 -0.970106)
(52.9824 26.2111 -4.49086)
(53.2979 -28.3891 3.84419)
(0.0138675 3.26094 -2.11464)
(-0.00622938 -2.95403 -5.3193)
(-0.0297421 0.203285 6.18491)
(-52.6858 28.4377 4.23243)
(-55.2474 -22.9572 -3.66688)
(-55.7059 -35.5522 -1.39259)
(53.0582 4.42593 3.65419)
(53.1984 9.05738 1.72599)
(53.3696 5.69242 -1.18442)
(0.00676818 -6.69257 -0.859933)
(-0.00667334 -4.12101 -1.42274)
(-0.0244503 3.35371 -0.511942)
(-53.1187 -3.14026 -0.685507)
(-55.4219 -9.60165 1.99075)
(-55.2237 0.0744089 4.8322)
(52.0303 -47.5076 -6.29188)
(51.3101 -51.1606 -9.42705)
(51.0675 -55.7159 -10.8089)
(0.0599438 1.32946 -0.363692)
(0.100495 -9.32942 -7.69632)
(0.198093 -9.12714 -10.7614)
(-51.2629 -45.8429 -5.70778)
(-52.4038 -48.1474 -14.7316)
(-52.3658 -30.4122 -22.6082)
(52.9452 -35.0782 8.79007)
(52.6609 -40.0063 7.06898)
(52.5078 -44.6129 4.02863)
(0.0290534 11.6288 4.877)
(0.0740704 7.97245 5.83581)
(0.174601 1.10085 11.5589)
(-53.9784 -37.0736 1.25188)
(-53.2209 -42.4046 -10.1493)
(-52.1402 -26.5001 -23.5503)
(53.2245 7.42018 4.52796)
(53.3118 13.0716 5.42182)
(53.6687 23.3015 10.137)
(0.0139245 15.06 0.681185)
(0.0516766 20.653 0.91425)
(0.100014 30.0731 8.97988)
(-54.8303 -10.2597 14.8065)
(-53.8952 -0.899176 17.7139)
(-52.5313 -22.703 -31.932)
(52.1845 30.1617 -23.4725)
(51.5847 48.1255 -7.99947)
(51.838 42.9319 -1.77225)
(-0.216095 10.0341 -7.49289)
(-0.126675 -3.79142 -0.0876725)
(-0.0836316 -10.39 0.773048)
(-51.0302 55.4799 -10.2441)
(-51.7021 49.3277 -8.19179)
(-52.558 43.0796 -3.89378)
(51.6362 27.1011 -24.8401)
(52.7572 45.0574 -6.52064)
(51.8528 38.9849 4.97237)
(-0.174424 1.5374 10.568)
(-0.0737495 -4.89327 2.99804)
(-0.0337082 -7.91311 -1.39162)
(-52.2669 43.8251 4.62047)
(-52.518 38.3175 7.5252)
(-52.33 35.1242 8.15263)
(51.5359 23.7206 -33.2886)
(53.0867 6.90688 4.42258)
(52.808 16.0303 12.3731)
(-0.0831728 -24.6286 9.36646)
(-0.0376246 -14.4743 1.73265)
(-0.0189431 -12.5498 -0.256168)
(-52.5859 -19.8368 12.06)
(-52.8846 -8.62531 8.27814)
(-52.7723 -2.62799 7.61751)
(51.8906 -9.31854 -12.9067)
(51.6983 1.40697 -33.184)
(51.7518 21.8321 -29.3941)
(0.0190907 4.30334 -7.57717)
(-0.107442 0.94159 -9.90462)
(-0.227857 10.9082 -9.08306)
(-50.2672 25.001 -33.7318)
(-49.8821 32.2091 -24.7926)
(-51.6283 53.2684 -18.9279)
(51.8561 -4.95377 9.27596)
(51.8397 7.43645 -41.5615)
(51.6462 22.7421 -40.9474)
(-0.0572287 2.00137 13.437)
(-0.197808 2.22499 8.75134)
(-0.25162 9.87725 10.4358)
(-50.7603 6.12233 -56.9112)
(-50.9286 22.8213 -30.8281)
(-52.5028 41.1099 -5.16234)
(51.5928 0.126584 4.63813)
(54.5529 8.25133 -51.1113)
(52.5202 12.7767 -52.3476)
(-0.141819 -0.620781 7.24297)
(-0.249676 -7.22278 7.28495)
(-0.237335 -18.3458 18.532)
(-53.0714 3.23356 -73.3723)
(-51.594 21.629 -22.1535)
(-51.454 -13.3546 22.8019)
(51.8513 6.02511 -13.0222)
(52.4333 2.91624 -71.3752)
(52.0568 -8.54487 -87.8467)
(-0.354615 0.566978 61.4753)
(-0.349385 -1.21558 35.0822)
(-0.354807 -12.6122 33.7711)
(-52.7226 -9.3171 -103.03)
(-52.719 11.6001 31.399)
(-52.8403 -3.61216 71.2466)
(51.0627 1.27675 -132.449)
(51.1521 1.68227 -139.024)
(50.9883 7.36374 -136.806)
(-0.182323 3.22038 86.3817)
(-0.17751 4.50283 72.0414)
(-0.190845 0.484162 68.6534)
(-51.2667 2.9368 -136.704)
(-51.3243 -5.48107 -65.9182)
(-51.2831 0.881935 112.505)
(49.0588 0.150887 -165.069)
(49.1301 0.302299 -166.574)
(48.9364 -0.937446 -165.493)
(0.347052 0.221266 160.686)
(0.368406 2.00958 173.507)
(0.391455 0.18317 200.966)
(-48.2342 -6.17545 -155.404)
(-47.894 -7.3312 -109.567)
(-49.0627 -4.07525 -2.16817)
(51.7559 -53.5358 -19.2017)
(49.996 -32.2287 -24.9708)
(50.4639 -24.8692 -33.7935)
(0.22059 -12.1039 -11.4669)
(0.101236 -1.67008 -11.5791)
(-0.0341256 -4.38993 -8.00909)
(-51.777 -24.1421 -33.0927)
(-51.6664 -2.11937 -35.4446)
(-51.8374 10.0854 -13.0467)
(52.5333 -40.762 -5.76987)
(50.9562 -23.0239 -30.8699)
(50.9728 -5.85911 -56.6315)
(0.241263 -10.3024 10.8483)
(0.180705 -3.57229 9.48362)
(0.0368828 -2.8373 12.6168)
(-51.2176 -19.4579 -40.7771)
(-51.0835 -10.3651 -43.361)
(-51.8963 5.17108 10.0269)
(52.6061 18.1547 22.207)
(51.5291 -21.1476 -21.8231)
(53.3454 -3.03917 -73.1569)
(0.238978 22.7529 18.689)
(0.230317 9.177 9.22816)
(0.12562 0.294451 4.65741)
(-52.0424 -11.9789 -53.124)
(-53.3421 -7.09884 -54.253)
(-51.8032 -0.876846 1.70013)
(53.3128 5.63615 70.2187)
(52.8166 -13.6449 27.9361)
(52.5179 9.11319 -103.152)
(0.407394 14.0933 37.4126)
(0.397539 0.426623 36.0748)
(0.394082 -0.514187 60.1215)
(-52.0148 8.0225 -85.4414)
(-52.4061 -1.97604 -71.7119)
(-51.8935 -5.68479 -14.8631)
(52.0023 0.262941 112.749)
(51.5476 5.01901 -67.0523)
(50.9909 -2.84835 -136.466)
(0.224875 0.112999 71.59)
(0.207862 -4.71101 72.5004)
(0.209113 -3.09986 86.0738)
(-50.8149 -6.98976 -135.462)
(-50.8119 -1.38747 -137.377)
(-50.9022 -1.34167 -131.266)
(49.7228 4.81574 -2.73197)
(48.0913 7.31408 -109.706)
(48.2547 5.91412 -154.622)
(-0.387034 0.332599 202.882)
(-0.36099 -1.9627 174.919)
(-0.340007 -0.110123 162.256)
(-48.895 0.881462 -164.302)
(-49.0588 -0.348357 -164.917)
(-49.0248 -0.0685501 -163.982)
)
;

boundaryField
{
    fuel
    {
        type            fixedValue;
        value           uniform (0 0 0.25);
    }
    primary_air
    {
        type            fixedValue;
        value           uniform (0 0 2.5);
    }
    Secondary_air_RHS
    {
        type            fixedValue;
        value           uniform (0 47.2222 0);
    }
    Secondary_air_LHS
    {
        type            fixedValue;
        value           uniform (0 -47.2222 0);
    }
    outlet
    {
        type            pressureInletOutletVelocity;
        value           nonuniform List<vector> 
18
(
(0 0 -2.73197)
(-0.387034 0.332599 202.882)
(0 0 -164.302)
(0 0 -109.706)
(-0.36099 -1.9627 174.919)
(0 0 -164.917)
(0 0 -154.622)
(-0.340007 -0.110123 162.256)
(0 0 -163.982)
(0 0 -165.069)
(0.347052 0.221266 160.686)
(0 0 -155.404)
(0 0 -166.574)
(0.368406 2.00958 173.507)
(0 0 -109.567)
(0 0 -165.493)
(0.391455 0.18317 200.966)
(0 0 -2.16817)
)
;
    }
    stove_body
    {
        type            noSlip;
    }
    frontAndBack
    {
        type            empty;
    }
}


// ************************************************************************* //
