# Probe 0 (0 -0.07 0.5)
# Probe 1 (0 -0.04 0.5)
# Probe 2 (0 -0.07 0.3)
# Probe 3 (0 -0.07 0.33)
# Probe 4 (0 -0.04 0.3)
# Probe 5 (0 -0.04 0.33)
# Probe 6 (0 0 0.33)
# Probe 7 (0 0 0.3)
# Probe 8 (0 0.1 0.33)
# Probe 9 (0 0.1 0.3)
# Probe 10 (0 0.14 0.3)
# Probe 11 (0 0.14 0.33)
# Probe 12 (0 0.17 0.3)
# Probe 13 (0 0.17 0.33)
# Probe 14 (0 0.14 0.5)
# Probe 15 (0 0.14 0.33)
#       Probe             0             1             2             3             4             5             6             7             8             9            10            11            12            13            14            15
#        Time
          0.5       291.588       290.695       302.759       302.947       302.028        302.52       304.784       316.182       308.483       322.982       302.779       306.112       302.989       303.467       290.746       306.112
            1       291.585       290.677       302.516       302.755       301.713       302.674       302.395       323.629       305.762        323.43       302.983       306.437       303.195       303.529       290.743       306.437
          1.5       291.612        290.72       302.582       303.401       302.037       302.721       304.766       323.461       308.529        324.11       302.414       305.639       302.669       303.684       290.751       305.639
            2       291.615       290.709       302.702       303.175       302.115       302.874       304.893       324.751        308.71       323.233        302.88       305.858       302.907       303.391       290.737       305.858
          2.5       291.552         290.7       302.518       303.075       301.363       303.239       302.693       323.551        303.52       323.912       302.549       306.106        302.66       303.403       290.693       306.106
            3         291.6       290.685       302.504        303.34       301.932       302.824       304.721       322.931       307.854       324.463       302.492       305.671       302.885       303.613       290.753       305.671
          3.5       291.588       290.663       302.505       302.783       301.766       302.491       302.558       320.117       306.181       325.216       303.094       306.755       303.174       304.141        290.76       306.755
            4       291.544       290.639       302.484       303.418       301.929       302.724       302.652       320.142       306.467       324.128       302.934       306.812       303.165       303.643       290.675       306.812
          4.5       291.595       290.688       302.626       302.923       301.905       302.578       302.627       320.983       305.967       324.329       303.003       306.638       303.177       303.561       290.746       306.638
            5       291.637       290.698       302.601       303.537       301.986       302.728       302.612        319.92       306.314       324.578       303.063       306.691       303.168       304.173        290.78       306.691
