/*--------------------------------*- C++ -*----------------------------------*\
  =========                 |
  \\      /  F ield         | OpenFOAM: The Open Source CFD Toolbox
   \\    /   O peration     | Website:  https://openfoam.org
    \\  /    A nd           | Version:  6
     \\/     M anipulation  |
\*---------------------------------------------------------------------------*/
FoamFile
{
    version     2.0;
    format      ascii;
    class       volScalarField;
    location    "1";
    object      O2;
}
// * * * * * * * * * * * * * * * * * * * * * * * * * * * * * * * * * * * * * //

dimensions      [0 0 0 0 0 0 0];

internalField   nonuniform List<scalar> 
297
(
0
0
0
0
0
0
0
0
0
0
0
0
0
0
0
0
0
0
0
0
0
0
0
0
0
0
0
0.0822552
0.159353
0.110965
0.181318
0.182975
0.198524
0.0821411
0.159237
0.111972
0
0.0213779
0
0.0521785
0.18288
0.0579213
0
0.0217188
0
0
0.0203538
0
0.0284273
0.0374222
0.0302361
0
0.0206094
0
0.00308409
0.00925421
0.00309488
0
0.00199986
0
0.00320732
0.00936759
0.00323534
5.49718e-08
1.20099e-07
6.76527e-08
2.41863e-09
2.5649e-08
3.56877e-09
5.71146e-08
1.21795e-07
7.05494e-08
6.50602e-13
2.41976e-12
8.62466e-13
3.15571e-14
4.93682e-13
1.07281e-13
6.75051e-13
2.46141e-12
8.98707e-13
0
0.0203399
0
0
0.00202589
0
0
0.0205838
0
0
0.0202295
0
0
0.00199944
0
0
0.0204704
0
0
0.0199163
0
0
0.00199974
0
0
0.0201487
0
1.37344e-17
1.16447e-16
2.55218e-17
4.8524e-19
1.28752e-17
1.59584e-18
1.97277e-17
1.13306e-16
2.6523e-17
2.26963e-21
3.08848e-20
2.59919e-21
3.44019e-23
8.84196e-21
9.82402e-23
1.89573e-21
2.86857e-20
2.63365e-21
2.80434e-24
2.42546e-20
2.82125e-22
4.91348e-25
9.08476e-21
1.68573e-23
2.36599e-24
1.94587e-20
9.87403e-23
4.58593e-22
1.41411e-26
2.07728e-31
2.13365e-23
1.4765e-27
4.07436e-32
4.70341e-22
1.43352e-26
2.08724e-31
9.35299e-26
3.5811e-30
1.23833e-34
1.48067e-27
1.05502e-28
4.38628e-33
8.73588e-26
3.85983e-30
1.48468e-34
1.81093e-26
9.66274e-31
8.22881e-35
4.97146e-28
2.11273e-30
7.11011e-34
9.42125e-27
6.21128e-31
7.50477e-35
5.8162e-32
3.96487e-27
2.44331e-22
1.84365e-32
4.95827e-28
6.48712e-24
1.69042e-31
5.74578e-27
3.53604e-22
7.19103e-35
2.2073e-30
6.97097e-26
1.80782e-33
3.57042e-29
4.83151e-28
7.21164e-35
2.42284e-30
6.28535e-26
2.37393e-35
4.86293e-32
2.24649e-28
2.77943e-34
7.05581e-31
1.60732e-29
2.3375e-35
6.98917e-32
1.89939e-28
5.84889e-45
9.18288e-41
2.45886e-36
3.11034e-44
1.47035e-40
9.14953e-37
4.84295e-44
4.91859e-40
7.12478e-36
7.59615e-48
1.0839e-43
2.43578e-39
1.29764e-46
1.15863e-42
3.61313e-38
4.08295e-47
9.81257e-44
2.39326e-39
3.62007e-48
1.13614e-44
5.08456e-40
7.8973e-47
3.01966e-43
7.32792e-39
3.57376e-47
1.38306e-44
5.41056e-40
4.63041e-48
6.22069e-47
2.1122e-45
1.18862e-46
5.50991e-43
6.38251e-42
3.52718e-47
2.16883e-46
4.04476e-45
9.78013e-50
4.93083e-48
5.71818e-47
1.17042e-44
5.96427e-43
6.31609e-42
1.00182e-49
7.46567e-48
5.8653e-47
2.12848e-50
1.00885e-48
1.13769e-47
6.37423e-45
2.83057e-43
3.15962e-42
3.6259e-50
1.77235e-48
2.03324e-47
4.69627e-36
3.25609e-40
3.1903e-44
1.55304e-36
9.52244e-41
2.59897e-44
8.78126e-36
3.34517e-40
3.25369e-44
4.60735e-39
1.87718e-43
2.73836e-47
8.75644e-38
2.78525e-42
3.37417e-46
5.21299e-39
1.72231e-43
1.20125e-46
2.01285e-39
4.50571e-44
2.48799e-47
1.90088e-38
7.51295e-43
2.08341e-46
1.71982e-39
4.40392e-44
1.08447e-46
8.45604e-45
2.97946e-46
3.17557e-47
1.71281e-41
1.13745e-42
2.70907e-46
1.24769e-44
7.11024e-46
1.0503e-46
7.38585e-47
8.00354e-48
1.07484e-49
1.31757e-41
1.04668e-42
1.84597e-44
1.03844e-46
8.04561e-48
1.56001e-49
1.97125e-47
1.54152e-48
3.32951e-50
5.79304e-42
4.41923e-43
9.83352e-45
3.36808e-47
2.72981e-48
5.78881e-50
)
;

boundaryField
{
    fuel
    {
        type            fixedValue;
        value           uniform 0;
    }
    primary_air
    {
        type            fixedValue;
        value           uniform 0.23;
    }
    Secondary_air_RHS
    {
        type            fixedValue;
        value           uniform 0.23;
    }
    Secondary_air_LHS
    {
        type            fixedValue;
        value           uniform 0.23;
    }
    outlet
    {
        type            inletOutlet;
        inletValue      uniform 0;
        value           nonuniform List<scalar> 
18
(
0
5.79304e-42
0
0
4.41923e-43
0
0
9.83352e-45
0
0
6.37423e-45
0
0
2.83057e-43
0
0
3.15962e-42
0
)
;
    }
    stove_body
    {
        type            fixedValue;
        value           uniform 0;
    }
    frontAndBack
    {
        type            empty;
    }
}


// ************************************************************************* //
