/*--------------------------------*- C++ -*----------------------------------*\
  =========                 |
  \\      /  F ield         | OpenFOAM: The Open Source CFD Toolbox
   \\    /   O peration     | Website:  https://openfoam.org
    \\  /    A nd           | Version:  6
     \\/     M anipulation  |
\*---------------------------------------------------------------------------*/
FoamFile
{
    version     2.0;
    format      ascii;
    class       volScalarField;
    location    "1";
    object      p;
}
// * * * * * * * * * * * * * * * * * * * * * * * * * * * * * * * * * * * * * //

dimensions      [1 -1 -2 0 0 0 0];

internalField   nonuniform List<scalar> 
297
(
113185
113185
113185
188564
188564
188564
113185
113184
113184
113185
113185
113185
188564
188564
188564
113185
113184
113184
113184
113185
113185
188564
188565
188564
113184
113185
113184
97531.3
97499.9
97513.6
162115
162097
162139
97528
97495.1
97511.5
97550.1
97161.7
97608.1
161575
161883
161583
97562.2
97175.3
97607.8
95071
94928.8
95390
154403
158564
154739
95083
94935.9
95388.5
93221.2
95309.1
92944.9
157753
156706
157449
93208.3
95301.1
92948.7
96864.9
97102.4
96814.1
161481
161287
161528
96866.6
97102.8
96814.7
96911.3
97167.6
96876.4
161405
161772
161429
96914.4
97171.7
96880.5
81266.7
92811.9
81295
132482
152121
132314
81227.9
92813.7
81325.6
81018.6
92713.8
80909.4
131364
151434
130738
80975.4
92714.7
80946.1
82426.6
92974.8
82201.8
133179
151709
132007
82387.4
92974.6
82239.1
97323.6
97415.5
97316.4
161964
162131
161953
97328.7
97422.3
97320.7
97397
97416.5
97388
162127
162199
162114
97402.4
97425.7
97391.6
97398.5
97411.5
97390.4
162208
162225
162191
97403.8
97420.9
97392.8
97469.8
97583.2
97853.1
162072
162140
162280
97463.5
97580.4
97861.7
97404.3
97432
97608.6
162088
162090
162139
97397.8
97424.3
97606.6
97339.2
97260.9
97197.8
162154
162101
162053
97332.4
97250.7
97180.8
97874.3
97600.8
97479.7
162298
162160
162090
97862.8
97589.2
97477.5
97624.5
97446.2
97414.8
162158
162111
162108
97617
97438.4
97412.4
97207.2
97275.3
97351
162073
162121
162174
97202.5
97265.8
97346.1
98459.6
98347.8
98152.4
162777
162688
162516
98481.8
98377.5
98165
98326.9
98178.5
97945.5
162587
162504
162336
98325.3
98188.5
97948.9
98161.6
97998
97707.1
162334
162236
162114
98146.4
97989.5
97703.4
97107.9
97057.2
96948.1
161045
160995
160906
97142.3
97078.8
96963.9
92074.7
92089.8
92130.4
152578
152583
152583
92075.3
92093.2
92132.6
84864.4
84864.6
84868.1
136626
136627
136622
84869.3
84868.8
84871.8
98154.8
98369.8
98475.7
162502
162677
162766
98148.5
98343.6
98453
97942.8
98187
98323
162321
162493
162577
97936.1
98167.8
98317.3
97699.4
97988.3
98141.8
162099
162226
162327
97695.1
97987.4
98156.4
96939.4
97046.7
97108.2
160898
160992
161045
96947.9
97057.9
97107.4
92110
92069.4
92052
152562
152561
152558
92119
92079.3
92063.5
84843.9
84840.8
84841.3
136581
136587
136585
84846.1
84842.5
84842.3
)
;

boundaryField
{
    fuel
    {
        type            zeroGradient;
    }
    primary_air
    {
        type            zeroGradient;
    }
    Secondary_air_RHS
    {
        type            zeroGradient;
    }
    Secondary_air_LHS
    {
        type            zeroGradient;
    }
    outlet
    {
        type            totalPressure;
        rho             rho;
        psi             none;
        gamma           1;
        p0              uniform 100000;
        value           nonuniform List<scalar> 
18
(
88455.5
100000
88458.4
88425.4
100000
88428.7
88422.2
100000
88425.8
88443.8
100000
88446.7
88446.5
100000
88449.9
88476.8
100000
88479.4
)
;
    }
    stove_body
    {
        type            zeroGradient;
    }
    frontAndBack
    {
        type            empty;
    }
}


// ************************************************************************* //
