/*--------------------------------*- C++ -*----------------------------------*\
  =========                 |
  \\      /  F ield         | OpenFOAM: The Open Source CFD Toolbox
   \\    /   O peration     | Website:  https://openfoam.org
    \\  /    A nd           | Version:  6
     \\/     M anipulation  |
\*---------------------------------------------------------------------------*/
FoamFile
{
    version     2.0;
    format      ascii;
    class       volScalarField;
    location    "3.5";
    object      O2;
}
// * * * * * * * * * * * * * * * * * * * * * * * * * * * * * * * * * * * * * //

dimensions      [0 0 0 0 0 0 0];

internalField   nonuniform List<scalar> 
297
(
0
0
0
0
0
0
0
0
0
0
0
0
0
0
0
0
0
0
0
0
0
0
0
0
0
0
0
0.0560303
0.0704962
0.139502
0.150784
0.159438
0.201681
0.055953
0.0707028
0.140446
0
8.13643e-06
0.0192532
0.0659023
0.116876
0.101253
0
8.52426e-06
0.0198298
0
0
0
0.0437963
0.0276209
0.0728422
0
0
0
0
0
0
0
0
0
7.8181e-05
1.1374e-09
0
0
0
0
0
0
0
0
0
0
0
0
0
0
0
0
0
0
0
0
0
0
0.00328482
6.87805e-07
0.0315154
0
0
0
0
0
0
0
0
0.00966776
0
0
0
0
0
0
0
0
0
0
0
0
1.77737e-14
0
0
5.69135e-15
0
0
1.25843e-14
0
0
8.88393e-18
4.9657e-17
5.56524e-17
0
0
0
5.82529e-18
1.05958e-16
6.12075e-16
5.91387e-18
4.13003e-17
5.42541e-17
9.82192e-20
0
0
2.50799e-17
5.15175e-17
3.91354e-17
0
4.01292e-22
3.58163e-24
0
2.48284e-21
5.03153e-23
0
0
4.36787e-27
0
0
0
0
0
0
0
0
0
2.23672e-21
8.6303e-22
0
0
0
0
0
5.71727e-24
0
4.67334e-25
9.56828e-22
8.546e-19
3.75116e-21
1.09714e-19
7.29358e-18
2.44151e-20
2.63825e-20
3.85879e-19
3.21546e-24
1.31909e-22
2.95674e-19
2.50243e-19
3.59656e-18
3.20273e-18
5.61303e-20
1.38861e-19
3.78145e-19
1.18926e-23
5.47592e-21
3.17657e-19
8.89462e-19
1.14269e-18
2.34896e-19
1.45531e-18
2.30535e-18
3.66501e-18
1.18073e-25
1.71826e-25
3.15062e-25
6.98119e-21
5.47829e-21
5.96501e-21
1.5344e-20
2.81785e-20
2.81263e-20
1.60942e-25
5.26372e-25
1.11389e-24
9.01882e-21
6.63828e-21
6.989e-21
2.11025e-20
3.97311e-20
3.91394e-20
1.68065e-25
7.5044e-25
2.38684e-24
9.39375e-21
1.20368e-19
4.22816e-19
2.53238e-20
4.71982e-20
1.04227e-18
2.0507e-25
9.42243e-25
1.75684e-24
1.65567e-20
9.30383e-20
2.17418e-19
2.76933e-20
1.03065e-19
5.4205e-19
1.45299e-25
5.62858e-25
1.31373e-24
1.34713e-20
6.55353e-20
1.45115e-19
3.2907e-20
1.21126e-19
4.64526e-19
8.47913e-26
2.46716e-25
6.90383e-25
1.53519e-20
6.83567e-20
1.93188e-19
2.74119e-20
1.22422e-19
4.29647e-19
3.43138e-27
3.36104e-27
4.73811e-27
3.98665e-27
1.339e-27
1.73082e-27
8.04156e-30
1.62277e-32
2.97254e-32
4.54157e-28
5.09972e-28
4.80359e-27
0
1.33985e-27
1.81424e-27
0
0
1.50361e-32
0
0
4.82526e-27
0
0
1.7819e-27
0
0
1.05701e-32
8.57843e-26
8.48803e-27
4.89777e-27
0
0
0
0
0
7.49103e-33
7.91861e-26
1.9669e-26
4.94809e-27
0
0
1.59898e-28
4.52198e-32
3.40118e-32
1.08233e-32
7.25681e-26
2.04251e-26
4.53901e-27
1.14673e-26
6.23774e-27
1.72549e-27
6.24129e-32
3.4366e-32
9.47882e-33
)
;

boundaryField
{
    fuel
    {
        type            fixedValue;
        value           uniform 0;
    }
    primary_air
    {
        type            fixedValue;
        value           uniform 0.23;
    }
    Secondary_air_RHS
    {
        type            fixedValue;
        value           uniform 0.23;
    }
    Secondary_air_LHS
    {
        type            fixedValue;
        value           uniform 0.23;
    }
    outlet
    {
        type            inletOutlet;
        inletValue      uniform 0;
        value           nonuniform List<scalar> 
18
(
0
1.14673e-26
0
0
6.23774e-27
0
0
1.72549e-27
0
0
1.53519e-20
0
0
6.83567e-20
0
0
1.93188e-19
0
)
;
    }
    stove_body
    {
        type            fixedValue;
        value           uniform 0;
    }
    frontAndBack
    {
        type            empty;
    }
}


// ************************************************************************* //
