/*--------------------------------*- C++ -*----------------------------------*\
  =========                 |
  \\      /  F ield         | OpenFOAM: The Open Source CFD Toolbox
   \\    /   O peration     | Website:  https://openfoam.org
    \\  /    A nd           | Version:  6
     \\/     M anipulation  |
\*---------------------------------------------------------------------------*/
FoamFile
{
    version     2.0;
    format      ascii;
    class       volScalarField;
    location    "3.5";
    object      p;
}
// * * * * * * * * * * * * * * * * * * * * * * * * * * * * * * * * * * * * * //

dimensions      [1 -1 -2 0 0 0 0];

internalField   nonuniform List<scalar> 
297
(
120182
120182
120182
199201
199201
199200
120182
120182
120182
120182
120182
120182
199201
199201
199200
120182
120182
120182
120182
120182
120182
199201
199200
199201
120182
120182
120182
97411.6
97427.7
97420
161081
161118
161181
97406.5
97423.3
97416.7
97365.1
97324.1
97324
160702
160828
160795
97355.9
97311.2
97315
97243.2
97259.7
96972.3
158682
159925
158725
97237.8
97251.7
96958.4
96304.8
96668.6
96434.4
159836
159523
159624
96332.4
96696.7
96472.4
96808.8
96893.6
96739.1
160675
160419
160512
96819.9
96907.9
96780.8
96964.4
97117.2
96882.3
160724
160632
160573
96966.4
97119.7
96901.7
95286.5
97349.3
96039
152820
158426
155401
95240.8
97343.6
96039.2
95031
97314.9
95872.2
152251
158356
154878
94990.7
97310
95874.4
95027.1
97238.3
95752.6
152812
158460
154939
94996.2
97235.3
95757.9
97411.6
97533.5
97397.7
160747
160764
160832
97379.5
97540.5
97422.6
97488.4
97595.5
97494.2
160769
160846
160935
97492.9
97590.1
97497.6
97514.9
97586.2
97523.8
160791
160895
160986
97529.2
97584.3
97528.3
97410.3
97291.7
97135
160779
160729
160567
97673.4
97596.3
97803.3
97304.6
97097.7
96796.6
160750
160708
160521
97431.4
97332.3
97487.3
97300.6
97052.8
96689.1
160798
160687
160388
97375.3
97272.2
97237
97790.6
97564.7
97642.9
160535
160695
160722
97126.8
97266.1
97361.3
97445.9
97280.1
97399
160484
160675
160677
96786.1
97082.2
97296.1
97185.7
97225.6
97336.7
160356
160653
160698
96666.3
97029.1
97287.2
99169.9
98846
98331.9
160561
160444
160393
99321
98576.1
97544.5
98776.9
98404.5
97917.5
160072
159867
160033
98375
97471.4
96816.4
98210.3
97816.9
97426.7
159302
159101
159385
97243.5
96576.7
96223.8
95659.8
95643.6
95611.4
155001
154912
154746
92875.2
92812.3
92710.5
89876.7
89924.7
89967.1
146788
146769
146706
88711.1
88666.8
88575.9
83840.7
83840.2
83839.9
134639
134586
134511
86231.5
86389.9
86600.9
97550.7
98576.3
99309.6
160430
160480
160594
98312.3
98799.9
99108.9
96816.8
97471
98374.2
160087
159918
160121
97928.3
98386.4
98739.9
96222.6
96577.1
97259
159441
159174
159378
97466.1
97834.6
98204.3
92784.5
92886
92955.3
154875
155060
155155
95730.8
95758.9
95772.2
88702.4
88786.8
88829.3
146901
146969
146987
90115.2
90074.2
90028.2
86722.5
86504.4
86344.6
134694
134768
134818
83991.9
83991.9
83992
)
;

boundaryField
{
    fuel
    {
        type            zeroGradient;
    }
    primary_air
    {
        type            zeroGradient;
    }
    Secondary_air_RHS
    {
        type            zeroGradient;
    }
    Secondary_air_LHS
    {
        type            zeroGradient;
    }
    outlet
    {
        type            totalPressure;
        rho             rho;
        psi             none;
        gamma           1;
        p0              uniform 100000;
        value           nonuniform List<scalar> 
18
(
99992
100000
86486
93218
100000
86365
87734.5
100000
86322.5
86156.5
100000
87634.4
86198.3
100000
93202
86234.2
100000
99992.6
)
;
    }
    stove_body
    {
        type            zeroGradient;
    }
    frontAndBack
    {
        type            empty;
    }
}


// ************************************************************************* //
