/*--------------------------------*- C++ -*----------------------------------*\
  =========                 |
  \\      /  F ield         | OpenFOAM: The Open Source CFD Toolbox
   \\    /   O peration     | Website:  https://openfoam.org
    \\  /    A nd           | Version:  6
     \\/     M anipulation  |
\*---------------------------------------------------------------------------*/
FoamFile
{
    version     2.0;
    format      ascii;
    class       surfaceScalarField;
    location    "3.5";
    object      phi;
}
// * * * * * * * * * * * * * * * * * * * * * * * * * * * * * * * * * * * * * //

dimensions      [1 0 -1 0 0 0 0];

internalField   nonuniform List<scalar> 
675
(
2.06613e-06
-4.01256e-05
0.00016531
-3.0106e-06
-4.0863e-05
0.000173155
-4.04068e-05
0.000164624
1.45569e-05
4.01254e-05
0.00011615
-7.99722e-06
4.08644e-05
0.000150943
4.04084e-05
0.000122467
2.06591e-06
0.000165316
-3.01459e-06
0.000173144
0.000164629
1.64115e-06
-6.40147e-05
0.000227667
-4.70117e-06
-5.8175e-05
0.000237599
-6.33935e-05
0.000223263
1.43666e-05
6.40147e-05
-2.64406e-05
-9.6789e-06
5.81756e-05
5.9139e-05
6.33935e-05
-1.4655e-05
1.641e-06
0.00022767
-4.7014e-06
0.000237599
0.000223261
-8.08411e-06
0.000108475
-1.70114e-06
0.000103905
9.42123e-05
-2.05624e-05
-0.000108476
3.85868e-05
-0.000103906
-9.42131e-05
-8.07965e-06
-1.69913e-06
0.00757566
0.0055659
-0.00994324
0.00887094
0.00577886
-0.00387605
0.00883804
0.00322986
0.00144251
-0.00555574
0.0149723
-0.00425646
-0.00569714
0.0224675
-0.00874977
0.0186213
0.00761247
-0.00996328
0.00890157
-0.00377949
0.00335354
0.0156105
0.00676505
-0.0323107
0.0121221
0.00284115
-0.00322793
0.00860412
0.00674675
0.00579182
-0.00666482
0.022606
0.008872
-0.00265927
0.0249026
-0.00839868
0.0445024
0.0157917
-0.0324383
0.0122034
-0.00285547
0.00717054
-0.00673019
0.0236686
-0.0492393
-0.0053442
0.0110274
-0.0156273
0.0172007
-0.0157858
-0.0471754
-0.023545
0.116913
0.0414886
-0.0106981
-0.0420656
-0.0168857
0.120107
-0.0067174
-0.0490841
-0.00525201
-0.015058
-0.0149742
-0.0169854
-0.0139971
-0.0298121
0.0607917
0.00621731
-0.000179417
-0.0418383
0.0187894
-0.00959694
-0.0162255
0.0320338
0.0180323
0.0136562
0.0405576
-0.0861323
-0.00452802
-0.000212211
-0.0299547
0.052565
0.00986128
0.06325
-0.0872578
-0.017359
-0.0297073
0.0607589
0.00561106
-0.0413405
0.0181772
-0.0158728
0.0313301
0.00416401
-0.0101388
-0.0238745
-0.000189502
-0.00851136
-0.0289867
-0.00651488
-0.00990988
0.0153848
0.0101381
0.00489849
-0.0120161
0.00775804
-0.01886
0.00714708
0.0375603
0.00501564
-0.0245352
-0.000190049
-0.028413
-0.00893892
-0.00511234
-0.0011532
-0.0176235
-0.0152805
-0.000295197
-0.0185344
-0.00922099
-0.0160134
0.00967121
0.00103073
-0.00697518
6.17793e-05
-0.000137306
-0.00941035
0.00890317
0.0194972
-0.00542364
-0.0181011
-0.0146779
-0.0193278
-0.0147162
-0.000907324
-0.00250542
-0.0520959
-0.00133104
-0.00060856
-0.0145955
-0.00200595
-0.0214269
-0.00318997
0.00250335
0.105051
0.00264087
0.000635983
-0.0491354
0.00197714
0.108545
-0.000930569
-0.0520074
-0.00135336
-0.0139933
-0.0206649
-0.00115531
-0.000698726
-0.0564938
-0.000297172
-2.64403e-05
-0.015428
-0.00100796
-0.0270212
-0.00148999
0.000696011
0.0951381
0.00229751
5.51358e-05
-0.0529982
0.000984386
0.0986649
-0.00118504
-0.0564563
-0.000319194
-0.014795
-0.0263021
-0.00192435
-2.8858e-05
-5.83335e-05
0.0014945
-0.00134324
-0.00111616
4.43628e-05
0.00145532
-0.00150395
0.00133027
-0.00195322
-6.36289e-05
0.00539686
-0.00300141
-0.00447486
-0.0155445
-0.00620198
-0.000904627
-0.00600183
-0.00302433
-0.00267576
-0.0163835
-0.00244114
0.00223037
-0.00788358
-0.00188019
-0.00291571
0.00161022
-0.0114539
0.0034295
0.0116926
-0.00156714
0.00570063
-0.00485344
-0.0167173
-0.00575875
-0.00626057
-0.00226415
-0.0147987
0.00374673
0.00125044
0.0020889
-0.01156
-0.00604157
0.00154722
0.00223222
0.000289428
0.00270958
-0.0117116
-0.00138695
-0.00209061
-0.0057464
0.00259228
-0.00373114
-0.00129879
-0.00626857
0.000384997
0.00466823
0.00320532
0.00253963
0.00265209
-0.0121331
-0.00693902
0.0019157
0.00204985
-0.0108678
0.000331058
0.0035433
-0.00178504
-0.000941432
0.00350245
0.00243411
-0.000669396
-0.00382418
-0.0031998
0.00482416
-0.00388056
-0.00271125
-0.00186955
0.00507129
-0.00189525
0.00135076
-0.00269027
-0.00250667
-0.0171572
-0.00104315
0.00180753
-0.017063
-0.00181956
0.00171712
-0.00161006
0.00184323
-0.0172946
-0.00628308
0.00248398
0.0011885
-0.00838012
9.55711e-05
0.00018128
-0.00171464
0.00224583
-0.0105248
-0.0141403
0.00182787
-0.0151231
0.00107865
-0.00211227
-0.0147259
-0.0118774
-0.000873935
0.00286508
-0.011842
-0.000932091
0.00261296
-0.00131911
0.00283806
-0.011516
0.00370036
0.00159204
-0.00177714
0.000795081
-0.000156706
0.00227472
-0.00130165
0.00744869
-0.00438763
-0.010286
0.00283349
-0.0101829
0.000819277
-0.00352045
-0.0100766
0.00173571
0.000463333
0.00411763
0.000229039
-0.0013239
0.00827528
0.00429935
-0.000544829
0.00765913
-0.000855379
-0.000898986
0.0146739
-0.000217276
-0.00025341
-0.00467334
0.0156528
0.00167455
-0.00214051
-0.0151855
0.0146705
-0.000130392
0.00111481
-0.00257782
0.00170586
0.00837659
0.00165937
0.00234699
-0.0107066
0.00679749
0.00190133
-0.000449828
0.000991028
0.00135131
0.0171826
0.00183931
-0.0173621
0.017362
0.00172279
0.00163666
0.0107043
0.00128273
-0.00361428
-0.010512
0.010848
8.71085e-05
0.000886226
-0.00172981
0.0027267
-0.000736717
0.00117943
0.00780516
-0.00461548
-0.00353649
0.000672929
0.00176517
0.000538772
-0.00185656
0.0119358
0.00258277
-0.0114991
0.0122673
0.00206424
0.00231142
4.91928e-05
0.00100496
-0.0046671
-7.29874e-05
0.00101069
0.000869644
-0.00711033
0.00128899
0.0146335
-0.00417768
-0.000151489
-0.000339706
-0.00523732
0.00910971
-0.0033237
0.00659769
0.00311411
-0.00971274
0.0116905
0.00287907
-0.00797248
0.00184385
-0.00533875
0.00926192
-0.00170438
-0.00444462
0.011144
-0.00012844
0.00112473
-0.000825926
0.00310742
0.0116805
-0.0133851
0.0181509
-0.00659888
-3.70779e-05
0.00506084
0.00206556
-0.0168399
0.00799255
0.00197172
-0.0128764
0.00170637
-0.00956438
0.00791685
-0.00139133
-0.0089057
0.00684402
9.39844e-06
0.00415927
-0.00073594
0.00777858
0.00864816
-0.0234246
0.0129928
-0.010934
0.000720856
0.00625383
0.00470517
-0.0277997
0.00628709
0.00285753
-0.0157675
0.00203241
-0.00997659
0.00214995
-0.0043394
-0.00201196
-0.00673099
0.000283499
0.0156141
0.0011547
0.016561
0.00945215
-0.0372159
0.00235092
-0.00354895
0.0133365
-0.0103308
0.0170649
-0.0345336
-0.00697654
0.0140141
-0.0331357
0.0155131
-0.0324659
-0.0032808
-0.00285164
0.0211845
-0.00514004
0.00268945
0.0287974
0.00111082
0.0258238
0.00621189
-0.0462791
0.0170256
-0.0116725
0.0314734
-0.00111014
0.00761841
-0.0410439
-0.000511561
0.00712182
-0.0408582
0.00767
-0.0406495
0.00444332
-0.00190117
0.0262598
0.00942225
-0.00269987
0.0336391
0.00090012
0.0420149
-0.00290844
-0.0452729
0.00254424
-0.0198258
0.0349171
-0.000160828
0.0147377
-0.000149574
0.0146864
0.0147002
-0.000123499
-0.022856
0.00162885
-0.022121
-0.0212071
-0.0153052
-0.0163683
-0.0181017
0.000791063
1.85969e-05
-0.0116161
9.14653e-05
-0.00657321
0.00166914
-0.0132816
-0.0109752
-0.00182108
0.00306304
-0.00914808
-0.00282756
0.00109361
-0.00306143
-0.00441419
-0.0113725
-0.00517473
-0.00639665
-0.00780345
-0.00945777
-0.0130455
0.000677911
0.000872743
-0.00866064
-6.5676e-05
-0.0108897
0.00135197
-0.0232955
-0.00661113
-0.00169231
0.00765563
-0.00787976
-0.00193473
0.00423251
-0.00203517
-0.00890387
-0.00773139
-0.00921061
-0.00491857
-0.0125509
-0.0164119
-0.00281891
-0.00120448
0.013171
-0.00949344
-0.000388818
-0.00382713
0.00429577
-0.0370896
0.00740527
-0.00189617
0.0156131
-0.00181595
-0.0027579
0.0158232
-0.00462559
-0.00179695
-0.00598626
-0.00979719
-0.00602161
-0.0152736
-0.0270595
-0.0168097
-0.00115198
0.0311278
-0.00616779
-0.0029604
-0.011511
0.00282211
-0.0460456
0.00472892
-0.0154579
0.0251845
0.00301988
-0.0139753
0.0285433
-0.0171069
0.0211502
0.00705539
-0.0323107
0.0103744
-0.0325666
-0.0337896
-0.00248808
-0.000836303
0.0344503
0.00300849
0.0027211
-0.0197266
0.00194416
-0.0449744
-0.00997902
-0.00755928
0.0418809
-0.00480952
-0.00734634
0.0334366
-0.00787501
0.0261698
0.000497352
-0.0403642
0.00103347
-0.0404493
-0.040631
0.0161842
0.0209887
0.015213
0.0220788
0.0228791
-0.00181028
-0.0145655
8.21018e-05
-0.0147979
-0.0148962
0.000152459
0.000182657
)
;

boundaryField
{
    fuel
    {
        type            calculated;
        value           nonuniform List<scalar> 
36
(
0.000127266
0.000210942
0.000127266
0.000127266
0.000210942
0.000127266
0.000127266
0.000210943
0.000127266
-0.000127266
-0.000210942
-0.000127266
-0.000127266
-0.000210942
-0.000127266
-0.000127266
-0.000210942
-0.000127266
0
0
0
0
0
0
0
0
0
0
0
0
0
0
0
0
0
0
)
;
    }
    primary_air
    {
        type            calculated;
        value           nonuniform List<scalar> 9(-0.00320327 -0.00529699 -0.00320311 -0.00320381 -0.00529819 -0.00320366 -0.00320355 -0.00530026 -0.00320344);
    }
    Secondary_air_RHS
    {
        type            calculated;
        value           nonuniform List<scalar> 9(0.00631628 0.0102204 0.00631629 0.00630531 0.010186 0.00630545 0.00629744 0.01019 0.00629779);
    }
    Secondary_air_LHS
    {
        type            calculated;
        value           nonuniform List<scalar> 9(0.00626679 0.0100507 0.00626378 0.00624998 0.0100132 0.00624734 0.00624973 0.0100501 0.00624769);
    }
    outlet
    {
        type            calculated;
        value           nonuniform List<scalar> 
18
(
-0.0027228
0.0792395
-0.0550836
-0.0408365
0.0684151
-0.0552787
-0.0526422
0.0640294
-0.0553455
-0.0556235
0.0639735
-0.0528262
-0.0555587
0.0686903
-0.0408858
-0.0555022
0.0795475
-0.0026591
)
;
    }
    stove_body
    {
        type            calculated;
        value           uniform 0;
    }
    frontAndBack
    {
        type            empty;
        value           nonuniform 0();
    }
}


// ************************************************************************* //
