/*--------------------------------*- C++ -*----------------------------------*\
  =========                 |
  \\      /  F ield         | OpenFOAM: The Open Source CFD Toolbox
   \\    /   O peration     | Website:  https://openfoam.org
    \\  /    A nd           | Version:  6
     \\/     M anipulation  |
\*---------------------------------------------------------------------------*/
FoamFile
{
    version     2.0;
    format      ascii;
    class       volScalarField;
    location    "3.5";
    object      T;
}
// * * * * * * * * * * * * * * * * * * * * * * * * * * * * * * * * * * * * * //

dimensions      [0 0 0 1 0 0 0];

internalField   nonuniform List<scalar> 
297
(
291.812
291.807
291.818
293.017
293.015
293.029
291.812
291.807
291.818
291.924
291.861
292.165
293.817
293.386
295.372
291.924
291.861
292.165
292.35
292.207
293.558
297.53
299.726
310.635
292.35
292.207
293.558
411.398
401.671
359.23
354.984
353.713
336.971
411.374
401.904
359.025
448.55
450.281
412.952
399.065
370.81
356.773
448.372
452.062
412.866
448.601
458.416
592.775
429.713
452.604
437.071
448.491
471.709
604.224
402.276
384.578
459.071
497.818
485.857
525.594
400.672
387.376
466.924
370.623
382.907
441.548
497.722
462.796
525.693
367.366
386.946
460.343
319.32
361.682
401.618
399.872
412.086
525.644
315.286
352.626
410.002
446.835
406.161
646.127
453.531
481.865
479.016
445.9
419.268
669.15
428.394
382.634
530.391
473.353
481.769
489.136
427.119
389.836
543.12
413.733
380.99
501.021
494.6
481.846
522.196
412.25
387.86
511.408
308.127
322.365
329.843
339.504
419.754
510.767
304.942
329.296
336.206
304.932
313.582
318.256
322.83
376.16
505.33
303.292
320.964
326.847
305.19
313.951
318.747
326.47
355.912
415.615
312.67
321.697
322.333
301.219
301.241
300.797
301.669
304.664
304.557
301.774
302.946
302.99
318.163
306.95
302.124
445.332
428.958
315.123
319.744
302.959
303.081
318.499
311.768
317.849
402.967
394.596
370.932
318.756
303.107
302.821
303.078
303.026
303.342
304.328
305.12
305.148
300.223
300.648
300.926
303.096
302.981
304.93
304.991
318.191
318.75
301.759
302.535
303.252
302.908
303.161
305.197
313.57
318.226
322.779
304.549
303.997
304.811
303.96
303.852
303.368
304.06
304.307
304.175
299.706
300.846
300.091
303.821
303.648
303.225
304.397
304.547
304.343
299.839
301.785
301.623
303.36
303.244
302.782
304.427
305.705
308.369
299.374
302.084
304.203
303.002
302.687
302.044
305.499
305.102
305.516
299.018
299.57
299.929
298.908
298.99
298.323
303.079
301.728
302.443
295.208
294.674
295.719
292.073
292.053
291.446
293.2
290.417
286.77
291.138
290.722
299.231
300.695
301.537
301.408
304.481
304.539
304.436
303.253
303.603
303.789
301.593
301.799
300.911
304.495
304.737
304.659
303.207
303.588
303.629
315.317
302.023
300.235
335.756
313.945
304.745
302.705
303.139
303.225
303.817
300.885
297.676
319.275
312.39
305.634
302.067
302.655
302.87
301.51
296.171
295.548
311.258
305.427
304.132
296.275
298.841
298.859
304.556
292.249
291.471
292.436
292.519
293.157
291.332
292.017
292.074
)
;

boundaryField
{
    fuel
    {
        type            fixedValue;
        value           uniform 293;
    }
    primary_air
    {
        type            fixedValue;
        value           uniform 293;
    }
    Secondary_air_RHS
    {
        type            fixedValue;
        value           uniform 293;
    }
    Secondary_air_LHS
    {
        type            fixedValue;
        value           uniform 293;
    }
    outlet
    {
        type            inletOutlet;
        inletValue      uniform 293;
        value           nonuniform List<scalar> 
18
(
293
292.437
293
293
292.52
293
293
293.157
293
293
293.2
293
293
290.417
293
293
286.77
293
)
;
    }
    stove_body
    {
        type            fixedValue;
        value           uniform 293;
    }
    frontAndBack
    {
        type            empty;
    }
}


// ************************************************************************* //
