/*--------------------------------*- C++ -*----------------------------------*\
  =========                 |
  \\      /  F ield         | OpenFOAM: The Open Source CFD Toolbox
   \\    /   O peration     | Website:  https://openfoam.org
    \\  /    A nd           | Version:  6
     \\/     M anipulation  |
\*---------------------------------------------------------------------------*/
FoamFile
{
    version     2.0;
    format      ascii;
    class       volVectorField;
    location    "3.5";
    object      U;
}
// * * * * * * * * * * * * * * * * * * * * * * * * * * * * * * * * * * * * * //

dimensions      [0 1 -1 0 0 0 0];

internalField   nonuniform List<vector> 
297
(
(68.925 -0.00929461 0.261851)
(68.9235 -0.000229184 0.253396)
(68.9261 0.0132985 0.266499)
(-3.78398e-07 0.0566242 0.329756)
(-4.98875e-07 0.0104316 0.324892)
(5.2389e-07 -0.0494973 0.318009)
(-68.925 -0.00930258 0.261854)
(-68.9236 -0.000232725 0.253383)
(-68.9261 0.0132607 0.266509)
(68.9429 -0.0146246 0.277356)
(68.9299 -0.00477909 0.291489)
(69.0024 0.00801305 0.260163)
(-5.19362e-07 0.0415328 -0.216809)
(1.41831e-06 0.00874826 -0.0342567)
(-5.29208e-07 -0.0398097 -0.143366)
(-68.9429 -0.0146287 0.277365)
(-68.9299 -0.00477996 0.291478)
(-69.0024 0.00800744 0.260165)
(69.0448 -0.0873564 0.539162)
(69.0135 -0.0245911 0.581775)
(69.3362 0.0620287 0.545525)
(-1.25197e-07 -0.349909 0.470411)
(1.06814e-07 0.0081088 0.375306)
(-3.83053e-08 0.428241 0.39773)
(-69.0448 -0.0873564 0.539168)
(-69.0135 -0.0245549 0.581771)
(-69.3361 0.0620072 0.545503)
(63.6853 7.15088 -7.71577)
(62.0776 6.56918 -3.87022)
(55.1326 3.44011 3.0761)
(-0.000649212 1.91178 4.27109)
(-0.000561882 -0.338012 4.0762)
(-0.000404469 0.351789 6.27295)
(-63.6865 7.09045 -7.65832)
(-62.1141 6.63987 -3.69846)
(-55.0958 3.43064 3.36277)
(69.7507 11.5629 -14.624)
(70.036 10.1791 -10.4445)
(64.1955 11.1009 11.2777)
(-0.00133837 11.2818 38.2358)
(-0.00172537 1.44217 29.1608)
(-0.00116265 0.316598 35.9494)
(-69.7298 11.4744 -14.8907)
(-70.3204 10.4213 -10.6016)
(-64.1794 11.2374 11.1091)
(68.8417 8.93821 -19.5804)
(71.0535 -11.5797 -3.19613)
(91.2783 -16.1751 34.6845)
(-0.000861122 -8.3381 54.1002)
(-0.00130886 -4.56034 12.69)
(-0.00222343 10.4861 56.9905)
(-68.8302 8.75731 -19.9394)
(-73.1206 -11.8928 -3.45079)
(-93.048 -16.0238 36.4001)
(62.622 -0.71154 -53.6818)
(59.553 -5.99436 -30.6493)
(71.18 -0.201523 -38.2383)
(0.00499942 0.755717 -1.52794)
(0.00502403 8.44854 -37.6839)
(0.00728503 -5.28801 32.075)
(-62.3781 -0.827028 -53.4764)
(-59.9747 -6.4694 -30.5978)
(-72.3333 -0.131979 -37.8358)
(57.9485 20.773 -38.8217)
(59.4587 -4.90583 -38.6457)
(69.14 -9.36291 -22.1995)
(0.00203528 -1.64046 -11.233)
(0.00241446 3.43137 -17.349)
(0.00800883 -8.13057 23.4769)
(-57.4269 21.0918 -38.3952)
(-60.1029 -4.99335 -38.5879)
(-72.0067 -7.23452 -21.9742)
(49.9073 22.3429 -30.7759)
(56.2782 -15.48 -30.0989)
(62.5741 -24.4461 -24.1937)
(0.00029387 0.974954 -3.9738)
(0.000372527 2.83959 -21.8607)
(0.00372458 -4.85708 22.2246)
(-49.2758 22.7505 -30.6597)
(-54.8733 -16.5561 -29.2371)
(-63.8736 -21.7602 -24.3526)
(58.0997 11.63 -64.5807)
(59.3699 -19.199 -16.3794)
(92.112 -41.8523 -30.6219)
(-0.00792224 -6.168 74.9496)
(-0.000936285 -3.3227 -39.7639)
(3.56657e-05 1.23324 76.3041)
(-57.9834 11.4371 -64.297)
(-61.2026 -20.1803 -16.1908)
(-95.4452 -43.5676 -30.1594)
(58.2167 6.70113 -67.7633)
(57.1162 -13.4885 -15.3422)
(75.1098 -15.3431 -41.5679)
(-0.00605328 -4.48673 83.758)
(-0.00083026 0.705899 -41.4453)
(0.00039122 1.57485 83.2713)
(-57.9354 6.49701 -67.5118)
(-58.1354 -14.2652 -15.0279)
(-76.985 -15.7339 -41.5675)
(59.8332 3.14818 -64.2796)
(58.5066 -10.7513 -20.2854)
(67.5826 -8.8105 -40.127)
(-0.00456624 -2.74638 83.0468)
(-0.000527216 2.859 -40.1311)
(0.000908658 -5.34057 90.0093)
(-59.8671 2.96509 -64.062)
(-59.5671 -11.2907 -19.9013)
(-69.0585 -8.93097 -39.8881)
(47.1417 38.1132 -8.22078)
(49.5571 -0.992877 -9.63934)
(50.5611 -40.6423 -9.10449)
(-0.0039645 -3.52303 -4.78727)
(0.00108415 -8.38381 -5.74309)
(0.00461307 -2.54562 15.7773)
(-46.8084 40.5351 -9.8448)
(-50.4976 -5.09881 -10.7344)
(-51.4256 -37.2287 -7.10547)
(47.1841 29.675 -0.521499)
(48.518 -5.41133 -1.73147)
(49.3338 -30.5185 3.23121)
(0.000523843 0.203461 -3.3166)
(-0.000732855 -7.66626 -5.1573)
(0.000626281 -0.594425 7.56862)
(-47.0336 28.3934 3.72356)
(-49.6424 -14.9628 -2.39864)
(-50.5746 -29.9985 -0.287081)
(47.4936 1.44135 2.1649)
(48.8516 -2.28508 0.320737)
(49.6512 2.49504 -1.70076)
(0.00170606 -8.2965 -1.68147)
(-0.000240597 -6.52253 -0.768053)
(0.000678312 2.80174 -0.0482377)
(-48.609 -7.58342 -2.57944)
(-49.9652 -9.17428 1.78093)
(-50.135 -4.8693 3.54366)
(46.1306 -45.5206 -4.73715)
(46.0366 -50.44 -8.5147)
(45.854 -53.7972 -9.62823)
(0.0289755 -3.02778 -1.61808)
(0.0339478 -13.4849 -2.96658)
(0.0736983 -18.5435 -3.40376)
(-45.3157 -39.9077 -3.07704)
(-46.5578 -45.578 -7.74498)
(-46.9363 -41.5596 -14.28)
(48.9286 -33.0561 7.63865)
(47.4715 -35.2338 7.09387)
(46.6658 -41.4253 5.02019)
(0.0204879 7.057 1.63853)
(0.0366593 17.9273 4.22731)
(0.0790798 -7.07929 10.2753)
(-48.7165 -31.1518 3.93188)
(-47.0148 -34.9779 -1.76665)
(-47.1051 -26.8315 -10.1359)
(49.5668 1.92831 8.63165)
(48.6444 7.74394 9.47193)
(49.1157 18.7201 11.8366)
(0.011012 9.59258 -1.81417)
(0.031604 18.2454 1.38248)
(0.0734565 25.8728 5.39424)
(-49.5648 -9.10414 12.6789)
(-47.2868 1.5857 13.7309)
(-47.1867 -15.5879 -15.4662)
(46.9461 42.8323 -14.5135)
(46.5719 47.1664 -7.87468)
(45.5095 41.5915 -2.91224)
(-0.0730525 18.9464 -3.10485)
(-0.0332866 12.6166 -4.12286)
(-0.0314008 5.18961 0.286867)
(-45.6843 53.8389 -9.64875)
(-45.8582 50.4147 -8.61356)
(-46.1268 45.9794 -5.09799)
(47.1101 28.0633 -11.0884)
(46.9578 36.1086 -2.07173)
(46.3954 31.8855 3.12246)
(-0.0731404 8.21496 9.75621)
(-0.022999 -15.1764 1.81996)
(-0.0119358 -4.44349 -1.58861)
(-46.6476 41.552 5.34151)
(-46.8347 35.4584 7.59975)
(-46.7141 33.3063 8.13991)
(47.2071 15.9557 -14.6578)
(47.3032 -2.62093 15.0818)
(47.4921 8.35054 12.2973)
(-0.0590042 -22.2446 5.38005)
(-0.0228136 -13.114 1.32692)
(-0.00580138 -8.40275 -0.223068)
(-47.0913 -19.9919 9.35386)
(-47.3541 -11.049 5.38598)
(-47.299 -6.42644 3.81423)
(46.6636 7.51395 -25.0208)
(46.7396 20.9191 -22.7089)
(46.7103 32.3981 -17.7867)
(0.0165415 13.0033 -9.65419)
(-0.029703 14.8288 -6.48491)
(-0.0863621 20.7104 -3.02141)
(-45.1361 24.3023 -31.8874)
(-44.8741 31.2174 -23.6017)
(-46.2519 51.5415 -17.8798)
(46.3328 5.49442 -36.9421)
(46.384 13.8416 -32.0708)
(46.8125 22.0225 -24.9249)
(-0.043898 7.30765 -8.52601)
(-0.103413 11.0155 2.86757)
(-0.121511 15.5353 12.1004)
(-45.5953 6.02206 -55.1148)
(-45.6939 22.0104 -30.2377)
(-46.9346 39.591 -4.89866)
(47.6246 -0.705926 -49.057)
(47.1076 7.62544 -44.6495)
(47.4104 9.33905 -33.4243)
(-0.106586 4.51441 -18.2898)
(-0.136901 -5.89575 16.2723)
(-0.131053 -17.8174 19.3764)
(-47.4275 3.45853 -71.6056)
(-46.0102 20.6759 -21.7736)
(-46.0893 -15.2233 22.2917)
(46.6613 -3.93382 -77.7977)
(46.3786 -6.38951 -71.3311)
(46.347 -3.88274 -72.2644)
(-0.322033 -2.46558 34.3833)
(-0.326636 -0.364073 48.4434)
(-0.335394 -10.8283 44.269)
(-47.1419 -8.74094 -103.814)
(-46.8947 11.2237 14.0314)
(-47.0418 -2.87619 68.8943)
(45.8476 0.916333 -137.896)
(45.8048 0.418369 -137.089)
(45.6945 0.797882 -136.66)
(-0.141441 1.10546 71.9275)
(-0.151399 3.51967 78.1557)
(-0.167723 -1.70294 75.9909)
(-45.8017 2.69576 -138.386)
(-45.8159 -5.52294 -76.7328)
(-45.7344 1.71136 111.823)
(43.9357 -0.144958 -167.172)
(43.9147 -0.0512045 -166.879)
(43.8081 -0.11706 -166.627)
(0.299695 -1.16721 162.802)
(0.315907 0.577912 173.473)
(0.336813 -0.876887 199.041)
(-43.1266 -5.53693 -156.658)
(-42.8851 -7.58883 -112.632)
(-43.9084 -3.60457 -3.57852)
(46.3478 -51.4139 -17.7572)
(44.9865 -31.2266 -23.5827)
(45.4042 -24.4098 -31.8571)
(0.083623 -20.3816 -2.93349)
(0.0246226 -14.6076 -6.27188)
(-0.0220138 -12.9041 -9.53312)
(-46.7124 -31.4927 -17.3039)
(-46.7258 -20.3021 -22.2908)
(-46.6654 -7.09442 -24.2128)
(46.937 -39.8284 -4.9341)
(45.7042 -21.9013 -30.2204)
(45.7682 -6.23889 -54.9493)
(0.122677 -15.2232 12.4275)
(0.101443 -10.9152 2.64783)
(0.0399801 -7.29491 -8.55159)
(-46.8226 -21.2427 -23.7699)
(-46.4042 -13.4837 -31.1278)
(-46.3376 -5.1696 -35.919)
(47.7352 13.0179 23.436)
(45.9835 -20.6899 -21.9412)
(47.5683 -3.53424 -71.2498)
(0.147176 20.7136 19.7647)
(0.142502 7.25736 17.2745)
(0.104308 -4.62612 -18.0301)
(-47.3806 -8.56878 -31.8625)
(-47.0811 -7.49749 -42.9842)
(-47.6009 0.891922 -47.5393)
(47.6529 1.66926 69.1248)
(47.0976 -10.2015 14.2489)
(46.9354 8.82271 -103.062)
(0.355651 11.7192 44.6247)
(0.338967 0.268752 48.9999)
(0.325592 1.88934 34.6704)
(-46.3403 3.64738 -71.9981)
(-46.3665 6.3434 -70.0804)
(-46.6294 3.79681 -75.9344)
(46.6243 -2.41982 112.264)
(46.0521 5.85254 -76.5094)
(45.8574 -2.67609 -137.583)
(0.174995 1.77433 76.8229)
(0.156582 -3.74187 77.9606)
(0.145754 -1.411 71.2253)
(-45.3543 -0.691293 -135.246)
(-45.7828 -0.48335 -135.654)
(-45.8362 -0.847686 -136.431)
(44.6826 3.19204 -3.71863)
(43.1133 7.62605 -112.49)
(43.1774 5.54814 -155.934)
(-0.339081 0.783253 202.154)
(-0.313045 -0.602664 173.994)
(-0.294408 1.09053 162.906)
(-43.7576 0.0903357 -164.855)
(-43.8975 0.0719139 -165.707)
(-43.9228 0.135918 -166.007)
)
;

boundaryField
{
    fuel
    {
        type            fixedValue;
        value           uniform (0 0 0.25);
    }
    primary_air
    {
        type            fixedValue;
        value           uniform (0 0 2.5);
    }
    Secondary_air_RHS
    {
        type            fixedValue;
        value           uniform (0 50 0);
    }
    Secondary_air_LHS
    {
        type            fixedValue;
        value           uniform (0 -50 0);
    }
    outlet
    {
        type            pressureInletOutletVelocity;
        value           nonuniform List<vector> 
18
(
(0 0 -3.71863)
(-0.339081 0.783253 202.154)
(0 0 -164.855)
(0 0 -112.49)
(-0.313045 -0.602664 173.994)
(0 0 -165.707)
(0 0 -155.934)
(-0.294408 1.09053 162.906)
(0 0 -166.007)
(0 0 -167.172)
(0.299695 -1.16721 162.802)
(0 0 -156.658)
(0 0 -166.879)
(0.315907 0.577912 173.473)
(0 0 -112.632)
(0 0 -166.627)
(0.336813 -0.876887 199.041)
(0 0 -3.57852)
)
;
    }
    stove_body
    {
        type            noSlip;
    }
    frontAndBack
    {
        type            empty;
    }
}


// ************************************************************************* //
