/*--------------------------------*- C++ -*----------------------------------*\
  =========                 |
  \\      /  F ield         | OpenFOAM: The Open Source CFD Toolbox
   \\    /   O peration     | Website:  https://openfoam.org
    \\  /    A nd           | Version:  6
     \\/     M anipulation  |
\*---------------------------------------------------------------------------*/
FoamFile
{
    version     2.0;
    format      ascii;
    class       volScalarField;
    location    "0.0225";
    object      N2;
}
// * * * * * * * * * * * * * * * * * * * * * * * * * * * * * * * * * * * * * //

dimensions      [0 0 0 0 0 0 0];

internalField   nonuniform List<scalar> 
3773
(
0.448836
0.462025
0.454703
0.459124
0.461647
0.456416
0.454066
0.489637
0.501367
0.493089
0.498823
0.501039
0.494548
0.496727
0.376215
0.3992
0.382478
0.383164
0.389438
0.387182
0.384098
0.350076
0.362144
0.366467
0.363629
0.362388
0.367723
0.349875
0.377296
0.392847
0.383351
0.38133
0.390006
0.390198
0.385811
0.494467
0.501556
0.498424
0.49987
0.505444
0.493583
0.495112
0.452903
0.461719
0.45919
0.46054
0.465196
0.455886
0.453232
0.546787
0.556955
0.551587
0.552511
0.549757
0.547894
0.550694
0.95775
0.974817
0.974174
0.973928
0.973454
0.97321
0.957305
0.961153
0.96699
0.960468
0.963626
0.966265
0.958432
0.962599
0.96046
0.975065
0.976119
0.975328
0.975592
0.977259
0.961943
0.961544
0.976304
0.964057
0.963446
0.967481
0.962861
0.962885
0.958115
0.974535
0.973382
0.973384
0.973997
0.973975
0.95809
0.553852
0.550243
0.552399
0.550172
0.555408
0.550389
0.551626
0.577905
0.598719
0.595278
0.597526
0.597064
0.593019
0.579513
0.927117
0.948475
0.948549
0.94756
0.94388
0.943475
0.926914
0.981964
0.99549
0.994036
0.99472
0.99465
0.993593
0.981438
0.985479
0.998642
0.998974
0.998961
0.999008
0.998812
0.985631
0.981695
0.995865
0.994328
0.994761
0.994987
0.993886
0.981551
0.929424
0.945212
0.945381
0.943806
0.946488
0.945203
0.928035
0.582993
0.601138
0.597769
0.596315
0.60138
0.593609
0.58083
0.607096
0.638572
0.634392
0.634137
0.631819
0.631088
0.609764
0.932238
0.951223
0.951821
0.952125
0.9493
0.948114
0.931721
0.982388
0.996453
0.996403
0.996656
0.996566
0.996223
0.982094
0.986602
0.999795
0.999884
0.999884
0.999878
0.999735
0.986557
0.982279
0.996237
0.99644
0.996784
0.99688
0.996126
0.982225
0.933244
0.948747
0.94949
0.948492
0.951543
0.94923
0.932438
0.611932
0.630596
0.634158
0.632164
0.636115
0.632981
0.61142
0.638599
0.664279
0.662161
0.663176
0.660956
0.660547
0.642241
0.939589
0.956906
0.957315
0.958576
0.957695
0.956634
0.939105
0.982741
0.996768
0.996912
0.997164
0.99706
0.996809
0.982591
0.986703
0.999896
0.999951
0.999954
0.999953
0.999822
0.986616
0.982683
0.996726
0.996994
0.997091
0.9973
0.996762
0.982669
0.94015
0.956971
0.957632
0.957593
0.95888
0.957237
0.939795
0.64396
0.657734
0.66393
0.662912
0.664827
0.662685
0.643937
0.692283
0.720462
0.723929
0.727131
0.726019
0.720869
0.697002
0.949702
0.967687
0.967985
0.96883
0.968355
0.967512
0.949918
0.984222
0.998075
0.998303
0.998384
0.998334
0.998179
0.984184
0.986995
0.999944
0.999989
0.999988
0.999987
0.999832
0.986862
0.984139
0.99791
0.998259
0.998266
0.998301
0.998158
0.984141
0.950489
0.966562
0.968406
0.968355
0.96867
0.967713
0.949802
0.695333
0.710772
0.724545
0.724485
0.724493
0.719532
0.693823
0.949041
0.964932
0.970532
0.973197
0.97377
0.968723
0.952708
1
1
1
1
1
1
1
1
1
1
1
1
1
1
1
1
1
1
1
1
1
1
1
1
1
1
1
1
1
1
1
1
1
1
1
0.948102
0.957435
0.97087
0.971229
0.968518
0.965767
0.94561
0.998408
0.999372
0.999347
0.999221
0.999017
0.998482
0.997681
0.997636
0.998937
0.99882
0.998677
0.99853
0.99819
0.99713
0.995462
0.996625
0.996627
0.996656
0.996535
0.996266
0.995363
0.992312
0.992614
0.992266
0.992642
0.993042
0.992999
0.992444
0.993961
0.995729
0.995933
0.995861
0.995778
0.995278
0.993858
0.996563
0.998287
0.99861
0.998587
0.998499
0.998317
0.996905
0.997823
0.999105
0.99921
0.999181
0.99907
0.998795
0.997673
0.999883
0.999854
0.999834
0.999823
0.999816
0.99967
0.998445
0.999435
0.999804
0.999778
0.999737
0.999755
0.999609
0.998062
0.996908
0.999121
0.999015
0.999371
0.999396
0.998768
0.996774
0.993178
0.993506
0.993091
0.994031
0.994671
0.993918
0.993687
0.996737
0.997708
0.997814
0.997689
0.997852
0.998374
0.99778
0.99859
0.999724
0.99981
0.99979
0.999787
0.999881
0.999016
0.999817
0.999853
0.999857
0.999864
0.999874
0.999892
0.999055
0.999884
0.999853
0.999833
0.999793
0.999755
0.999798
0.998557
0.999552
0.999755
0.999701
0.999658
0.999661
0.999678
0.998314
0.998365
0.999594
0.999659
0.999724
0.999688
0.99948
0.997418
0.994736
0.995389
0.994904
0.995099
0.996073
0.995913
0.994331
0.997248
0.998189
0.998364
0.998365
0.998594
0.998748
0.998514
0.999063
0.999507
0.999706
0.999759
0.999755
0.999836
0.999562
0.999943
0.999846
0.999832
0.999847
0.99987
0.99989
0.99959
0.999883
0.999851
0.999834
0.999762
0.999698
0.999577
0.998561
0.999572
0.999704
0.999608
0.999586
0.999591
0.999522
0.998587
0.999034
0.999672
0.999644
0.999579
0.999482
0.999358
0.998019
0.995182
0.996039
0.995901
0.995819
0.996692
0.9969
0.994842
0.997526
0.998571
0.998618
0.998767
0.99896
0.998999
0.998976
0.999146
0.999394
0.999589
0.999717
0.999747
0.999787
0.999899
0.999936
0.999781
0.999799
0.999843
0.999866
0.999886
0.999817
0.999888
0.999844
0.999833
0.999746
0.999651
0.999225
0.998653
0.999537
0.999643
0.999563
0.999542
0.999496
0.999482
0.999207
0.999352
0.9996
0.999442
0.999359
0.999385
0.999379
0.998725
0.996069
0.996621
0.996215
0.996224
0.997081
0.997168
0.99599
0.997681
0.998725
0.998984
0.998984
0.999081
0.999192
0.999257
0.999728
0.999654
0.999683
0.999748
0.999794
0.999781
0.999905
0.999915
0.99976
0.999784
0.999841
0.999866
0.999881
0.999926
0.999894
0.999833
0.999825
0.999732
0.999672
0.999468
0.998954
0.999423
0.999409
0.999509
0.999512
0.99943
0.999463
0.99982
0.999378
0.999411
0.999126
0.999031
0.999151
0.999506
0.999616
0.996552
0.996695
0.996357
0.996587
0.997432
0.997556
0.997162
0.997631
0.998566
0.998953
0.999235
0.99927
0.999258
0.999287
0.99993
0.999665
0.999682
0.999747
0.999805
0.999792
0.999926
0.999913
0.99974
0.99976
0.999816
0.999865
0.99988
0.999958
0.999939
0.999852
0.999808
0.99971
0.999655
0.99964
0.999663
0.999396
0.999633
0.999503
0.999476
0.999386
0.999394
0.999859
0.999377
0.999378
0.99901
0.998737
0.998958
0.999139
0.999654
0.996842
0.996922
0.996397
0.99668
0.997557
0.997704
0.997459
0.997533
0.998142
0.99894
0.999278
0.999328
0.99941
0.999378
0.999903
0.999289
0.999453
0.999584
0.999734
0.999788
0.999965
0.99993
0.999714
0.999739
0.999789
0.999863
0.99989
0.999966
0.999662
0.999856
0.999845
0.999679
0.999637
0.999765
0.999838
0.999768
0.999685
0.999574
0.999409
0.999406
0.999397
0.999451
0.999519
0.998724
0.998396
0.998182
0.998946
0.999594
0.999751
0.997515
0.996957
0.996435
0.996596
0.997446
0.998018
0.998645
0.998123
0.998083
0.998626
0.999031
0.999217
0.999357
0.999971
0.9997
0.99935
0.999433
0.999572
0.999705
0.999798
0.99985
0.999819
0.999776
0.999776
0.999798
0.999868
0.99992
0.999912
0.999651
0.999852
0.999847
0.999685
0.999612
0.999736
0.999765
0.99961
0.999201
0.999265
0.999205
0.99933
0.999424
0.999444
0.999472
0.998593
0.998176
0.997727
0.99861
0.99948
0.999679
0.99763
0.997102
0.996545
0.996615
0.997452
0.998091
0.998691
0.99897
0.998517
0.998661
0.998971
0.999279
0.999369
0.999858
0.999681
0.99946
0.999326
0.999373
0.999467
0.999634
0.999809
0.999819
0.999763
0.999772
0.999796
0.999855
0.999929
0.999918
0.99965
0.999853
0.999835
0.999707
0.999623
0.99973
0.999764
0.999567
0.999017
0.998976
0.999099
0.99929
0.99944
0.999476
0.999358
0.998438
0.99778
0.997634
0.998619
0.999418
0.999675
0.99782
0.997297
0.996652
0.996671
0.997496
0.998225
0.998726
0.999685
0.999286
0.99895
0.999022
0.99926
0.999447
0.999758
0.999607
0.999488
0.999434
0.999407
0.999388
0.999531
0.999713
0.999794
0.999745
0.999773
0.999816
0.999869
0.99994
0.999955
0.999678
0.999864
0.999796
0.999704
0.999632
0.999687
0.99978
0.999454
0.99877
0.998881
0.999055
0.999273
0.999451
0.999492
0.99934
0.998276
0.997778
0.997637
0.998517
0.999333
0.999677
0.997778
0.997223
0.996573
0.996679
0.997522
0.99824
0.998679
0.999552
0.999573
0.999351
0.999225
0.999311
0.999472
0.999732
0.999572
0.999558
0.999579
0.999614
0.999593
0.999605
0.999701
0.999729
0.999706
0.999775
0.999819
0.999873
0.999933
0.999966
0.999773
0.999915
0.999783
0.999719
0.999657
0.999693
0.9998
0.999301
0.998819
0.999054
0.999352
0.999354
0.999465
0.999515
0.999331
0.998288
0.997834
0.997645
0.998173
0.999099
0.999628
0.997703
0.997035
0.996516
0.996644
0.997474
0.998151
0.998476
0.999405
0.998991
0.999116
0.999194
0.999334
0.999415
0.999742
0.999627
0.999663
0.999682
0.999739
0.999767
0.999667
0.999746
0.999738
0.999755
0.999824
0.999856
0.999886
0.999924
0.999966
0.999911
0.999934
0.999859
0.999834
0.999719
0.999775
0.999827
0.999128
0.999208
0.999581
0.999628
0.999409
0.999469
0.999564
0.999203
0.998401
0.99829
0.998022
0.998131
0.99855
0.999433
0.997795
0.997026
0.996536
0.99666
0.997251
0.99795
0.998324
0.998995
0.998539
0.998857
0.99925
0.99926
0.99927
0.999422
0.999705
0.999647
0.999573
0.99975
0.999888
0.999711
0.999623
0.99976
0.999799
0.999869
0.999877
0.999912
0.999937
0.999968
0.999991
0.999957
0.999906
0.99987
0.999848
0.999849
0.999861
0.999356
0.999666
0.999855
0.999745
0.999281
0.999361
0.999721
0.998804
0.99837
0.998199
0.998412
0.998432
0.998574
0.999079
0.997708
0.996967
0.996887
0.997005
0.997266
0.997599
0.998304
0.998945
0.998774
0.999082
0.999273
0.99928
0.999152
0.999496
0.999765
0.999623
0.999453
0.99965
0.999937
0.999934
0.999849
0.999833
0.999852
0.999876
0.999901
0.999924
0.999966
0.999978
0.999993
0.999853
0.99981
0.999677
0.999614
0.999509
1
1
0.99959
0.999417
0.999456
0.999378
0.99938
1
0.999288
0.999239
0.998623
0.998379
0.998991
0.999331
1
0.997165
0.996934
0.996426
0.996661
0.997526
0.997866
0.997849
0.997561
0.998101
0.998898
0.999226
0.999276
0.999426
0.99959
1
0.99913
0.999399
0.999539
0.999647
0.999744
1
1
0.999685
0.999718
0.999772
0.999856
0.999896
1
0.999951
0.999855
0.999824
0.999679
0.999622
0.999513
1
1
0.999599
0.999485
0.999481
0.999393
0.999388
1
0.999332
0.999211
0.998763
0.999072
0.999039
0.999351
1
0.997201
0.996933
0.996425
0.996657
0.997526
0.997872
0.997908
0.997601
0.998093
0.99888
0.999213
0.999263
0.999423
0.999703
1
0.999147
0.999408
0.999547
0.99966
0.999755
1
1
0.999715
0.999735
0.999778
0.999859
0.999903
1
0.999878
0.999855
0.999827
0.999678
0.999624
0.999513
1
1
0.999606
0.999506
0.999481
0.999399
0.999391
1
0.999382
0.999193
0.998815
0.998986
0.999046
0.999417
1
0.997271
0.996932
0.996425
0.99666
0.997529
0.99788
0.998031
0.997708
0.998069
0.998859
0.999175
0.999229
0.99943
1
0.999976
0.99915
0.999411
0.99955
0.999666
0.999759
1
1
0.999725
0.999741
0.999781
0.999861
0.999905
1
0.999853
0.999856
0.999828
0.999678
0.999625
0.999522
1
1
0.999618
0.999524
0.999472
0.999409
0.999392
1
0.999434
0.999136
0.998773
0.99882
0.999063
0.999507
1
0.997308
0.99693
0.996425
0.996665
0.997538
0.997892
0.998109
0.997746
0.998061
0.998837
0.999149
0.999217
0.99943
1
0.999874
0.999158
0.999412
0.999551
0.999676
0.999769
1
1
0.999729
0.999743
0.999783
0.999863
0.999909
1
0.999825
0.999857
0.99983
0.999678
0.999623
0.999534
1
1
0.999636
0.999532
0.999469
0.999414
0.999393
0.999952
0.999519
0.99908
0.998707
0.998742
0.999075
0.999541
1
0.997383
0.996932
0.996425
0.996667
0.997549
0.997918
0.998249
0.997837
0.998055
0.998822
0.999091
0.999214
0.999423
1
0.999829
0.999185
0.999414
0.999553
0.999683
0.999783
1
1
0.99973
0.999744
0.999784
0.999863
0.999911
1
0.999761
0.999858
0.999835
0.999679
0.999623
0.999554
1
1
0.999654
0.999545
0.999468
0.999421
0.999393
0.999711
0.99958
0.998947
0.998576
0.99871
0.999078
0.999556
1
0.997422
0.996935
0.996425
0.996662
0.997548
0.997931
0.998319
0.997879
0.998049
0.998816
0.999078
0.999211
0.999414
1
0.999769
0.999199
0.999416
0.99956
0.999689
0.99979
1
0.999926
0.999729
0.999756
0.99979
0.999865
0.999914
1
0.999714
0.999859
0.999842
0.999681
0.999628
0.999726
1
1
0.999672
0.999571
0.999476
0.999424
0.999394
0.999622
0.999666
0.998922
0.998615
0.998706
0.999093
0.999563
1
0.997519
0.996934
0.996425
0.996649
0.997547
0.997941
0.998478
0.997985
0.998043
0.998802
0.999049
0.999191
0.999389
1
0.999749
0.999232
0.999423
0.999565
0.999697
0.999798
1
0.999886
0.999752
0.999762
0.999795
0.999867
0.999916
1
0.999998
0.999983
0.999975
0.999981
0.999989
0.99999
0.999998
0.999992
0.999993
0.999919
0.999835
0.999827
0.999873
0.999975
0.998789
0.998645
0.99873
0.99887
0.998875
0.998871
0.999043
0.997585
0.996999
0.997073
0.99705
0.997281
0.997617
0.998234
0.998893
0.998888
0.999151
0.998977
0.99878
0.998835
0.9996
0.999985
0.999952
0.999935
0.999937
0.999946
0.999994
0.999993
0.999998
0.999996
0.999992
0.999991
0.99999
0.999995
0.999999
0.999993
0.999978
0.999978
0.999984
0.999986
0.999991
0.999993
0.999998
0.999993
0.999927
0.999923
0.999923
0.999949
0.999966
0.998844
0.998948
0.999026
0.998963
0.998771
0.99886
0.999039
0.997487
0.997033
0.997128
0.997088
0.997258
0.9976
0.998159
0.998912
0.999032
0.999138
0.998761
0.999231
0.99908
0.99931
0.999975
0.999943
0.999942
0.999944
0.999953
0.999994
0.999998
0.999992
0.999989
0.999987
0.999985
0.99999
0.999997
0.999997
0.999985
0.999975
0.999968
0.999975
0.999977
0.999979
0.999976
0.999996
0.999994
0.999926
0.99992
0.99992
0.999925
0.999936
0.998845
0.999043
0.999085
0.998816
0.99868
0.998728
0.998928
0.997389
0.997153
0.99728
0.997186
0.997248
0.997556
0.997998
0.998975
0.999105
0.998808
0.998543
0.999046
0.99902
0.999136
0.999945
0.999934
0.999937
0.999939
0.999947
0.99999
0.999993
0.999971
0.999971
0.999971
0.999972
0.999985
0.999995
0.999993
0.999982
0.999965
0.999947
0.999947
0.99995
0.999947
0.99994
0.999989
0.999992
0.999915
0.999885
0.999881
0.999861
0.999854
0.998792
0.999065
0.999099
0.998872
0.998808
0.9989
0.998932
0.997383
0.997287
0.997338
0.997249
0.99724
0.997472
0.997923
0.999054
0.998909
0.99872
0.998603
0.998863
0.999023
0.999092
0.999897
0.999909
0.999901
0.999907
0.999944
0.999988
0.999979
0.999954
0.999958
0.999961
0.999967
0.999984
0.999994
0.99999
0.999975
0.99996
0.999946
0.999949
0.99995
0.999942
0.99994
0.999985
0.99999
0.999925
0.999881
0.999872
0.999864
0.999856
0.999067
0.999188
0.99927
0.999189
0.998979
0.998984
0.999014
0.997424
0.997397
0.997491
0.997332
0.997231
0.997352
0.997755
0.999118
0.999103
0.998917
0.998774
0.998913
0.999067
0.99906
0.99986
0.999857
0.999868
0.999895
0.999945
0.999988
0.999986
0.999925
0.999934
0.999941
0.999956
0.999982
0.999994
0.999992
0.999973
0.999958
0.999947
0.999952
0.999954
0.999948
0.99995
0.999983
0.999983
0.999926
0.999902
0.9999
0.999895
0.999884
0.999269
0.999402
0.99952
0.999404
0.999137
0.999032
0.999133
0.99755
0.997641
0.997567
0.997395
0.997235
0.997329
0.997547
0.999175
0.999074
0.998898
0.998809
0.998898
0.999028
0.998928
0.999846
0.99987
0.999901
0.999913
0.999941
0.999987
0.999986
0.999929
0.999936
0.999946
0.999956
0.999979
0.999994
0.999993
0.999971
0.999962
0.999957
0.999957
0.999958
0.999959
0.999958
0.999979
0.999978
0.999936
0.99993
0.999931
0.999933
0.999932
0.999369
0.999684
0.999779
0.999638
0.999305
0.999118
0.999108
0.997744
0.997979
0.997777
0.997747
0.997354
0.99738
0.9975
0.999208
0.999179
0.999049
0.998986
0.99901
0.999148
0.9991
0.99991
0.999921
0.999932
0.999936
0.999941
0.999974
0.999973
0.999951
0.999954
0.999956
0.999961
0.999967
0.999989
0.999989
0.999999
0.999999
0.999999
0.999999
0.999999
0.999999
1
0.999993
0.999999
1
1
1
1
1
0.999157
0.999982
0.99998
0.999976
0.999972
0.99997
0.999967
0.99876
0.999381
0.999659
0.999803
0.999825
0.999854
0.999858
0.999972
0.999994
0.999991
0.999987
0.999984
0.99998
0.999974
0.999999
0.999999
0.999999
0.999999
1
1
1
0.999999
0.999999
0.999999
0.999999
0.999999
0.999999
1
0.999994
0.999994
0.999994
0.999995
0.999996
0.999996
0.999998
0.999985
0.999995
0.999999
0.999999
0.999999
0.999999
0.999999
0.999119
0.999548
0.99998
0.999976
0.999973
0.999969
0.999961
0.998662
0.999184
0.999522
0.999667
0.999768
0.999785
0.999796
0.99991
0.999993
0.999991
0.999987
0.999981
0.999975
0.999968
0.999997
0.999998
0.999998
0.999998
0.999998
0.999999
0.999999
0.999996
0.999996
0.999996
0.999996
0.999997
0.999997
0.999998
0.999974
0.999974
0.999976
0.999977
0.999981
0.999985
0.999992
0.999963
0.999973
0.999986
0.999993
0.999993
0.999993
0.999994
0.999084
0.999196
0.999615
0.999962
0.999976
0.99997
0.999962
0.998367
0.998742
0.999146
0.999417
0.999603
0.999628
0.999675
0.999506
0.999779
0.99997
0.999987
0.999983
0.999975
0.999965
0.999987
0.999992
0.999994
0.999994
0.999995
0.999995
0.999995
0.99999
0.99999
0.99999
0.999991
0.999991
0.999994
0.999997
0.999947
0.999953
0.999955
0.999958
0.999961
0.999967
0.999984
0.999904
0.999943
0.99996
0.999977
0.999979
0.99998
0.99998
0.999015
0.999128
0.999227
0.999453
0.999798
0.999926
0.99997
0.998234
0.998329
0.998511
0.998698
0.998949
0.999121
0.999298
0.999228
0.999293
0.999449
0.999706
0.999908
0.999981
0.999977
0.999954
0.999967
0.99998
0.999988
0.99999
0.999991
0.999992
0.999982
0.999984
0.999986
0.999986
0.999986
0.999988
0.999995
0.999941
0.999944
0.999947
0.999949
0.999951
0.999956
0.999972
0.99986
0.999869
0.999887
0.999936
0.999965
0.999974
0.999976
0.999053
0.999086
0.999186
0.999276
0.999395
0.999521
0.999773
0.998181
0.998234
0.998369
0.99845
0.998562
0.998708
0.99902
0.999108
0.999137
0.999239
0.99936
0.999658
0.999844
0.999935
0.999975
0.999977
0.999977
0.999979
0.999985
0.999984
0.999988
0.999987
0.999987
0.999987
0.999987
0.999985
0.999985
0.999991
0.999953
0.999948
0.999945
0.999948
0.99995
0.999956
0.999965
0.999887
0.999873
0.99988
0.999894
0.999904
0.99992
0.999939
0.999156
0.999153
0.999168
0.999212
0.999267
0.999388
0.999467
0.997798
0.997998
0.99808
0.998129
0.998255
0.998323
0.99858
0.998936
0.998957
0.999031
0.999103
0.999166
0.999344
0.999476
0.999984
0.999982
0.99998
0.99998
0.999981
0.999979
0.999979
0.999991
0.99999
0.999988
0.999986
0.999985
0.999981
0.99999
0.999958
0.999957
0.999957
0.999958
0.999959
0.999961
0.999965
0.999932
0.999929
0.999927
0.999929
0.999931
0.999935
0.999936
0.999155
0.999158
0.999178
0.9992
0.999259
0.99933
0.999354
0.997559
0.997641
0.997679
0.997719
0.997765
0.997883
0.997953
0.999111
0.999115
0.999121
0.99914
0.999175
0.999246
0.999275
0.999972
0.999971
0.99997
0.999969
0.999969
0.999969
0.999967
0.999987
0.999985
0.999982
0.999981
0.99998
0.999979
0.999989
1
1
0.999999
0.999999
0.999999
0.999999
0.999999
1
1
1
0.999997
0.999997
0.999997
0.999989
0.999559
0.99896
0.998938
0.998893
0.998877
0.998872
0.998854
0.999293
0.999261
0.999247
0.999201
0.998828
0.998405
0.997886
0.999921
0.999934
0.999949
0.99995
0.999949
0.999944
0.999033
1
1
1
0.999999
0.999999
0.999999
0.999994
0.999999
0.999999
0.999999
0.999999
0.999999
0.999999
0.999999
0.999999
0.999998
0.999996
0.999995
0.999995
0.999995
0.999996
1
0.999999
0.999999
0.999999
0.999999
0.999999
0.999998
0.99969
0.99899
0.999018
0.99901
0.998931
0.998905
0.998865
0.999133
0.999074
0.999005
0.998771
0.998464
0.998161
0.997751
0.999919
0.999936
0.999945
0.99995
0.999945
0.999163
0.998969
0.999998
0.999998
0.999998
0.999997
0.999997
0.999993
0.999989
0.999997
0.999995
0.999994
0.999994
0.999993
0.999992
0.999992
0.999996
0.999991
0.999989
0.999988
0.999989
0.999989
0.999991
0.999998
0.999996
0.999996
0.999996
0.999996
0.999997
0.999997
0.999653
0.999079
0.999126
0.999068
0.999043
0.998999
0.998911
0.998918
0.998739
0.998579
0.998281
0.99794
0.997701
0.997551
0.999927
0.999941
0.999946
0.999826
0.999303
0.999041
0.998978
0.99999
0.999989
0.999988
0.999985
0.999981
0.999974
0.999969
0.999994
0.999983
0.999974
0.999971
0.999969
0.999968
0.999969
0.999992
0.999985
0.999986
0.999987
0.999987
0.999988
0.99999
0.999993
0.999984
0.999985
0.999983
0.999984
0.999984
0.999986
0.999498
0.999187
0.999129
0.99903
0.998992
0.998954
0.998838
0.998345
0.998109
0.997874
0.997765
0.997623
0.99757
0.997502
0.99992
0.999789
0.999559
0.999269
0.999133
0.999075
0.999067
0.99996
0.999959
0.999959
0.999953
0.999948
0.999941
0.999923
0.999983
0.999959
0.999948
0.999945
0.999945
0.999947
0.999948
0.999989
0.999983
0.999987
0.999988
0.999987
0.999987
0.999984
0.999979
0.999971
0.999971
0.999972
0.999971
0.999973
0.999978
0.999439
0.999185
0.999124
0.999065
0.998994
0.998962
0.998936
0.998172
0.997938
0.99786
0.997765
0.997626
0.997584
0.997539
0.999669
0.999471
0.999378
0.99927
0.99923
0.999206
0.999168
0.99994
0.999942
0.999943
0.999936
0.999909
0.999889
0.999878
0.999966
0.99994
0.999929
0.999925
0.999924
0.999924
0.999926
0.999987
0.99998
0.999982
0.999983
0.999982
0.999981
0.999977
0.99997
0.999982
0.99998
0.99998
0.99998
0.999981
0.999982
0.999335
0.999277
0.999232
0.999173
0.999122
0.999101
0.999103
0.998062
0.997835
0.997765
0.997645
0.997599
0.997574
0.997551
0.999474
0.999402
0.999327
0.999257
0.99921
0.99917
0.999154
0.999903
0.999898
0.999896
0.99989
0.999869
0.999843
0.999838
0.999954
0.99994
0.999928
0.999921
0.999916
0.999915
0.99992
0.999987
0.999976
0.999975
0.999975
0.999975
0.999974
0.999973
0.999974
0.99998
0.999979
0.999979
0.999978
0.999978
0.999978
0.999267
0.999246
0.99921
0.999151
0.99914
0.999139
0.999151
0.997815
0.997765
0.997709
0.997687
0.997683
0.997688
0.99772
0.999268
0.999239
0.999165
0.999135
0.999121
0.999118
0.99915
0.999904
0.999905
0.999904
0.999902
0.999902
0.999903
0.999908
0.999951
0.999948
0.999948
0.999947
0.999947
0.999947
0.99995
1
1
1
1
1
1
1
1
1
1
1
1
1
1
0.999814
0.999809
0.999824
0.99985
0.999892
0.99991
0.999931
0.999442
0.999429
0.999427
0.999425
0.999421
0.999402
0.999382
0.999804
0.99978
0.999792
0.999834
0.99989
0.999902
0.99991
1
1
1
1
1
1
1
1
1
1
1
1
1
1
1
1
1
1
1
1
1
1
1
1
1
1
1
1
0.999803
0.999788
0.999795
0.999843
0.999874
0.999901
0.999925
0.999383
0.999322
0.99931
0.999304
0.999301
0.999282
0.99926
0.999792
0.999743
0.999757
0.99983
0.999858
0.999892
0.999909
1
1
1
1
1
0.999999
0.999999
1
1
1
1
1
0.999999
0.999999
1
1
1
1
1
0.999999
0.999999
1
1
1
0.999999
0.999999
0.999998
0.999998
0.99979
0.999754
0.999747
0.999812
0.99987
0.999902
0.999926
0.999336
0.999264
0.999233
0.999217
0.999203
0.99918
0.999133
0.999776
0.999712
0.999715
0.999796
0.999853
0.999887
0.999903
1
1
1
1
0.999998
0.999997
0.999994
1
1
1
1
0.999999
0.999999
0.999997
1
1
1
1
1
0.999999
0.999999
1
1
0.999999
0.999997
0.999997
0.999996
0.999994
0.999772
0.99974
0.999734
0.999791
0.999855
0.999919
0.999903
0.999288
0.999147
0.999117
0.999088
0.999017
0.998888
0.99867
0.999755
0.99971
0.999713
0.999758
0.999809
0.999868
0.999898
1
1
1
0.999999
0.999995
0.99998
0.999965
1
1
1
1
0.999999
0.999998
0.999996
1
1
1
1
1
0.999999
0.999999
1
1
0.999998
0.999993
0.999995
0.999994
0.999986
0.999756
0.999722
0.999724
0.9998
0.999876
0.999895
0.999758
0.999201
0.999027
0.998891
0.998774
0.99865
0.998545
0.998306
0.999719
0.999694
0.999706
0.999768
0.999825
0.999868
0.999822
1
1
1
0.999998
0.999977
0.999951
0.999946
1
1
1
1
0.999999
0.999997
0.999994
1
1
1
1
1
0.999999
0.999999
1
1
0.999995
0.99999
0.999993
0.99998
0.99997
0.999705
0.999677
0.999707
0.999798
0.999876
0.999804
0.999518
0.999164
0.99891
0.998797
0.998698
0.998573
0.998359
0.998173
0.999682
0.999653
0.99969
0.999767
0.999837
0.999792
0.999636
1
1
0.999999
0.999997
0.999958
0.999927
0.99991
1
1
1
1
0.999999
0.999997
0.999992
1
1
1
1
1
0.999999
0.999999
1
1
0.999994
0.999986
0.999974
0.999972
0.999972
0.999705
0.999647
0.999714
0.999776
0.999686
0.999471
0.999333
0.999039
0.998688
0.998528
0.998367
0.998172
0.998014
0.997919
0.999691
0.999621
0.999695
0.999726
0.999623
0.999478
0.999349
1
1
0.999999
0.999996
0.999946
0.999921
0.999905
1
1
1
1
0.999999
0.999997
0.999992
1
1
1
1
0.999999
0.999998
0.999999
1
1
1
0.999999
0.999988
0.999982
0.999978
0.999718
0.99973
0.999749
0.999799
0.999782
0.999662
0.999615
0.99887
0.998696
0.998742
0.99883
0.998785
0.998718
0.998723
0.999707
0.999703
0.999751
0.999774
0.999722
0.999715
0.999717
1
1
1
0.999999
0.999998
0.999997
0.999967
1
1
1
1
1
0.999997
0.999993
1
1
1
1
1
1
1
1
1
0.999999
0.999998
0.999997
0.999995
0.999999
0.99981
0.99982
0.999814
0.999846
0.999861
0.999814
0.999749
0.998893
0.998792
0.998997
0.998977
0.999005
0.998951
0.998919
0.999785
0.999785
0.999792
0.999811
0.9998
0.999805
0.999802
1
1
1
0.999999
0.999999
1
0.999999
1
1
1
1
1
1
1
1
1
1
1
1
1
1
1
1
1
1
1
1
1
0.999891
0.99989
0.999868
0.999875
0.999883
0.999841
0.99977
0.998945
0.998879
0.999081
0.999114
0.999123
0.999061
0.998948
0.999743
0.999756
0.999812
0.999831
0.999825
0.999823
0.999806
1
1
1
0.999999
0.999998
1
0.999999
1
1
1
1
1
1
1
1
1
1
1
1
1
1
1
1
1
1
1
1
1
0.999914
0.999896
0.999877
0.999883
0.999886
0.99985
0.999813
0.998992
0.998968
0.999145
0.999173
0.999158
0.999082
0.999017
0.999618
0.999668
0.999767
0.999798
0.999805
0.999798
0.999778
1
1
1
0.999999
0.999998
1
0.999999
1
1
1
1
1
1
1
1
1
1
1
1
1
1
1
1
1
1
1
1
1
0.999903
0.9999
0.99988
0.999883
0.999884
0.999851
0.999822
0.998996
0.998987
0.999156
0.999188
0.999164
0.999089
0.999044
0.999615
0.999646
0.999762
0.999802
0.999808
0.999798
0.999778
1
1
1
1
1
1
1
1
1
1
1
1
1
1
1
1
1
1
1
1
1
1
1
1
1
1
1
1
0.999918
0.999913
0.999887
0.999886
0.999886
0.999857
0.999842
0.999018
0.999032
0.999189
0.999226
0.999186
0.999122
0.999115
0.999642
0.99966
0.999768
0.999812
0.999819
0.999807
0.999784
1
1
1
1
1
1
1
1
1
1
1
1
1
1
1
1
1
1
1
1
1
1
1
1
1
1
1
1
0.999917
0.999913
0.99989
0.999888
0.999886
0.999859
0.999847
0.999027
0.999037
0.999193
0.99923
0.999185
0.999127
0.999137
0.999653
0.999669
0.999772
0.999814
0.999822
0.999812
0.999789
1
1
1
1
1
1
1
1
1
1
1
1
1
1
1
1
1
1
1
1
1
1
1
1
1
1
1
1
0.999963
0.99996
0.999954
0.999945
0.99994
0.999937
0.999939
0.999855
0.999848
0.999844
0.99984
0.999832
0.99982
0.999831
0.99997
0.999966
0.999955
0.999949
0.999943
0.999943
0.999952
1
1
1
1
1
1
1
1
1
1
1
1
1
1
1
1
1
1
1
1
1
0.999999
0.999999
1
1
1
1
1
0.999956
0.999953
0.999949
0.999936
0.999931
0.999929
0.999929
0.999792
0.999783
0.999779
0.999777
0.999776
0.999778
0.999802
0.999962
0.999959
0.999951
0.999934
0.999929
0.999933
0.999944
0.999999
0.999999
0.999999
0.999999
1
1
1
0.999999
1
1
1
1
1
1
0.999998
0.999999
1
1
1
1
1
0.999994
0.999995
0.999998
0.999999
0.999999
1
1
0.999956
0.999952
0.99994
0.999918
0.999912
0.999912
0.999914
0.999698
0.999717
0.999722
0.999724
0.999727
0.999734
0.999757
0.999956
0.999951
0.999943
0.999915
0.999905
0.999914
0.999927
0.999996
0.999996
0.999996
0.999998
0.999999
1
1
0.999999
0.999999
1
1
1
1
1
0.999997
0.999999
1
1
1
1
1
0.999979
0.999982
0.999989
0.999996
0.999999
1
1
0.999957
0.999945
0.999928
0.999906
0.999897
0.999903
0.999909
0.999381
0.999457
0.99952
0.999552
0.999595
0.999645
0.999742
0.999962
0.99995
0.999935
0.999907
0.999893
0.999909
0.999921
0.999992
0.999993
0.999993
0.999992
0.999998
1
1
0.999998
0.999999
1
1
1
1
1
0.999996
0.999998
1
1
1
1
1
0.999972
0.999971
0.999975
0.999986
0.999998
1
1
0.999903
0.999943
0.999938
0.99991
0.999876
0.999881
0.999897
0.999134
0.999245
0.999296
0.999343
0.999395
0.999493
0.999681
0.999964
0.999963
0.99994
0.999907
0.999881
0.99989
0.999906
0.99999
0.999992
0.999991
0.999988
0.999993
1
1
0.999998
0.999999
1
1
1
1
1
0.999995
0.999998
1
1
1
1
1
0.999936
0.999948
0.999962
0.999977
0.999997
1
1
0.999645
0.999823
0.999928
0.999914
0.99985
0.999866
0.999884
0.998703
0.998925
0.999128
0.999239
0.999313
0.999429
0.999659
0.999731
0.999889
0.999939
0.999907
0.999867
0.999866
0.999886
0.99998
0.999986
0.999992
0.99998
0.999988
1
1
0.999998
0.999998
1
1
1
1
1
0.999994
0.999998
1
1
1
1
1
0.999934
0.999942
0.999951
0.999972
0.999996
1
1
0.999421
0.999519
0.999644
0.99983
0.999839
0.999828
0.999853
0.998108
0.998261
0.998432
0.998695
0.998915
0.999112
0.999524
0.999366
0.999507
0.999655
0.99982
0.99985
0.999827
0.999873
0.999967
0.999969
0.99997
0.999978
0.999986
1
1
0.999998
0.999998
1
1
1
1
1
0.999995
0.999999
1
1
1
1
1
0.999963
0.999984
0.999992
1
1
1
1
0.999721
0.999735
0.999821
0.999879
0.999888
0.999876
0.999849
0.998852
0.998881
0.998949
0.999098
0.999071
0.999109
0.999352
0.999713
0.999742
0.999801
0.999878
0.999882
0.999882
0.999875
0.999974
0.999984
0.999991
0.999999
0.999999
1
1
0.999998
0.999999
1
1
1
1
1
1
1
1
1
1
1
1
0.999991
0.999996
0.999999
1
1
1
0.999999
0.999821
0.999862
0.999901
0.999917
0.99992
0.999904
0.999885
0.999093
0.999033
0.999155
0.999261
0.999303
0.999209
0.999396
0.999834
0.999848
0.999887
0.999913
0.999921
0.999925
0.999923
0.999993
0.999994
0.999997
0.999999
1
1
1
0.999999
0.999999
1
1
1
1
1
1
1
1
1
1
1
1
1
1
1
1
1
1
0.999999
0.999837
0.999884
0.999922
0.999939
0.999942
0.999929
0.999896
0.999131
0.999114
0.999255
0.999366
0.999413
0.999293
0.999455
0.999839
0.999855
0.999913
0.999937
0.999948
0.999955
0.999957
1
1
1
1
1
1
1
1
1
1
1
1
1
1
1
1
1
1
1
1
1
1
1
1
1
1
1
0.999999
0.999848
0.99987
0.999914
0.999927
0.999923
0.999902
0.999876
0.999193
0.999173
0.999267
0.999395
0.999436
0.999356
0.999487
0.999852
0.99987
0.999915
0.999941
0.999953
0.999964
0.999966
1
1
1
1
1
1
1
1
1
1
1
1
1
1
1
1
1
1
1
1
1
1
1
1
1
1
1
1
0.999852
0.999874
0.999916
0.999932
0.999925
0.999903
0.999878
0.999211
0.999193
0.999289
0.999413
0.999459
0.999382
0.999497
0.999856
0.999875
0.999917
0.999948
0.999956
0.999966
0.999967
1
1
1
1
1
1
1
1
1
1
1
1
1
1
1
1
1
1
1
1
1
1
1
1
1
1
1
1
0.999865
0.999882
0.999926
0.999939
0.999934
0.999914
0.999893
0.999263
0.999254
0.999362
0.999467
0.999516
0.99944
0.999529
0.999873
0.99989
0.999925
0.999954
0.999964
0.999972
0.999973
1
1
1
1
1
1
1
1
1
1
1
1
1
1
1
1
1
1
1
1
1
1
1
1
1
1
1
1
0.999871
0.999888
0.999931
0.999944
0.99994
0.999922
0.999902
0.999291
0.999292
0.999409
0.999498
0.999542
0.999467
0.999546
0.999886
0.9999
0.999933
0.999955
0.999968
0.999974
0.999973
1
1
1
1
1
1
1
1
1
1
1
1
1
1
)
;

boundaryField
{
    fuel
    {
        type            fixedValue;
        value           uniform 0;
    }
    primary_air
    {
        type            fixedValue;
        value           uniform 0.77;
    }
    Secondary_air_RHS
    {
        type            fixedValue;
        value           uniform 0.77;
    }
    Secondary_air_LHS
    {
        type            fixedValue;
        value           uniform 0.77;
    }
    outlet
    {
        type            inletOutlet;