/*--------------------------------*- C++ -*----------------------------------*\
  =========                 |
  \\      /  F ield         | OpenFOAM: The Open Source CFD Toolbox
   \\    /   O peration     | Website:  https://openfoam.org
    \\  /    A nd           | Version:  6
     \\/     M anipulation  |
\*---------------------------------------------------------------------------*/
FoamFile
{
    version     2.0;
    format      ascii;
    class       volScalarField;
    location    "0.0225";
    object      O2;
}
// * * * * * * * * * * * * * * * * * * * * * * * * * * * * * * * * * * * * * //

dimensions      [0 0 0 0 0 0 0];

internalField   nonuniform List<scalar> 
3773
(
0
0
0
0
0
0
0
0
0
0
0
0
0
0
0
0
0
0
0
0
0
0
0
0
0
0
0
0
0
0
0
0
0
0
0
0
0
0
0
0
0
0
0
0
0
0
0
0
0
0
0
0
0
0
0
0
0
0
0
0
0
0
0
0
0
0
0
0
0
0
0
0
0
0
0
0
0
0
0
0
0
0
0
0
0
0
0
0
0
0
0
0
0
0
0
0
0
0
0
0
0
0
0
0
0
0
0
0
0
0
0
0
0
0
0
0
0
0
0
0
0
0
0
0
0
0
0
0
0
0
0
0
0
0
0
0
0
0
0
0
0
0
0
0
0
0
0
0
0
0
0
0
0
0
0
0
0
0
0
0
0
0
0
0
0
0
0
0
0
0
0
0
0
0
0
0
0
0
0
0
0
0
0
0
0
0
0
0
0
0
0
0
0
0
0
0
0
0
0
0
0
0
0
0
0
0
0
0
0
0
0
0
0
0
0
0
0
0
0
0
0
0
0
0
0
0
0
0
0
0
0
0
0
0
0
0
0
0
0
0
0
0
0
0
0
0
0
0
0
0
0
0
0
0
0
0
0
0
0
0
0
0
0
0
0
0
0
0
0
0
0
0
0
0
0
0
0
0
0
0
0
0
0
0
0
0
0
0
0
0
0
0
0
0
0
0
0
0
0
0
0
0
0
0
0
0
0
0
0
0
0
0
0
0
0
0
0
0
0
0
0
0
0
0
0
0
0
0
0
0
0
0
0
0
0
0
0
0
0
0
0
0
0
0.00159239
0.000628486
0.000653478
0.000779144
0.000982749
0.00151845
0.00231851
0.00236425
0.00106258
0.00117973
0.00132335
0.00147044
0.00180962
0.00287045
0.00453811
0.00337526
0.0033731
0.00334389
0.00346506
0.00373412
0.00463721
0.00768817
0.00738608
0.00773443
0.00735752
0.00695848
0.0070011
0.00755615
0.00603868
0.00427138
0.00406715
0.00413857
0.00422208
0.00472185
0.00614191
0.00343735
0.00171258
0.00138984
0.00141259
0.00150121
0.00168298
0.00309532
0.00217738
0.000894898
0.000790379
0.000819134
0.000930459
0.00120471
0.0023273
0.000116854
0.000145937
0.000165545
0.000176698
0.000183898
0.000329822
0.00155548
0.000565453
0.000196479
0.000221697
0.000262582
0.000244979
0.000390524
0.001938
0.00309245
0.000879091
0.00098543
0.000628895
0.000604496
0.00123249
0.00322635
0.00682216
0.00649363
0.00690949
0.00596923
0.00532906
0.00608214
0.00631313
0.00326299
0.00229207
0.0021862
0.00231074
0.00214754
0.00162645
0.00222008
0.0014099
0.000276411
0.000189982
0.000209867
0.000212532
0.000118795
0.00098368
0.000183132
0.000147092
0.000143346
0.0001364
0.000126177
0.000107925
0.000944854
0.000115886
0.00014683
0.000166649
0.000206553
0.000244817
0.00020216
0.00144259
0.000448062
0.000244754
0.000299131
0.000341919
0.000339231
0.000321658
0.00168588
0.00163508
0.000405781
0.000340548
0.000276499
0.000311626
0.000520041
0.00258228
0.00526403
0.00461126
0.0050962
0.00490106
0.00392703
0.00408716
0.00566938
0.00275191
0.00181089
0.00163551
0.00163451
0.00140621
0.0012516
0.00148581
0.000936842
0.000493001
0.000294497
0.000240755
0.000245046
0.000163898
0.000438087
5.65636e-05
0.00015433
0.000167985
0.000152866
0.000130005
0.000109514
0.000410112
0.000117304
0.000149463
0.000166103
0.000238405
0.000302477
0.000422811
0.00143929
0.000428334
0.000296078
0.000392087
0.000413979
0.000409
0.000478084
0.00141331
0.000965766
0.000327727
0.000356357
0.000420966
0.000517983
0.000642082
0.00198113
0.00481818
0.00396123
0.00409862
0.00418082
0.00330829
0.00310003
0.00515824
0.00247386
0.00142855
0.00138155
0.00123288
0.00103958
0.00100093
0.00102357
0.000853546
0.000605923
0.000411449
0.000283411
0.000253186
0.000213307
0.000101498
6.38991e-05
0.000219328
0.000201273
0.000156936
0.000134261
0.000114162
0.000182796
0.00011185
0.00015622
0.000166941
0.000253759
0.000349211
0.000774948
0.00134702
0.000463462
0.000356658
0.00043723
0.00045771
0.000504316
0.000517867
0.000792973
0.000648454
0.000399588
0.000558454
0.000641314
0.000614692
0.000620592
0.00127476
0.0039306
0.00337899
0.00378538
0.0037763
0.00291879
0.00283154
0.00400971
0.0023191
0.00127531
0.00101634
0.00101603
0.000919398
0.000808281
0.000743182
0.000272239
0.000345687
0.000317133
0.000251529
0.000205816
0.000218737
9.45087e-05
8.49067e-05
0.000240359
0.000216385
0.000159225
0.000133706
0.000119367
7.40897e-05
0.000106022
0.000167019
0.000175388
0.000268342
0.000327757
0.000532028
0.00104604
0.00057727
0.000590931
0.000491065
0.000488414
0.000570256
0.000537033
0.000180024
0.000621996
0.000589023
0.000873543
0.000969278
0.000848978
0.000493607
0.000383586
0.00344759
0.00330471
0.00364316
0.00341345
0.00256769
0.00244392
0.00283782
0.00236855
0.00143414
0.00104705
0.000765266
0.000730176
0.000741735
0.00071257
7.04688e-05
0.000335459
0.000317878
0.000253251
0.000195367
0.000207545
7.42072e-05
8.71083e-05
0.000259525
0.000240255
0.000184458
0.000135308
0.000119793
4.22219e-05
6.11784e-05
0.000148254
0.000191587
0.000290209
0.000345234
0.000360388
0.000336816
0.000603722
0.000367341
0.000496597
0.000524496
0.000614314
0.000605932
0.000140706
0.00062274
0.000621616
0.000989686
0.00126261
0.00104234
0.000860701
0.000345844
0.00315777
0.00307764
0.00360344
0.00332016
0.0024429
0.00229606
0.00254079
0.0024673
0.00185841
0.00105967
0.000722413
0.000671927
0.000589785
0.000621674
9.73487e-05
0.000710505
0.000547052
0.000415606
0.000266297
0.000211777
3.544e-05
7.01453e-05
0.000286156
0.000260974
0.000210654
0.000137355
0.000110408
3.38636e-05
0.000338288
0.000143941
0.000154596
0.000320829
0.00036295
0.000234641
0.0001618
0.000232123
0.000315248
0.000426069
0.000591114
0.000593534
0.00060302
0.000549027
0.000481428
0.00127589
0.00160405
0.00181805
0.0010539
0.0004063
0.000249403
0.00248505
0.00304259
0.00356542
0.00340442
0.0025543
0.00198209
0.00135537
0.0018773
0.00191707
0.00137378
0.000968679
0.000783162
0.000643064
2.85887e-05
0.000299817
0.000650067
0.000567317
0.000428194
0.00029542
0.000202161
0.000150119
0.000181114
0.00022379
0.000224018
0.000201877
0.00013215
8.03746e-05
8.76883e-05
0.000349296
0.000148453
0.000153121
0.00031525
0.000388043
0.000263852
0.000235197
0.00038968
0.000799129
0.000735112
0.000794635
0.000670458
0.000575942
0.000555597
0.000527691
0.00140741
0.00182398
0.00227317
0.00138956
0.000520125
0.000320691
0.00237015
0.00289771
0.0034551
0.00338489
0.00254779
0.00190851
0.00130886
0.00102998
0.00148275
0.00133893
0.00102903
0.000721476
0.000630648
0.000142386
0.000318706
0.00053956
0.00067423
0.000626717
0.000533466
0.000366267
0.000190516
0.00018092
0.000236604
0.000227748
0.000204011
0.000145341
7.11165e-05
8.24383e-05
0.000350161
0.000146828
0.000165127
0.000292502
0.000377038
0.0002698
0.000236024
0.000433309
0.000983459
0.00102438
0.000901167
0.000710343
0.000559826
0.000524215
0.000642434
0.00156193
0.0022195
0.00236556
0.00138097
0.000581779
0.000324509
0.00218039
0.00270302
0.00334779
0.00332882
0.00250403
0.00177509
0.00127359
0.000314514
0.000714144
0.00105031
0.000977945
0.00073963
0.000553233
0.000241866
0.00039315
0.000511902
0.000566306
0.000593119
0.000612071
0.000469239
0.000286854
0.00020559
0.00025476
0.000226561
0.000184141
0.000130594
6.01396e-05
4.51591e-05
0.000321587
0.000135927
0.00020366
0.000296064
0.000368213
0.000313203
0.000220044
0.000545855
0.00123024
0.00111864
0.000944784
0.000727484
0.000548958
0.000508297
0.00065963
0.00172377
0.00222193
0.00236286
0.00148311
0.000667104
0.000323388
0.00222237
0.00277693
0.00342696
0.00332092
0.00247814
0.00176024
0.00132105
0.000448346
0.000427347
0.000648838
0.000775486
0.000688816
0.00052833
0.000268074
0.000427715
0.000441892
0.000420728
0.000385505
0.000407006
0.000394813
0.000298909
0.00027075
0.000294091
0.000225028
0.000180953
0.000127184
6.66819e-05
3.39568e-05
0.00022726
8.46574e-05
0.000217013
0.000280506
0.000343374
0.000307487
0.000200014
0.000698996
0.00118095
0.000946309
0.000648341
0.000646013
0.000535436
0.000485239
0.000669319
0.00171182
0.00216583
0.00235497
0.00182676
0.000901374
0.000371868
0.00229748
0.00296469
0.00348417
0.00335638
0.00252559
0.00184887
0.00152356
0.000595008
0.00100854
0.000884106
0.000805574
0.000665574
0.00058499
0.00025841
0.000373266
0.000337456
0.0003181
0.000260675
0.000232985
0.000332968
0.000254128
0.000262385
0.000245294
0.000175978
0.000144061
0.000114061
7.64105e-05
3.41044e-05
8.86615e-05
6.58562e-05
0.000141073
0.000165733
0.000280939
0.000225465
0.000172823
0.000872291
0.000792413
0.000419341
0.000372238
0.000591044
0.000531315
0.000436254
0.000796972
0.00159912
0.00171004
0.00197758
0.00186928
0.00144991
0.00056696
0.00220485
0.00297368
0.00346428
0.00333976
0.00274906
0.00204969
0.00167577
0.00100531
0.00146114
0.00114263
0.000749518
0.000740428
0.000729684
0.00057802
0.000294597
0.000352649
0.000426656
0.000250235
0.000111716
0.000288964
0.000376716
0.00024045
0.000201296
0.000130902
0.000123037
8.78619e-05
6.33166e-05
3.19231e-05
9.1251e-06
4.25806e-05
9.39457e-05
0.000129731
0.000151724
0.000151304
0.000139179
0.000643663
0.000333825
0.000144995
0.000255235
0.000719192
0.000638592
0.000278969
0.00119629
0.00163029
0.00180061
0.00158803
0.00156829
0.00142608
0.000920814
0.00229188
0.00303315
0.00311301
0.00299548
0.00273408
0.00240121
0.00169625
0.00105539
0.0012261
0.000918099
0.000727104
0.000720276
0.000847825
0.000504002
0.000235482
0.000377295
0.000547044
0.000349832
6.30674e-05
6.62383e-05
0.000151073
0.000167152
0.000148105
0.000123817
9.90007e-05
7.5831e-05
3.35346e-05
2.1619e-05
6.98971e-06
0.000147336
0.00019003
0.000323361
0.000385731
0.000491233
0
0
0.000410134
0.000583076
0.000544388
0.000622225
0.000619834
0
0.000712177
0.000761015
0.00137713
0.00162147
0.00100868
0.000668682
0
0.00283529
0.00306634
0.0035744
0.00333855
0.00247398
0.00213448
0.00215084
0.00243884
0.00189878
0.00110193
0.000773782
0.000723715
0.000573598
0.000410028
0
0.000870165
0.000601239
0.000461077
0.000352691
0.000255557
0
0
0.000314968
0.000281775
0.000228029
0.000143698
0.000103965
0
4.94961e-05
0.000145217
0.000175934
0.000321212
0.000377526
0.000487137
0
0
0.000401183
0.000515112
0.000518735
0.000606678
0.000612299
0
0.000668198
0.000788602
0.00123732
0.000927703
0.000960996
0.000649369
0
0.00279938
0.00306688
0.00357509
0.00334268
0.00247377
0.00212835
0.0020917
0.00239869
0.00190691
0.00112046
0.000787412
0.000736508
0.000577323
0.000297114
0
0.000853469
0.000591708
0.000452686
0.000340252
0.000244529
0
0
0.000284559
0.000264847
0.000221511
0.000140941
9.71667e-05
0
0.000122463
0.00014452
0.000172584
0.000322088
0.000375574
0.000487001
0
0
0.000394023
0.000493919
0.000518714
0.000600892
0.000609068
0
0.000618026
0.000807137
0.00118496
0.00101382
0.000953576
0.000582793
0
0.00272897
0.00306787
0.00357532
0.00333952
0.00247086
0.00211965
0.00196933
0.00229207
0.0019309
0.00114133
0.000824517
0.000770716
0.000569794
0
2.39725e-05
0.000850376
0.000589255
0.000450317
0.000334297
0.000241428
0
0
0.000275067
0.00025926
0.00021914
0.000138685
9.47385e-05
0
0.000147061
0.000143607
0.000171847
0.000321988
0.000375158
0.000477704
0
0
0.000381877
0.000476027
0.000527733
0.000590689
0.000607613
0
0.000565704
0.000863698
0.00122654
0.00118034
0.000936631
0.000493236
0
0.00269186
0.00307007
0.00357534
0.00333512
0.0024623
0.00210781
0.00189056
0.00225364
0.00193893
0.00116299
0.000850891
0.000782878
0.000569607
0
0.00012595
0.000841671
0.000588015
0.000449394
0.000323893
0.000231451
0
0
0.000270883
0.000257142
0.000216664
0.000137166
9.08203e-05
0
0.000175175
0.000143233
0.000170169
0.000322484
0.000376628
0.000465539
0
0
0.000364273
0.000468168
0.000530931
0.000586463
0.000607118
4.82452e-05
0.000480805
0.000919931
0.00129305
0.00125839
0.000925461
0.000458654
0
0.00261673
0.00306806
0.00357528
0.00333303
0.0024512
0.00208234
0.00175111
0.00216275
0.00194548
0.00117803
0.000909111
0.000785555
0.000577468
0
0.000170638
0.000814664
0.000586252
0.000446688
0.00031735
0.000216522
0
0
0.000269986
0.000256279
0.000215581
0.000136592
8.91876e-05
0
0.000238647
0.00014209
0.000164674
0.000321423
0.000376778
0.000445979
0
0
0.000346246
0.000454944
0.000531681
0.000579156
0.000606805
0.000288888
0.000420159
0.00105256
0.00142379
0.00128956
0.000921635
0.000444065
0
0.00257775
0.00306489
0.00357515
0.00333803
0.00245187
0.00206938
0.00168122
0.00212125
0.00195148
0.00118447
0.000922185
0.000788876
0.000586071
0
0.000230669
0.000801368
0.000584029
0.000439726
0.000311236
0.000209814
0
7.38713e-05
0.000271127
0.000244096
0.000209729
0.000134552
8.64652e-05
0
0.0002863
0.000140769
0.000157832
0.000319061
0.000371926
0.000273755
0
0
0.000327814
0.000428612
0.000524124
0.00057587
0.000606193
0.000378091
0.000333839
0.00107764
0.00138543
0.00129409
0.000907119
0.000436727
0
0.00248138
0.00306586
0.00357521
0.00335117
0.00245306
0.00205871
0.00152189
0.00201494
0.00195725
0.00119776
0.00095116
0.000808638
0.000611399
0
0.00025081
0.000767571
0.00057733
0.000434792
0.000303156
0.000202253
0
0.000113736
0.000248302
0.000237656
0.000205363
0.000132649
8.39291e-05
0
1.7162e-06
1.66594e-05
2.54768e-05
1.85232e-05
1.12075e-05
9.68532e-06
1.59558e-06
8.28633e-06
7.39682e-06
8.11578e-05
0.000164812
0.000172844
0.000126715
2.549e-05
0.00121109
0.00135458
0.0012703
0.00112957
0.00112488
0.00112861
0.000956621
0.00241496
0.00300129
0.00292743
0.00294992
0.00271866
0.00238343
0.00176632
0.00110666
0.00111189
0.000849368
0.00102334
0.00122007
0.00116515
0.000399524
1.48953e-05
4.80238e-05
6.50713e-05
6.2763e-05
5.43539e-05
5.99483e-06
7.27741e-06
1.95126e-06
3.58238e-06
7.77845e-06
8.67673e-06
1.00732e-05
4.80008e-06
9.12903e-07
6.70891e-06
2.1679e-05
2.24915e-05
1.5611e-05
1.43037e-05
8.72482e-06
6.80889e-06
2.2571e-06
6.718e-06
7.32417e-05
7.66623e-05
7.70047e-05
5.05436e-05
3.44148e-05
0.00115581
0.00105196
0.000974429
0.001037
0.00122893
0.00114019
0.000961263
0.00251289
0.00296674
0.00287194
0.00291179
0.00274164
0.00239979
0.00184078
0.0010881
0.000968024
0.00086236
0.00123926
0.000769476
0.000919944
0.000689624
2.45147e-05
5.73896e-05
5.77147e-05
5.64027e-05
4.66598e-05
6.06148e-06
2.28572e-06
8.44849e-06
1.132e-05
1.28014e-05
1.45556e-05
1.03758e-05
3.07601e-06
2.83224e-06
1.49677e-05
2.48851e-05
3.16445e-05
2.48957e-05
2.3053e-05
2.0944e-05
2.40001e-05
4.00938e-06
6.39886e-06
7.38875e-05
7.96215e-05
7.98919e-05
7.50241e-05
6.42808e-05
0.00115459
0.000957025
0.000915345
0.00118388
0.00132027
0.00127248
0.00107191
0.00261092
0.00284726
0.00272001
0.00281395
0.00275243
0.00244374
0.00200155
0.00102499
0.000895143
0.00119228
0.00145745
0.00095396
0.000980397
0.000864123
5.53967e-05
6.57969e-05
6.25929e-05
6.13809e-05
5.27279e-05
9.57369e-06
6.54478e-06
2.88194e-05
2.91095e-05
2.93774e-05
2.79871e-05
1.46764e-05
4.59229e-06
7.43815e-06
1.75504e-05
3.49132e-05
5.30757e-05
5.3363e-05
5.03516e-05
5.26999e-05
6.04071e-05
1.11954e-05
8.2561e-06
8.48004e-05
0.000115283
0.000118977
0.000139023
0.000146166
0.00120759
0.000934503
0.000900908
0.00112763
0.00119216
0.00109993
0.00106779
0.00261715
0.00271307
0.00266176
0.00275114
0.00275971
0.0025283
0.00207671
0.000945811
0.00109106
0.00128017
0.0013973
0.0011372
0.000976716
0.000908195
0.000103164
9.08002e-05
9.87169e-05
9.32e-05
5.58759e-05
1.23639e-05
2.13304e-05
4.63032e-05
4.1551e-05
3.88222e-05
3.25501e-05
1.56125e-05
5.8948e-06
9.84359e-06
2.52511e-05
4.04704e-05
5.44545e-05
5.07415e-05
5.03111e-05
5.82692e-05
6.0172e-05
1.53897e-05
1.04987e-05
7.49564e-05
0.000119059
0.000128221
0.000135771
0.000144426
0.00093295
0.000811733
0.00072991
0.000810958
0.00102069
0.00101605
0.000986461
0.00257603
0.00260345
0.00250854
0.00266825
0.00276877
0.00264769
0.00224536
0.000882368
0.000897442
0.00108276
0.00122596
0.00108673
0.000933076
0.000939823
0.000139983
0.000142767
0.000132233
0.00010524
5.47213e-05
1.1999e-05
1.41007e-05
7.54152e-05
6.61157e-05
5.87468e-05
4.41881e-05
1.81007e-05
5.99198e-06
8.32194e-06
2.69699e-05
4.18862e-05
5.29092e-05
4.83788e-05
4.63737e-05
5.19004e-05
5.04952e-05
1.68253e-05
1.70929e-05
7.3908e-05
9.84156e-05
0.000100217
0.000104576
0.00011634
0.000731289
0.000597757
0.000480417
0.000596344
0.000862655
0.000967661
0.000866881
0.0024501
0.00235897
0.00243328
0.0026049
0.00276492
0.00267078
0.00245286
0.000825003
0.000926202
0.00110209
0.00119097
0.00110181
0.000971935
0.00107221
0.000154234
0.000129831
9.86308e-05
8.71188e-05
5.93667e-05
1.26314e-05
1.41237e-05
7.06145e-05
6.4306e-05
5.37012e-05
4.3962e-05
2.13871e-05
6.03953e-06
7.47113e-06
2.85009e-05
3.83069e-05
4.33529e-05
4.27796e-05
4.18689e-05
4.12202e-05
4.15818e-05
2.14945e-05
2.22303e-05
6.41023e-05
7.0089e-05
6.9274e-05
6.69857e-05
6.80153e-05
0.000630599
0.000316363
0.000221227
0.000361658
0.000695453
0.000881923
0.00089168
0.00225588
0.00202124
0.00222303
0.00225268
0.00264643
0.00261966
0.00250015
0.00079231
0.000821347
0.000951369
0.00101428
0.000990334
0.000852192
0.000899993
8.99409e-05
7.8547e-05
6.8171e-05
6.40373e-05
5.91699e-05
2.61916e-05
2.70469e-05
4.89705e-05
4.56058e-05
4.40173e-05
3.92446e-05
3.29078e-05
1.09591e-05
1.14319e-05
8.24529e-07
7.42998e-07
6.64953e-07
5.67304e-07
5.3258e-07
5.11109e-07
3.24659e-07
6.59307e-06
5.52129e-07
4.93848e-07
3.57566e-07
1.35844e-07
1.29755e-07
1.06035e-07
0.000843482
1.7661e-05
2.03282e-05
2.3763e-05
2.81699e-05
2.98363e-05
3.33907e-05
0.0012402
0.000618881
0.000341473
0.000196779
0.000174917
0.000146339
0.000142301
2.84406e-05
6.44811e-06
8.78941e-06
1.3184e-05
1.62823e-05
2.02632e-05
2.57702e-05
9.17461e-07
6.47733e-07
6.14031e-07
5.29154e-07
4.17358e-07
4.10026e-07
3.85011e-07
8.84322e-07
8.89242e-07
8.84719e-07
8.23989e-07
7.32016e-07
6.84703e-07
4.22922e-07
5.88376e-06
5.72469e-06
5.60286e-06
5.29191e-06
4.28544e-06
3.79911e-06
1.87065e-06
1.50143e-05
4.82104e-06
1.47982e-06
1.39218e-06
1.26751e-06
1.24635e-06
1.15454e-06
0.000881316
0.000452141
2.03433e-05
2.37482e-05
2.67925e-05
3.12252e-05
3.92167e-05
0.00133831
0.000816412
0.000477806
0.000333381
0.000231901
0.000214556
0.000204315
8.98939e-05
7.11005e-06
9.23984e-06
1.30944e-05
1.90176e-05
2.48546e-05
3.16181e-05
2.95296e-06
1.7389e-06
1.73437e-06
1.6807e-06
1.54632e-06
1.49159e-06
1.33016e-06
4.23078e-06
4.27998e-06
4.24718e-06
3.96831e-06
3.16851e-06
2.76312e-06
1.63836e-06
2.58306e-05
2.57658e-05
2.44048e-05
2.28706e-05
1.86365e-05
1.5067e-05
7.52593e-06
3.69138e-05
2.67333e-05
1.42266e-05
7.04349e-06
6.85171e-06
6.50659e-06
6.31394e-06
0.000915613
0.000803925
0.000384663
3.79546e-05
2.42875e-05
3.0148e-05
3.81878e-05
0.00163296
0.0012584
0.000854327
0.000582555
0.000396995
0.000372366
0.000324702
0.000493818
0.000221413
2.95582e-05
1.25354e-05
1.65883e-05
2.49145e-05
3.45981e-05
1.26572e-05
8.4082e-06
5.75555e-06
5.53996e-06
5.35427e-06
4.95025e-06
4.78698e-06
1.02416e-05
1.03939e-05
1.00037e-05
9.46623e-06
9.18698e-06
5.6485e-06
3.39172e-06
5.33128e-05
4.73845e-05
4.45398e-05
4.16645e-05
3.91502e-05
3.32888e-05
1.59786e-05
9.60231e-05
5.70444e-05
4.01851e-05
2.33191e-05
2.07998e-05
2.00955e-05
2.00051e-05
0.000984696
0.000871928
0.000772738
0.000547198
0.000201891
7.39008e-05
2.98015e-05
0.00176646
0.00167097
0.00148855
0.00130223
0.00105063
0.000879288
0.000701586
0.000772353
0.000707446
0.000550687
0.000293701
9.21084e-05
1.86737e-05
2.33138e-05
4.59248e-05
3.29377e-05
1.96732e-05
1.23558e-05
9.84484e-06
9.14788e-06
8.06003e-06
1.84416e-05
1.6302e-05
1.39586e-05
1.36462e-05
1.35508e-05
1.23744e-05
4.85238e-06
5.94999e-05
5.61804e-05
5.33503e-05
5.13175e-05
4.94104e-05
4.40034e-05
2.83997e-05
0.000139979
0.00013078
0.000112987
6.39237e-05
3.50551e-05
2.60624e-05
2.41578e-05
0.000946962
0.000914168
0.000814278
0.000723734
0.000604931
0.000479044
0.000227319
0.00181915
0.00176642
0.00163115
0.0015497
0.00143792
0.0012925
0.000980357
0.000892149
0.000862803
0.000760659
0.000640491
0.000342336
0.000156247
6.4831e-05
2.53177e-05
2.33444e-05
2.33072e-05
2.12142e-05
1.48278e-05
1.58776e-05
1.22991e-05
1.3342e-05
1.31017e-05
1.33039e-05
1.33323e-05
1.50943e-05
1.4773e-05
8.58172e-06
4.70873e-05
5.20942e-05
5.47573e-05
5.21856e-05
4.98491e-05
4.44388e-05
3.5455e-05
0.000112801
0.000126603
0.000120138
0.000105688
9.63109e-05
8.00306e-05
6.0927e-05
0.000844489
0.000846604
0.00083186
0.000788426
0.000732571
0.000611956
0.000533242
0.00220182
0.00200172
0.00192
0.00187096
0.00174536
0.00167742
0.00142023
0.00106363
0.00104327
0.000968965
0.000896838
0.000833877
0.000656369
0.000524375
1.64048e-05
1.83841e-05
1.97008e-05
1.99161e-05
1.88805e-05
2.05108e-05
2.1386e-05
9.26764e-06
9.72248e-06
1.15734e-05
1.39572e-05
1.52161e-05
1.87254e-05
9.98604e-06
4.2449e-05
4.28886e-05
4.28905e-05
4.22787e-05
4.07318e-05
3.92017e-05
3.5314e-05
6.77899e-05
7.07324e-05
7.31788e-05
7.14326e-05
6.9038e-05
6.45475e-05
6.43004e-05
0.000844584
0.000841776
0.000822029
0.000800126
0.000741451
0.000669834
0.000646118
0.00244058
0.00235902
0.00232109
0.00228142
0.00223451
0.0021166
0.0020468
0.000888578
0.000884621
0.000878676
0.000860418
0.000825033
0.000754343
0.000725179
2.78864e-05
2.91033e-05
3.0245e-05
3.10802e-05
3.13247e-05
3.14075e-05
3.27017e-05
1.27764e-05
1.50677e-05
1.77691e-05
1.85625e-05
1.96189e-05
2.05474e-05
1.0865e-05
2.22712e-07
4.37233e-07
5.18729e-07
6.51729e-07
6.5555e-07
6.38392e-07
6.64991e-07
1.43629e-07
1.71178e-07
1.85486e-07
3.11822e-06
3.30989e-06
3.45901e-06
1.07402e-05
0.000441319
0.00103992
0.00106241
0.00110716
0.00112319
0.00112751
0.00114608
0.000707186
0.000739206
0.000752997
0.000798827
0.0011717
0.00159457
0.00211382
7.87088e-05
6.57353e-05
5.12176e-05
4.98524e-05
5.06506e-05
5.61379e-05
0.000967194
3.2908e-07
4.06458e-07
4.1245e-07
5.31071e-07
8.634e-07
1.2471e-06
6.19017e-06
5.58949e-07
8.58106e-07
8.76785e-07
8.59709e-07
8.50024e-07
8.71506e-07
1.017e-06
1.04859e-06
2.45123e-06
3.58849e-06
4.81467e-06
4.76558e-06
4.65606e-06
4.00831e-06
4.98169e-07
6.41894e-07
7.13355e-07
9.4787e-07
1.02927e-06
1.08747e-06
1.72706e-06
0.000309607
0.00100992
0.000981792
0.00099027
0.00106939
0.00109479
0.00113478
0.000866727
0.000925598
0.000994832
0.00122862
0.00153631
0.00183924
0.00224907
8.12477e-05
6.377e-05
5.50141e-05
5.00398e-05
5.47798e-05
0.000837494
0.00103079
2.04224e-06
2.36292e-06
2.41444e-06
2.63035e-06
2.7794e-06
7.42171e-06
1.13609e-05
2.6577e-06
4.90529e-06
5.56527e-06
6.16574e-06
7.00786e-06
7.72714e-06
7.83581e-06
3.65227e-06
9.32361e-06
1.11933e-05
1.17273e-05
1.13471e-05
1.10809e-05
9.42182e-06
1.8591e-06
4.3835e-06
4.25065e-06
3.98233e-06
3.6758e-06
3.3994e-06
3.38773e-06
0.000346521
0.000920959
0.000874171
0.000932418
0.000956771
0.00100072
0.00108854
0.00108155
0.00126144
0.0014209
0.0017194
0.00206019
0.00229908
0.00244944
7.28942e-05
5.91374e-05
5.44773e-05
0.00017398
0.000696695
0.000958834
0.00102206
9.72148e-06
1.13327e-05
1.17129e-05
1.47797e-05
1.93712e-05
2.56941e-05
3.08107e-05
6.34014e-06
1.65485e-05
2.58143e-05
2.90636e-05
3.13439e-05
3.16413e-05
3.05298e-05
7.99481e-06
1.48182e-05
1.38635e-05
1.29127e-05
1.28466e-05
1.22563e-05
1.00509e-05
6.50468e-06
1.55528e-05
1.45971e-05
1.69477e-05
1.61827e-05
1.56345e-05
1.43623e-05
0.000501642
0.000812565
0.000871454
0.000969966
0.00100759
0.00104634
0.0011622
0.00165462
0.00189131
0.00212562
0.00223452
0.00237686
0.0024303
0.00249785
8.0277e-05
0.000211094
0.000441077
0.000730583
0.000867018
0.000924594
0.000933262
4.02431e-05
4.14315e-05
4.14255e-05
4.65802e-05
5.2013e-05
5.9174e-05
7.72401e-05
1.73288e-05
4.05136e-05
5.19616e-05
5.52733e-05
5.47034e-05
5.34751e-05
5.19197e-05
1.0876e-05
1.71058e-05
1.34854e-05
1.23537e-05
1.26716e-05
1.34499e-05
1.63244e-05
2.12509e-05
2.9226e-05
2.86487e-05
2.81045e-05
2.87867e-05
2.73359e-05
2.23282e-05
0.00056086
0.000814675
0.000876304
0.000935487
0.00100552
0.00103812
0.00106438
0.00182806
0.00206151
0.00213959
0.00223503
0.00237387
0.00241627
0.00246135
0.000330885
0.000529228
0.000622393
0.000729689
0.000769754
0.000794437
0.000831682
6.0177e-05
5.82112e-05
5.74781e-05
6.38213e-05
9.05758e-05
0.000111489
0.000121585
3.43115e-05
5.97032e-05
7.05623e-05
7.46092e-05
7.60525e-05
7.5933e-05
7.42231e-05
1.30437e-05
2.02202e-05
1.84216e-05
1.72364e-05
1.76068e-05
1.91588e-05
2.26988e-05
2.9831e-05
1.84977e-05
1.99174e-05
2.0264e-05
1.99362e-05
1.93875e-05
1.83074e-05
0.000665051
0.000723353
0.00076798
0.000827386
0.000878461
0.000898764
0.00089706
0.00193832
0.00216547
0.00223467
0.00235474
0.00240147
0.00242623
0.00244862
0.00052626
0.000598265
0.000673476
0.000743127
0.000789889
0.000829933
0.000846213
9.7305e-05
0.000101668
0.00010359
0.000109527
0.000131486
0.000157407
0.000162162
4.61427e-05
6.022e-05
7.18479e-05
7.91741e-05
8.43523e-05
8.52421e-05
7.99441e-05
1.32075e-05
2.4396e-05
2.45232e-05
2.46805e-05
2.48801e-05
2.57222e-05
2.72246e-05
2.56618e-05
2.02078e-05
2.09428e-05
2.1303e-05
2.15534e-05
2.16739e-05
2.17866e-05
0.000732744
0.000754143
0.000789736
0.000848842
0.000860376
0.000860888
0.000848681
0.00218515
0.00223479
0.0022915
0.00231283
0.00231676
0.00231192
0.0022797
0.000732254
0.000761026
0.000834683
0.000864876
0.000878747
0.000881977
0.00085014
9.55797e-05
9.48901e-05
9.59293e-05
9.79942e-05
9.82481e-05
9.71589e-05
9.18969e-05
4.91789e-05
5.16601e-05
5.22741e-05
5.27706e-05
5.30051e-05
5.32462e-05
5.04424e-05
1.17897e-08
1.29169e-08
2.57426e-08
3.84174e-08
5.38059e-08
9.38203e-08
1.31971e-07
1.39425e-08
1.735e-08
3.5015e-08
7.17829e-08
1.1659e-07
1.32672e-07
1.36788e-07
0.000186281
0.000190555
0.000175961
0.000149582
0.000108379
8.98391e-05
6.93971e-05
0.000558062
0.000570736
0.000572681
0.000574996
0.000579273
0.000597651
0.00061825
0.000196395
0.000220309
0.00020782
0.000166342
0.000109829
9.79089e-05
9.03731e-05
1.27565e-08
1.3046e-08
2.07791e-08
2.53567e-08
5.13567e-08
8.22861e-08
1.72829e-07
8.68659e-09
8.41298e-09
2.35256e-08
3.26727e-08
8.00654e-08
1.23331e-07
2.23963e-07
9.56933e-09
1.45631e-08
3.80991e-08
7.19467e-08
1.41199e-07
3.50289e-07
4.92603e-07
1.27996e-08
2.8702e-08
1.3408e-07
3.21896e-07
3.90782e-07
4.44035e-07
4.64638e-07
0.000196757
0.000211603
0.00020497
0.000156805
0.00012553
9.87265e-05
7.51999e-05
0.000616673
0.000677762
0.00069003
0.000696294
0.00069938
0.000718312
0.000739983
0.000207867
0.000257429
0.000243253
0.00017048
0.000142375
0.000108065
9.05483e-05
1.24988e-08
1.6805e-08
2.88946e-08
6.89501e-08
3.20704e-07
6.49615e-07
1.4939e-06
7.50665e-09
8.31313e-09
3.0529e-08
6.43398e-08
2.84263e-07
5.24003e-07
1.30325e-06
5.85318e-09
1.52754e-08
5.01439e-08
1.35278e-07
2.51602e-07
7.25802e-07
7.50592e-07
2.29495e-08
5.49192e-08
2.09054e-07
7.89067e-07
1.30294e-06
1.5582e-06
1.70133e-06
0.000210126
0.000245686
0.000252533
0.00018798
0.000129899
9.82157e-05
7.39862e-05
0.000664261
0.000735952
0.000766991
0.000782626
0.000796692
0.00082043
0.000866665
0.000223995
0.000288044
0.000285164
0.000203848
0.000147046
0.000113225
9.6773e-05
2.02987e-08
2.4623e-08
5.72965e-08
3.60857e-07
1.77923e-06
3.12564e-06
6.02366e-06
4.37857e-09
8.11545e-09
4.06523e-08
1.09663e-07
6.25527e-07
1.44002e-06
3.38142e-06
6.71318e-09
1.86812e-08
6.26399e-08
1.75811e-07
2.89317e-07
1.07144e-06
7.68229e-07
3.10558e-08
7.51386e-08
5.13037e-07
3.32563e-06
3.4397e-06
3.88064e-06
5.77764e-06
0.000228235
0.000259879
0.000265588
0.000209031
0.00014481
8.13746e-05
9.72249e-05
0.000711751
0.000852926
0.000883053
0.000911993
0.000983331
0.00111249
0.00133014
0.000245437
0.000289849
0.000286698
0.000241978
0.000191389
0.000131784
0.000102169
2.35272e-08
2.72755e-08
1.43221e-07
1.29424e-06
4.76095e-06
2.00369e-05
3.50404e-05
4.2919e-09
8.81537e-09
4.79722e-08
1.38443e-07
7.66475e-07
2.29893e-06
3.76236e-06
7.0615e-09
2.01705e-08
7.285e-08
1.92925e-07
3.67337e-07
1.26954e-06
6.94806e-07
3.59188e-08
1.03973e-07
1.92051e-06
6.60207e-06
5.04621e-06
6.49035e-06
1.3555e-05
0.000244451
0.000277653
0.000276145
0.000200214
0.000124389
0.000104579
0.000241955
0.000799171
0.000972653
0.0011094
0.00122584
0.00135016
0.00145505
0.00169438
0.000281206
0.000305809
0.000294235
0.000231839
0.000175313
0.00013228
0.00017824
2.5652e-08
3.98903e-08
3.27799e-07
2.31391e-06
2.3118e-05
4.91332e-05
5.39453e-05
4.25907e-09
9.51092e-09
5.16036e-08
1.48223e-07
8.59278e-07
2.57259e-06
5.68573e-06
7.22662e-09
2.12803e-08
7.80889e-08
2.04926e-07
3.99e-07
1.33938e-06
6.70446e-07
4.11046e-08
1.29756e-07
4.56205e-06
1.02729e-05
6.79854e-06
1.9837e-05
2.96012e-05
0.000295123
0.000323439
0.000293493
0.000201759
0.000124405
0.000195997
0.00048228
0.000836228
0.00109035
0.00120338
0.0013024
0.00142715
0.00164087
0.00182713
0.000318123
0.000347032
0.000309555
0.000233153
0.000163302
0.000207543
0.000363659
2.76696e-08
5.80998e-08
6.75263e-07
3.31244e-06
4.2475e-05
7.34244e-05
9.04771e-05
4.27181e-09
9.70154e-09
5.29781e-08
1.50282e-07
9.49582e-07
2.84854e-06
7.70428e-06
7.09574e-09
2.16288e-08
8.12176e-08
2.09304e-07
4.34175e-07
1.39839e-06
6.73656e-07
4.46306e-08
1.55734e-07
6.37639e-06
1.3503e-05
2.6069e-05
2.84877e-05
2.81731e-05
0.000294568
0.000352866
0.000285995
0.00022352
0.000313701
0.000529117
0.000666607
0.000960941
0.00131248
0.00147224
0.00163269
0.00182787
0.00198579
0.00208071
0.000308799
0.000378964
0.000305154
0.000274117
0.000376986
0.000521995
0.000650654
2.90671e-08
6.63536e-08
8.18404e-07
3.72231e-06
5.42972e-05
7.92077e-05
9.53745e-05
3.5181e-09
9.73611e-09
5.19772e-08
1.48832e-07
9.9697e-07
2.95646e-06
8.45047e-06
3.46826e-09
2.1996e-08
6.50205e-08
2.11954e-07
5.03613e-07
1.74382e-06
6.75674e-07
5.54567e-08
2.33825e-07
3.81934e-07
7.56591e-07
1.15784e-05
1.75784e-05
2.16811e-05
0.00028213
0.000269655
0.000250612
0.000201275
0.000217627
0.000337676
0.000384914
0.00112984
0.00130357
0.0012582
0.00117023
0.00121533
0.00128166
0.00127728
0.000293272
0.000297025
0.000248961
0.000226335
0.000278027
0.000285278
0.000282838
3.15078e-08
7.99989e-08
3.88353e-07
7.05658e-07
2.29608e-06
2.96359e-06
3.28946e-05
1.27764e-09
9.76236e-09
2.63996e-08
1.4764e-07
3.40878e-07
2.97804e-06
7.45313e-06
3.82961e-09
2.13363e-08
7.21612e-08
1.71845e-07
3.2887e-07
4.49146e-07
2.3098e-07
6.08997e-08
2.95308e-07
8.07536e-07
1.95774e-06
3.41712e-06
5.30118e-06
1.44303e-06
0.000189632
0.000179869
0.000185718
0.000154474
0.000138841
0.00018577
0.000250942
0.00110722
0.00120834
0.00100349
0.00102321
0.000995106
0.00104892
0.00108145
0.000214844
0.000215044
0.000208116
0.000189467
0.000200019
0.000195405
0.000197703
2.54151e-08
7.22118e-08
3.72508e-07
9.86734e-07
9.98509e-07
1.63267e-07
5.37403e-07
1.28077e-09
6.1825e-09
2.37497e-08