/*--------------------------------*- C++ -*----------------------------------*\
  =========                 |
  \\      /  F ield         | OpenFOAM: The Open Source CFD Toolbox
   \\    /   O peration     | Website:  https://openfoam.org
    \\  /    A nd           | Version:  6
     \\/     M anipulation  |
\*---------------------------------------------------------------------------*/
FoamFile
{
    version     2.0;
    format      ascii;
    class       volScalarField;
    location    "0.0225";
    object      p;
}
// * * * * * * * * * * * * * * * * * * * * * * * * * * * * * * * * * * * * * //

dimensions      [1 -1 -2 0 0 0 0];

internalField   nonuniform List<scalar> 
3773
(
43915.3
43914.9
43914.4
43913.9
43914.2
43914.8
43915.2
105935
105935
105935
105936
105935
105935
105935
143055
143055
143055
143055
143055
143055
143055
155409
155409
155409
155409
155409
155409
155409
143055
143055
143055
143055
143055
143055
143055
105935
105935
105935
105935
105935
105935
105934
43914.3
43913.8
43913.3
43912.9
43913.2
43914
43914.4
43915.1
43914.8
43914.3
43913.9
43914.2
43914.8
43915.3
105935
105935
105936
105936
105936
105935
105935
143057
143057
143057
143057
143057
143057
143057
155411
155410
155410
155410
155410
155410
155410
143057
143057
143057
143057
143057
143057
143057
105935
105935
105935
105935
105935
105935
105935
43914.3
43913.8
43913.3
43912.9
43913.2
43914
43914.4
43915.6
43915.4
43914.9
43914.5
43914.8
43915.4
43915.8
105935
105935
105936
105936
105936
105935
105935
143061
143061
143061
143061
143061
143061
143061
155413
155412
155412
155412
155412
155412
155412
143060
143060
143061
143061
143061
143060
143060
105935
105935
105935
105935
105935
105935
105934
43914.8
43914.4
43913.9
43913.6
43913.9
43914.5
43914.9
43915.4
43915.2
43914.8
43914.5
43914.8
43915.2
43915.6
105935
105936
105936
105936
105936
105936
105935
143064
143064
143064
143065
143065
143064
143064
155415
155415
155415
155415
155415
155415
155415
143064
143064
143064
143064
143064
143064
143064
105935
105935
105936
105936
105935
105935
105935
43914.5
43914.3
43913.8
43913.6
43913.9
43914.4
43914.7
43913.8
43913.7
43913.4
43913.1
43913.4
43913.8
43914
105935
105936
105936
105936
105936
105936
105936
143067
143067
143068
143068
143068
143068
143067
155418
155418
155418
155417
155417
155417
155418
143067
143067
143067
143067
143067
143067
143067
105935
105935
105936
105936
105935
105935
105935
43913.1
43912.8
43912.4
43912.3
43912.5
43912.9
43913.2
43911.7
43911.5
43911.3
43911.1
43911.3
43911.6
43911.9
105936
105936
105936
105936
105936
105936
105936
143069
143069
143070
143070
143070
143070
143069
155420
155420
155420
155419
155419
155419
155420
143069
143069
143069
143069
143069
143069
143069
105935
105935
105936
105936
105935
105935
105935
43911
43910.7
43910.3
43910.3
43910.6
43910.9
43911.1
43909.9
43909.8
43909.6
43909.4
43909.6
43909.9
43910.1
105936
105936
105937
105937
105936
105936
105936
143070
143070
143070
143071
143071
143071
143070
155421
155421
155421
155421
155420
155420
155421
143070
143070
143070
143070
143070
143070
143070
105935
105935
105936
105936
105936
105935
105935
43909.2
43909
43908.7
43908.7
43909
43909.2
43909.4
64327.9
64470.7
64280.3
63914.5
63600.4
63531.4
63699.1
151314
151365
151234
151033
150817
150731
150943
202032
201983
201918
201885
201884
201925
202056
218655
218599
218570
218562
218579
218609
218658
201957
201884
201850
201815
201779
201771
201813
151003
150997
151028
150952
150845
150793
150831
64155.5
64221.8
64187.5
64027.4
63814.1
63692.2
63695.2
63636.3
63699.4
63467.2
63166.8
62867.1
62746.5
62897.4
150308
150399
150306
150181
150000
149853
149954
201467
201461
201446
201429
201405
201369
201477
218410
218338
218316
218320
218334
218354
218413
201657
201531
201483
201459
201462
201465
201511
150451
150341
150329
150272
150206
150134
150146
63725.7
63659.7
63558.2
63357.9
63165
63086
63099.6
62978.5
63004.3
62846.1
62672.1
62421.9
62315.6
62413.8
149578
149670
149654
149584
149446
149331
149371
201083
201112
201121
201109
201061
200999
201041
218131
218084
218051
218039
218042
218050
218098
201346
201237
201142
201102
201126
201162
201201
150042
149882
149787
149736
149747
149738
149730
63288.1
63137.4
62981.3
62804.7
62695.3
62649.3
62664.3
62375
62476.9
62453.6
62515.9
62334.5
62265
62391
148986
149041
149116
149188
149175
149179
149357
200818
200790
200760
200759
200713
200698
200829
217826
217779
217735
217706
217666
217669
217754
200878
200774
200716
200716
200734
200807
200900
149659
149373
149248
149313
149417
149508
149586
62973.2
62817.2
62615.7
62518.9
62546.7
62506.3
62573.7
62073.1
62153.1
62215.4
62431.6
62432.3
62464.2
62609.1
148722
148694
148767
149002
149178
149379
149638
200580
200467
200395
200459
200509
200613
200872
217389
217356
217319
217307
217299
217364
217474
200164
200122
200136
200187
200238
200377
200485
148904
148612
148584
148700
148888
149160
149280
62578.2
62526.3
62337
62300.1
62371.6
62490.7
62533
62121.4
62207
62146.4
62360.3
62519.5
62689
62785.8
148677
148611
148677
148919
149159
149521
149735
200235
200140
200106
200176
200327
200520
200712
216933
216969
216948
216905
217019
217053
217136
199616
199601
199686
199723
199790
199861
199961
148144
147897
147969
148089
148282
148586
148751
62141.7
62040.3
61878.6
61935.1
62104.5
62422.1
62485.5
62489.9
62659.3
62275.6
62388
62582.4
62806.9
62813
148795
148706
148676
148849
149100
149485
149593
199857
199821
199795
199825
200200
200386
200265
216467
216805
216447
216456
216759
216786
216635
199496
199503
199477
199362
199588
199570
199618
148046
147850
147894
147983
148052
148172
148428
62081
61871.9
61754.2
61853.3
62008.8
62216.2
62422.2
62531.7
62887.2
62668.2
62416.6
62389.5
62071.4
62309.2
148195
148360
148498
148402
148892
149209
148922
199407
199313
199362
199519
199753
199795
199972
216687
216584
216515
216525
216635
216629
216668
200209
200011
199870
199838
199897
199865
199799
148969
148738
148693
148742
148778
148928
149003
62538.6
62570.4
62674.5
62670.7
62744.8
62734.8
62839.8
61623.6
62387.2
62123.8
62080
62164
62179.2
62303.8
147404
147427
147491
147860
148226
148562
148942
199009
198910
198899
199083
199239
199501
199811
216493
216400
216344
216329
216342
216382
216331
200212
200059
199953
199861
199797
199746
199696
148904
148748
148697
148713
148740
148821
148795
62232
62197.3
62208
62221.5
62411.2
62759.5
62723.7
61165.8
62491.7
61778.8
61838.9
62097.4
62279.8
62236.8
147218
147256
147107
147484
147907
148524
148946
198788
198664
198644
198786
198875
199131
199435
216052
215973
215986
216030
215998
216027
216036
199729
199611
199627
199609
199525
199407
199401
148891
148766
148782
148673
148545
148256
148304
62142.5
62142.6
62064.3
62009.3
62005
62376.2
62444.6
61445.5
62480.3
61579.1
61613.6
61947.8
61995.9
61963
147570
147478
147278
147482
147790
148102
148439
198823
198645
198631
198608
198592
198771
199055
215723
215610
215638
215707
215735
215764
215834
199193
198925
198854
198962
199065
199076
199145
148675
148402
148244
148117
147788
147512
147960
62072.4
61999.9
61943.1
61804.6
61326.4
61325.4
62231.4
61601.4
61908.6
60984.2
61143.9
61295.8
61361.1
61455.3
147788
147594
147320
147304
147201
147232
147463
199029
198851
198771
198608
198406
198407
198590
215577
215495
215562
215648
215655
215610
215691
198558
198168
198213
198516
198868
199015
199073
147723
147091
146704
146990
147408
147540
147873
61517.7
61258.7
61083.4
61096.7
61088.6
61219.4
62239.1
61511.1
62124.6
60998.9
60582.4
60613.1
60909.1
61208.6
147818
147943
147580
146962
146431
146497
146757
199265
199225
199069
198791
198388
198139
198181
215515
215563
215715
215841
215738
215529
215536
197927
197799
198140
198768
199318
199313
199180
146434
145833
145812
146514
148097
148418
148151
60819.7
60469.2
60280.9
60498.7
61551.9
62531.5
63015.6
62570.7
66532.3
63301.1
61117.8
60926.3
61317.9
61371.2
148443
149942
149572
147226
146421
146693
146883
199230
199806
199715
198865
198327
198135
197900
214941
215597
215930
215885
215570
215204
214853
197309
197836
198503
199172
199747
199435
198568
145884
145722
146269
148048
151152
150606
147893
60433.5
60291.1
60577.7
62067.7
64694.2
66055.7
63859.9
63313.3
64149.4
62610.3
62598.5
62672.1
62589.6
62810.6
148801
148787
148813
148868
148946
149068
149542
199538
199616
199720
199973
200150
200150
200413
216545
216449
216417
216422
216696
216719
216673
199679
199520
199646
199589
199676
199584
199650
148539
148183
148361
148553
148606
148597
148668
62482.8
62487.2
62521.2
62683.8
63029.2
63038.2
62619.8
63360.8
64281.6
62639
62600.8
62664.9
62551.3
62804.7
148813
148781
148833
148851
148954
149039
149524
199552
199583
199704
199970
200152
200140
200421
216542
216434
216416
216417
216701
216707
216675
199698
199518
199660
199614
199682
199593
199662
148590
148234
148421
148620
148684
148661
148700
62506.3
62524.3
62575
62757.3
63134.7
63116.1
62615.4
63407.1
64440.8
62685.7
62592.7
62654.6
62508.9
62807.2
148812
148760
148839
148818
148985
149026
149504
199587
199553
199687
199925
200150
200128
200404
216545
216451
216423
216406
216703
216701
216689
199720
199549
199676
199637
199696
199608
199674
148620
148293
148473
148675
148740
148721
148729
62533.8
62532.6
62621.2
62832
63238.5
63204
62592.7
63481
64655.8
62752.9
62591.6
62656.8
62458.3
62813.8
148794
148755
148834
148782
149033
149025
149482
199615
199529
199669
199873
200132
200104
200366
216559
216474
216433
216399
216692
216691
216707
199740
199596
199692
199653
199712
199629
199681
148660
148358
148535
148734
148806
148805
148753
62568.9
62556
62685.3
62938.2
63359.5
63297.7
62572.8
63542.9
64925.1
62845.3
62607.7
62667.2
62393.6
62807.7
148774
148758
148823
148729
149091
149043
149462
199634
199513
199649
199824
200111
200080
200322
216574
216486
216443
216391
216671
216667
216722
199761
199642
199712
199669
199730
199653
199686
148714
148419
148598
148794
148872
148892
148779
62604.8
62613.1
62770
63094.4
63530.6
63400.7
62574
63540.6
65032.3
62925.6
62614.4
62682.2
62314.9
62780.7
148755
148761
148808
148650
149147
149078
149433
199643
199498
199627
199785
200099
200060
200292
216587
216491
216453
216393
216651
216637
216729
199792
199685
199735
199683
199751
199675
199699
148778
148460
148641
148842
148922
148944
148803
62639.4
62707.8
62894.5
63243.3
63657.1
63451.1
62595.2
63437.8
64771.9
62915.2
62584.2
62682.2
62267
62733.8
148732
148734
148775
148583
149171
149103
149379
199639
199481
199601
199749
200078
200033
200265
216602
216497
216464
216413
216643
216626
216724
199840
199724
199758
199702
199775
199699
199715
148835
148487
148663
148859
148939
148950
148821
62642.3
62779.6
62982.5
63235.4
63594.3
63357.1
62629
70462.9
71628
67486
63716.8
62002.9
61536.2
61518
152267
156970
156319
150087
147399
146802
146652
198390
201101
201369
199169
198135
197974
197401
212963
215694
216107
215574
215484
215142
213323
196474
198106
198643
199170
200567
200123
197453
146048
146372
147731
151255
156969
155395
147913
61386.6
61323.2
62481.3
66090.4
70536.2
69601.1
63842.5
71980.5
71330.3
67505.2
64318.1
62350.4
61358.5
60875.7
153369
158299
157302
151023
147817
146763
146213
198302
201622
201891
199342
198020
197865
197443
213107
215797
216181
215575
215402
215183
213402
196619
198196
198671
199175
200798
200464
197276
145973
146597
148228
152023
158054
155934
147789
61111.2
61472
63076.1
67272.9
71239.7
69147.6
62827.6
71483.2
70334.3
67126.3
64562.2
62584.8
61225.9
60390.7
153421
158075
157227
151580
148202
146725
145861
198544
202001
202291
199610
197973
197707
197483
213732
215961
216267
215797
215508
215295
213777
196903
198193
198656
199288
200891
200613
197212
145921
146814
148548
152092
157729
155352
147255
60811.6
61577.9
63347.4
67511
71157.3
67986.2
61553.5
70318
69125.8
66761.2
64579.9
62698.4
61284.2
60297.4
152875
157143
156483
151611
148381
146734
145698
198961
202173
202498
199947
198103
197553
197341
214352
216134
216376
216147
215835
215480
214147
197036
198123
198645
199516
201118
200786
197359
145830
146936
148574
151796
156562
154171
146612
60665.7
61536.7
63325.2
67095.2
70678.8
66978.1
60830.2
69556.7
68446.7
66516.5
64495.7
62702.1
61374.9
60312.9
152587
156391
155936
151667
148557
146906
145740
199472
202369
202657
200315
198320
197522
197134
214821
216262
216518
216487
216179
215691
214480
197069
198093
198694
199765
201460
201049
197654
145736
146976
148614
151696
156035
153886
146403
60554.5
61421.4
63222.8
66781.5
70487.8
66943.6
60817.2
69649.4
68407.8
66471.1
64451.2
62694.8
61426.8
60348.9
152742
156443
155981
151753
148592
146952
145700
199999
202663
202848
200623
198558
197588
196936
215100
216298
216679
216751
216483
215891
214725
197070
198050
198736
199978
201812
201331
198015
145607
146906
148626
151883
156241
154347
146644
60477.8
61303.7
63168.5
66782.5
70726.1
67510.2
61126.1
70421.3
68794.1
66589.6
64483.4
62705
61475.7
60458.7
153320
156941
156286
151975
148613
146992
145620
200424
202920
203105
200897
198797
197685
196906
215217
216302
216844
216896
216697
216026
214853
197081
198046
198807
200162
202106
201611
198342
145554
146911
148627
152172
156903
155236
147273
60556.9
61261.3
63208.8
67007.8
71254.6
68227.9
61624.1
62305.5
62049.3
62073.3
62998.7
65756.9
71048.4
79465.8
145903
145546
145351
145132
144938
146579
150207
194936
194763
193822
192065
189665
187043
184463
209151
208684
207560
205526
202588
199172
195343
195897
195115
193911
192185
190078
187829
185712
146854
146112
145718
145651
146308
148433
152015
62820.7
62206.8
62246.3
63538.3
67461.5
74102.2
82316.8
61103.1
61076.1
61263.5
61978.3
63879.6
68057.9
75321
145372
144953
144603
144188
144141
145373
148189
195533
194748
193835
192091
189709
187074
184440
210424
209120
207680
205595
202792
199356
195545
195736
194832
193623
192012
189970
187766
185487
145892
145284
144709
144508
145080
146802
149870
61429.9
60945.3
60958.9
62056.7
65098.1
70921.8
79197.6
60190
60271.1
60591.7
61150.9
62260.1
64574.4
69356.3
144773
144285
143863
143524
143392
143731
145197
195764
194752
193758
192061
189692
187167
184513
211287
209635
207905
205786
203083
199657
195842
195592
194619
193397
191898
190090
187924
185418
145165
144634
144169
143801
143831
144825
147156
60304.1
59998.5
60007.4
60704.8
62576
66582.7
74179.7
59976.3
60008.8
60369.3
60920.6
61684.4
62903
65297.1
144500
143929
143478
143163
142979
142759
142935
195772
194690
193473
191789
189637
187223
184670
211880
210221
208283
206007
203285
199862
195910
195411
194279
193100
191770
190255
188043
185391
144808
144338
143898
143435
143152
143381
144761
59851.9
59617.5
59658
60090.5
61243.9
63620.3
69038.2
59972
60004.8
60372.1
60995.4
61685.4
62663
64179.4
144626
144030
143530
143105
142946
142784
142123
195686
194619
193309
191622
189546
187191
184975
212267
210674
208709
206332
203408
199616
195335
195436
194156
192801
191374
189807
187684
185421
144717
144268
143857
143301
142841
142631
142985
59892.9
59726.5
59690.8
59967.3
60914.3
62759.8
66493.5
60058
60093.2
60425.4
61141.4
62009.6
63196.6
64770.2
144622
144077
143637
143274
143039
142826
141885
195540
194506
193194
191540
189455
186884
184061
212553
210993
209106
206658
203447
198949
193381
195704
194233
192639
190961
189104
186790
184167
144843
144353
143880
143227
142588
142176
141753
60025.2
59892.8
59873.7
60142.5
61178.1
62946.5
65562.5
60286.4
60328.1
60704.2
61484.7
62525.1
63791.3
65303
144570
144107
143806
143549
143318
142929
141655
195551
194469
193138
191507
189385
186362
181697
212707
211277
209412
206942
203518
198554
190572
196024
194471
192749
190880
188782
186038
181590
145380
144803
144179
143399
142793
142381
141332
60374.9
60325.5
60419.2
60811.3
61783.9
63100.2
63327.7
82678.4
74821.5
68851.9
65798.5
65473.3
66914.2
69069
155796
152269
149730
148453
148397
149413
150637
193850
194494
194382
194576
194684
195000
195834
200902
203482
205467
206798
207478
207502
207073
188544
190132
191695
192825
193494
193740
193719
153687
149408
147000
146354
146270
146360
146488
80079.9
71578.8
65869.9
63313.6
62501.1
62754.7
62834.7
79856.9
71939
66676.8
64188.4
64089.9
65739.8
68455.9
153868
150805
148624
147575
147670
148750
150338
193315
194200
194280
194476
194588
195000
195980
200874
203537
205573
206951
207710
208200
209071
188273
190018
191620
192801
193590
193918
194465
150988
147661
145879
145345
145429
145671
145875
75964.5
68619.6
64097.4
62228.9
61551.9
61514.6
61583.9
75568.7
68383.1
64536.1
62733.9
62845.3
64531.6
67401.2
151492
149054
147474
146790
147119
148397
150275
192726
193935
194067
194108
194272
194978
196226
200854
203635
205669
207129
208112
209094
210614
188088
190028
191632
192826
193662
194249
195081
147574
145542
144676
144564
144839
145184
145491
70403.4
65118.9
62443.9
61409.4
61008.4
60822.2
60784.9
71606.3
66565
63718.2
62253.4
62318.5
63676.2
66396.7
149366
147708
146726
146379
147012
148284
150009
192014
193468
193631
193687
194116
195191
196623
200596
203551
205725
207374
208682
210068
211729
187922
190022
191626
192737
193702
194600
195520
144821
143988
143887
144139
144527
144942
145310
66044.9
63099.9
61707.4
61076.4
60808.5
60633.7
60563
70300.8
66497.1
63984.3
62729.5
62706.4
63857
66199.2
147906
147015
146460
146462
147110
148279
149764
191019
192328
192837
193361
194254
195622
197133
199717
203066
205719
207707
209381
210996
212562
187786
189611
191310
192655
193841
194890
195806
143446
143288
143516
144010
144528
144943
145242
64252.9
62527.1
61467.9
60968.2
60736.4
60569.1
60488.6
70674.8
67370.5
64870.6
63630.9
63675.7
64919.7
66836.5
146911
146837
146553
146704
147377
148577
150043
189263
190861
192001
193140
194465
196034
197659
197527
202244
205734
208054
209948
211648
213132
186448
188767
190875
192531
193884
195021
195949
142888
143001
143361
143961
144530
144886
145112
64175.9
62768
61508.2
60950.7
60730.8
60579.1
60478.3
69248.5
68263.9
66087.6
64827.1
64870
66138.3
67774.2
146192
147043
146860
147047
147881
149268
150767
186705
189920
191664
193204
194768
196484
198156
194412
201722
205770
208343
210322
212049
213404
184080
188021
190596
192415
193857
195059
195993
142599
143024
143492
144137
144685
144923
144980
64265.1
63113.5
61947.5
61263.4
60998.1
60852.7
60758.6
100742
103122
103265
101595
98446.2
94013.4
89160.5
174255
175013
174748
172047
168209
163854
159775
191134
190153
188982
188177
188376
189698
191841
201790
199921
197043
194562
193851
195367
197943
190057
188873
187513
186557
186332
186753
187476
171646
171539
170738
168811
166142
162699
158613
100560
103069
103421
102023
98868.4
94015.2
88075
98379.8
99275.5
99858.1
98540.8
94956.6
90931
86857.9
172404
171736
170518
167967
164411
160570
157186
189865
188626
187318
186731
187208
188709
190953
201500
199513
196469
193890
193336
195123
197830
189111
187882
186432
185520
185396
186021
186955
170233
169052
167740
165806
162928
159308
155295
98048.9
99097.5
99926.2
98638
94638.6
89564.3
83657.2
96995.2
96302.9
95421.6
93640
90105.7
86648.1
83193.9
171452
168725
165541
162400
159312
156483
154035
188098
186801
185439
185011
185805
187602
190097
200880
198588
195357
192778
192560
194694
197698
187681
186499
185001
184149
184261
185201
186452
168771
166319
163946
161698
158321
154513
150851
96227.9
95592.6
94791.4
92838.9
88551.3
83375.1
77493.5
93889
92294.9
90417.8
88051.3
85044.8
82249.3
78496.7
168016
163878
159531
156610
154428
152859
151307
185602
184502
183391
183303
184514
186701
189324
199578
197360
193999
191553
191460
193750
197235
185286
184334
183180
182698
183297
184638
186104
164750
161516
159036
157127
153321
149628
146802
92881.2
91138
89188.2
86697.1
82282.8
77216.2
71548.6
88845.9
87456.7
85488.7
83087.8
80651.1
78342.5
75153.3
162051
158091
154092
151553
150174
149816
149157
182241
181524
180859
181260
182990
185538
188445
197946
195583
192118
189511
189152
191879
195985
182260
181449
180786
181023
182397
184101
185899
158983
156300
154424
152737
149276
146261
144262
88350
86939.6
84469.6
81410.1
77438.9
72791.3
68070.1
82938.6
82491.4
80957.5
78983
76403.9
74899.7
73821.6
155292
152368
149469
147575
146180
146408
146703
178471
177768
177539
178413
180700
183592
186523
195270
192791
189033
186564
186531
188776
192605
178823
177981
177796
178824
180913
182742
184430
152631
151359
150317
149759
147616
145079
143041
83070.6
83021.4
81204.2
78819.4
75195.5
71168.5
67036
76537.4
77211.1
76080.7
74674.9
71765.8
71035.9
72285.7
148592
146883
144600
144318
142465
141548
141954
174428
173578
173638
175046
177239
178536
180042
191968
189140
184972
182111
181010
181213
184157
174945
174075
174469
176341
178027
177869
178406
146362
146661
146009
146725
146013
144692
141756
77556.6
79341.9
77769.9
76336.2
73090.4
70040.8
66257.5
56706.5
56367.1
56204.3
55682.5
55507.2
55299
54806.3
127907
126985
126180
125672
124889
123608
121988
159587
158839
157788
156497
154004
149931
144971
171729
169624
166358
162617
158241
153017
146698
160343
159903
159163
157956
155402
151575
147229
129778
129642
129304
128843
128292
127734
127192
59747
59316.9
59314.7
58616.4
58655.2
58698.7
58941.8
50020.5
49866.9
49790.3
49848.7
50114.8
50211.7
50019.7
114415
114118
113953
113997
114503
115297
115507
142934
142751
142747
143018
143174
143211
142820
150933
150477
149840
149276
148864
148575
147856
139561
139485
139368
139230
139107
138976
138726
108325
108348
108356
108259
108295
108463
108773
46446.2
46456.2
46508.7
46569.9
46982.2
47485.5
47996.7
44629.1
44753.3
44946.7
45125.2
45286.7
45438.3
45555.8
102422
102746
103212
103762
104294
104644
104773
131114
131180
131432
132070
133003
133890
134068
138315
138272
138421
138821
139468
140254
140426
125851
126007
126337
126840
127406
127892
128098
94482.9
94641.7
94866
95150.1
95481.5
95766.8
95910.3
40570.7
40606.3
40718.1
40837.5
40910.2
40971.4
41025.9
40896.7
40909.5
40968.4
41060.7
41122.1
41139.6
41138.4
93090.2
93183.5
93368.6
93584.4
93828.8
94027.9
94124.7
122060
122056
122100
122264
122493
122697
122629
130246
130171
130156
130245
130389
130571
130555
118731
118721
118821
119039
119247
119365
119336
88938
88932.6
88989.2
89071.7
89110.2
89120.7
89175.5
38867.7
38808.1
38800.1
38865.4
38885.7
38856.9
38863.9
39516.1
39539.1
39551.1
39552.9
39558.1
39566
39576.1
88685.4
88675.9
88645.8
88603.2
88572.1
88545.4
88533.4
115911
115839
115730
115608
115487
115418
115190
124688
124495
124252
124031
123843
123717
123489
115365
115172
115075
115072
115021
114944
114770
87694.2
87673.7
87658.5
87657.7
87655.3
87630.1
87620.3
38636.6
38675.1
38670.5
38617.5
38601.7
38623.9
38592.8
40224.4
40226.2
40230.4
40237.3
40241.8
40243.2
40246.5
88051.8
88028.7
88026.8
88046.7
88085.6
88106.4
88113.1
112163
112112
112086
112070
112020
112025
111852
120122
119881
119632
119426
119260
119325
119047
113020
112883
112851
112861
112825
112854
112727
88749.4
88743.4
88736.5
88729.7
88725.5
88725.2
88736.5
39973.5
40056.9
40054.8
39963.5
39947.3
40008
39987.1
48870.2
48874
48870.7
48864.8
48859
48854.4
48853
87090.1
87117.2
87164
87223.3
87276.9
87312
87331.4
107330
107333
107400
107503
107578
107696
107650
114433
114256
114172
114154
114210
114380
114081
108354
108368
108450
108505
108543
108686
108664
88102.6
88141.8
88173
88188.7
88223.3
88277.8
88313.6
49222.4
49207.1
49211.9
49239
49247
49234.4
49247.2
87234.1
92513.7
96780.3
100489
103513
106399
109004
154832
159303
164110
169209
174131
178928
182059
182772
181903
181940
183150
185366
187659
188902
192239
190322
190201
191710
194298
197159
198976
184215
183295
183214
184038
185544
187077
188454
156224
160285
164504
168689
171952
172580
172579
88791.6
93678.6
97958
100878
102353
101936
99505.5
83562.8
89710.7
94018.6
97647.9
100813
102730
104236
152205
156202
160581
165415
170132
174008
176720
182489
181353
181160
182178
184119
186030
187307
192282
190048
189615
191057
193706
196747
198814
183672
182537
182173
182746
184220
186069
187385
153697
157221
160859
164544
167720
169954
171164
86044.7
90715.7
94753.8
97960.9
99075.9
98398.3
97367.6
77448.6
84854.8
89479
92867
95824.1
97059.9
97438.4
148139
151378
155071
159260
163885
167426
169111
182313
180847
180227
180752
182213
183655
184601
192349
189742
188793
190033
192751
195899
198147
183329
181888
181158
181408
182655
184507
186087
150213
153007
155773
158824
162354
166485
169398
82003.5
86099.4
89596.1
92870.8
94422.3
95351.5
95971.9
71213.3
78568.7
84093.9
87381.4
89639
90556.7
90694.3
144598
146916
149845
153104
157096
160356
161709
182481
180799
179433
179089
179801
180815
181450
192223
188850
187524
188780
191680
194995
197112
183286
181601
180234
179841
180562
182032
183445
147046
149020
150709
152910
155861
160568
164841
76478.7
80613.3
83738.7
86641.3
88870.7
91012
92779
67999
73697.9
78839.6
81988.4
83810.7
85072.8
85672.7
142105
143478
146109
148853
152049
154681
155926
182814
180688
178637
177279
177178
177871
178473
191640
188014
185824
186786
190025
193834
196126
183256
181252
179279
177922
177934
178928
180037
144469
145792
146623
148264
150579
154552
158584
71949
75612.4
78633.3
81306.6
83725.3
85969.4
87530.1
67525.1
71614.5
74642
76934.9
78725.5
80745.7
82552.5
140468
141425
144064
146785
148980
150511
151728
181619
179545
177397
175378
174556
174837
175220
188477
185329
183671
184146
187168
191377
194019
181904
180076
178067
175924
174997
175379
176463
142226
142967
143534
145242
147283
149489
151767
69540.6
71617.8
74221.4
77107.3
79735.4
80876.5
81432.8
67057.1
70040.2
70509.9
72102.5
74026.5
75965.7
78550.9
138365
140141
142109
144094
145161
145977
147192
175182
174391
174656
173386
171886
171660
171888
180299
177784
178239
179889
183253
187908
191133
175022
174565
175314
173957
172109
171756
172725
138437
138910
140648
143221
143896
144730
145280
67879.5
67960
69936.2
73032.1
74987.3
75693.9
74803.3
55528.1
55238.2
55294.4
55198.2
55064.9
55243.7
55011.9
120716
121834
123142
124511
125655
126726
127445
142326
147067
151482
154669
156698
158103
158960
143740
150396
155871
160378
164353
167944
170251
143139
148031
152256
155161
156863
158089
158917
120957
122133
123566
124942
126137
127339
128260
54658.5
55324.6
55511.6
56033.4
56842.8
57321.5
57484
47657.1
47265.2
47088.4
47057.2
47081.4
47154.6
47055.3
108974
108684
108381
108245
108345
108547
108636
138134
138517
138761
138885
138983
139175
139345
146595
147493
147816
148190
148786
149495
150015
140703
141141
141361
141399
141233
141222
141407
112633
112329
111813
111684
111769
111840
111912
48653.3
48692.8
48663.1
48462
48357.8
48315.4
48713.9
42628.9
42494.2
42291.9
42063.4
41923.7
41886.7
41867.2
99652.1
99223.1
98600
97942.1
97304.9
96811.6
96554.1
130547
130155
129341
128566
127986
127631
127467
140709
140571
139768
139043
138582
138407
138423
132885
132529
131654
130728
130007
129624
129499
103211
102798
102132
101430
100770
100248
99919.3
44499
44349.7
44115.4
43958.5
43813.5
43614
43427.5
39778.7
39794.9
39764.5
39707.7
39636.6
39645.5
39697
91633.4
91490.5
91268.4
91034.9
90805.7
90623.7
90520.6
120975
120924
120782
120606
120437
120353
120336
130978
131052
130919
130784
130692
130675
130706
121946
121911
121714
121467
121277
121221
121222
92946.3
92796.3
92545.8
92248.1
91975.3
91766.2
91672.5
40536.8
40517.1
40472.2
40340.1
40183.3
40103.1
40072.9
39009.1
38984.8
38993.9
38965
38961.2
38924
38911.9
88017.7
88079.7
88133.9
88205.2
88252.1
88322.8
88367
114830
114972
115059
115166
115258
115383
115477
123469
123665
123803
123980
124183
124380
124511
114926
115035
115116
115207
115298
115420
115485
87976.7
87997.1
88024.6
88037.3
88047.4
88061.2
88063.1
39245.6
39249.3
39250.2
39262.7
39256
39234.4
39214.6
40113.2
40063.2
40064.2
40025.3
40014.3
39938.1
39891.6
88251.5
88283
88301.7
88334.7
88351.5
88389.8
88410.4
111768
111904
111891
111935
111955
112030
112067
118395
118603
118551
118608
118747
118960
119176
111272
111362
111390
111446
111440
111493
111568
87582.8
87589.2
87583.8
87549.7
87500.9
87473.3
87458.3
40008.4
40005.2
39995.6
39982.8
39968.8
39963.1
39959.9
49092.7
49119.2
49125.9
49155.1
49164.5
49189
49200.6
87617.3
87620.5
87610.9
87603.8
87580.3
87568.9
87558.4
107497
107553
107465
107442
107375
107348
107323
112966
113189
112943
112913
112897
112970
113141
106680
106705
106644
106618
106510
106405
106367
86708.2
86695
86674.6
86642.4
86596.1
86553.5
86527.9
48861.1
48864.7
48879
48901.9
48922.2
48932.3
48936.7
)
;

boundaryField
{
    fuel
    {
        type            zeroGradient;
    }
    primary_air
    {
        type            zeroGradient;
    }
    Secondary_air_RHS
    {
        type            zeroGradient;
    }
    Secondary_air_LHS
    {
        type            zeroGradient;
    }
    outlet
    {
        type            totalPressure;
        rho             rho;
        psi             none;
        gamma           1;
        p0              uniform 100000;
        value           nonuniform List<scalar> 
98
(
44977.5
76114.6
100000
100000
100000
75395.7
44810.3
45124.5
76312.3
100000
100000
100000
75297.6
44780.3
44952.2
76033.3
100000
100000
100000
75302.9
44783.3
45136.1
76234.8
100000
100000
100000
75344
44768.8
44980.7
75946.5
100000
100000
100000
75230.1
44765.9
45173.9
76120.6
100000
100000
100000
75064.7
44766
45204.8
76002.1
100000
100000
100000
74986.8
44791
44939.5
75539.6
100000
100000
100000
76634.8
45211
44917.4
75714.3
100000
100000
100000
76583.1
44994.2
44912.9
75774.1
100000
100000
100000
76659.2
44989.1
44909.9
75954.4
100000
100000
100000
76903.3
45189
44907.3
76013.7
100000
100000
100000
76943.5
45193.3
44903.4
75993.6
100000
100000
100000
76767.5
44998
44934.4
76095.6
100000
100000
100000
76920.9
45207
)
;
    }
    stove_body
    {
        type            zeroGradient;
    }
    frontAndBack
    {
        type            empty;
    }
}


// ************************************************************************* //
