/*--------------------------------*- C++ -*----------------------------------*\
  =========                 |
  \\      /  F ield         | OpenFOAM: The Open Source CFD Toolbox
   \\    /   O peration     | Website:  https://openfoam.org
    \\  /    A nd           | Version:  6
     \\/     M anipulation  |
\*---------------------------------------------------------------------------*/
FoamFile
{
    version     2.0;
    format      ascii;
    class       surfaceScalarField;
    location    "0.0225";
    object      phi;
}
// * * * * * * * * * * * * * * * * * * * * * * * * * * * * * * * * * * * * * //

dimensions      [1 0 -1 0 0 0 0];

internalField   nonuniform List<scalar> 
10143
(
-9.81752e-08
-4.8561e-05
5.15573e-05
-2.70846e-07
-4.83501e-05
5.15112e-05
1.83654e-07
-4.91246e-05
5.16419e-05
2.61e-07
-4.8546e-05
5.1431e-05
-8.51882e-08
-4.81501e-05
5.14818e-05
8.04492e-08
-4.86756e-05
5.14982e-05
-4.79771e-05
5.10033e-05
8.96314e-08
-2.01238e-05
-1.53287e-05
-1.76842e-07
-1.97518e-05
-1.51559e-05
-8.173e-07
-2.00788e-05
-1.53207e-05
-3.6189e-07
-2.00352e-05
-1.58995e-05
1.07638e-08
-1.98351e-05
-1.55616e-05
-9.0246e-07
-1.97914e-05
-1.49099e-05
-1.98811e-05
-1.58906e-05
-8.61541e-08
-7.70816e-06
-4.44595e-06
9.89374e-07
-7.80906e-06
-5.3598e-06
1.13264e-07
-7.63608e-06
-3.67784e-06
-5.55031e-07
-7.68841e-06
-3.82332e-06
-4.0988e-07
-7.70613e-06
-4.55227e-06
-5.77697e-07
-7.40791e-06
-4.44082e-06
-7.69738e-06
-4.9628e-06
-3.03335e-07
7.60664e-06
-2.84492e-06
-5.18174e-07
7.67441e-06
-3.20422e-06
-1.54086e-07
7.55004e-06
-3.53719e-06
-8.38739e-08
7.49144e-06
-3.18349e-06
-1.05011e-07
7.58461e-06
-3.16511e-06
4.47957e-07
7.47379e-06
-3.33835e-06
7.65901e-06
-2.69886e-06
-8.43424e-08
2.01087e-05
-4.57165e-06
8.31215e-07
1.97549e-05
-5.31591e-06
1.18544e-07
1.99772e-05
-3.90232e-06
-5.49642e-07
1.98492e-05
-3.88082e-06
-6.11943e-07
1.99367e-05
-4.58767e-06
-7.33582e-07
2.00612e-05
-4.75241e-06
1.99185e-05
-5.23754e-06
5.25614e-07
4.85457e-05
-1.57355e-05
1.60294e-07
4.83522e-05
-1.50499e-05
8.09093e-08
4.88938e-05
-1.57595e-05
3.1892e-07
4.85487e-05
-1.58092e-05
1.20285e-06
4.83009e-05
-1.61261e-05
-2.21423e-07
4.93369e-05
-1.47442e-05
4.85767e-05
-1.57654e-05
1.86683e-07
5.12064e-05
-2.14045e-07
5.16508e-05
8.64059e-08
5.14798e-05
1.07943e-08
5.15239e-05
-2.16395e-07
5.14379e-05
1.74818e-07
5.18719e-05
5.16295e-05
-2.39505e-07
-1.11518e-05
6.23688e-05
-1.57716e-07
-1.2424e-05
6.30845e-05
1.94624e-07
-1.27742e-05
6.32562e-05
3.30699e-07
-1.23529e-05
6.28416e-05
-3.21558e-09
-1.15252e-05
6.25913e-05
7.1346e-08
-1.17956e-05
6.24707e-05
-1.10127e-05
6.11274e-05
-3.65324e-07
5.42168e-06
-2.43839e-05
-5.58077e-07
5.32412e-06
-2.58961e-05
-1.02072e-06
5.63234e-06
-2.64156e-05
-9.47292e-08
5.43468e-06
-2.77264e-05
4.49405e-07
5.77142e-06
-2.64763e-05
-5.40092e-07
6.0794e-06
-2.49616e-05
5.42225e-06
-2.58106e-05
-9.56544e-08
8.4459e-07
-6.54395e-06
3.45256e-07
6.413e-07
-7.99981e-06
-1.31518e-07
1.39183e-06
-5.86887e-06
-1.38456e-07
1.40413e-06
-6.69431e-06
1.6994e-07
8.76859e-07
-6.9619e-06
-2.87413e-07
1.1013e-06
-6.02795e-06
7.64364e-07
-7.40869e-06
-1.67543e-07
-8.95217e-07
-2.9636e-06
-3.32517e-07
-1.29717e-06
-3.2334e-06
-2.33148e-07
-8.42745e-07
-3.58806e-06
-4.50445e-07
-7.93583e-07
-2.9445e-06
-5.50316e-07
-7.55612e-07
-3.5487e-06
9.28393e-08
-1.39182e-06
-3.60352e-06
-8.35327e-07
-2.99932e-06
-1.89097e-07
-5.15137e-06
-6.88176e-06
1.06094e-07
-5.94388e-06
-8.0129e-06
3.44734e-08
-5.54816e-06
-6.09646e-06
2.05961e-07
-5.41515e-06
-6.40325e-06
3.60866e-07
-5.28361e-06
-7.14738e-06
-1.24153e-07
-6.23847e-06
-6.44803e-06
-5.39104e-06
-7.60981e-06
1.97668e-07
1.13837e-05
-2.53535e-05
-2.51631e-08
1.12571e-05
-2.50046e-05
-1.38469e-08
1.23098e-05
-2.67238e-05
7.38853e-07
1.16476e-05
-2.66068e-05
2.11137e-06
1.20486e-05
-2.79179e-05
3.33578e-07
1.24999e-05
-2.48655e-05
1.16338e-05
-2.53809e-05
1.77424e-07
6.18015e-05
-1.90087e-07
6.26e-05
7.12061e-08
6.26736e-05
-5.23741e-08
6.24876e-05
-1.53851e-07
6.27393e-05
1.3363e-07
6.32194e-05
6.23278e-05
1.07669e-07
4.51309e-06
5.70859e-05
-4.60174e-08
4.38401e-06
5.84933e-05
3.30633e-07
4.2422e-06
5.81527e-05
6.81249e-07
4.52118e-06
5.74076e-05
3.27613e-07
5.01266e-06
5.73937e-05
-3.42208e-07
4.80835e-06
5.7863e-05
3.91914e-06
5.62917e-05
3.64016e-07
9.0587e-06
-2.03182e-05
2.17311e-07
9.58943e-06
-2.23508e-05
-6.77117e-07
9.92358e-06
-2.25598e-05
-3.10977e-07
9.39192e-06
-2.42131e-05
-4.21507e-08
9.72005e-06
-2.25213e-05
-5.62765e-07
1.04581e-05
-2.12727e-05
9.2365e-06
-2.29753e-05
-2.72093e-07
1.98933e-06
-6.51621e-06
1.78682e-07
2.25591e-06
-8.51229e-06
-4.99982e-08
2.79205e-06
-6.01087e-06
-4.842e-08
2.46e-06
-7.24974e-06
-2.09068e-08
2.46431e-06
-7.28902e-06
8.24502e-08
2.79527e-06
-6.03263e-06
2.18023e-06
-7.64034e-06
-2.17753e-07
-2.25776e-06
-8.75852e-07
-3.84975e-07
-2.0085e-06
-1.28254e-06
-2.38725e-07
-2.16714e-06
-1.3132e-06
-5.12613e-07
-1.58806e-06
-1.13078e-06
-3.79428e-07
-2.32224e-06
-1.38841e-06
1.18219e-07
-2.56014e-06
-1.25285e-06
-2.21966e-06
-8.40069e-07
-3.18812e-07
-9.15891e-06
-6.99032e-06
5.53596e-08
-9.3961e-06
-8.50144e-06
7.04163e-08
-9.79946e-06
-5.94297e-06
3.17047e-07
-9.23975e-06
-6.46628e-06
1.76437e-07
-9.35458e-06
-7.4665e-06
2.36247e-07
-1.02969e-05
-6.31516e-06
-9.31261e-06
-7.62835e-06
2.0862e-07
-3.85275e-06
-2.21195e-05
5.04021e-07
-4.78661e-06
-2.10892e-05
-1.67042e-08
-4.57548e-06
-2.26315e-05
5.81911e-07
-4.92951e-06
-2.24945e-05
1.05621e-06
-4.62181e-06
-2.43268e-05
-1.39957e-07
-4.42384e-06
-2.08495e-05
-4.19182e-06
-2.18312e-05
5.73332e-07
5.67593e-05
-1.78164e-07
5.81199e-05
1.88881e-08
5.73151e-05
-2.18098e-07
5.72524e-05
-1.23611e-07
5.74163e-05
-3.77702e-07
5.85498e-05
5.71677e-05
3.35334e-07
7.73932e-06
4.78821e-05
1.29368e-07
7.77893e-06
4.98951e-05
4.37225e-07
7.66348e-06
4.91979e-05
5.94454e-07
7.73675e-06
4.8505e-05
3.56665e-07
8.36203e-06
4.82349e-05
-2.89519e-07
8.34047e-06
4.92288e-05
7.40896e-06
4.77352e-05
1.29497e-06
1.40688e-05
-1.71492e-05
2.34865e-07
1.45313e-05
-1.77783e-05
-7.56948e-07
1.4621e-05
-1.81916e-05
-9.03031e-07
1.42889e-05
-2.02246e-05
-2.31121e-07
1.44957e-05
-1.85855e-05
-5.20176e-07
1.49311e-05
-1.68997e-05
1.42847e-05
-1.97537e-05
-1.9795e-07
2.95739e-06
-3.33561e-06
7.13791e-09
3.49936e-06
-5.85725e-06
-2.05484e-08
3.49957e-06
-3.07863e-06
-2.28865e-08
3.07827e-06
-4.23352e-06
-1.84874e-07
3.44061e-06
-4.43355e-06
1.74093e-07
3.67679e-06
-3.44141e-06
3.13798e-06
-4.50001e-06
-2.05524e-07
-3.2203e-06
2.8296e-06
-2.87438e-07
-2.75652e-06
2.2618e-06
-2.28424e-07
-3.25726e-06
2.54786e-06
-5.28855e-07
-2.62529e-06
2.07383e-06
-2.90069e-07
-3.4803e-06
2.49115e-06
7.05945e-08
-3.29458e-06
2.53558e-06
-3.21127e-06
2.90635e-06
-3.03841e-07
-1.43253e-05
-3.72177e-06
8.34907e-08
-1.4663e-05
-5.2111e-06
9.76891e-08
-1.45704e-05
-2.92741e-06
3.95985e-07
-1.40627e-05
-3.64398e-06
3.72094e-08
-1.42618e-05
-4.60136e-06
3.51292e-07
-1.4706e-05
-3.43074e-06
-1.42416e-05
-4.36578e-06
3.74914e-07
-7.15009e-06
-1.91411e-05
1.65149e-07
-8.03913e-06
-1.69488e-05
-1.68919e-07
-8.10066e-06
-1.8172e-05
7.92093e-07
-8.26533e-06
-1.84575e-05
7.55246e-07
-7.99499e-06
-2.00167e-05
-2.04262e-07
-7.91634e-06
-1.6169e-05
-7.50353e-06
-1.81337e-05
5.60264e-07
4.77894e-05
-2.47929e-08
4.93992e-05
-1.5899e-08
4.81971e-05
-2.61752e-07
4.81263e-05
-3.52731e-07
4.84481e-05
-5.49001e-07
4.99025e-05
4.82555e-05
2.69761e-07
7.57897e-06
3.90676e-05
4.075e-07
7.20722e-06
4.14694e-05
5.81964e-07
7.09572e-06
4.0874e-05
5.09944e-07
6.94728e-06
4.058e-05
1.97451e-07
7.30755e-06
4.02018e-05
-3.17635e-08
7.55199e-06
4.0885e-05
7.84552e-06
3.89216e-05
1.22139e-06
1.54978e-05
-1.5002e-05
1.16623e-07
1.60327e-05
-1.47193e-05
-4.10896e-07
1.62031e-05
-1.59335e-05
-7.63756e-07
1.58865e-05
-1.80504e-05
-2.47129e-07
1.61287e-05
-1.69421e-05
-4.68312e-07
1.64011e-05
-1.45158e-05
1.56499e-05
-1.67024e-05
-7.08427e-08
3.00553e-06
6.29352e-07
-1.43078e-07
3.20676e-06
-1.61918e-06
7.49402e-08
3.33165e-06
8.30702e-07
-6.65263e-09
3.24137e-06
-2.18256e-07
-2.00546e-07
3.36243e-06
-2.64528e-07
2.32827e-07
3.41724e-06
3.66987e-07
3.10405e-06
-3.62878e-07
-2.24021e-07
-3.13552e-06
6.34127e-06
-1.90705e-07
-3.38711e-06
5.83921e-06
-2.84694e-07
-3.2459e-06
6.19888e-06
-4.11688e-07
-3.22275e-06
5.65861e-06
-2.34941e-07
-3.29023e-06
5.9808e-06
1.75361e-08
-3.52892e-06
6.2219e-06
-3.21506e-06
6.37777e-06
-2.13877e-07
-1.55176e-05
3.2124e-07
-5.7558e-08
-1.63415e-05
-1.16502e-06
1.84441e-07
-1.60981e-05
9.47905e-07
3.49462e-07
-1.5962e-05
1.35615e-07
-3.86114e-08
-1.57307e-05
-4.93684e-07
3.08247e-07
-1.63531e-05
3.25865e-07
-1.55649e-05
-2.68906e-07
3.79853e-07
-7.53046e-06
-1.63442e-05
-3.29957e-07
-7.41221e-06
-1.42515e-05
-1.47879e-07
-7.39944e-06
-1.61094e-05
6.2766e-07
-7.46076e-06
-1.66528e-05
4.80179e-07
-7.16351e-06
-1.76528e-05
-8.49938e-08
-7.47367e-06
-1.34889e-05
-7.66908e-06
-1.48439e-05
4.31067e-07
3.88894e-05
8.0696e-08
4.12099e-05
-2.0414e-09
3.98213e-05
-3.50257e-07
3.99162e-05
-7.79749e-07
4.06386e-05
-5.09753e-07
4.11136e-05
3.90927e-05
8.66788e-08
8.60925e-06
3.14015e-05
7.41686e-07
8.46377e-06
3.34698e-05
7.59638e-07
9.16045e-06
3.30889e-05
5.253e-07
9.32344e-06
3.3037e-05
6.39234e-08
9.45197e-06
3.28481e-05
2.03027e-07
9.00219e-06
3.31633e-05
9.08914e-06
3.11627e-05
7.45322e-07
1.56441e-05
-1.20885e-05
4.26409e-08
1.65839e-05
-1.16416e-05
1.08196e-07
1.66002e-05
-1.28004e-05
-3.44295e-07
1.65648e-05
-1.43034e-05
-2.16869e-07
1.67278e-05
-1.37058e-05
-1.76752e-07
1.67615e-05
-1.16902e-05
1.59975e-05
-1.30376e-05
1.18315e-07
1.23022e-06
5.87947e-06
-3.42157e-07
1.8344e-06
4.39154e-06
6.59281e-08
1.49083e-06
6.23656e-06
-2.34196e-08
1.70851e-06
5.49435e-06
-1.87861e-07
1.95959e-06
5.3763e-06
2.02954e-07
1.78611e-06
5.70832e-06
1.52531e-06
5.18796e-06
-3.00511e-07
-1.45859e-06
6.50866e-06
-5.85249e-08
-2.08648e-06
6.54055e-06
-3.06432e-07
-1.64318e-06
6.59633e-06
-4.96241e-07
-1.89411e-06
6.44687e-06
-4.2179e-07
-1.98148e-06
6.86378e-06
-1.7169e-07
-1.85925e-06
6.6177e-06
-1.65786e-06
6.54324e-06
2.2441e-08
-1.60109e-05
5.79612e-06
-2.51595e-07
-1.72914e-05
4.86258e-06
1.93557e-07
-1.6745e-05
6.38487e-06
2.67065e-07
-1.68633e-05
5.71868e-06
-6.75237e-08
-1.69532e-05
5.44404e-06
1.8684e-07
-1.67599e-05
5.71499e-06
-1.60063e-05
5.21908e-06
2.31536e-09
-8.53593e-06
-1.32849e-05
-3.78011e-07
-8.60535e-06
-1.21457e-05
-1.46333e-08
-9.03731e-06
-1.36458e-05
2.64426e-07
-9.22474e-06
-1.3922e-05
1.56638e-07
-9.21753e-06
-1.50814e-05
2.44277e-07
-8.65533e-06
-1.10145e-05
-8.42542e-06
-1.14504e-05
3.15527e-07
3.09821e-05
1.65282e-07
3.37131e-05
3.45207e-08
3.22625e-05
-4.17875e-07
3.25305e-05
-1.11467e-06
3.34246e-05
-4.33279e-07
3.29728e-05
3.10648e-05
-2.31921e-07
3.13722e-05
1.59869e-06
3.15226e-05
1.36023e-06
3.29381e-05
9.64527e-07
3.27793e-05
9.9828e-08
3.31113e-05
8.08079e-07
3.22521e-05
3.17127e-05
-2.55319e-08
1.98698e-05
5.86912e-07
1.97703e-05
1.31438e-06
2.0129e-05
5.30995e-07
1.97458e-05
-7.18558e-09
2.02984e-05
1.12599e-06
1.97343e-05
2.02964e-05
5.66843e-07
3.65324e-06
-6.48708e-07
3.84346e-06
3.17766e-07
3.51247e-06
3.58541e-07
3.67212e-06
2.29811e-07
3.91229e-06
3.30496e-07
3.81504e-06
3.9527e-06
-3.31168e-07
-3.86753e-06
-5.58592e-08
-4.08002e-06
-5.12066e-07
-3.64934e-06
-6.80083e-07
-3.96133e-06
-5.61588e-07
-3.51722e-06
-5.73477e-07
-3.94172e-06
-4.14162e-06
2.78241e-07
-1.98087e-05
-8.05575e-07
-2.07333e-05
2.9686e-07
-1.98988e-05
5.77064e-07
-2.05204e-05
2.72608e-07
-1.9917e-05
3.54919e-07
-1.9795e-05
-2.03697e-05
-1.90855e-06
-3.06761e-05
7.48035e-07
-3.35785e-05
-1.91926e-07
-3.21732e-05
-1.20934e-06
-3.27971e-05
-1.97942e-07
-3.43382e-05
7.84469e-07
-3.13357e-05
-3.03534e-05
-4.10131e-10
2.97423e-07
-6.43451e-08
-7.86457e-07
-2.03739e-06
-5.02088e-07
-0.00187089
0.00319443
-0.00137068
0.00199425
0.00346867
-0.00735737
0.00581145
0.00333791
-0.00719438
0.00770194
0.00282479
-0.00474915
0.00720081
0.00230232
-0.0018298
0.0044975
0.00187993
0.000786329
0.0014785
0.00296565
-0.00299126
0.00503191
0.00122125
0.00138901
0.00508556
-0.00589603
0.00559891
0.00497967
-0.00575408
0.00889537
0.005271
-0.0056386
0.0101831
0.00483629
-0.00372466
0.00714099
0.00368445
0.00130657
0.00332558
0.00535862
-0.000447219
0.00214772
0.00326658
0.00222233
0.00189716
0.000466192
0.00460456
0.00181142
0.000722044
0.0069096
0.0024499
0.000452444
0.00780914
0.00304467
0.000809522
0.00573134
0.0032391
0.00242138
0.00343454
0.00551751
3.94198e-05
-0.00281289
0.00490625
0.000698185
-0.0022289
0.00345376
0.00051013
-0.0016693
0.00364805
0.000519241
-0.00124357
0.00365077
0.000678971
-0.000939066
0.00377758
0.000494185
-0.00104442
0.00442021
-0.00155603
0.00542872
-0.00296276
-0.00368462
0.00380338
-0.0033493
-0.00393886
0.00208355
-0.00226743
-0.00452498
0.00175174
-0.000746374
-0.00470399
0.00189415
0.000376516
-0.00430948
0.00218309
0.00097032
-0.00412805
0.00242243
-0.00450223
0.00385055
-0.00205541
-0.0034903
0.00202468
0.000100763
-0.00364943
-0.00227166
0.00285571
-0.00369937
-0.00342523
0.00476597
-0.00331748
-0.00314307
0.00595327
-0.00262079
-0.00274332
0.00559435
-0.00222488
-0.001433
-0.00206894
0.00326909
-0.00134854
-0.00216355
0.00099058
-0.00601507
0.0030604
-0.00580191
0.0047457
-0.00502497
0.00515796
-0.00303485
0.0039651
-0.00104575
0.00186836
0.00094542
0.00279386
-0.00513571
0.00176255
0.00290001
-0.0110788
0.00314933
0.00160373
-0.0102164
0.00398845
0.00121287
-0.00682937
0.00429664
0.0011185
-0.00327788
0.0023744
0.00114531
0.00153424
0.00111101
0.00418725
-0.00132234
0.00293786
0.00249453
-0.00062112
0.00378204
-0.00735589
0.000519973
0.00279278
-0.0079808
0.00188747
0.00332771
-0.00900554
0.00370667
0.00315102
-0.0074767
0.00349643
0.00280359
-6.64234e-05
0.00246953
0.00756166
-0.000181735
0.00108186
0.00523745
-3.13678e-05
0.00123697
0.00280543
-0.00052116
0.00108903
0.00285069
0.00126406
0.00179966
0.000117386
0.00340536
0.00198641
-0.000253976
0.00276339
0.00137178
0.00439407
0.00232967
0.00831956
0.000817522
-0.00150303
0.00663307
0.000734362
-0.000732597
0.0054738
0.000139459
-0.000408048
0.00570675
0.000205604
-0.000219323
0.0055517
0.000382435
-0.000182724
0.00570755
-0.000353122
-0.000299041
0.00676735
-0.000571572
0.00791438
-0.0017943
-0.00206626
0.00611732
-0.00298951
-0.00218242
0.00468279
-0.00265558
-0.00300395
0.0039755
-0.00217359
-0.00287641
0.00401914
-0.00124649
-0.00293366
0.0039328
-0.000395722
-0.00296486
0.00416088
-0.00299058
0.00580114
0.00106137
-0.00277818
0.00180244
0.00275521
-0.0026841
-0.00332882
0.00290265
-0.00232396
-0.00407846
0.00235505
-0.00163526
-0.00366411
0.00206224
-0.00144152
-0.00382018
0.00227427
-0.00167248
-0.00284575
-0.0016146
0.00427648
0.00133879
-0.00630659
0.00208127
-0.00945405
0.00275188
-0.00882405
0.00364822
-0.00756709
0.00358231
-0.00440748
0.00257231
-0.00172221
0.00280973
0.00113439
0.00204354
-0.00832558
0.000644567
0.00233859
-0.0129071
0.000695838
0.0010704
-0.01134
0.00123213
0.000384085
-0.00778804
0.00142401
0.00076853
-0.00425503
0.000665247
0.000769794
0.00151426
0.000313919
0.00451228
-0.000237066
0.00170603
0.00319286
-0.00257674
0.00261917
-0.00512029
-0.00220768
0.00115834
-0.00830117
-0.00204072
0.00184621
-0.0105212
-0.00104487
0.00262696
-0.0102022
0.00144469
0.00242715
-0.00408538
0.00203453
0.00741944
-0.00318242
0.00201307
0.00805533
-0.00441383
0.00224484
0.00437154
-0.0045134
0.00206792
0.00198513
-0.00330995
0.00204469
-0.00135866
-0.000724463
0.00214228
-0.00240687
0.00228364
0.00196806
0.00180117
0.00250538
0.0100659
0.000688465
-0.0013357
0.00924292
0.00085143
-0.000941897
0.00845288
0.000425252
-0.000333304
0.00848867
-0.000227259
-0.000266718
0.00846758
-0.000249198
-0.000744632
0.00859045
-7.71726e-05
-0.000733321
0.00928801
-0.000247229
0.0105734
-0.00121972
-0.00193365
0.00788499
-0.00287518
-0.00153466
0.00690786
-0.00378626
-0.00217552
0.00669582
-0.00405581
-0.00241075
0.00637018
-0.00305238
-0.00312735
0.00525734
-0.0017688
-0.0030229
0.00511742
-0.0027366
0.00647226
0.0018512
-0.00190805
6.47301e-05
0.00358936
-0.00195701
-0.00449635
0.00342285
-0.00181712
-0.00403988
0.00218847
-0.00121826
-0.00342467
0.000415532
-0.000802084
-0.00422114
-0.000206197
-0.000790732
-0.00437057
-0.000816153
0.00225812
0.000718395
-0.0089398
-0.000169097
-0.0106019
-0.000603262
-0.010215
0.000166508
-0.009556
0.000829269
-0.00586802
0.000572498
-0.00227531
0.00253424
0.00080154
0.000538504
-0.00968999
0.000514629
0.00140774
-0.0140342
-0.000296031
0.0010947
-0.0116047
-8.87839e-05
-0.000245554
-0.00780633
-0.000231611
0.000176375
-0.00429549
-0.000544862
0.000647489
0.00119579
-0.000408422
0.0043498
-0.000980865
0.000501941
0.00430412
-0.00275342
0.00116931
-0.00295439
-0.00319386
0.000653686
-0.00728724
-0.00335544
0.000865328
-0.0113681
-0.0026
0.00166247
-0.0123249
-0.000715478
0.00255928
-0.00774305
0.00173753
0.00472864
-0.00502128
0.00317545
0.0103103
-0.00722401
0.00284021
0.00481741
-0.0071291
0.00199705
0.000470979
-0.00630829
0.00104364
-0.00243371
-0.00437095
0.0010466
-0.00377053
-0.000896718
0.00220845
-0.00135761
0.00190807
0.0089503
-2.68068e-05
-0.000307305
0.0126975
8.99881e-05
-0.000680051
0.0117949
0.000135475
-0.000720414
0.0111298
-0.000512108
-0.000820474
0.0109416
-0.00117049
-0.000698647
0.010976
-0.000233993
-0.000496431
0.011026
-0.000624585
0.012855
-0.000759529
-0.0031692
0.0114691
-0.00283374
-0.00202902
0.0103021
-0.00428178
-0.0019075
0.00929742
-0.00459668
-0.00221684
0.00803312
-0.00415645
-0.00260742
0.00667306
-0.00262489
-0.00288303
0.00590252
-0.00286645
0.00603601
0.00287536
-0.00157627
-0.00430341
0.00509613
-0.00154864
-0.00708657
0.00620953
-0.00112671
-0.00579844
0.00589224
-0.000550705
-0.00457718
0.00344586
-0.000460707
-0.00373205
0.000181291
-0.00019272
-0.00367415
-0.000396116
5.4322e-05
-0.00077469
-0.0098228
-0.00181462
-0.0111502
-0.00216429
-0.0110007
-0.0016046
-0.0106891
-8.86036e-05
-0.00782239
-0.000297292
-0.00229155
0.0017838
0.000846787
6.10054e-05
-0.0106483
0.00102985
0.000857649
-0.0151617
-0.00031525
0.000871253
-0.0111494
-0.00107693
0.000192901
-0.00725456
-0.00142088
0.000394152
-0.00434236
-0.000971203
0.000392172
0.000370283
0.000126655
0.00325064
0.000415661
-0.00078153
0.00478943
-0.00159739
-0.000127974
0.00014321
-0.0026822
0.000355769
-0.00556771
-0.0032251
0.000480834
-0.0109744
-0.0034302
0.00154986
-0.0131307
-0.00297153
0.00232974
-0.0100193
0.00221067
-0.000152114
-0.00589523
0.00410021
0.0112593
-0.00854205
0.00246348
0.00475053
-0.0088828
0.00159361
-0.000512931
-0.00837214
0.000600137
-0.00309475
-0.0066585
0.000664367
-0.00470882
-0.00423387
0.00162872
-0.00308307
0.00232321
0.00463013
0.000268152
0.000957355
0.015557
0.000366282
0.000345026
0.0137518
-0.000247942
-7.63629e-05
0.0133765
-0.00166081
-0.000485139
0.0134639
-0.00219855
-0.000452959
0.0125948
-0.00181898
-0.000166365
0.0123936
-0.000700979
0.0140842
0.000147249
-0.0028784
0.0150961
-0.00187972
-0.00145288
0.014018
-0.00378032
-0.00110775
0.0121743
-0.00454276
-0.00227101
0.0105789
-0.00421279
-0.00299029
0.00882282
-0.00249232
-0.003225
0.00715959
-0.00345085
0.0062639
0.00504905
-0.00131465
-0.0108273
0.00613448
-0.00023646
-0.00928621
0.00679659
-1.3251e-05
-0.00742378
0.0062177
-0.000366489
-0.00572708
0.00404002
-0.000461811
-0.0038953
0.00130556
-0.000744117
-0.00328111
-0.00106616
-0.000899681
-0.00203762
-0.00914026
-0.00297994
-0.0104977
-0.00338282
-0.0107209
-0.00349892
-0.0110094
-0.00175996
-0.0100276
-0.000543531
-0.00426499
0.000126917
0.000525498
-0.00112866
-0.0101326
0.00166062
-0.00137719
-0.0150289
0.000182297
0.000283232
-0.00999533
-0.00176309
0.000739682
-0.00605615
-0.00258402
0.00100336
-0.00455273
-0.00122323
0.000663129
-0.00166803
0.000705991
0.00140843
0.000701627
-0.000851545
0.00390528
0.00118244
-6.08211e-06
-0.0015977
0.000541272
0.000521052
-0.00509201
-0.000390224
0.000836305
-0.0100029
-0.00124995
0.00222875
-0.0133218
-0.0017199
0.00286434
-0.0116147
0.00353914
-0.00452041
-0.00557051
0.0037735
0.0121176
-0.00714821
0.0014219
0.00471061
-0.00721194
0.00146471
-0.00158719
-0.00786821
0.000437635
-0.00209128
-0.00697214
0.00030351
-0.00373016
-0.00560177
0.00117717
-0.00284032
0.00235518
0.000302798
-0.00156365
0.00146969
0.0194479
-0.000684923
0.0017097
0.0125076
-0.00119999
0.000566412
0.0148108
-0.00291588
-0.000449001
0.0161885
-0.00375959
-0.000674513
0.0144352
-0.00268962
-0.00025029
0.0127675
-0.000207474
0.014057
0.000325134
-0.000217756
0.0164275
-0.000449251
0.000806234
0.0155521
-0.00185592
-1.97614e-05
0.014065
-0.00287752
-0.00105169
0.0122401
-0.00326375
-0.00209425
0.0105317
-0.00195141
-0.00255784
0.00810633
-0.00258068
0.0066555
0.00353135
-0.00113203
-0.0133238
0.00420784
-0.000117843
-0.00895764
0.00375606
-0.000300926
-0.00665113
0.00172266
0.000761154
-0.00543759
-0.000442049
0.000539743
-0.00428797
-0.00081855
-0.00112859
-0.00415405
-0.00184363
-0.00225477
-0.00228756
-0.00802933
-0.0032233
-0.00969035
-0.00411236
-0.010162
-0.00369058
-0.0107597
-0.00235283
-0.0109208
-0.000219767
-0.00747411
-0.00196222
0.00021985
-0.00125117
-0.0092499
0.00227005
-0.00187513
-0.0153094
0.00164022
-0.00124874
-0.00811214
8.02277e-05
-0.000114343
-0.00435456
-0.000355577
0.000184533
-0.00432992
-0.000217366
0.000578553
-0.00235296
0.00106783
-1.40763e-05
-0.00041153
0.0025778
0.000598097
0.00296227
0.000684996
-0.00747189
0.00116815
0.000884602
-0.00539367
0.00138967
0.00082014
-0.0109993
0.00184343
0.00103445
-0.0144898
0.0017401
0.00205165
-0.0127158
0.00364422
-0.00524738
-0.00252179
0.00503375
0.0119647
-0.00463442
0.000808834
0.0064752
-0.00639418
-0.000155455
0.00122906
-0.00569931
-0.00166889
-0.000122275
-0.00327369
-0.000582477
-0.00445861
-0.00269484
2.83215e-06
-0.00152279
0.00102813
3.1182e-05
0.00281741
0.00066181
0.0212209
-0.00077238
0.000537483
0.0162282
-0.00265274
-0.000527107
0.0171287
-0.00423917
-0.000631703
0.0165814
-0.00345774
-0.00107991
0.0142546
-0.0028004
-0.00199368
0.0139933
-0.00118678
0.0136401
0.00192015
0.00108257
0.0140437
0.00114829
0.00195076
0.0147248
0.000235996
0.00100646
0.013482
7.06501e-05
0.000587431
0.01129
-0.000885224
-0.000301675
0.0107538
-0.00148052
-0.00102737
0.00769725
-0.00151792
0.00556089
0.00107237
-0.000521676
-0.012701
0.00191356
0.00025836
-0.00805071
0.00177021
0.000470666
-0.00591335
0.000673947
0.00166589
-0.00533084
-0.00108169
0.0012458
-0.00409151
-0.00144668
-0.000333835
-0.00436567
-0.00204092
-0.00308726
-0.00260742
-0.00597552
-0.00387568
-0.00813886
-0.00426225
-0.00933036
-0.00334659
-0.010048
-0.00200466
-0.0110265
0.000875779
-0.010708
-0.00305487
0.000121631
0.0033745
-0.0117701
0.00829165
0.000846874
0.00346373
-0.0189747
0.0147654
-0.000146939
0.00287662
-0.00879793
0.00690911
-0.00025264
0.00261992
-0.00592088
0.00347365
0.000788918
0.000347819
-0.00473188
0.00331623
0.00065369
0.000685618
-0.000795723
5.21845e-05
-0.000535382
0.00233229
-0.0010997
0.00594688
-0.000729234
0.000698551
-0.00244826
0.00272429
0.000285406
-0.00247061
0.00899222
0.00186428
0.00296532
-0.00652075
0.00756549
0.00415174
0.00355725
-0.0126491
0.00970788
0.00277743
0.00463865
-0.0186676
0.0161436
0.0017379
0.00349207
-0.0167484
0.0145706
0.00281511
-0.00608137
0.00439993
-0.00211113
-0.00096402
0.0165691
-0.0142778
-0.00361936
-0.00178132
0.0112056
-0.00777222
-0.00252666
-0.00179803
0.0055867
-0.00207559
-0.00174404
-0.00136974
0.000206009
0.00400382
-0.00334257
-0.000251583
0.000398245
0.00593952
-0.00265093
0.000476851
-0.00171655
0.00378091
0.00110944
0.000269617
-0.00109244
0.000410432
-0.00115012
0.0167501
-0.0169553
-0.000414957
-0.000699463
0.0170736
-0.0173233
-0.00172011
-0.000329952
0.0161933
-0.0164085
-0.00314366
-0.000582201
0.0159816
-0.0152896
-0.00329664
-0.000686913
0.0152907
-0.0147537
-0.00221256
-0.000889092
0.0142408
-0.0139243
-0.00117901
0.0126648
-0.012653
0.00345216
0.000486843
0.00815378
-0.0132901
0.0027748
0.00179768
0.0116095
-0.0135425
0.00214033
0.00120145
0.0115565
-0.0126033
0.00158761
0.000363697
0.0106403
-0.011114
0.00150013
-6.34293e-05
0.00962977
-0.0102554
0.000430431
-0.0010022
0.00837395
-0.00726723
-0.00196211
0.00627486
-0.00497078
0.000139319
-0.00190136
-0.0095985
0.0119554
0.00101792
-0.00105292
-0.00679562
0.00884925
0.000960304
-0.000773184
-0.00369745
0.00582499
0.000339649
-0.00114542
-0.00336035
0.00554598
3.61174e-05
-0.000899124
-0.00340871
0.00457464
0.000108149
-0.0023838
-0.0043413
0.00580883
-0.00166083
-0.00200847
0.00200883
-0.00276344
-0.00283638
0.00368217
-0.00395862
-0.0062144
0.00636795
-0.00430974
-0.00792701
0.00753039
-0.0040257
-0.00989241
0.00848946
-0.00269484
-0.0120916
0.00988337
-0.00134481
-0.0145833
0.0107859
-0.00480382
0.0016979
0.000601967
0.00108834
-0.0134334
-0.000630573
0.000583266
-0.018439
0.000233768
0.00183181
-0.0115639
-0.00073545
0.00189794
-0.00690417
-0.000274117
7.88816e-05
-0.00537764
-0.000406828
0.000154943
-0.000727744
-0.00114348
0.00290484
-7.44867e-05
-0.000781128
0.00271604
-0.000621355
-0.00136674
0.000119236
0.0027486
0.000975439
-0.00890064
0.00634812
0.00184661
-0.0160074
0.00451158
0.00177712
-0.0185823
0.00322958
0.00218805
-0.0173116
0.00302405
-0.00677975
-0.00110035
-0.000568668
0.0174116
-0.00251042
-0.00170331
0.0129029
-0.00201642
-0.00216509
0.00822506
-0.00259149
-0.00255932
0.00524682
-0.00452617
-0.00144949
0.00557012
-0.00268819
-0.000426413
-0.000836648
0.000780577
-0.000216532
0.000954079
-0.00245807
0.0177611
0.00062284
-0.00233019
0.0180353
-0.000951355
-0.00156995
0.0171957
-0.00265806
-0.00171418
0.0168884
-0.00318732
-0.0013756
0.0158016
-0.00223783
-0.00169325
0.014577
-0.00177368
0.0129377
0.00611942
-0.000769139
0.000385952
0.00660815
0.000628178
0.0081435
0.0049669
0.000674873
0.0109575
0.00351282
-3.35429e-05
0.0104534
0.00206594
9.73512e-05
0.00962564
0.000979012
-0.00120426
0.00896374
-0.00192694
0.00744769
-0.000643491
-0.00124222
-0.00837385
0.00148366
-0.000864042
-0.00734379
0.00273984
0.000113248
-0.00424963
0.00253166
0.000679414
-0.00369577
0.000437588
0.00154051
-0.00262468
0.000573062
-0.000758104
-0.00474344
-0.00206429
-0.00113405
-0.0013382
-0.00279476
-0.0033786
-0.00507967
-0.00438251
-0.00683146
-0.00468853
-0.00895935
-0.00369619
-0.0115431
-0.00408832
-0.014967
-0.0108976
0.00121005
-0.000168854
-0.0144501
0.000713415
0.000170087
-0.0181545
0.0010284
0.000412343
-0.0124581
0.000122569
0.0018272
-0.00784771
5.24415e-05
0.000499632
-0.0058288
-0.000180499
5.28708e-05
-0.000600453
-0.00109733
0.00377382
0.000522399
-0.000888115
0.00296347
0.00291896
-0.00250803
0.000421133
0.00539954
-0.000826263
-0.0101593
0.00932004
0.000604738
-0.0185559
0.00931866
0.000902352
-0.0188956
0.00621006
0.00241391
-0.0164663
0.00408481
-0.00554014
-0.00102004
-0.000450166
0.017923
-0.00290576
-0.00166097
0.0138678
-0.00326627
-0.00190996
0.0096171
-0.00408136
-0.00208754
0.0087722
-0.00382322
-0.00167024
0.00791086
-0.00127125
-0.00101793
-1.29366e-05
0.00088358
0.00162172
0.00132779
-0.00225576
0.0182798
0.00107161
-0.00225973
0.0188855
-0.000498006
-0.00115158
0.0180275
-0.00199291
-0.00145683
0.0177885
-0.00249451
-0.00212599
0.0167842
-0.00255383
-0.00238392
0.0159991
-0.00264244
0.0138996
0.00361804
-0.00268516
-0.00276688
0.00648547
-0.00132348
0.00437001
0.00650672
-0.00134028
0.0112156
0.00562283
-0.00187267
0.0118656
0.00360014
-0.00163919
0.0112136
0.0013992
-0.00148178
0.0102288
-0.00174042
0.00780685
-0.00401933
-9.72055e-05
-0.0068573
-0.00486625
-5.52095e-05
-0.00763507
-0.0027369
0.000305235
-0.00767375
0.000254626
0.00077732
-0.00886615
0.000829192
0.00172382
-0.00623928
0.00197564
-0.00143558
-0.00550956
-0.00113378
0.000469816
-0.000301565
-0.0026707
-0.00215067
-0.00333133
-0.00351486
-0.00517507
-0.0040267
-0.00768454
-0.00340914
-0.0103709
-0.00436138
-0.0153225
-0.0164791
0.00254184
-0.00106437
-0.0159042
0.00140846
0.000650746
-0.0176252
0.00155007
-0.00121389
-0.0114508
0.00219238
-0.000626738
-0.00791431
0.00274303
-0.00148482
-0.00490637
0.00102033
-0.0001736
0.00127166
-0.000687525
0.00545504
-0.000813459
-0.000791419
0.00355237
0.00518731
-0.00310564
-0.0017413
0.0109489
-0.00116824
-0.0159184
0.013746
-0.000271767
-0.0215941
0.0135372
-0.000833904
-0.0192214
0.00872007
0.00216432
-0.0138614
0.00393606
-0.00125633
-0.000540848
0.000147799
0.0174566
-0.0026662
-0.000937555
0.013725
-0.00355747
-0.000610967
0.009812
-0.00367414
-0.00120748
0.00973078
-0.00314104
-0.00260089
0.00913457
-0.00100021
-0.00181019
0.00176792
-5.20184e-05
0.00454775
0.00127704
-0.000914964
0.0180986
0.000189933
1.42549e-05
0.019058
-0.000947753
0.000720285
0.0178539
-0.00158214
-8.33012e-05
0.0172907
-0.00212382
-0.00161738
0.0163444
-0.00231208
-0.00171616
0.016067
-0.00247765
0.0140226
0.000779668
-0.00399821
-0.000507312
0.00306848
-0.00248878
0.00459517
0.00491123
-0.0015894
0.0117448
0.00487767
-0.000946524
0.0128367
0.00380983
-0.0011436
0.0118582
0.00145839
0.000714949
0.0100601
-0.000209646
0.00683231
-0.00964388
0.00153753
-0.0026133
-0.013539
0.00140797
-0.00734286
-0.0135761
0.00190688
-0.0107505
-0.00943092
0.00254526
-0.0161705
-0.0031889
0.00283551
-0.0161526
-0.000300185
-0.000653009
-0.00680017
-0.00131722
0.00152005
-0.00132336
0.000110273
-0.0027319
-0.000539771
-0.00309978
-0.00285313
-0.0018725
-0.00630943
0.000757671
-0.0101245
-9.28629e-06
-0.015315
-0.0177113
0.00137929
-0.000789905
-0.0164856
-0.00050767
0.00066434
-0.016361
0.000896448
-0.00300746
-0.00986395
0.00344866
-0.0032804
-0.0072144
0.00284261
-0.00227127
-0.00202171
0.00041032
0.00010549
0.00359677
-0.000315396
0.00609408
-0.00103665
-0.0012013
0.00511821
0.0102773
-0.00369165
-0.00851975
0.0162035
-0.00155769
-0.0231475
0.0163432
-0.00115616
-0.0237248
0.0144207
-0.00130576
-0.0181527
0.00736706
0.00199081
-0.00856628
0.00289011
0.00308869
-0.00030209
0.00162951
0.0148516
-0.0020816
-0.000139795
0.0118988
-0.00222202
-0.000491769
0.00878822
-0.00187214
-0.00121751
0.00930504
-0.00137347
-0.00263165
0.00991564
-0.0013763
-0.00212697
0.00582287
-0.000633496
0.00664637
0.00153324
0.000556079
0.0176465
-0.000167984
0.00244487
0.0182496
-0.00128974
0.00190352
0.0165774
-0.00134415
0.000633798
0.0154674
-0.00146953
-0.00095108
0.0147442
-0.00171191
-0.00112249
0.0152765
-0.0016606
0.01336
-0.00047859
-0.00420958
0.00465174