/*--------------------------------*- C++ -*----------------------------------*\
  =========                 |
  \\      /  F ield         | OpenFOAM: The Open Source CFD Toolbox
   \\    /   O peration     | Website:  https://openfoam.org
    \\  /    A nd           | Version:  6
     \\/     M anipulation  |
\*---------------------------------------------------------------------------*/
FoamFile
{
    version     2.0;
    format      ascii;
    class       volScalarField;
    location    "0.0225";
    object      T;
}
// * * * * * * * * * * * * * * * * * * * * * * * * * * * * * * * * * * * * * //

dimensions      [0 0 0 1 0 0 0];

internalField   nonuniform List<scalar> 
3773
(
294.013
295.02
295.306
294.996
294.704
295.027
293.913
294.902
296.312
296.501
296.132
295.838
296.153
294.771
305.348
306.189
305.935
305.972
306.042
305.913
305.455
306.862
307.185
307.298
307.243
307.214
307.302
306.864
305.381
305.684
305.91
305.873
306.065
305.98
305.516
294.87
295.385
296.116
295.76
295.858
296.389
294.948
294.004
294.409
295.026
294.711
294.734
295.224
294.045
291.118
292.356
292.634
292.309
292.02
292.353
291.084
270.699
275.542
275.539
274.51
273.022
273.761
270.748
314.363
313.767
313.917
314.135
313.775
313.085
314.234
327.14
327.609
327.82
327.899
327.917
327.523
327.482
314.703
314.638
313.75
313.9
314.039
313.53
314.603
271.084
272.371
273.964
272.632
273.698
274.544
271.155
291.08
291.707
292.288
291.942
292.027
292.531
291.143
290.959
292.063
292.368
292.059
291.765
292.097
290.985
266.65
271.338
271.237
270.293
268.568
269.095
266.567
311.065
310.137
310.443
311.608
310.896
308.487
310.232
328.784
328.457
328.987
329.68
329.568
328.155
328.607
310.817
309.886
309.711
311.71
311.219
309.2
310.283
266.961
269.036
269.422
268.191
269.436
269.928
267.042
290.928
291.46
292.051
291.69
291.786
292.285
291.022
290.758
291.595
291.896
291.629
291.376
291.674
290.795
261.26
265.814
265.756
265.188
263.061
263.427
260.862
309.169
308.177
308.125
309.13
309.431
307.02
308.235
328.818
328.676
329.028
329.621
329.224
328.29
328.579
308.858
306.783
309.817
311.883
310.262
306.847
308.312
261.577
263.83
263.93
263.092
264.384
264.101
261.569
290.754
291.238
291.673
291.334
291.423
291.865
290.837
289.478
289.886
290.015
289.744
289.562
289.97
289.484
256.636
259.342
259.031
259.295
258.242
258.527
256.167
309.233
307.419
307.321
308.694
307.839
306.347
308.377
329.019
328.676
329.088
329.185
328.828
328.333
328.883
308.809
306.495
308.816
309.605
309.844
306.632
308.519
256.938
258.533
258.87
258.495
259.457
258.759
256.934
289.59
289.963
290.014
289.73
289.73
290.277
289.686
279.885
280.796
280.03
279.173
278.94
280.115
279.609
250.098
251.78
251.036
251.449
250.878
251.328
249.537
310.787
307.759
308.319
308.175
307.439
307.244
309.604
329.893
329.377
329.508
329.556
329.14
329.589
329.833
310.041
307.312
308.053
308.22
308.265
308.278
309.831
250.158
249.382
251.261
250.87
250.333
251.363
250.371
280.404
281.718
280.2
279.861
280.151
281.11
280.729
236.749
235.897
234.027
233.512
232.838
234.303
236.046
234.255
234.743
232.949
234.356
234.084
234.405
234.115
305.658
305.602
302.819
304.692
302.365
305.17
302.795
342.736
344.961
344.869
344.67
345.497
342.659
345.815
305.553
307.763
305.237
302.256
311.465
305.755
303.069
234.567
226.596
234.337
233.143
227.951
234.653
234.744
237.591
237.398
234.228
233.259
234.921
235.735
238.211
351.672
352.039
351.493
351.675
351.284
351.205
351.465
352.169
351.018
350.357
349.303
349.322
349.887
351.124
352.432
350.896
350.481
349.902
349.822
350.084
350.675
349.133
347.07
346.035
346.156
346.747
347.179
347.78
351.519
350.507
349.797
349.155
349.095
349.839
350.106
353.417
353.511
352.192
350.915
350.372
350.787
350.85
354.665
355.352
355.464
355.405
354.411
352.788
351.801
350.561
352.725
351.259
352.104
350.977
350.864
351.269
351.403
350.306
348.168
347.247
347.593
349.316
350.996
352.245
350.215
348.909
347.699
348.396
349.673
350.671
348.797
346.268
344.583
345.352
346.216
346.699
347.657
351.645
350.159
348.984
348.278
348.782
350.078
350.472
353.862
353.76
350.93
348.289
348.067
350.543
351.002
354.378
354.651
355.358
356.094
354.669
352.191
351.563
350.519
352.871
350.604
350.744
349.296
350.076
351.16
351.736
348.852
346.515
346.051
346.22
347.787
350.357
351.251
347.749
345.816
345.487
346.07
348.689
350.188
348.297
345.587
343.73
343.286
344.858
346.258
347.115
351.566
348.982
347.161
346.597
348.031
349.721
350.349
354.098
353.74
351.139
347.407
345.859
348.308
350.936
353.1
352.689
354.251
356.342
354.208
350.841
350.94
350.024
352.517
350.154
348.401
348.838
350.405
351.143
351.168
348.37
345.999
345.486
345.705
347.561
350.322
348.527
344.307
343.367
342.861
344.286
347.81
350.117
346.653
343.955
342.567
342.261
344.16
345.724
346.496
351.144
347.748
346.335
346.09
347.151
348.664
349.673
353.69
353.21
352.553
349.854
346.197
345.597
349.664
351.373
350.942
353.753
356.238
355.566
350.74
351.178
348.671
350.583
349.936
347.477
348.774
350.74
351.273
350.864
347.939
345.416
344.839
344.979
345.903
349.457
345.943
342.129
340.49
340.537
342.723
345.673
349.454
345.64
342.498
340.993
341.406
343.212
344.729
346.132
350.677
347.361
345.581
345.782
346.486
347.424
347.971
352.13
351.021
350.55
350.203
348.101
345.857
346.81
349.947
349.454
350.949
354.857
356.755
352.021
351.198
348.12
349.533
350.014
347.421
347.949
348.968
351.161
349.19
346.539
345.443
344.741
344.135
343.803
346.977
343.717
340.103
337.205
337.163
338.524
342.669
345.878
343.712
340.698
340.012
339.485
341.698
343.628
345.266
349.962
346.783
345.006
345.189
345.835
346.526
346.966
350.385
348.981
347.99
347.822
347.218
345.92
345.871
348.937
347.763
348.116
350.542
354.324
355.077
350.557
347.606
348.383
350.067
347.616
347.399
346.762
349.486
348.514
349.78
345.794
344.685
344.053
343.763
344.543
342.308
337.183
333.745
334.678
337.241
339.222
343.125
342.154
338.879
338.017
338.013
339.796
341.214
342.418
349.557
346.809
344.254
342.859
342.801
345.046
344.69
349.505
346.417
344.423
344.678
346.241
345.713
345.688
348.628
347.352
347.195
348.578
352.195
355.993
351.817
348.587
349.482
354.937
349.46
348.175
348.782
346.893
351.844
351.878
346.32
342.334
345.055
346
344.37
340.628
336.052
336.385
337.582
338.906
343.381
344.583
340.985
337.813
336.257
336.56
338.671
339.113
339.818
348.924
346.97
343.904
340.132
340.094
338.062
341.452
348.617
344.508
343.376
343.877
346.189
347.771
347.344
350.767
350.03
350.325
351.314
353.239
355.692
354.195
347.776
347.988
355.8
350.513
347.324
348.905
347.294
345.736
339.474
340.219
340.643
344.022
346.775
345.03
339.381
335.2
334.964
335.796
337.245
343.458
345.701
339.976
337.372
335.737
335.45
336.198
337.78
338.302
346.455
346.094
343.863
339.512
336.24
335.922
338.133
346.772
342.436
338.649
336.732
338.049
342.12
344.855
350.116
348.796
349.458
350.258
351.777
355.184
355.674
347.477
348.604
353.252
351.801
348.276
349.224
347.549
343.522
337.242
337.786
340.01
344.302
347.303
346.281
338.16
333.323
332.004
333.157
336.557
343.023
345.98
337.378
335.458
333.735
334.651
334.984
334.774
336.177
341.471
341.773
341.004
338.681
334.893
334.54
337.525
346.216
341.731
339.022
338.599
339.382
343.811
344.448
349.466
348.671
349.82
351.107
352.332
355.066
354.243
346.257
350.133
350.705
351.575
349.524
349.073
347.674
340.853
335.23
336.43
340.337
344.638
347.14
346.525
336.789
331.498
330.719
332.02
335.255
342.114
345.981
336.806
334.563
332.84
332.427
332.083
333.068
335.172
344.028
340.254
338.256
335.468
333.942
334.289
338.657
346.858
347.017
348.504
349.455
349.315
347.009
344.687
348.54
348.821
351.653
353.381
353.26
350.863
347.953
345.61
349.651
350.437
351.333
349.668
348.792
347.564
339.365
336.357
338.704
346.016
345.984
346.885
345.861
335.569
330.254
329.384
330.16
332.509
341.153
345.194
334.72
332.093
330.648
331.035
330.999
332.594
334.807
344.911
338.628
336.818
332.966
331.624
334.402
342.156
348.829
348.85
349.593
350.32
351.404
347.19
344.799
348.858
350.958
353.203
354.104
355.194
349.365
348.964
342.571
346.217
352.066
351.667
348.967
347.935
347.635
334.963
341.757
346.133
348.726
345.465
346.058
344.632
334.074
328.228
327.783
329.081
329.529
333.301
343.695
333.117
330.102
329.351
329.479
328.7
330.949
333.766
343.09
336.51
332.278
330.485
329.956
332.612
337.638
348.757
346.543
344.732
348.543
352.363
347.128
343.198
348.27
350.639
353.007
354.062
355.637
350.924
354.599
340.267
351.684
352.181
352.431
349.35
349
349.27
344.022
349.237
351.167
351.042
343.114
337.865
343.034
334.428
335.821
334.148
335.104
333.943
333.25
337.512
331.292
328.425
328.21
328.933
328.358
328.779
334.375
339.128
333.209
330.305
331.649
339.241
344.897
348.616
348.474
346.633
341.568
347.117
355.871
353.9
352.051
351.091
351.238
351.795
354.974
352.561
350.674
358.024
348.743
350.501
351.599
348.356
347.469
345.576
345.479
349.254
349.394
343.389
344.692
344.39
343.916
344.352
342.173
336.971
334.408
336.2
338.245
337.811
341.863
341.907
338.987
337.162
337.917
339.661
340.67
342.021
348.941
346.919
344.175
342.72
342.529
343.273
344.345
349.03
346.087
344.06
344.194
345.571
345.872
346.332
350.065
348.628
347.872
349.32
352.474
354.623
354.759
348.726
350.593
352.032
348.473
347.598
345.7
346.639
349.1
349.923
344.376
344.9
344.707
344.245
344.464
342.111
336.801
334.628
337.026
338.408
340.451
341.978
341.843
338.938
337.122
337.876
339.604
340.533
341.868
348.937
346.896
344.146
342.619
342.361
342.896
344.222
348.943
345.969
343.946
344.172
345.672
346.492
346.759
350.124
348.864
348.19
349.639
352.55
355.021
355.678
348.795
350.854
352.403
348.586
347.637
345.803
347.451
349.073
350.183
344.823
344.913
344.893
344.356
344.476
341.997
336.557
335.352
338.525
339.065
341.428
341.439
341.79
338.876
337.054
337.858
339.548
340.429
341.736
348.911
346.838
344.072
342.476
342.2
342.565
343.992
348.851
345.873
343.873
344.118
345.756
346.774
347.096
350.184
348.953
348.433
349.836
352.569
355.326
355.707
349.055
351.17
352.981
348.723
347.67
345.965
348.223
349.003
350.622
345.033
344.759
345.061
344.497
344.396
341.911
336.484
335.57
338.844
339.369
342.062
342.146
341.729
338.71
337.009
337.809
339.498
340.302
341.555
348.928
346.843
344.021
342.232
341.889
342.086
343.818
348.817
345.83
343.817
344.026
345.875
346.986
347.234
350.255
349.023
348.618
350.073
352.651
355.569
355.22
349.099
351.643
353.404
348.918
347.699
346.066
347.638
348.976
351.008
345.185
344.72
345.24
344.719
344.369
341.793
336.449
335.86
338.962
339.539
342.695
342.099
341.684
338.678
336.974
337.681
339.35
340.249
341.428
348.935
346.861
343.99
342.089
341.689
341.916
343.582
348.765
345.746
343.743
343.986
345.942
347.392
347.223
350.351
349.123
348.92
350.579
353.025
356.091
354.757
349.067
351.803
353.995
349.309
347.763
346.375
346.513
348.914
351.305
345.608
344.725
345.428
344.917
344.412
341.731
336.425
335.909
339.123
339.887
343.107
341.823
341.625
338.588
336.852
337.643
339.308
340.187
341.246
348.952
346.911
343.959
341.844
341.449
341.494
343.304
348.747
345.673
343.606
343.979
346.146
347.74
347.196
350.596
349.341
349.569
351.069
353.367
356.308
354.119
348.842
351.633
354.219
349.404
348.014
348.478
345.89
349.202
351.661
346.115
344.772
345.522
345.055
344.481
341.527
336.326
336.024
339.316
340.036
343.285
341.446
341.543
338.493
336.802
337.619
339.198
340.053
341.075
348.979
346.879
343.927
341.722
341.166
340.971
343.015
348.704
345.477
343.512
343.979
346.223
347.956
347.267
350.669
349.843
349.999
351.217
353.429
356.349
354.049
335.169
358.711
341.09
328.418
325.112
322.326
319.063
345.918
351.242
356.956
348.673
347.259
344.32
343.534
337.396
345.455
344.243
344.07
343.445
337.599
336.839
329.749
328.185
328.201
328.088
328.462
328.93
333.812
336.641
333.434
335.04
344.857
344.416
345.284
351.64
342.997
343.896
346.999
349.314
351.485
349.961
343.608
318.894
320.953
324.088
332.503
342.058
356.394
326.455
360.112
348.641
345.933
338.946
334.984
332.302
330.247
350.648
357.197
351.154
349.446
347.067
345.436
344.735
344.979
347.093
345.626
344.985
342.646
341.262
337.191
329.151
327.789
328.227
327.803
328.292
328.979
332.713
336.347
334.01
336.432
340.303
348.759
347.658
349.611
343.752
344.548
347.339
349.614
351.436
356.242
347.047
329.898
330.933
334.668
345.502
354.931
347.763
335.864
361.144
350.445
349.605
346.516
343.247
343.009
346.347
355.534
357.836
353.449
352.168
349.625
348.569
349.071
347.221
349.148
346.505
343.901
342.168
342.311
338.138
328.249
327.652
328.238
327.706
328.018
328.895
331.94
336.012
334.548
337.817
338.719
346.348
346.722
347.435
347.793
348.339
349.336
352.229
353.261
358.301
351.865
343.664
343.791
347.283
351.139
357.018
351.049
348.192
357.913
352.743
355.326
354.139
352.384
352.577
353.916
359.598
359.23
357.06
355.861
354.141
354.41
355.072
345.435
349.59
347.727
344.724
344.346
344.764
340.502
327.588
327.289
328.194
327.678
327.894
328.595
330.566
335.45
336.142
339.325
339.601
344.301
345.885
345.97
352.445
353.02
353.883
354.592
355.854
358.271
354.01
352.573
352.354
353.993
356.945
358.307
357.609
352.656
355.53
354.488
357.405
355.619
355.407
356
355.625
361.761
361.803
358.973
356.887
355.969
355.848
356.345
349.185
351.221
349.95
348.248
345.821
345.694
344.415
327.353
327.41
328.119
327.645
327.586
328.071
329.793
337.643
342.45
342.358
341.652
344.809
345.374
344.331
353.807
353.78
354.035
355.03
356.483
357.9
353.348
353.778
354.068
355.527
358.769
358.396
360.162
351.647
355.984
357.523
357.939
357.15
355.792
355.183
354.149
362.039
363.421
359.608
357.647
356.682
356.662
356.642
350.729
352.907
353.419
350.643
347.361
345.313
345.71
327.226
327.338
327.85
327.648
327.371
327.425
328.273
341.653
343.275
342.287
342.125
344.938
344.581
341.828
352.998
353.673
354.665
355.967
357.807
357.642
353.377
352.471
354.818
356.47
359.066
359.203
359.597
352.716
357.503
358.927
356.011
353.59
352.33
350.287
349.293
361.157
362.579
360.359
356.552
355.073
353.277
353.045
352.541
356.181
356.471
352.948
348.638
345.174
344.216
327.292
327.951
327.48
327.958
327.181
326.906
326.693
342.738
343.701
342.867
343.303
346.054
345.735
343.051
351.922
352.278
353.149
354.953
358.477
355.288
351.095
348.639
350.33
353.594
357.427
361.76
354.646
347.951
318.703
318.036
318.671
320.418
324.315
330.499
340.881
341.057
340.565
339.873
339.807
340.008
342.831
345.68
338.897
358.521
358.792
358.257
356.243
355.643
355.582
339.169
348.746
353.337
355.066
354.8
354.3
352.721
355.339
358.159
359.368
358.651
357.042
356.685
356.664
341.071
340.058
339.7
339.589
340.157
343.685
345.832
320.008
318.832
317.74
319.161
326.042
333.491
342.355
330.435
328.654
329.122
329.013
332.393
337.614
344.511
343.742
342.888
342.783
342.32
342.676
344.586
346.381
337.971
348.129
357.548
357.21
355.859
355.388
355.241
337.871
344.143
349.522
352.03
352.347
351.933
350.519
354.617
356.85
357.786
357.497
356.16
355.561
354.911
344.059
343.227
342.669
342.758
343.108
345.331
346.667
335.148
332.927
333.099
331.867
335.413
341.568
346.151
347.263
347.448
346.591
346.404
346.539
346.662
346.664
348.696
348.304
348.561
348.016
347.942
347.991
349.728
337.365
338.885
349.219
356.591
356.321
355.236
354.778
335.861
339.292
343.183
347.022
348.946
348.876
348.691
350.292
353.801
355.679
356.336
356.543
356.307
355.604
351.73
351.727
351.831
351.926
351.594
352.503
353.872
349.603
347.848
345.703
344.829
344.517
345.02
347.027
355.759
355.925
355.773
356.135
356.593
356.704
350.166
356.416
356.788
357.583
357.858
358.049
357.651
357.929
338.626
337.994
338.934
342.944
351.954
355.502
356.207
333.549
334.747
335.512
336.554
339.228
340.969
342.425
346.301
347.102
348.93
353.241
356.218
356.583
356.631
354.461
356.06
356.578
356.813
357.091
357.324
358.894
352.712
352.158
351.26
350.268
349.994
347.503
346.735
355.576
355.375
355.313
355.643
356.07
357.126
356.015
357.233
356.939
357.049
358.247
358.086
359.836
359.808
342.013
340.266
338.988
339
340.057
342.508
346.213
332.151
332.977
333.038
333.178
333.658
334.101
334.613
344.43
345.126
345.661
347.362
351.017
353.269
353.978
353.254
354.23
355.268
356.05
355.691
355.312
358.906
350.863
350.474
349.257
347.978
346.54
350.55
350.87
352.887
352.976
353.814
354.487
355.658
357.199
357.3
356.988
356.84
356.854
357.027
356.936
357.243
358.157
345.043
343.796
342.898
341.775
341.029
340.015
340.141
329.951
330.518
330.438
330.084
329.662
328.334
327.795
341.323
341.008
340.409
340.477
341.24
342.244
345.41
351.599
351.672
351.512
351.369
351.073
350.878
351.827
346.129
345.536
344.025
343.734
344.759
348.266
351.634
349.383
349.51
350.403
351.552
353.14
355.771
358.057
352.849
352.73
352.715
352.716
352.792
352.747
351.53
344.354
343.735
343.414
342.453
342.13
341.205
337.953
326.415
326.255
325.855
325.024
323.923
322.485
318.95
342.427
341.799
340.418
339.61
339.193
338.361
335.52
349.169
348.492
347.383
346.791
346.682
346.772
345.494
344.89
342.787
342.024
342.509
344.338
347.207
350.751
340.836
333.723
327.588
322.848
323.059
326.059
329.247
347.701
346.224
342.975
342.362
342.464
343.468
344.738
351.439
340.732
340.988
340.534
339.621
337.995
337.314
344.949
344.853
346.156
346.342
343.213
337.846
331.961
357.718
357.221
356.875
357.203
357.22
356.906
340.027
348.801
346.584
342.776
342.17
342.237
342.272
342.433
339.343
330.791
322.541
321.03
320.513
320.465
319.589
344.826
340.611
335.247
334.853
334.749
338.522
341.959
347.189
346.149
343.828
343.195
343.354
344.9
345.765
353.505
342.903
346.601
347.563
346.776
346.213
345.214
344.396
343.725
344.055
342.451
338.1
334.725
331.522
356.118
355.909
355.806
355.911
355.889
343.253
338.082
346.719
345.293
343.358
342.927
342.435
342.334
342.679
341.99
337.077
332.798
332.023
331.251
330.664
330.292
346.373
347.039
350.605
351.323
351.504
353.843
354.886
351.943
350.757
349.728
349.421
349.56
350.88
351.605
352.518
345.337
349.15
348.546
348.066
348.025
347.436
341.535
340.32
339.896
336.064
332.734
331.521
329.68
355.069
355.036
355.366
354.432
345.268
338.37
337.192
347.899
347.31
346.857
346.746
347.399
347.534
347.731
342.655
344.145
344.457
345.601
346.328
346.282
346.128
350.022
360.285
361.706
361.378
360.292
360.543
358.824
358.155
357.545
357.282
356.954
357.018
357.493
357.867
351.651
347.704
348.182
346.716
346.513
346.709
345.669
333.5
331.126
329.789
328.737
328.43
328.324
328.113
355.26
353.494
347.144
340.811
337.743
336.831
335.841
353.292
353.631
353.528
353.751
353.697
353.49
353.048
343.923
353.935
354.69
354.762
355.027
354.956
354.582
356.765
362.152
361.868
361.673
359.713
359.232
358.707
361.08
361.402
361.335
361.3
361.491
361.964
362.191
348.798
348.379
347.839
346.495
346.128
345.877
345.875
328.218
327.694
327.279
327.152
327.367
327.705
327.818
344.473
340.14
337.612
336.857
336.393
336.349
336.975
356.036
356.412
356.293
356.105
355.37
354.662
354.405
352.63
356.138
353.809
353.547
353.706
353.751
354.118
358.119
362.103
358.811
357.576
356.447
356.496
355.996
360.474
360.564
360.446
360.647
360.762
361.125
361.053
347.745
346.993
346.884
346.139
345.964
346.38
347.204
324.333
324.655
325.399
325.693
326.381
326.756
326.874
336.925
336.518
337.124
337.335
338.085
338.603
339.629
354.496
354.448
354.337
354.423
354.003
353.374
353.079
354.688
355.684
353.38
352.835
352.634
352.166
351.656
356.795
358.91
356.204
353.239
352.557
354.07
355.068
354.547
356.286
356.433
356.454
357.254
358.334
358.823
342.193
343.94
344.224
344.295
345.057
346.195
347.049
318.545
321.656
322.984
323.908
324.798
325.918
326.307
333.868
337.117
338.19
339.097
339.641
340.324
341.897
351.72
351.965
351.919
352.146
352.29
352.093
351.978
356.723
354.497
351.464
350.604
349.702
349.444
348.951
363.938
362.377
362.854
361.777
357.35
354.646
349.331
363.496
359.332
358.626
358.047
356.207
353.577
351.967
358.7
356.825
356.737
357.003
357.591
358.081
358.503
348.453
347.792
346.413
345.08
344.59
344.813
345.215
359.213
356.964
357.343
357.686
358.302
358.059
357.97
364.518
360.072
361.458
359.911
358.827
355.557
353.329
362.224
359.619
362.15
359.432
357.674
353.724
346.099
361.947
358.625
359.764
357.798
354.461
353.099
347.796
361.608
354.081
351.646
352.033
351.694
350.791
349.776
357.972
355.383
354.607
354.592
355.03
355.83
357.251
348.254
347.254
345.54
344.371
343.833
344.236
344.592
357.695
355.798
355.741
355.665
356.197
356.369
356.313
359.271
355.655
355.218
353.87
353.177
351.076
349.316
360.902
354.903
356.745
354.361
353.433
351.262
345.843
356.787
354.53
355.021
351.618
351.5
352.111
346.218
351.636
347.133
348.12
350.481
352.394
353.94
353.444
354.866
353.115
352.41
353.038
354.623
355.835
357.063
347.245
345.863
344.511
343.307
342.933
343.089
343.103
353.984
353.237
353.527
354.342
354.328
354.38
354.784
350.252
350.071
351.852
349.922
350.082
349.314
348.738
355.241
353.112
353.609
348.231
347.531
342.078
340.69
353.957
350.301
350.932
346.455
347.193
349.134
342.423
346.672
343.684
347.851
354.18
358.756
358.298
358.701
352.298
351.519
350.921
351.522
353.415
355.876
357.01
346.405
345.548
343.747
341.586
340.608
339.086
336.572
351.103
350.716
351.2
351.309
352.268
353.242
354.416
346.735
348.02
351.226
347.343
349.357
350.564
353.309
351.598
346.044
346.497
337.983
337.993
334.749
336.698
351.049
343.11
345.742
339.292
344.386
347.669
335.624
343.059
341.501
349.73
360.821
360.84
360.359
361.037
350.176
348.669
349.92
352.069
354.515
355.76
352.839
345.26
342.367
338.57
335.238
332.769
331.396
331.058
349.273
349.111
350.409
350.528
352.521
353.458
351.87
341.153
345.832
350.219
341.798
352.515
356.003
355.831
346.351
341.058
342.26
334.324
335.809
332.701
336.977
345.881
338.145
339.774
334.257
337.957
342.01
333.569
337.008
338.28
354.752
362.342
361.3
360.675
360.952
346.76
347.185
347.279
349.518
350.911
350.55
348.424
342.92
340.659
336.121
331.7
328.61
326.825
324.991
345.3
347.381
347.229
347.806
348.655
342.89
338.231
336.777
344.134
348.435
339.67
358.221
355.981
355.509
341.263
337.241
341.077
332.731
335.385
332.295
338.778
336.121
332.472
336.407
330.029
333.407
339.098
330.956
332.534
336.128
356.569
360.835
357.546
355.364
355.338
345.22
343.038
346.297
345.835
345.011
340.997
339.952
340.36
331.728
326.172
322.6
318.51
315.639
314.933
344.121
342.963
345.07
343.445
339.821
333.092
332.067
333.49
340.285
345.335
338.702
358.543
354.761
353.11
337.834
331.219
338.966
331.272
335.039
331.999
341.077
329.706
329.089
329.235
326.779
327.71
335.563
328.369
325.75
328.972
332.229
344.817
346.196
339.327
343.737
336.36
336.588
333.564
335.83
337.463
336.199
333.535
319.893
320.79
322.968
322.474
320.251
318.514
313.027
335.765
336.698
334.261
334.737
331.004
327.392
321.851
329.578
335.959
333.775
332.791
329.328
329.839
335.151
333.052
327.279
336.254
322.108
328.553
329.691
333.854
307.447
300.591
305.221
300.267
301.425
303.945
301.654
319.159
321.772
325.334
331.511
337.997
340.516
333.686
332.943
332.288
329.772
328.286
328.618
328.739
332.501
312.967
315.187
316.622
318.665
318.279
317.072
314.85
326.229
325.442
326.398
327.707
327.882
326.126
321.451
314.878
317.316
317.12
315.714
319.588
319.777
318.867
300.801
295.043
295.684
301.708
302.942
304.98
303.571
295.731
295.242
294.848
294.745
294.805
296.069
296.413
314.488
313.389
313.751
314.818
315.605
314.709
315.162
331.238
330.541
328.098
327.111
326.037
326.887
329.567
305.441
307.023
308.303
311.443
313.038
313.376
312.034
322.056
320.789
319.175
320.323
320.587
320.577
315.601
310.278
311.241
310.452
310.65
310.191
310.288
314.313
287.205
287.799
287.747
288.059
288.391
288.543
288.798
284.121
286.555
286.638
287.402
287.112
287.312
287.867
306.75
306.63
307.303
306.965
307.238
306.85
306.074
325.871
326.02
322.423
320.47
319.001
323.632
328.088
302.754
303.5
304.992
307.623
309.545
309.468
309.382
315.776
316.429
315.584
314.276
314.637
314.913
312.047
302.911
304.934
305.338
304.238
306.247
306.788
307.042
278.73
279.009
279.091
278.898
278.863
279.273
279.129
281.062
281.064
281.042
281.086
281.169
281.205
281.293
304.121
303.79
304.176
304.109
304.203
304.217
303.879
322.631
320.438
317.961
318.096
316.608
318.701
324.434
297.142
298.167
299.607
302.045
302.582
302.923
303.953
313.567
312.617
311.878
313.068
313.301
312.724
308.438
301.161
303.494
303.846
301.268
301.35
303.965
303.274
277.81
278.163
278.143
277.702
277.66
278.056
277.565
280.685
280.681
280.69
280.712
280.701
280.697
280.716
303.309
303.002
303.17
303.151
303.195
303.25
303.088
321.702
319.488
318.033
317.956
316.586
318.565
323.593
295.324
296.11
297.768
300.141
300.358
301.165
302.153
314.56
312.787
311.876
313.73
313.954
312.627
308.784
302.266
303.236
303.358
302.428
302.442
303.515
303.209
278.979
279.734
279.747
278.947
278.926
279.725
278.778
292.112
292.092
292.121
292.11
292.096
292.091
292.068
305.177
305.103
305.155
305.221
305.262
305.274
305.226
315.046
312.767
312.342
311.12
310.188
312.135
314.011
280.26
280.987
283.366
285.683
286.42
286.382
287.293
307.36
305.955
304.738
305.86
305.979
304.96
301.703
305.382
305.376
305.449
305.465
305.481
305.52
305.649
292.321
292.05
292.05
292.232
292.291
292.049
292.627
348.595
351.739
355.325
358.677
360.798
364.879
365.78
347.782
350.307
351.91
354.541
355.681
357.794
357.511
355.615
355.339
355.369
356.244
356.579
356.996
356.865
351.898
351.076
351.219
351.87
352.766
354.259
355.006
356.733
356.683
357.277
357.834
358.056
359.681
362.2
350.261
351.986
354.7
356.684
357.238
358.224
364.15
348.607
354.914
357.614
362.426
363.001
362.334
363.041
349.119
353.023
356.321
359.002
360.971
363.975
363.819
348.242
349.338
349.972
351.047
352.572
353.418
351.934
355.083
354.549
354.404
354.921
355.046
355.023
354.468
349.631
348.522
348.637
349.396
351.484
352.367
353.42
354.752
354.57
354.543
354.994
355.91
358.657
359.949
349.03
350.677
351.396
351.66
351.668
353.716
356.049
348.923
354.818
355.017
359.169
362.104
360.502
361.864
348.131
349.108
351.739
354.868
354.362
356.721
355.355
350.502
350.577
349.601
347.975
346.174
347.089
346.164
354.431
353.669
353.252
353.115
352.76
352.879
352.796
348.342
347.635
347.504
348.135
349.951
351.755
352.616
354.832
354.276
354.086
354.078
354.441
355.203
355.167
354.295
354.501
354.555
350.866
349.044
347.442
349.013
347.425
352.356
351.679
352.447
356.247
357.151
356.076
346.678
343.668
348.266
349.479
348.553
351.005
349.049
359.861
359.007
356.871
350.536
343.577
342.38
340.334
354.969
353.682
352.032
350.824
350.501
349.99
349.928
343.551
343.864
344.742
346.208
348.764
350.963
351.975
356.088
355.246
353.875
352.903
352.346
352.839
354.056
359.426
359.17
359.357
358.25
349.947
344.4
346.563
341.676
348.066
344.57
344.778
351.872
349.166
354.365
345.219
333.064
341.108
343.956
344.48
347.049
342.802
361.411
361.698
360.63
358.19
342.286
338.001
337.139
353.216
354.581
353.648
350.914
348.494
347.986
348.978
336.271
336.743
337.901
339.78
343.179
347.13
350.967
354.847
355.787
354.707
352.733
351.64
350.698
351.139
359.538
360.262
359.856
360.639
355.456
340.257
340.06
335.628
344.489
340.047
338.803
346.053
345.495
350.383
347.565
330.961
337.211
340.847
338.583
342.688
338.195
359.319
361.426
361.679
363.258
342.137
336.024
334.413
340.595
345.428
349.812
349.716
347.418
346.47
346.821
328.248
330.2
334.571
336.48
340.515
345.431
348.505
347.019
350.847
351.8
350.892
350.363
348.955
348.771
352.994
356.246
359.599
359.59
360.828
338.196
334.86
333.051
342.331
337.488
335.137
341.976
339.749
343.451
346.856
329.381
329.207
331.224
336.204
334.312
333.875
351.559
355.809
358.882
363.408
340.071
333.733
332.209
335.556
335.878
341.119
345.944
344.542
343.32
345.708
315.979
316.584
320.421
325.688
329.435
337.036
346.137
334.725
336.103
342.804
346.325
346.91
344.688
344.751
347.186
348.657
352.97
357.706
361.667
335.676
330.453
332.072
340.424
332.419
329.327
337.854
332.095
338.464
331.763
315.05
323.759
323.211
322.628
325.716
317.881
338.009
341.269
335.351
329.605
329.317
329.405
320.502
327.684
332.139
333.051
334.997
336.982
336.37
333.344
316.636
321.258
324.771
326.646
327.216
324.335
324.432
332.535
334.456
336.33
335.687
334.816
336.5
335.409
341.101
337.222
340.271
337.784
334.631
331.592
326.05
329.828
319.757
326.489
324.918
331.028
323.062
332.993
303.057
300.409
302.895
295.463
297.405
298.596
306.557
338.022
330.59
323.203
321.172
319.697
314.532
312.735
326.722
328.945
330.341
331.901
333.215
331.129
330.265
319.924
319.959
321.102
322.431
320.564
319.707
318.564
332.421
328.714
328.494
328.99
330.242
331.287
331.97
340.273
337.559
329.742
324.975
320.61
321.312
319.469
302.171
301.457
299.317
299.227
299.332
299.249
303.272
290.939
289.431
290.231
289.024
290.494
288.871
290.281
313.223
312.638
314.012
312.151
311.949
308.485
308.589
323.002
323.71
324.287
326.501
326.712
324.475
324.065
317.226
316.801
315.725
315.283
313.301
311.324
309.781
329.052
327.313
325.731
327.386
329.289
329.738
329.874
313.714
313.424
313.934
314.308
313.818
313.837
314.726
293.697
294.465
293.414
293.493
293.77
294.108
293.916
281.923
280.393
282.331
280.309
282.823
281.963
281.123
306.135
305.576
306.775
305.281
307.494
306.744
307.155
320.25
318.262
319.701
320.042
320.574
319.017
318.69
313.362
313.186
312.179
311.941
310.457
308.643
307.125
326.173
325.271
321.883
323.805
326.088
327.016
327.066
305.68
306.49
306.973
306.932
306.709
306.71
306.721
286.392
286.012
286.122
286.022
285.244
284.468
282.708
279.223
278.738
279.205
278.736
279.292
278.68
278.669
304.217
303.247
304.389
303.159
304.155
303.029
302.919
315.068
315.899
316.896
317.801
317.826
316.755
316.497
305.336
305.622
305.162
304.967
304.336
303.107
301.586
319.88
320.415
318.792
317.687
319.045
320.462
319.915
303.709
304.147
304.312
304.019
304.027
304.087
304.094
280.978
280.907
280.731
280.371
280.332
280.275
280.264
279.796
279.096
279.763
279.117
279.793
279.09
278.958
303.512
303.017
303.643
303.043
303.577
302.941
302.945
314.86
316.185
316.597
317.893
317.521
316.878
316.745
302.739
303.146
302.942
302.546
301.691
300.466
299.305
319.033
319.96
319.14
317.433
317.933
319.12
317.809
303.111
303.337
303.411
303.189
303.216
303.299
303.334