/*--------------------------------*- C++ -*----------------------------------*\
  =========                 |
  \\      /  F ield         | OpenFOAM: The Open Source CFD Toolbox
   \\    /   O peration     | Website:  https://openfoam.org
    \\  /    A nd           | Version:  6
     \\/     M anipulation  |
\*---------------------------------------------------------------------------*/
FoamFile
{
    version     2.0;
    format      ascii;
    class       volVectorField;
    location    "0.0225";
    object      U;
}
// * * * * * * * * * * * * * * * * * * * * * * * * * * * * * * * * * * * * * //

dimensions      [0 1 -1 0 0 0 0];

internalField   nonuniform List<vector> 
3773
(
(44.8498 0.00346911 0.623562)
(44.7683 -0.0192482 0.633743)
(44.9425 -0.00537952 0.636781)
(44.8173 0.0154309 0.631112)
(44.728 0.00559289 0.630017)
(44.8695 0.00536024 0.634765)
(44.7421 -0.00193451 0.620511)
(12.1489 0.0419912 -0.127854)
(12.1492 -0.0302414 -0.121105)
(12.1978 -0.0261383 -0.117043)
(12.1544 -0.0090182 -0.119207)
(12.1315 0.00359763 -0.116415)
(12.1764 0.011761 -0.107442)
(12.1088 -0.0468185 -0.11353)
(4.86273 0.0199032 0.0702231)
(4.83281 0.00323877 0.0654575)
(4.86021 -0.00793876 0.0771213)
(4.85949 0.00246237 0.0767191)
(4.84881 0.00155972 0.0735951)
(4.85106 -0.00634128 0.0763099)
(4.84961 -0.0129965 0.0723211)
(-2.46261e-05 0.00371593 0.0529722)
(-3.98393e-05 -0.00155763 0.0531533)
(-1.70307e-05 0.00441919 0.0498718)
(-1.27626e-05 -0.00537498 0.0502558)
(-1.27159e-05 -0.00998748 0.0493513)
(-1.75585e-05 -0.0029282 0.0456056)
(-3.00443e-05 -0.00687301 0.049318)
(-4.86128 0.0163591 0.073156)
(-4.83682 0.00192917 0.0686691)
(-4.8582 -0.00746003 0.0746338)
(-4.86141 0.00194363 0.0750538)
(-4.84816 -0.00242642 0.0721839)
(-4.84648 -0.0128595 0.0726041)
(-4.84741 -0.0139809 0.0677659)
(-12.1239 0.046418 -0.132214)
(-12.1104 -0.0218885 -0.124415)
(-12.1558 -0.00969736 -0.121782)
(-12.1342 0.0111166 -0.122212)
(-12.1107 0.0284132 -0.120384)
(-12.1909 0.0380194 -0.109012)
(-12.1241 -0.0374105 -0.115484)
(-44.7769 0.0136574 0.61584)
(-44.6817 -0.00966327 0.62772)
(-44.8209 -0.00614601 0.630079)
(-44.7494 0.00458189 0.628044)
(-44.6697 -0.00555487 0.629481)
(-44.9087 0.00824609 0.641456)
(-44.7768 0.00119847 0.631864)
(42.6984 -0.00496695 1.00598)
(42.6996 -0.0197062 1.00347)
(42.8356 -0.00338296 1.00939)
(42.7722 0.0202805 1.00309)
(42.7787 0.0084647 1.00663)
(42.86 0.00615848 1.00912)
(42.6251 0.00672063 0.990207)
(9.04633 0.0234947 -0.260024)
(9.12992 -0.0451635 -0.262438)
(9.13275 -0.034596 -0.263896)
(9.09975 -0.00393228 -0.269805)
(9.05264 0.0179728 -0.26859)
(9.07829 0.0311585 -0.256269)
(9.04988 -0.0269498 -0.254369)
(3.87657 0.0382601 -0.0761157)
(3.85791 -0.010287 -0.0766773)
(3.87234 -0.0258706 -0.0580237)
(3.86892 0.0049655 -0.060754)
(3.85938 0.0182726 -0.0638062)
(3.86598 0.0124651 -0.0527507)
(3.87217 -0.0246613 -0.0618835)
(-2.27913e-05 0.0106768 -0.0233546)
(-3.42238e-05 0.00410333 -0.0241849)
(-1.43975e-05 0.00750562 -0.0265753)
(-1.13944e-05 -0.00847128 -0.0241505)
(-1.33932e-05 -0.0191028 -0.0276009)
(-1.69234e-05 -0.0118191 -0.0318478)
(-2.59907e-05 -0.0138316 -0.0288717)
(-3.88005 0.0343099 -0.078475)
(-3.85067 -0.0157266 -0.0808548)
(-3.86334 -0.0239687 -0.0645404)
(-3.86636 0.0097813 -0.0651002)
(-3.86031 0.0207221 -0.0668415)
(-3.86302 0.0128738 -0.0583098)
(-3.87622 -0.0224207 -0.0677079)
(-9.05756 0.0338316 -0.265342)
(-9.02628 -0.0362807 -0.255876)
(-9.08426 -0.0203199 -0.2713)
(-9.04013 0.0125488 -0.269923)
(-9.07257 0.0423547 -0.272908)
(-9.10087 0.0600722 -0.252738)
(-9.06004 -0.0200714 -0.251205)
(-42.569 0.00835936 0.99273)
(-42.7246 -0.00874548 1.00755)
(-42.7716 -0.00737037 1.00143)
(-42.7609 0.00490745 1.00441)
(-42.6805 -0.00663464 1.00015)
(-42.8418 0.00756828 1.01594)
(-42.617 0.00858825 1.00386)
(42.1582 -0.017512 1.68759)
(41.9499 -0.0120766 1.6896)
(42.0552 0.0108638 1.69916)
(41.971 0.0360775 1.68743)
(41.9365 0.0176912 1.68051)
(42.0552 0.00838509 1.68201)
(42.132 0.0205323 1.65681)
(9.04775 0.0082283 -0.066433)
(9.11043 -0.0216226 -0.0943776)
(9.10671 -0.0228544 -0.0970636)
(9.07942 -0.00709416 -0.106861)
(9.03793 0.0141864 -0.0868921)
(9.05751 0.0203821 -0.076427)
(9.04581 -0.00651872 -0.0864727)
(3.7962 0.0342073 -0.0319225)
(3.75909 -0.0117565 -0.0450639)
(3.76556 -0.025548 -0.0303459)
(3.77834 0.00243143 -0.0378224)
(3.76987 0.0207196 -0.0400742)
(3.74269 0.0170913 -0.0327481)
(3.78703 -0.0243667 -0.0443071)
(-2.6953e-05 0.012436 -0.00803918)
(-3.62076e-05 0.00233549 -0.0105563)
(-1.64967e-05 0.00530907 -0.0123155)
(-1.38044e-05 -0.00802296 -0.00979146)
(-1.88152e-05 -0.0190174 -0.0127221)
(-2.1987e-05 -0.00953718 -0.0128436)
(-2.72837e-05 -0.0147806 -0.0110055)
(-3.79375 0.0317758 -0.0379997)
(-3.75533 -0.0161781 -0.0456131)
(-3.75611 -0.024033 -0.0327312)
(-3.77952 0.00795211 -0.0351943)
(-3.77316 0.0234943 -0.0437085)
(-3.7508 0.0162592 -0.0367025)
(-3.78749 -0.0224487 -0.0458024)
(-9.04814 0.0125194 -0.0777385)
(-9.0478 -0.0216778 -0.0806117)
(-9.06004 -0.0133379 -0.0874183)
(-9.02569 0.0056737 -0.0845563)
(-9.05549 0.0334187 -0.103233)
(-9.0779 0.0391528 -0.0750487)
(-9.05707 -0.00664692 -0.0813442)
(-42.0646 -0.00117531 1.66894)
(-41.8206 -0.00232652 1.67985)
(-41.966 -0.00403604 1.68381)
(-41.9397 0.00292539 1.67643)
(-41.864 -0.0160787 1.68107)
(-42.0726 -0.00265074 1.698)
(-42.116 0.0189897 1.67973)
(41.6131 -0.0378918 1.50876)
(41.1766 0.00941515 1.53786)
(41.2935 0.0218695 1.53138)
(41.2601 0.0386539 1.50557)
(41.2648 0.0172358 1.49886)
(41.3197 -0.00402266 1.52651)
(41.5697 0.0436939 1.48943)
(8.84375 0.00429807 -0.141379)
(8.91399 -0.00651321 -0.158819)
(8.90943 -0.0231005 -0.161181)
(8.88904 -0.016315 -0.174996)
(8.83005 0.00870234 -0.155213)
(8.84754 0.0155761 -0.143661)
(8.83254 0.00347092 -0.163054)
(3.77242 0.0309767 -0.0265571)
(3.73367 -0.0103326 -0.0426938)
(3.73309 -0.0251618 -0.0241046)
(3.74474 -0.000355604 -0.0318884)
(3.7486 0.0221712 -0.0322684)
(3.72006 0.0159601 -0.0274588)
(3.76155 -0.0244289 -0.0371136)
(-3.1581e-05 0.0138537 0.00740413)
(-3.70414e-05 0.00313531 0.00474366)
(-2.2019e-05 0.00487087 0.00610733)
(-1.98007e-05 -0.00800148 0.00464615)
(-2.55148e-05 -0.0181919 0.00485672)
(-2.72054e-05 -0.00957971 0.00495247)
(-2.83893e-05 -0.0155642 0.00686891)
(-3.76888 0.0284566 -0.0313285)
(-3.71716 -0.0133237 -0.0406089)
(-3.75357 -0.0210412 -0.0245046)
(-3.77792 0.00565681 -0.029032)
(-3.75812 0.0254203 -0.0355864)
(-3.71817 0.0170142 -0.0300553)
(-3.76231 -0.0231423 -0.0378996)
(-8.85022 0.00172068 -0.153706)
(-8.85838 -0.0166259 -0.139366)
(-8.8585 -0.016247 -0.15172)
(-8.83474 0.00339546 -0.154414)
(-8.8647 0.0318578 -0.166959)
(-8.86539 0.0314296 -0.138998)
(-8.85344 0.00168379 -0.150525)
(-41.528 -0.0245679 1.50684)
(-41.2674 0.0149253 1.53508)
(-41.2667 0.00492189 1.51377)
(-41.2538 -0.00163049 1.51145)
(-41.1966 -0.0304306 1.50604)
(-41.3139 -0.0263966 1.55334)
(-41.5483 0.035966 1.51898)
(40.8718 -0.065498 1.04605)
(40.4775 0.0331625 1.09271)
(40.5329 0.0317876 1.07632)
(40.4771 0.0388319 1.05981)
(40.4904 0.0147466 1.05213)
(40.5551 -0.0189154 1.07543)
(40.8086 0.0736837 1.04331)
(8.65626 -0.00910147 -0.0930313)
(8.67287 -0.00222875 -0.0848179)
(8.6607 -0.016394 -0.0946594)
(8.66409 -0.0120721 -0.10944)
(8.6327 0.00978236 -0.105122)
(8.64677 0.0103885 -0.0915679)
(8.64246 0.014182 -0.106669)
(3.7727 0.0274188 -0.00389923)
(3.724 -0.00858599 -0.0185102)
(3.72251 -0.022108 0.000598564)
(3.73864 -0.00241185 -0.00691384)
(3.72849 0.0236025 -0.00863496)
(3.71091 0.0144927 -0.00462206)
(3.7625 -0.0244031 -0.0113656)
(-3.59776e-05 0.0134238 0.0296762)
(-3.89685e-05 0.0035117 0.0253571)
(-2.7575e-05 0.00383231 0.0276344)
(-2.53714e-05 -0.00747358 0.0239633)
(-3.26815e-05 -0.0159846 0.026363)
(-3.24943e-05 -0.00971714 0.0270661)
(-2.90376e-05 -0.0141805 0.028235)
(-3.76767 0.0256523 -0.00673026)
(-3.71293 -0.0118021 -0.0152132)
(-3.74051 -0.0203891 -0.00123968)
(-3.74987 0.00381889 -0.00712993)
(-3.75237 0.0255416 -0.0110976)
(-3.71452 0.0151798 -0.0058472)
(-3.76415 -0.0242202 -0.0122006)
(-8.66408 -0.0101632 -0.105074)
(-8.64556 -0.0115228 -0.0968844)
(-8.65404 -0.0182357 -0.100502)
(-8.64168 0.000160021 -0.107423)
(-8.66828 0.0268363 -0.116081)
(-8.652 0.0219276 -0.0811266)
(-8.6655 0.0121824 -0.0942556)
(-40.7944 -0.0550414 1.04413)
(-40.6044 0.0322186 1.07823)
(-40.503 0.00892926 1.04777)
(-40.4812 -0.00654049 1.04425)
(-40.4472 -0.0428532 1.05981)
(-40.5614 -0.0548559 1.08758)
(-40.8086 0.0594934 1.05323)
(38.5992 -0.0840055 0.73727)
(38.2442 0.0470182 0.794679)
(38.0816 0.0412883 0.777642)
(37.9111 0.0404282 0.769095)
(37.8978 0.0147001 0.759932)
(38.1449 -0.0255138 0.775792)
(38.4811 0.0928131 0.731597)
(8.39398 -0.0250585 -0.0907476)
(8.37516 0.00178338 -0.0794259)
(8.34916 -0.00839701 -0.0797738)
(8.35937 -0.00425092 -0.0934522)
(8.34238 0.0121847 -0.0896428)
(8.36084 0.00693048 -0.0762078)
(8.37426 0.0286142 -0.0916054)
(3.78883 0.02345 0.0381022)
(3.72569 -0.00630419 0.0266031)
(3.73198 -0.0184199 0.0418988)
(3.73008 -0.00434153 0.037368)
(3.72126 0.0213279 0.0380992)
(3.71922 0.0125952 0.0381066)
(3.77446 -0.0248325 0.033765)
(-3.97984e-05 0.0100101 0.0578782)
(-4.13213e-05 0.0019594 0.05547)
(-3.12945e-05 0.00433488 0.0549522)
(-2.97119e-05 -0.00787962 0.0524767)
(-3.75802e-05 -0.017605 0.0540965)
(-3.62512e-05 -0.0117482 0.0541441)
(-2.9291e-05 -0.0118779 0.0564389)
(-3.77996 0.0225214 0.0357094)
(-3.72064 -0.00923453 0.0259221)
(-3.7289 -0.0175839 0.0416298)
(-3.73088 0.000467746 0.0391073)
(-3.73139 0.0233731 0.0351597)
(-3.73186 0.0122488 0.0376493)
(-3.77739 -0.0245722 0.0347644)
(-8.39281 -0.0263241 -0.10021)
(-8.30015 -0.00461428 -0.0916237)
(-8.35498 -0.0153383 -0.0892829)
(-8.34221 -0.00357396 -0.0916553)
(-8.32306 0.0213045 -0.107633)
(-8.36129 0.0120136 -0.0690847)
(-8.40286 0.0254628 -0.0826754)
(-38.6196 -0.0761161 0.728311)
(-38.5352 0.0412022 0.785054)
(-38.0952 0.0122666 0.750399)
(-38.0501 -0.0115894 0.750562)
(-38.0887 -0.0472295 0.767987)
(-38.3038 -0.0668262 0.779473)
(-38.6903 0.0719602 0.734756)
(28.9678 -0.10503 0.514022)
(28.6362 0.0631023 0.548236)
(28.3302 0.0603119 0.533601)
(28.2306 0.0486715 0.527199)
(28.1409 0.0217905 0.516252)
(28.3891 -0.0195848 0.530761)
(28.8293 0.11526 0.505732)
(7.66617 -0.0577122 0.0850069)
(7.68212 0.0136941 0.100168)
(7.62333 0.00720594 0.10401)
(7.66939 0.0101403 0.0949302)
(7.66053 0.0222103 0.0927019)
(7.67102 0.0111943 0.104947)
(7.6615 0.0628623 0.091327)
(3.69683 0.0293736 -0.00115543)
(3.69616 -0.00600807 -0.0151758)
(3.66242 -0.0216499 0.00332705)
(3.68506 -0.00283462 0.000143861)
(3.65692 0.036265 9.1811e-06)
(3.69087 0.0206562 0.00216086)
(3.66219 -0.0338922 -0.00276014)
(-4.34118e-05 0.0147223 -0.0200835)
(-4.48556e-05 0.00173924 -0.021536)
(-3.47526e-05 0.00378619 -0.024177)
(-3.34273e-05 -0.0120163 -0.0258107)
(-4.21707e-05 -0.0240593 -0.0235188)
(-3.9655e-05 -0.0159441 -0.0249107)
(-3.0408e-05 -0.0197815 -0.0208534)
(-3.69564 0.0264795 -0.00644954)
(-3.72238 -0.0135131 -0.0163401)
(-3.69173 -0.0230341 0.00183447)
(-3.65566 0.000190394 -0.00101275)
(-3.76707 0.0372879 -0.00104223)
(-3.69803 0.0213999 0.00189061)
(-3.66559 -0.0327305 -0.00122898)
(-7.67637 -0.0590283 0.084079)
(-7.41545 0.00204871 0.139013)
(-7.66889 -0.0113134 0.0944556)
(-7.62977 -0.0117444 0.101343)
(-7.45982 0.00297861 0.122158)
(-7.67924 -0.00125855 0.101221)
(-7.68223 0.0557587 0.0942647)
(-29.0847 -0.0953146 0.514003)
(-28.9254 0.0428667 0.567129)
(-28.3502 0.00684638 0.519153)
(-28.2278 -0.0143037 0.523729)
(-28.4666 -0.0623068 0.54509)
(-28.6047 -0.0885556 0.53251)
(-29.1961 0.0896466 0.515783)
(41.0571 -3.2428 -25.7812)
(41.0573 -1.29055 -61.8816)
(41.0976 17.3441 -63.7271)
(41.2784 31.6075 -53.4193)
(41.3413 39.5138 -39.2526)
(41.3045 36.8821 -29.5423)
(41.2498 27.4271 -2.37929)
(11.1816 -7.08225 -26.3626)
(11.1189 -2.32113 -36.4725)
(11.117 7.65072 -32.1598)
(11.1357 16.0504 -30.3294)
(11.1828 18.1341 -24.9527)
(11.2088 22.7671 -20.6511)
(11.2172 20.9857 -3.14905)
(4.10234 -5.46935 -10.2661)
(4.08109 0.250074 -23.3938)
(4.08387 6.62914 -21.5994)
(4.09032 9.19364 -21.2369)
(4.10277 13.0398 -18.502)
(4.10915 12.6156 -14.2139)
(4.10055 12.5192 0.664904)
(-0.00417278 -6.55508 2.82238)
(-0.00548313 1.64083 -0.141868)
(-0.00374918 1.07058 0.128942)
(-0.00390484 0.494213 -0.22902)
(-0.00580093 1.44248 0.0530357)
(-0.00856874 0.90889 0.882203)
(-0.0134946 4.5611 2.36788)
(-4.10972 -9.42541 1.02508)
(-4.09857 -5.52447 -7.15594)
(-4.08922 -4.90374 -8.7328)
(-4.08633 -2.19458 -8.5585)
(-4.09356 0.521355 -6.71042)
(-4.10666 1.22103 -5.49357)
(-4.10773 5.4119 -1.06066)
(-11.2526 -13.7743 -8.83765)
(-11.2459 0.126825 -22.3442)
(-11.2022 5.18444 -24.3802)
(-11.1779 7.61797 -22.4195)
(-11.1685 13.3728 -19.4892)
(-11.1902 12.0021 -16.8858)
(-11.2033 15.339 -6.92542)
(-41.4645 -13.1682 -14.0133)
(-41.5001 3.88208 -43.4444)
(-41.5741 13.0514 -44.3394)
(-41.6159 17.6157 -40.8112)
(-41.5933 27.0883 -31.2178)
(-41.4613 24.5938 -23.6202)
(-41.3015 21.0902 -5.28955)
(41.0425 20.5306 -14.3193)
(41.302 -0.465494 -76.8734)
(41.1859 13.1186 -75.9051)
(41.46 17.3482 -52.014)
(41.5195 16.2339 -23.4618)
(41.5163 20.994 10.2106)
(41.4511 23.7828 22.9136)
(11.2429 3.42462 14.8835)
(11.1978 -5.00221 -22.7594)
(11.139 1.00797 -22.2089)
(11.1459 2.40774 -23.6865)
(11.2006 3.41126 -17.5036)
(11.285 6.53672 8.82124)
(11.3197 18.8466 19.6971)
(4.15903 -3.99332 12.3055)
(4.12858 0.635268 9.36238)
(4.11418 0.304899 11.4477)
(4.11058 -0.00579595 8.75124)
(4.12862 3.46312 8.50967)
(4.14861 4.12622 14.1799)
(4.15849 10.5676 14.2918)
(0.0105565 -4.51038 11.3561)
(0.00386741 1.91704 8.48257)
(0.00204942 1.61505 9.22879)
(0.00163344 -0.334011 9.71251)
(0.00317709 0.584339 9.75733)
(0.00530947 -0.707265 10.7531)
(0.00189348 4.18473 11.8455)
(-4.13744 -7.84297 9.76961)
(-4.12427 -3.539 9.05341)
(-4.11285 -4.87776 7.54587)
(-4.11078 -3.91675 6.41085)
(-4.12138 -2.50933 6.40952)
(-4.14197 -1.65312 7.04512)
(-4.14706 3.85464 10.956)
(-11.318 -11.0485 8.68696)
(-11.3156 9.62187 -8.58196)
(-11.2324 8.0535 -13.7417)
(-11.151 4.92573 -11.0517)
(-11.1685 5.50348 -10.6421)
(-11.2678 1.66339 -5.78462)
(-11.2924 12.0578 14.8471)
(-41.4755 -0.384018 -32.8242)
(-41.5109 11.1848 -69.4652)
(-41.6602 15.1421 -66.8054)
(-41.8621 13.786 -58.9701)
(-41.8139 22.1995 -38.0987)
(-41.5601 13.9572 -15.8332)
(-41.4478 18.9594 15.5307)
(41.2126 24.6121 -63.3229)
(41.5533 -8.04094 -100.791)
(41.3648 8.31687 -87.3203)
(41.3776 4.52596 -57.7127)
(41.4209 -2.39721 -28.4073)
(41.5534 8.42361 18.3813)
(41.5396 15.0079 42.3218)
(11.3305 10.0498 9.0405)
(11.2442 -7.81 -19.3764)
(11.1468 -3.89087 -27.5814)
(11.1647 -5.10157 -33.7541)
(11.2194 -6.17138 -30.766)
(11.283 -4.36782 -6.16057)
(11.3433 15.8692 29.8237)
(4.18572 -4.55259 19.149)
(4.13566 -8.04685 12.6995)
(4.10794 -6.60971 8.72292)
(4.10734 -6.64813 -2.98903)
(4.12439 -5.39622 -5.84183)
(4.16229 -0.0623171 10.5081)
(4.18464 11.5587 26.3909)
(0.0146776 -5.01224 17.4489)
(0.00689593 2.47679 17.9815)
(0.00116697 1.19597 18.0111)
(-0.000367527 -0.558281 15.5901)
(0.00362563 -0.674927 16.2094)
(0.00903523 -1.3014 19.8502)
(0.00892784 5.53056 21.42)
(-4.15431 -7.18372 18.8674)
(-4.1323 -2.93476 15.1111)
(-4.11447 -5.94451 12.9861)
(-4.1122 -7.35427 13.7282)
(-4.13161 -6.06716 12.5118)
(-4.15009 -3.11727 13.7312)
(-4.155 0.258752 18.1081)
(-11.3736 -7.45066 2.47775)
(-11.3747 9.13642 -13.5744)
(-11.2961 10.783 -14.0977)
(-11.1841 5.3939 -13.5839)
(-11.1517 4.27815 -15.1646)
(-11.2467 -2.46988 -12.1639)
(-11.3441 5.24216 16.2122)
(-41.4283 0.971581 -69.8647)
(-41.5238 1.44251 -84.794)
(-41.7971 -1.74543 -80.1158)
(-42.1294 -7.64309 -70.6625)
(-41.9422 8.9174 -39.5087)
(-41.5462 1.24275 -15.1665)
(-41.5019 8.38606 27.0667)
(41.2173 24.046 -79.259)
(41.5621 -9.19259 -112.85)
(41.4082 7.23955 -92.6586)
(40.9397 0.33465 -62.62)
(41.2561 -11.6316 -31.806)
(41.5733 -1.07112 16.2856)
(41.518 11.6911 40.8377)
(11.3965 8.38878 11.1343)
(11.2941 -9.52751 -15.1843)
(11.1853 -4.67401 -28.9878)
(11.1627 -6.86396 -36.9556)
(11.1954 -9.70796 -37.455)
(11.2643 -8.00034 -19.1453)
(11.3157 13.6463 27.7344)
(4.17715 -6.46648 24.3543)
(4.12134 -13.3925 9.92521)
(4.10201 -11.8477 0.416597)
(4.08299 -10.8978 -5.53658)
(4.10099 -10.7191 -7.73837)
(4.14688 -5.75601 -1.00604)
(4.162 8.28474 28.2711)
(0.0033525 -3.4538 27.3203)
(-0.000886945 0.398253 22.7146)
(-0.00242222 -0.315395 21.3909)
(-0.00235223 -0.542466 23.2163)
(0.00116003 -1.62352 23.0995)
(0.00608514 -2.54014 23.2396)
(0.00393313 6.19887 28.4117)
(-4.16471 -5.53568 26.3023)
(-4.14005 -2.44154 23.2962)
(-4.12988 -6.72068 23.0567)
(-4.12213 -7.80852 19.9267)
(-4.1264 -8.01441 15.7497)
(-4.13309 -5.03046 13.5874)
(-4.13693 -1.13764 15.9266)
(-11.3807 -5.10632 3.78223)
(-11.3846 9.92348 -13.8948)
(-11.3828 14.7511 -10.9618)
(-11.2878 14.1403 -8.04144)
(-11.1548 13.9735 -10.6983)
(-11.1489 3.18383 -13.4788)
(-11.2899 -0.165134 3.02461)
(-41.384 -6.22046 -77.7738)
(-41.2431 -8.33555 -87.8941)
(-41.7217 -12.5595 -85.1743)
(-42.1349 -15.5164 -82.6084)
(-42.1198 3.01674 -50.3691)
(-41.582 -2.71772 -15.9228)
(-41.5475 2.67615 21.3633)
(41.2125 28.5051 -85.4776)
(41.4204 -9.81687 -122.88)
(41.4184 11.3059 -96.5755)
(40.9387 -2.35488 -62.2757)
(41.2103 -16.4827 -31.2614)
(41.547 -6.73111 14.5459)
(41.5699 9.43408 35.2972)
(11.4168 5.91637 13.0569)
(11.312 -6.93749 -12.194)
(11.1938 -2.32413 -22.9874)
(11.1342 -5.40945 -38.8962)
(11.1434 -9.27244 -41.6828)
(11.1567 -7.2776 -26.1207)
(11.2622 0.856117 9.83154)
(4.13866 -8.42857 25.9704)
(4.09191 -16.3786 10.2477)
(4.07074 -13.7796 -1.46811)
(4.04858 -14.1392 -6.51935)
(4.05944 -13.6078 -9.44528)
(4.08802 -9.16388 -2.32006)
(4.114 0.689382 21.4225)
(-0.0231166 -4.54535 31.3926)
(-0.0190367 1.70612 29.7409)
(-0.0141917 0.581218 28.7062)
(-0.0149196 -2.31514 26.5277)
(-0.0149601 -3.55799 26.6208)
(-0.0130827 -3.73719 26.9597)
(-0.0215083 2.62788 32.0232)
(-4.19405 -5.5449 35.1024)
(-4.17131 -0.491184 30.566)
(-4.1496 -4.28888 26.4056)
(-4.14317 -7.03212 23.4414)
(-4.13875 -8.59177 19.3432)
(-4.13204 -5.90002 15.371)
(-4.12995 0.440051 13.8037)
(-11.3407 3.58963 -30.2722)
(-11.3269 11.9613 -31.7386)
(-11.3372 15.8082 -26.1405)
(-11.3421 16.8405 -19.6511)
(-11.2641 14.1113 -11.3813)
(-11.1642 5.96901 -9.5817)
(-11.1967 1.0466 -2.29443)
(-41.2977 -10.8307 -79.5306)
(-40.7439 -15.5326 -89.5327)
(-41.1588 -20.1479 -91.0742)
(-41.736 -20.2227 -91.2727)
(-42.0626 -10.902 -76.0424)
(-41.6519 -3.9692 -19.5487)
(-41.552 -2.25844 7.11602)
(41.0188 27.0742 -87.7153)
(40.9477 -14.0258 -126.066)
(41.4649 18.741 -92.599)
(41.1362 0.594014 -61.0902)
(41.1161 -13.9118 -39.7708)
(41.2488 -13.5428 -1.09773)
(41.4851 2.18818 22.1184)
(11.3182 1.67009 20.5606)
(11.2329 -0.89724 12.2577)
(11.1735 2.46743 -14.8384)
(11.1021 1.49845 -36.6956)
(11.0935 -0.394379 -46.5634)
(11.0441 -1.88208 -39.9712)
(11.1605 -2.60802 -12.1478)
(4.09451 -9.47558 30.74)
(4.05599 -13.944 13.6929)
(4.02044 -11.0175 -0.281576)
(3.99594 -12.6437 -9.65617)
(3.99832 -12.039 -14.8788)
(4.02712 -9.48552 -13.6373)
(4.05363 -3.39563 0.497358)
(-0.0342605 -4.35791 38.0494)
(-0.0295543 -1.57167 32.6984)
(-0.0229953 -1.0382 31.3794)
(-0.0247917 -3.20842 32.4279)
(-0.0295145 -5.54282 29.0943)
(-0.0364148 -5.68792 28.4807)
(-0.0416036 -0.513228 31.7178)
(-4.20157 -5.53627 38.0285)
(-4.19456 1.71122 36.2397)
(-4.16676 -2.11725 31.7814)
(-4.15837 -2.90595 26.6486)
(-4.16013 -5.73729 23.1733)
(-4.14314 -5.63128 19.3158)
(-4.13783 0.983291 15.8409)
(-11.3078 -0.164782 -50.355)
(-11.2899 9.09761 -37.9879)
(-11.3084 10.4239 -31.0802)
(-11.3046 7.95553 -26.0571)
(-11.255 3.16268 -20.2541)
(-11.1714 -2.41675 -16.3969)
(-11.1632 0.400458 -7.95085)
(-41.2398 -15.4671 -79.4925)
(-40.7664 -17.2208 -90.3495)
(-41.0842 -22.4598 -93.3032)
(-41.0533 -20.7554 -95.5113)
(-41.4073 -18.5707 -96.5712)
(-41.7343 -0.700157 -56.0462)
(-41.3849 -2.72632 -9.75056)
(40.5834 28.5745 -90.4271)
(40.2459 -16.8166 -133.811)
(41.1745 26.0674 -80.1805)
(41.0532 6.18202 -52.6056)
(40.9323 1.45921 -43.7392)
(40.8993 -0.413345 -18.8241)
(41.292 -3.54743 14.1946)
(11.2348 0.471986 8.14087)
(11.2409 1.37696 -25.2774)
(11.1384 5.11437 -21.1151)
(11.0664 2.52123 -35.317)
(11.0487 4.16303 -47.2956)
(10.9944 6.32904 -41.6805)
(11.0365 4.02799 -18.2579)
(4.05979 -7.79516 32.2658)
(4.01296 -7.12845 14.1795)
(3.95136 -9.92796 -5.68727)
(3.94834 -10.4109 -11.7131)
(3.97567 -5.57697 -13.2672)
(3.98058 -5.01457 -10.5332)
(4.01325 0.556581 -8.06601)
(-0.0199702 -4.7325 38.6359)
(-0.0174185 -1.15817 37.8784)
(-0.0173835 -1.10076 37.6186)
(-0.0253301 -4.14276 33.1933)
(-0.0335953 -6.65544 32.7166)
(-0.0449802 -5.31888 32.1595)
(-0.0357334 -0.0221105 31.0314)
(-4.1847 -4.38889 37.0102)
(-4.19777 1.92343 36.9956)
(-4.14476 2.4869 33.502)
(-4.12481 1.18633 28.0461)
(-4.13228 -0.506289 24.4526)
(-4.14018 -2.88528 17.8187)
(-4.10794 1.86886 13.4833)
(-11.2814 -9.3951 -49.1256)
(-11.2245 6.91983 -28.3233)
(-11.194 5.07048 -24.8514)
(-11.1769 2.86852 -24.7401)
(-11.2218 0.566696 -23.8873)
(-11.1757 -3.2125 -24.97)
(-11.1518 1.32021 -15.6548)
(-41.0919 -18.2177 -68.9375)
(-40.8688 -18.9937 -86.5396)
(-40.9057 -24.0662 -93.1251)
(-40.7515 -20.87 -96.668)
(-41.0752 -16.2501 -101.776)
(-41.5773 -1.38604 -89.7669)
(-41.4029 9.53602 -28.3543)
(40.9773 52.0886 -73.9913)
(40.8119 -29.0255 -132.711)
(41.8136 11.2497 -59.7307)
(41.2723 1.76415 -39.4354)
(40.9903 2.47631 -26.8794)
(41.4753 3.82446 0.306003)
(41.0095 6.0633 28.6158)
(11.3201 30.7054 -14.7457)
(11.2847 2.6695 -24.9952)
(11.1294 5.41189 -27.2536)
(11.0535 6.65984 -48.3379)
(11.1444 10.7738 -55.9645)
(11.1796 6.19411 -50.1003)
(11.1096 6.53148 -17.2418)
(4.07967 -5.00823 36.654)
(4.01096 -5.34973 20.0688)
(4.00644 -8.08823 6.49998)
(4.02492 -0.625235 -0.715535)
(4.01478 -4.65117 -1.2331)
(4.04327 -5.41018 -4.92549)
(4.07566 1.43445 -4.79263)
(0.0438176 -2.56335 37.3251)
(0.0378846 1.46151 37.3478)
(0.027447 -1.83159 35.633)
(0.0172733 -4.07019 35.0088)
(0.00778095 -5.74334 33.7172)
(0.00386 -5.23781 30.229)
(-0.00944229 -0.275679 26.5668)
(-4.11536 0.285518 26.8046)
(-4.10076 6.04983 29.1993)
(-4.06758 5.27565 27.1981)
(-4.01985 2.81612 23.9924)
(-4.02099 3.17654 21.0237)
(-3.99178 1.57428 16.6287)
(-4.03413 2.43483 11.8271)
(-11.2185 -12.2978 -41.4068)
(-11.0945 4.01976 -30.6696)
(-11.0427 3.66524 -21.4313)
(-11.0552 1.15025 -20.9614)
(-11.1299 1.06741 -18.5126)
(-11.1906 -0.476619 -16.7312)
(-11.1564 8.34158 -6.21802)
(-41.4749 -15.83 -29.8194)
(-41.1477 -19.3197 -52.3731)
(-40.8714 -25.7537 -62.3055)
(-41.16 -24.7914 -74.2454)
(-41.289 -19.5516 -88.6158)
(-42.0137 -20.047 -97.6689)
(-41.633 7.74226 -10.4907)
(41.1096 48.5978 -103.63)
(40.0507 -24.6299 -146.796)
(41.5967 4.9871 -87.3391)
(41.3924 4.49507 -52.6033)
(40.9693 -4.25841 -42.6358)
(41.2863 -4.72546 -7.64374)
(40.9874 5.16702 22.9942)
(11.2495 13.3988 14.6641)
(10.9805 -14.4782 4.54695)
(11.0226 7.39898 -29.3858)
(11.0238 13.2575 -50.9871)
(11.1036 14.3626 -61.7199)
(11.1771 10.8128 -57.7624)
(11.0969 8.04249 -22.7821)
(4.11895 -4.73208 41.1866)
(4.05971 -3.44133 28.371)
(4.05011 -5.92463 16.2915)
(4.02967 -1.3809 8.02833)
(4.02412 -8.26861 13.3838)
(4.07357 -6.11315 0.783198)
(4.07155 2.24737 -0.97213)
(0.0657268 -1.74805 37.9979)
(0.0625369 3.16062 38.3463)
(0.0569204 -0.777936 36.4193)
(0.0421283 -3.01706 36.5741)
(0.0302075 -5.37245 34.7445)
(0.0133551 -5.05932 31.6472)
(-0.00626418 -0.171787 27.7871)
(-4.08847 1.79962 7.10726)
(-4.08861 12.5483 24.824)
(-4.06275 10.8719 27.2218)
(-4.0066 7.24492 24.8372)
(-3.96981 5.15744 22.569)
(-3.96568 2.45785 20.2084)
(-3.9932 3.04009 15.8933)
(-11.2287 -15.0104 -32.4904)
(-11.0927 -2.22733 -24.815)
(-10.9556 9.20068 -8.45009)
(-10.8853 7.57617 -4.13077)
(-10.9039 4.04109 -3.64589)
(-10.9925 0.0849076 -8.42148)
(-11.0849 6.51235 -2.97419)
(-41.4999 -11.7049 -28.0251)
(-41.3397 -12.9925 -51.5753)
(-41.2016 -25.4653 -63.8833)
(-41.2307 -28.4595 -76.6712)
(-41.1458 -23.1715 -92.8032)
(-41.742 -21.5434 -110.866)
(-41.6934 -22.2111 -53.7223)
(41.3543 69.0642 -116.71)
(39.8724 -18.1947 -147.157)
(41.4106 4.06608 -101.635)
(41.5706 18.4983 -60.2985)
(41.0673 -1.38115 -42.9725)
(41.3008 -5.75664 -2.49287)
(41.0826 4.9242 25.8626)
(11.2147 9.64653 11.3778)
(10.8893 -5.37388 4.03891)
(10.9766 9.47916 -29.1484)
(11.0304 22.3228 -59.233)
(11.0868 25.6135 -62.6091)
(11.1202 22.1518 -56.857)
(11.1226 11.5201 -20.3605)
(4.07816 -3.89785 44.2757)
(4.02787 -2.57852 32.5948)
(4.02014 -6.17683 21.3918)
(4.0112 -5.73941 16.8508)
(4.02187 -9.05357 15.5925)
(4.05771 -3.68212 -2.78397)
(4.06472 5.63388 0.928773)
(0.0512791 -1.68157 40.3333)
(0.0513435 4.37751 40.4837)
(0.0530203 0.240402 39.1689)
(0.0445191 -2.38231 38.6584)
(0.0352579 -4.57739 36.223)
(0.0149858 -4.52282 33.4372)
(-0.00183177 0.46334 29.9718)
(-4.00929 -3.21894 -6.38774)
(-4.0167 10.5241 16.2584)
(-3.9987 12.6582 28.436)
(-3.97846 11.3819 28.0035)
(-3.94728 8.08394 25.0881)
(-3.97424 2.49468 22.6307)
(-4.00659 4.55757 17.7507)
(-11.1745 -17.5395 -26.3631)
(-11.0098 -16.2126 -22.5294)
(-10.9442 -4.26885 -12.7388)
(-10.955 -2.42487 -12.8844)
(-10.9798 2.38303 -7.14972)
(-11.0963 3.78202 -18.1765)
(-11.1101 5.9639 -3.51238)
(-41.4958 -8.32392 -20.0155)
(-41.3429 -6.52397 -26.1071)
(-41.46 -20.2746 -42.1657)
(-41.4905 -26.0408 -64.5137)
(-41.4191 -19.711 -91.2102)
(-41.5382 -9.88996 -121.984)
(-41.4646 -52.0992 -124.458)
(41.0929 90.9329 -117.3)
(40.507 -17.9896 -143.872)
(41.2233 4.85957 -101.795)
(41.6396 25.4555 -64.0255)
(41.0937 16.9551 -43.5652)
(41.3355 3.12554 -1.57587)
(41.2183 7.5409 33.4632)
(11.0899 3.84392 10.6605)
(10.8028 -4.33533 -0.233161)
(10.9308 19.7182 -36.2905)
(11.0072 34.3531 -64.4603)
(10.9865 34.6979 -63.1177)
(11.1357 31.0351 -53.6265)
(11.1605 15.8221 -15.5429)
(4.01069 -3.18673 43.8609)
(3.96042 -1.01183 33.5331)
(3.96823 -6.11519 24.1131)
(3.98535 -7.24255 23.1421)
(4.00425 -9.20888 20.4674)
(4.06482 -1.14141 0.590605)
(4.09094 5.90361 6.04096)
(0.0201735 -2.01266 41.3669)
(0.0151403 3.58301 42.9111)
(0.0119515 -0.946782 40.1904)
(0.01898 -1.99457 39.1118)
(0.0253822 -4.00523 36.8379)
(0.0164725 -4.87038 35.7647)
(0.0048587 1.32993 32.1815)
(-4.04421 -9.43599 -5.82978)
(-4.0128 2.92452 5.84293)
(-3.99524 10.0079 26.299)
(-3.97006 9.60061 28.8591)
(-3.96886 7.08905 26.0085)
(-3.99748 1.93285 23.9595)
(-4.03357 7.09266 17.1696)
(-11.1609 -25.5552 -9.94491)
(-11.1432 -30.9151 -20.5618)
(-11.1609 -33.1498 -31.3644)
(-11.2133 -29.1919 -44.258)
(-11.356 -19.5277 -38.8841)
(-11.3253 0.70514 -26.9192)
(-11.1429 2.88579 -0.90007)
(-41.335 -9.92665 -3.31928)
(-41.3171 -12.737 -8.35095)
(-41.4886 -20.3741 -27.8738)
(-41.5471 -16.3527 -54.5489)
(-41.8041 -15.4693 -85.6907)
(-41.6392 34.1551 -139.683)
(-40.9609 -31.482 -150.173)
(41.0206 111.056 -137.005)
(41.1831 -54.1526 -153.278)
(41.5078 6.28875 -99.5965)
(41.7362 27.524 -68.0861)
(41.3787 20.459 -42.2796)
(41.3939 5.39497 9.68997)
(41.2037 6.32333 48.7185)
(11.0235 1.40302 13.1779)
(10.89 -0.177546 -14.6801)
(11.0301 41.5093 -70.4226)
(11.2231 40.3016 -78.3189)
(11.1371 38.1262 -67.9996)
(11.2759 31.2765 -45.1551)
(11.2343 15.8341 1.2753)
(3.98287 -3.34087 41.4499)
(3.9259 -0.381384 32.0516)
(3.93651 -4.60941 23.5228)
(3.96361 -3.65734 25.3124)
(4.00222 -6.96507 24.0994)
(4.10313 0.422287 6.49835)
(4.14202 3.86275 16.6608)
(-0.0255516 -1.41677 41.8495)
(-0.0365879 3.18529 42.2535)
(-0.0298036 -1.68872 39.0921)
(-0.00486879 -1.8463 37.7484)
(0.0246393 -3.43067 35.634)
(0.0326385 -4.66278 35.8068)
(0.026057 1.98451 31.4892)
(-4.11692 -17.8839 8.04062)
(-4.07885 1.27064 14.9453)
(-4.08763 6.80888 27.8182)
(-4.02031 6.41342 29.5312)
(-3.97241 3.68489 26.5904)
(-3.98243 0.95421 21.9624)
(-4.07004 9.29938 14.7777)
(-11.2895 -29.6452 -3.07136)
(-11.3171 -35.2058 -31.2438)
(-11.3797 -41.1208 -47.2889)
(-11.3284 -35.1751 -70.3166)
(-11.406 -37.7762 -81.7836)
(-11.3172 -19.1616 -31.3991)
(-11.133 4.09988 6.69445)
(-41.4385 -18.3359 13.321)
(-41.6481 -14.8962 -2.67759)
(-41.8968 -24.3145 -25.2639)
(-41.8971 -20.2273 -57.6044)
(-42.345 -19.7474 -94.4739)
(-41.5194 54.0166 -136.504)
(-40.9842 5.58631 -143.97)
(40.6955 118.217 -155.305)
(40.728 -81.5961 -155.162)
(41.9645 -8.15606 -103.235)
(41.9795 20.7652 -73.5453)
(41.6258 2.18857 -14.9671)
(41.3194 -9.8142 30.1782)
(41.0466 1.87809 48.6428)
(10.8716 -6.91349 15.8969)
(11.0506 25.9408 -61.7986)
(11.1355 49.2478 -93.8172)
(11.3572 35.5916 -89.0021)
(11.326 33.2571 -61.7999)
(11.3317 17.2035 -22.3526)
(11.2403 6.5984 10.4671)
(3.95899 -0.517985 38.7512)
(3.88685 1.08367 28.1367)
(3.91257 -0.473587 18.2525)
(3.97503 6.1348 24.1337)
(4.01141 2.39029 27.6164)
(4.04856 4.17087 24.0097)
(4.16691 4.33998 22.658)
(-0.0720033 -0.643894 43.9181)
(-0.0761269 1.85529 41.483)
(-0.0495104 -2.28586 36.1424)
(-0.00121151 -1.81442 34.6784)
(0.0494074 -1.31453 35.8985)
(0.0627471 -3.02859 37.0999)
(0.0538513 3.8109 33.1449)
(-4.18089 -15.7759 17.4059)
(-4.13941 -0.104324 20.167)
(-4.08921 1.07391 29.0984)
(-4.01967 -2.0123 29.2522)
(-3.91178 -2.4401 23.9387)
(-3.90621 4.56315 20.0589)
(-3.98888 11.4853 17.4374)
(-11.3871 -25.258 2.16198)
(-11.4025 -26.9502 -26.525)
(-11.3837 -28.8606 -36.0378)
(-11.4332 -23.6757 -71.6484)
(-11.3789 -29.3478 -98.1031)
(-11.0981 -57.5055 -59.7861)
(-10.9922 12.7888 3.36661)
(-41.2951 -12.7511 35.8099)
(-41.721 1.75463 18.0631)
(-42.1798 -6.50693 -21.5182)
(-42.2979 -10.7168 -68.3157)
(-42.328 5.50414 -115.45)
(-40.732 66.71 -128.395)
(-41.2976 17.6926 -123.46)
(39.7763 157.228 -168.178)
(39.3072 -95.4508 -100.884)
(40.7988 -115.257 -73.7285)
(41.6552 -54.0769 -24.1101)
(41.3498 -48.9389 16.9258)
(41.0979 -40.8091 30.3803)
(41.1073 -40.2208 35.274)
(11.0204 21.5777 -8.59175)
(10.694 76.2932 -83.7974)
(10.9859 54.0691 -100.15)
(11.4402 4.84221 -89.44)
(11.2461 13.1483 -24.7565)
(10.9964 0.559179 19.9587)
(11.1383 -0.457228 35.1905)
(3.89024 -11.446 3.90779)
(3.84221 -12.5575 -25.8738)
(3.8712 -4.96602 -14.1666)
(4.03831 21.0885 -6.43031)
(4.0645 23.0497 11.7176)
(4.01602 15.245 17.9727)
(4.04597 6.7865 38.397)
(-0.102935 -2.49169 52.0364)
(-0.104717 -2.13453 38.2075)
(-0.0643775 -4.41684 33.5186)
(0.0163477 -0.389058 34.4469)
(0.0756583 4.02566 33.7025)
(0.0692827 2.46213 37.1537)
(0.0361556 4.36002 43.6016)
(-4.13305 -15.2681 40.4511)