/*--------------------------------*- C++ -*----------------------------------*\
  =========                 |
  \\      /  F ield         | OpenFOAM: The Open Source CFD Toolbox
   \\    /   O peration     | Website:  https://openfoam.org
    \\  /    A nd           | Version:  6
     \\/     M anipulation  |
\*---------------------------------------------------------------------------*/
FoamFile
{
    version     2.0;
    format      ascii;
    class       volScalarField;
    location    "3.5";
    object      p;
}
// * * * * * * * * * * * * * * * * * * * * * * * * * * * * * * * * * * * * * //

dimensions      [1 -1 -2 0 0 0 0];

internalField   nonuniform List<scalar> 
297
(
112014
112014
112014
182599
182599
182599
112014
112014
112014
112014
112014
112014
182599
182599
182599
112014
112014
112014
112014
112014
112014
182600
182600
182600
112014
112014
112014
97528.3
97553.8
97538.4
159447
159430
159446
97538.6
97553.9
97528.3
97476.2
97500.6
97498.1
159256
159273
159256
97497.9
97500.5
97476.3
97369.7
97496.2
97451.8
158211
158764
158212
97450.6
97496.5
97370.2
97384.2
97444.1
97343.5
159281
158986
159280
97343.7
97444.8
97384.3
97341.4
97385.3
97261.5
159212
159162
159211
97263.2
97386.1
97341.3
97276.6
97380.6
97151.5
158961
159033
158958
97153
97380
97273.8
97232.6
97588.1
97186.3
156378
158287
156384
97186.9
97590.6
97232.5
97202.7
97584.6
97151.3
156169
158350
156175
97151.9
97586.5
97202.5
97189.2
97569.9
97144.5
156367
158514
156373
97145.1
97569.1
97188.5
97602
97628.3
97549.3
158935
159032
158931
97548.9
97626.4
97598.2
97667.1
97677
97635.7
159050
159046
159047
97634.8
97674.7
97663
97690.3
97686.7
97678
159127
159074
159123
97676.9
97684.3
97686
97695.9
97638.4
97603.1
158536
158690
158905
97662.6
97604.7
97561.5
97639.9
97541.6
97456.7
158797
158797
158914
97629.6
97541.7
97451
97615.6
97515.9
97435.3
158915
158803
158727
97612.9
97521.8
97422.3
97557.6
97603.4
97664.2
158903
158690
158537
97600.7
97636.1
97693.6
97447.2
97540.5
97631.4
158911
158797
158798
97454.2
97539
97637.5
97418.6
97520.9
97614.6
158724
158803
158916
97432.7
97512.9
97613.1
98418.4
98172.4
97761
159067
159050
159026
98666
98375.4
97872.1
98119.2
97808.1
97529.3
158981
158943
158983
98343.9
97960.5
97594.4
97781
97503.5
97322.9
158761
158632
158597
97992.8
97615.9
97371.5
96589.1
96513.5
96494.1
157246
157146
157078
96720.9
96623.2
96607.4
95342.3
95382.2
95436.5
153246
153229
153230
95222.7
95275.6
95344.6
92441
92522.2
92586.3
141634
141655
141689
92059.3
92132.7
92196.9
97874.4
98377.4
98667.9
159030
159055
159072
97766.2
98178.8
98425.6
97596.5
97961.7
98343.9
158987
158948
158985
97534.7
97814.4
98125.9
97373.3
97616.3
97989.8
158602
158638
158766
97328.7
97509.7
97784.6
96608
96621.7
96713.3
157089
157157
157256
96505.1
96524.4
96600.7
95347.1
95280.8
95235.7
153211
153211
153227
95420.3
95366.5
95327.2
92196.7
92132.6
92059.4
141689
141655
141633
92587.9
92523.9
92442.6
)
;

boundaryField
{
    fuel
    {
        type            zeroGradient;
    }
    primary_air
    {
        type            zeroGradient;
    }
    Secondary_air_RHS
    {
        type            zeroGradient;
    }
    Secondary_air_LHS
    {
        type            zeroGradient;
    }
    outlet
    {
        type            totalPressure;
        rho             rho;
        psi             none;
        gamma           1;
        p0              uniform 100000;
        value           nonuniform List<scalar> 
18
(
93550.1
100000
93841
93169.5
100000
93536.5
92005.8
100000
92324
92324.8
100000
92006.2
93537
100000
93170.7
93841.3
100000
93551.3
)
;
    }
    stove_body
    {
        type            zeroGradient;
    }
    frontAndBack
    {
        type            empty;
    }
}


// ************************************************************************* //
