/*--------------------------------*- C++ -*----------------------------------*\
  =========                 |
  \\      /  F ield         | OpenFOAM: The Open Source CFD Toolbox
   \\    /   O peration     | Website:  https://openfoam.org
    \\  /    A nd           | Version:  6
     \\/     M anipulation  |
\*---------------------------------------------------------------------------*/
FoamFile
{
    version     2.0;
    format      ascii;
    class       volScalarField;
    location    "3.5";
    object      T;
}
// * * * * * * * * * * * * * * * * * * * * * * * * * * * * * * * * * * * * * //

dimensions      [0 0 0 1 0 0 0];

internalField   nonuniform List<scalar> 
297
(
290.163
291.518
290.102
296.304
298.61
296.187
290.163
291.518
290.102
290.206
291.547
290.14
300.053
305.921
299.765
290.206
291.547
290.14
291.727
293.798
291.564
300.704
306.718
300.343
291.727
293.798
291.564
293.284
295.86
293.316
294.908
295.954
294.899
293.313
295.857
293.284
297.166
297.601
298.033
297.605
296.964
297.615
298.029
297.598
297.171
299.978
297.615
300.907
300.124
300.924
300.126
300.909
297.611
299.981
296.548
295.775
296.853
303.186
302.68
303.188
296.851
295.774
296.55
295.625
295.614
296.415
303.169
303.127
303.171
296.415
295.614
295.627
295.033
295.387
295.715
302.971
302.398
302.971
295.716
295.387
295.033
300.419
297.04
301.398
301.136
301.959
301.139
301.403
297.033
300.421
299.371
296.544
299.55
301.426
301.97
301.428
299.986
296.541
299.063
298.748
295.922
299.114
302.359
302.058
302.369
299.113
295.917
298.749
295.209
295.351
295.546
302.71
299.626
302.71
295.545
295.349
295.206
294.617
294.876
294.903
302.46
299.629
302.458
294.903
294.875
294.613
294.66
294.768
294.822
300.777
299.784
300.775
294.822
294.766
294.656
294.852
294.056
293.741
302.696
302.716
302.716
294.574
293.848
293.555
295.062
294.082
293.765
302.356
302.012
302.114
294.759
293.879
293.609
294.812
294.16
293.901
300.593
300.065
300.09
294.644
293.978
293.773
293.553
293.85
294.577
302.714
302.716
302.696
293.736
294.052
294.85
293.607
293.881
294.762
302.113
302.013
302.357
293.761
294.078
295.059
293.772
293.98
294.647
300.09
300.066
300.595
293.897
294.157
294.809
293.465
293.783
293.287
298.096
298.791
302.722
293.959
294.132
293.567
293.226
293.664
293.386
298.128
299.818
302.323
293.716
294.04
293.704
292.671
293.671
294.021
298.104
300.16
300.942
293.135
294.055
293.787
292.434
293.155
292.066
298.213
298.349
298.347
292.914
293.26
291.879
291.466
292.693
292.956
297.945
296.426
295.826
291.772
292.666
293.023
287.93
287.306
287.282
285.037
282.624
283.266
288.101
287.503
287.494
293.571
294.134
293.955
302.725
298.794
298.098
293.29
293.787
293.466
293.706
294.044
293.755
302.326
299.821
298.129
293.389
293.666
293.245
293.79
294.067
293.211
300.944
300.163
298.111
294.024
293.681
292.771
291.881
293.262
292.96
298.354
298.356
298.221
292.078
293.166
292.498
293.022
292.665
291.706
295.815
296.416
297.932
292.941
292.679
291.379
287.493
287.503
288.101
283.266
282.624
285.037
287.284
287.308
287.933
)
;

boundaryField
{
    fuel
    {
        type            fixedValue;
        value           uniform 293;
    }
    primary_air
    {
        type            fixedValue;
        value           uniform 293;
    }
    Secondary_air_RHS
    {
        type            fixedValue;
        value           uniform 293;
    }
    Secondary_air_LHS
    {
        type            fixedValue;
        value           uniform 293;
    }
    outlet
    {
        type            inletOutlet;
        inletValue      uniform 293;
        value           nonuniform List<scalar> 
18
(
293
283.267
293
293
282.626
293
293
285.038
293
293
285.036
293
293
282.623
293
293
283.265
293
)
;
    }
    stove_body
    {
        type            fixedValue;
        value           uniform 293;
    }
    frontAndBack
    {
        type            empty;
    }
}


// ************************************************************************* //
