/*--------------------------------*- C++ -*----------------------------------*\
  =========                 |
  \\      /  F ield         | OpenFOAM: The Open Source CFD Toolbox
   \\    /   O peration     | Website:  https://openfoam.org
    \\  /    A nd           | Version:  6
     \\/     M anipulation  |
\*---------------------------------------------------------------------------*/
FoamFile
{
    version     2.0;
    format      ascii;
    class       volScalarField;
    location    "1";
    object      p;
}
// * * * * * * * * * * * * * * * * * * * * * * * * * * * * * * * * * * * * * //

dimensions      [1 -1 -2 0 0 0 0];

internalField   nonuniform List<scalar> 
297
(
124252
124252
124252
205038
205036
205038
124252
124252
124252
124242
124242
124241
205052
205049
205052
124242
124242
124241
124240
124240
124240
205061
205062
205061
124240
124240
124240
96957.1
96961.3
96980.1
160859
160850
160879
96939
96943.6
96961.3
97058.3
96969.1
97080.5
160702
160834
160650
97038.1
96954.7
97066.5
96431.4
96320.1
96336.2
156796
159382
156605
96433.3
96321.8
96336
94751
96006
94881.6
158440
158276
158640
94778.6
95983.6
94882.7
96600
96769.5
96661.4
160971
160533
160937
96586.3
96721.3
96728.8
96754.3
96951.3
96862.4
160853
160875
160892
96631.5
96874.1
96996.8
90548.1
95924.9
90073.6
144973
156752
144722
90681.2
95909.1
90144.3
89969.2
95907.3
89476.2
143348
156535
143251
90125.6
95889.9
89563.1
90226.7
95926.9
89800.6
144254
156624
144295
90388.3
95908
89897.7
97053
97227.9
97133.3
160764
160902
160885
96887.3
97119.4
97217.3
97115.7
97271.8
97197.4
160800
160928
160905
96963.8
97159.5
97257.1
97142.1
97270
97220
160834
160945
160916
96996.5
97163.8
97267.9
97092.9
97027.5
96992.9
160790
160768
160715
97114.7
97018.4
96956.1
97023.1
96861.4
96728.7
160771
160741
160646
97075.5
96919.1
96771
97014
96825.2
96677
160778
160699
160524
97064.9
96893.9
96718.3
96760.1
96863.9
96950.5
160157
160420
160501
96933.9
96879.8
96883.6
96380.5
96669.6
96884.9
160045
160407
160527
96377.4
96597.1
96804.4
96266
96624.9
96883
159795
160320
160539
96216.9
96528.6
96807.1
99238
98351
97218.4
160110
159971
159885
99303.4
98660
97601.3
98286.7
97164.4
96437.2
159388
158990
159282
98401.2
97600.3
96676.2
97265.2
96368.3
95862.4
158575
158078
158342
97248.3
96519.7
95921.5
93412.8
93333.2
93243.3
153731
153551
153291
92573.1
92429.9
92265
91035.5
91151.5
91212
147824
147839
147787
88745.2
88682.9
88639.1
87173.4
87288
87435.3
138365
138385
138368
86867.7
87025.3
87292.7
97343.5
98097.3
98668.9
160592
160590
160687
97173.8
97711.7
98151.5
96864.8
97347
98028
160330
160166
160375
96806.2
97138.3
97642
96591.7
96913.2
97468.3
159943
159810
160070
96554.3
96754.8
97131.6
95651.5
95684.2
95745.3
158199
158287
158380
95406.9
95433
95473.1
94302.8
94254.8
94183.9
154901
154918
154915
94403.5
94395.6
94362.1
90736.4
90653.5
90579
144202
144179
144143
91571.6
91485
91385.5
)
;

boundaryField
{
    fuel
    {
        type            zeroGradient;
    }
    primary_air
    {
        type            zeroGradient;
    }
    Secondary_air_RHS
    {
        type            zeroGradient;
    }
    Secondary_air_LHS
    {
        type            zeroGradient;
    }
    outlet
    {
        type            totalPressure;
        rho             rho;
        psi             none;
        gamma           1;
        p0              uniform 100000;
        value           nonuniform List<scalar> 
18
(
92523
100000
92997
92333
100000
92869.8
92099.9
100000
92617.7
88713.1
100000
87861.3
88923.8
100000
92033.1
89340.1
100000
99817.6
)
;
    }
    stove_body
    {
        type            zeroGradient;
    }
    frontAndBack
    {
        type            empty;
    }
}


// ************************************************************************* //
