/*--------------------------------*- C++ -*----------------------------------*\
  =========                 |
  \\      /  F ield         | OpenFOAM: The Open Source CFD Toolbox
   \\    /   O peration     | Website:  https://openfoam.org
    \\  /    A nd           | Version:  6
     \\/     M anipulation  |
\*---------------------------------------------------------------------------*/
FoamFile
{
    version     2.0;
    format      ascii;
    class       surfaceScalarField;
    location    "1";
    object      phi;
}
// * * * * * * * * * * * * * * * * * * * * * * * * * * * * * * * * * * * * * //

dimensions      [1 0 -1 0 0 0 0];

internalField   nonuniform List<scalar> 
675
(
-3.84746e-07
-0.000562982
0.00582644
9.40934e-07
-0.000551873
0.00581362
-0.000563219
0.00582723
1.14524e-05
0.000562982
0.00754762
-9.51978e-06
0.000551873
0.00760217
0.000563219
0.00754908
-3.84712e-07
0.00582644
9.40919e-07
0.00581362
0.00582723
-4.75899e-07
-0.000747859
0.00657482
8.00462e-07
-0.00079483
0.00660723
-0.000748534
0.00657661
8.34962e-05
0.000747859
0.00596848
-9.60395e-05
0.00079483
0.00619214
0.000748534
0.00595605
-4.75892e-07
0.00657482
8.00477e-07
0.00660723
0.00657661
2.36841e-05
0.00128866
-1.86312e-05
0.00138707
0.00129551
-0.000140836
-0.00128866
0.000139579
-0.00138707
-0.00129551
2.36842e-05
-1.86311e-05
-0.0012653
0.00459505
0.00945025
-0.00446001
0.00453792
0.0114352
0.0067749
0.00154436
5.27228e-06
-0.00396849
0.0297609
-0.00524788
-0.00403916
0.03503
-0.00610982
0.0288398
-0.00133353
0.0101422
-0.00418547
0.0115909
0.0024856
0.0140898
0.0123053
-0.0169228
-0.0195311
0.00183567
0.0432507
0.0147501
-0.0327097
0.00346711
-0.0119494
0.0505829
-0.0103838
-0.00126619
0.052021
-0.0138692
0.0471172
0.0128778
-0.0146659
-0.0194764
0.0427037
-0.0308361
0.0111247
0.0487757
-0.0768051
-0.00952424
0.0171359
0.0467846
0.045629
-0.0878408
-0.0799784
-0.0490903
0.228465
0.0803589
-0.0169654
-0.0741834
-0.0456459
0.218793
0.0110176
-0.0747454
-0.0103413
0.0471231
-0.0867985
-0.0371498
-0.0372883
-0.0232818
0.0977419
0.0382533
0.00317372
-0.0416251
-0.0369323
-0.0379342
-0.0313206
0.107525
0.0083302
0.0362857
0.109484
-0.191356
-0.0133992
-0.00284974
-0.0717476
0.09953
0.0377883
0.0901203
-0.179223
-0.0380926
-0.0215702
0.095974
0.0373715
-0.0409138
-0.0373785
-0.0315683
0.10675
0.00720015
-0.0205343
-0.00992727
-0.00421533
-0.00309148
-0.0270932
-0.0175599
-0.0179613
0.0298317
0.0219045
0.037237
-0.0353136
0.00386773
-0.0135173
0.0182032
0.0190745
0.00580659
-0.00545633
-0.0072415
-0.0239882
-0.0205808
0.0150959
-0.0109032
-0.0140984
0.00516113
-0.000808387
-0.0163486
0.00165848
-0.0144466
-0.0114178
0.0104608
0.0273243
-0.0239985
0.00114142
-0.00286105
-0.0024803
-0.000759208
0.015808
-0.0107896
0.00902169
-0.0160472
-0.0140204
-0.00133343
-0.00190684
-0.0830322
0.00133396
0.000453111
0.0436654
-0.00230582
-0.0936189
-0.00632187
0.00176047
0.215961
0.00591008
-0.000408006
-0.0855522
0.00225666
0.205009
-0.00134546
-0.0811205
0.00128582
0.0440854
-0.092681
-0.00162993
-0.000213232
-0.0905958
0.00164626
-0.00083764
0.0412281
-0.000553236
-0.100775
-0.0023411
0.000137423
0.202963
0.00225821
0.000856299
-0.0918433
0.000516304
0.19122
-0.00165623
-0.0887498
0.00160882
0.0416783
-0.0999201
-0.00279406
0.000506643
0.00298798
-0.001485
0.000349408
-0.00237293
-0.00059603
0.00230832
0.00152261
-0.000432841
-0.00282219
0.00300183
0.00656621
-0.00282011
-0.00172069
-0.0161169
-0.00471533
-0.000307265
-0.00476083
-0.00179087
-0.00391521
-0.0134521
0.00117017
0.00319638
0.0114202
0.00872371
0.00274789
0.000808845
-0.00555001
0.000267668
-0.00566051
0.00560051
0.0118655
-0.00211911
-0.0173336
0.00118694
-0.00455597
-0.00258816
-0.00997854
0.00612531
0.0010842
0.00313061
-0.0120574
-0.0033819
0.00115242
0.00359339
0.00177361
0.00195981
-0.0110292
0.0027244
-0.000993456
0.00351731
0.0072587
0.00212019
-0.00194826
-0.00184113
-0.00227964
-0.002863
0.00338765
0.0108117
0.000523823
-0.0144444
0.000804099
0.00350684
0.00358589
-0.00764964
6.9778e-05
0.00260001
0.000459037
0.000820872
0.00284505
0.00316893
-0.000385347
-0.000821954
-0.00207147
0.0090019
0.00258524
-0.00239851
-0.00331164
0.00621489
-0.000921702
-0.000620404
0.000187452
0.000463815
-0.0142633
-0.000812248
0.00162344
-0.0148014
-0.00119444
0.00173721
-0.00126669
0.00147907
-0.0150052
0.0047959
0.000240207
-0.00024656
0.0013441
0.000847241
0.00141193
0.00107693
0.00456884
-0.00556515
-0.0111898
0.00145374
-0.0118959
0.0015567
0.00160019
-0.0124228
-0.0111459
-0.000638853
0.00237754
-0.0107168
-6.45642e-05
0.00137389
-0.000375234
0.000943039
-0.00979985
0.00420221
0.000105858
-0.00180409
0.00309839
-7.28844e-05
0.0025255
0.000603034
0.00785138
-0.00116026
-0.00846457
0.00237609
-0.00858
0.00160096
0.00179873
-0.00817683
0.00155354
0.000435819
0.00279433
0.00013174
-0.000469604
0.00420829
0.00547278
-0.000624485
0.00849844
-0.000367598
0.00074516
0.0151355
0.00221925
0.00345597
0.00600107
0.017419
-0.00145389
0.00185317
-0.0178159
0.017306
-0.00182933
0.00194557
-0.000632688
0.00182572
0.00371155
0.00160243
0.00522372
-0.0119888
-0.00370824
0.00234474
0.00324331
0.00102982
0.0033542
0.0184355
0.0019991
-0.0188323
0.0182624
0.00251698
0.00195814
0.0119113
-0.00117391
0.00277479
-0.0116568
0.0122835
-0.000722537
0.00229918
-0.000616845
0.00267285
-0.00462559
0.000600322
0.0115418
-0.00346531
-0.00815494
0.000384898
0.00566418
0.00115076
0.000691162
0.0129518
0.00171917
-0.0120704
0.0139876
0.00186587
0.00265252
-0.00505902
-0.00118622
0.00902209
-0.00271869
-3.8206e-05
0.000414513
-0.015537
0.00101389
0.0248794
-0.0103514
0.000441824
-0.000245538
-0.00409496
0.00682741
-0.00178737
0.0119768
0.0021871
-0.0141641
0.0185439
0.000635248
-0.00720208
0.00103854
-0.000309662
0.0124033
-0.00333695
-0.00687666
0.0149439
-0.00233692
0.000433824
-0.0015134
0.00550913
0.0103658
-0.0137001
0.0182853
-0.0102541
-0.00205928
0.00892886
0.00181359
-0.0249061
0.0128518
0.000512134
-0.011637
0.000887596
-1.46627e-06
0.010317
-0.00201156
-0.0133651
0.00789586
-0.00116446
0.00453475
-0.00082307
0.0116528
0.00835278
-0.0240625
0.0141081
-0.0171727
-0.000843223
0.00907229
0.0047024
-0.0386809
0.00221322
0.000293404
-0.00507146
-0.000608022
0.0118428
0.00189467
-0.00486863
-0.00568541
-0.01283
-0.0013054
0.0208596
0.000582102
0.0225125
0.00952941
-0.0384598
0.00481511
-0.0137601
0.0113818
-0.00261403
0.0131936
-0.0492658
0.00567274
0.0080356
-0.0214126
0.00651682
0.010985
0.0115474
-0.00719362
0.00317621
0.0166648
-0.00321427
0.0269978
-0.00210241
0.0477904
0.00241285
-0.048059
0.0150416
-0.0296062
0.0243185
-0.02113
0.0121914
-0.0403127
-0.0182964
0.0101672
-0.0343984
0.0106165
-0.0179195
-0.00570583
0.00181213
0.0192603
-0.00500054
0.00207929
0.0343714
0.00275062
0.0506389
0.000975552
-0.047223
0.00262553
-0.0291767
0.0296928
-0.00866245
0.019159
-0.0112134
0.0185532
0.0204464
-0.0115916
-0.0188759
-0.0122091
-0.0187127
-0.0194829
-0.0137695
-0.0179863
-0.0152634
0.000684287
-0.000419912
-0.00973152
0.000175524
-0.00569925
0.00148242
-0.0112074
-0.00869744
-0.000617306
0.00443551
-0.00897157
-0.000127953
0.000579232
-0.00129393
-0.00619332
-0.012958
-8.8469e-05
-0.00843694
-0.00465615
-0.00973796
-0.0101645
0.000549264
-0.00059915
-0.00706474
3.60358e-05
-0.00883306
0.000897696
-0.0191827
-0.00384085
-0.000573702
0.00824004
-0.00648332
-8.41036e-05
0.00334369
-0.000878021
-0.0108986
-0.0088653
2.48559e-05
-0.00598261
-0.00762323
-0.0165937
-0.00296087
-0.000472289
0.00704258
-0.00636576
-0.000209833
-0.00522729
0.00294378
-0.0285128
0.00850171
0.000699484
0.0137024
-0.00145264
2.8249e-05
0.0130607
-0.00267152
-0.00673417
-0.00145171
0.00817966
-0.00605608
-0.00298456
-0.0252936
-0.00468703
0.00350378
0.00817478
-0.000495325
0.00452771
-0.01398
0.00872622
-0.037606
-0.0112142
-0.00072104
0.0291301
-0.00919599
-0.00250422
0.018074
-0.00597008
-0.00120675
-0.00495788
0.0124691
-0.00399419
-0.00641321
-0.0352976
0.013037
0.00713441
-0.011957
0.0154304
0.00649536
-0.0228287
0.00781717
-0.0300619
0.0090977
-0.00802443
0.0352102
0.00866082
-0.00797005
0.0329861
-0.00857811
0.0238498
0.0117132
-0.00730118
0.0141574
-0.0168527
-0.0296868
0.00775233
0.0225748
0.00700718
0.0206801
0.0202854
0.0114738
-0.0254795
0.0119996
-0.023007
-0.0219516
0.00820176
0.00966337
)
;

boundaryField
{
    fuel
    {
        type            calculated;
        value           nonuniform List<scalar> 
36
(
0.00526252
0.0086859
0.00526252
0.00526251
0.00868597
0.00526251
0.00526252
0.00868592
0.00526252
-0.00526302
-0.00868495
-0.00526302
-0.00526302
-0.00868487
-0.00526302
-0.00526302
-0.00868496
-0.00526302
0
0
0
0
0
0
0
0
0
0
0
0
0
0
0
0
0
0
)
;
    }
    primary_air
    {
        type            calculated;
        value           nonuniform List<scalar> 9(-0.0127533 -0.0211587 -0.0127509 -0.0127539 -0.0211575 -0.0127515 -0.0127563 -0.0211613 -0.0127539);
    }
    Secondary_air_RHS
    {
        type            calculated;
        value           nonuniform List<scalar> 9(0.00941908 0.0151337 0.00942647 0.00935661 0.0149799 0.00936569 0.00939053 0.0150891 0.00940068);
    }
    Secondary_air_LHS
    {
        type            calculated;
        value           nonuniform List<scalar> 9(0.0094687 0.01516 0.00948262 0.00940816 0.0149901 0.00942451 0.00943508 0.0150848 0.00945198);
    }
    outlet
    {
        type            calculated;
        value           nonuniform List<scalar> 
18
(
-0.0422737
0.0718057
-0.0409756
-0.0427538
0.0761601
-0.0413152
-0.0433305
0.0780991
-0.041971
-0.0508051
0.0688893
-0.0523274
-0.050396
0.0722581
-0.0436713
-0.0495749
0.0783566
-0.00778229
)
;
    }
    stove_body
    {
        type            calculated;
        value           uniform 0;
    }
    frontAndBack
    {
        type            empty;
        value           nonuniform 0();
    }
}


// ************************************************************************* //
