/*--------------------------------*- C++ -*----------------------------------*\
  =========                 |
  \\      /  F ield         | OpenFOAM: The Open Source CFD Toolbox
   \\    /   O peration     | Website:  https://openfoam.org
    \\  /    A nd           | Version:  6
     \\/     M anipulation  |
\*---------------------------------------------------------------------------*/
FoamFile
{
    version     2.0;
    format      ascii;
    class       volScalarField;
    location    "1";
    object      T;
}
// * * * * * * * * * * * * * * * * * * * * * * * * * * * * * * * * * * * * * //

dimensions      [0 0 0 1 0 0 0];

internalField   nonuniform List<scalar> 
297
(
294.3
294.281
294.294
303.792
303.597
303.79
294.3
294.281
294.294
294.341
294.32
294.334
319.203
319.378
319.173
294.341
294.32
294.334
298.943
298.777
298.937
321.015
321.1
320.99
298.943
298.777
298.937
293.285
295.86
293.317
294.905
295.952
294.896
293.315
295.857
293.285
297.163
297.6
298.032
297.602
296.96
297.613
298.026
297.596
297.168
299.975
297.613
300.906
300.116
300.917
300.118
300.906
297.609
299.979
296.547
295.774
296.853
303.177
302.673
303.18
296.851
295.771
296.549
295.625
295.628
296.417
303.162
303.12
303.164
296.415
295.624
295.627
295.033
295.388
295.715
302.964
302.393
302.965
295.714
295.388
295.035
300.415
297.037
301.397
301.131
301.95
301.136
301.4
297.031
300.418
299.367
296.54
299.549
301.42
301.979
301.425
299.983
296.539
299.061
298.744
295.919
299.112
302.371
302.04
302.38
299.11
295.914
298.747
295.208
295.35
295.545
302.703
299.621
302.704
295.542
295.35
295.207
294.616
294.877
294.905
302.452
299.624
302.453
294.902
294.876
294.615
294.659
294.769
294.826
300.77
299.778
300.77
294.822
294.768
294.659
294.853
294.058
293.745
302.69
302.71
302.71
294.573
293.846
293.55
295.063
294.085
293.77
302.351
302.006
302.108
294.758
293.877
293.607
294.815
294.167
293.908
300.588
300.061
300.086
294.644
293.979
293.771
293.554
293.851
294.578
302.708
302.708
302.688
293.74
294.052
294.847
293.61
293.883
294.762
302.107
302.006
302.35
293.764
294.08
295.059
293.774
293.982
294.648
300.085
300.06
300.587
293.903
294.161
294.81
293.462
293.782
293.287
298.094
298.783
302.716
293.954
294.135
293.573
293.235
293.666
293.389
298.126
299.813
302.318
293.738
294.038
293.705
292.693
293.675
294.024
298.104
300.156
300.938
293.252
294.066
293.791
292.447
293.16
292.071
298.217
298.351
298.349
292.98
293.269
291.888
291.455
292.696
292.959
297.938
296.416
295.815
291.694
292.66
293.017
287.935
287.31
287.287
285.037
282.624
283.266
288.104
287.507
287.497
293.578
294.141
293.962
302.718
298.786
298.096
293.284
293.78
293.462
293.712
294.048
293.758
302.32
299.815
298.128
293.387
293.665
293.222
293.796
294.072
293.244
300.939
300.158
298.106
294.022
293.671
292.686
291.885
293.266
292.994
298.349
298.351
298.218
292.076
293.165
292.445
293.02
292.662
291.667
295.817
296.419
297.937
292.957
292.693
291.462
287.495
287.505
288.102
283.266
282.625
285.035
287.289
287.312
287.936
)
;

boundaryField
{
    fuel
    {
        type            fixedValue;
        value           uniform 293;
    }
    primary_air
    {
        type            fixedValue;
        value           uniform 293;
    }
    Secondary_air_RHS
    {
        type            fixedValue;
        value           uniform 293;
    }
    Secondary_air_LHS
    {
        type            fixedValue;
        value           uniform 293;
    }
    outlet
    {
        type            inletOutlet;
        inletValue      uniform 293;
        value           nonuniform List<scalar> 
18
(
293
283.267
293
293
282.625
293
293
285.035
293
293
285.038
293
293
282.625
293
293
283.267
293
)
;
    }
    stove_body
    {
        type            fixedValue;
        value           uniform 293;
    }
    frontAndBack
    {
        type            empty;
    }
}


// ************************************************************************* //
