/*--------------------------------*- C++ -*----------------------------------*\
  =========                 |
  \\      /  F ield         | OpenFOAM: The Open Source CFD Toolbox
   \\    /   O peration     | Website:  https://openfoam.org
    \\  /    A nd           | Version:  6
     \\/     M anipulation  |
\*---------------------------------------------------------------------------*/
FoamFile
{
    version     2.0;
    format      ascii;
    class       volScalarField;
    location    "1";
    object      T;
}
// * * * * * * * * * * * * * * * * * * * * * * * * * * * * * * * * * * * * * //

dimensions      [0 0 0 1 0 0 0];

internalField   nonuniform List<scalar> 
297
(
292.186
292.186
292.186
293.002
293.002
293.002
292.186
292.186
292.186
292.187
292.186
292.187
293.017
293.007
293.017
292.187
292.186
292.187
292.142
292.133
292.142
334.518
293.049
334.11
292.142
292.133
292.142
292.164
292.19
292.274
292.862
292.896
292.894
292.151
292.186
292.266
287.911
289.835
288.424
289.954
291.914
290.183
287.91
289.968
288.277
286.055
288.235
288.542
287.619
289.829
288.396
285.514
288.078
288.286
286.882
291.567
287.913
287.276
288.083
288.613
286.704
291.088
287.801
288.011
293.456
291.852
287.491
288.762
288.666
286.989
292.683
291.927
294.79
297.467
296.831
288.354
290.878
290.442
293.742
297.36
296.714
284.562
288.228
286.188
284.172
288.033
285.564
284.185
288.07
286.019
285.084
288.342
286.499
282.544
287.912
284.108
284.801
288.184
286.216
286.165
288.359
287.09
282.064
287.877
283.779
285.954
288.204
287.095
298.341
298.321
296.271
288.39
294.829
297.349
298.079
298.49
296.156
299.806
299.01
296.637
290.156
298.252
298.068
299.17
299.384
296.367
300.323
299.364
297.279
297.864
300.244
298.599
299.473
299.661
296.47
296.09
295.953
295.775
297.449
297.433
297.313
295.528
295.279
295.099
296.455
296.272
296.236
297.984
297.793
297.468
295.805
295.536
295.356
296.818
296.679
296.634
297.963
297.779
297.471
296.07
295.88
295.914
299.96
299.794
299.562
302.428
295.534
288.193
300.114
299.883
299.515
300.504
300.305
299.631
300.402
290.059
288.792
299.556
299.603
299.041
299.578
300.112
300.014
295.101
294.381
297.276
298.604
299.284
299.418
300.655
300.699
299.881
302.497
302.475
302.302
301.325
301.106
300.172
300.2
300.715
300.579
302.81
302.713
302.207
300.893
299.636
299.64
299.44
300.727
299.68
302.793
299.85
296.864
299.671
298.787
298.828
298.917
299.79
295.368
303.585
299.3
294.997
297.755
295.899
295.103
293.853
297.495
298.993
300.877
297.583
293.663
295.149
294.244
293.877
291.704
291.292
290.787
289.132
286.399
282.566
291.082
289.937
295.291
295.8
296.373
296.351
297.104
297.118
297.048
294.877
295.226
295.068
296.362
296.369
296.05
297.11
297.253
297.142
295.283
295.302
294.776
296.659
296.449
295.434
297.22
297.181
297.111
295.969
295.543
294.484
294.27
296.071
295.045
295.746
296.117
297.385
293.977
295.666
294.139
295.824
295.268
293.575
293.996
294.324
296.301
295.134
295.436
292.888
290.257
290.08
290.001
284.292
283.146
282.675
289.788
289.597
289.592
)
;

boundaryField
{
    fuel
    {
        type            fixedValue;
        value           uniform 293;
    }
    primary_air
    {
        type            fixedValue;
        value           uniform 293;
    }
    Secondary_air_RHS
    {
        type            fixedValue;
        value           uniform 293;
    }
    Secondary_air_LHS
    {
        type            fixedValue;
        value           uniform 293;
    }
    outlet
    {
        type            inletOutlet;
        inletValue      uniform 293;
        value           nonuniform List<scalar> 
18
(
293
284.292
293
293
283.146
293
293
282.674
293
293
289.132
293
293
286.399
293
293
282.566
293
)
;
    }
    stove_body
    {
        type            fixedValue;
        value           uniform 293;
    }
    frontAndBack
    {
        type            empty;
    }
}


// ************************************************************************* //
