/*--------------------------------*- C++ -*----------------------------------*\
  =========                 |
  \\      /  F ield         | OpenFOAM: The Open Source CFD Toolbox
   \\    /   O peration     | Website:  https://openfoam.org
    \\  /    A nd           | Version:  6
     \\/     M anipulation  |
\*---------------------------------------------------------------------------*/
FoamFile
{
    version     2.0;
    format      ascii;
    class       volVectorField;
    location    "1";
    object      U;
}
// * * * * * * * * * * * * * * * * * * * * * * * * * * * * * * * * * * * * * //

dimensions      [0 1 -1 0 0 0 0];

internalField   nonuniform List<vector> 
297
(
(139.705 0.0102909 0.26673)
(139.74 -0.000215871 0.270061)
(139.702 -0.00974122 0.266817)
(-2.25986e-06 0.109627 -0.516554)
(-3.92471e-06 -0.00244254 -0.52602)
(-6.27462e-06 -0.110557 -0.5157)
(-139.705 0.0102968 0.266751)
(-139.74 -0.000201119 0.270081)
(-139.702 -0.00973253 0.266837)
(139.509 -0.0106839 0.596157)
(139.526 0.000143874 0.609095)
(139.505 0.0115706 0.595659)
(-9.61108e-07 -0.00368903 -0.333831)
(-2.44398e-06 -6.14651e-05 -0.327671)
(-4.17409e-06 0.00511701 -0.334073)
(-139.508 -0.0106769 0.59619)
(-139.526 0.000160463 0.609126)
(-139.505 0.0115801 0.59569)
(132.316 -0.0500126 0.940789)
(132.514 0.000708428 0.959191)
(132.306 0.0517732 0.940073)
(-7.11308e-07 -0.0189326 0.529651)
(-2.24357e-06 3.34761e-06 0.559589)
(-3.78209e-06 0.0206595 0.528673)
(-132.313 -0.0500008 0.940805)
(-132.512 0.000727753 0.959206)
(-132.304 0.0517799 0.940086)
(92.5652 -2.63908 -3.33522)
(93.9079 0.375413 -8.18018)
(92.5842 2.66665 -4.1159)
(0.00225924 -1.14621 3.27554)
(2.25139e-05 8.7114e-05 3.01251)
(-0.00221831 1.15485 3.27034)
(-92.5829 -2.65094 -4.07949)
(-93.9079 -0.372845 -8.17892)
(-92.5664 2.65079 -3.37081)
(94.7327 0.414382 8.77189)
(94.9427 1.36205 -14.6855)
(95.0187 -3.14859 7.13118)
(0.00486996 1.62934 24.6481)
(-4.54259e-06 0.00280366 16.6286)
(-0.00487798 -1.65715 24.6482)
(-95.0183 3.10426 7.09259)
(-94.9426 -1.36274 -14.6861)
(-94.7333 -0.457302 8.81702)
(95.1713 13.986 -11.0373)
(94.4639 2.33692 -15.805)
(95.5592 -8.54052 -2.02856)
(0.0184615 -1.57299 30.2338)
(0.000125461 -0.00140026 2.94205)
(-0.0185721 1.56587 30.231)
(-95.5602 8.54144 -1.99904)
(-94.4262 -2.33458 -15.8075)
(-95.1716 -13.9894 -11.0637)
(94.176 8.06381 -22.5278)
(94.4908 -1.95019 -16.5613)
(94.4371 -1.01278 -19.3472)
(-0.00921931 0.86673 0.445653)
(7.01764e-05 0.00773929 -7.85833)
(0.00933922 -0.87403 0.449615)
(-94.4377 1.01647 -19.3182)
(-94.5089 1.95033 -16.574)
(-94.1752 -8.05633 -22.5565)
(94.0933 12.1915 -17.705)
(94.1363 -2.75645 -21.9052)
(94.7289 -6.60503 -12.4136)
(-0.0181561 1.53641 4.32317)
(0.000141467 0.00685228 0.687192)
(0.0183578 -1.5409 4.32221)
(-94.7285 6.61046 -12.4072)
(-94.1352 2.76444 -21.9128)
(-94.0934 -12.1925 -17.7112)
(94.0615 15.6041 -24.1396)
(93.8994 -6.88331 -22.8812)
(94.2881 -15.7291 -23.1554)
(-0.028353 -0.458112 14.0225)
(0.000198249 0.00299604 6.66723)
(0.0286211 0.454801 14.0201)
(-94.287 15.7312 -23.1604)
(-93.8983 6.88448 -22.8856)
(-94.0616 -15.6036 -24.1404)
(87.9214 17.8095 -18.8151)
(87.9528 1.33484 -11.5919)
(89.7089 -10.2834 -16.9242)
(-0.0106852 -1.77504 38.9365)
(0.000533741 0.00451984 -22.1039)
(0.0108519 1.76376 38.9293)
(-89.6976 10.3134 -16.8951)
(-89.9447 -1.29202 -11.6311)
(-87.9363 -17.7802 -18.8441)
(86.03 12.1038 -22.059)
(89.9843 -0.11918 -9.44701)
(87.4887 -4.37631 -18.9008)
(-0.00977282 -1.91556 42.1794)
(0.000416102 0.00861977 -21.1095)
(0.00987511 1.90162 42.1725)
(-87.5981 4.40804 -18.8806)
(-91.4464 0.187678 -9.40739)
(-85.9607 -12.0694 -22.0833)
(80.9187 10.7606 -21.7224)
(94.4429 -0.265539 -10.2425)
(82.7185 -3.48409 -18.7635)
(-0.00794763 -2.07913 41.2688)
(-0.000217091 0.00757396 -17.3645)
(0.00795122 2.06425 41.2646)
(-82.7358 3.49466 -18.7417)
(-93.4604 0.305822 -10.2255)
(-80.9019 -10.7463 -21.744)
(92.0524 24.7868 -5.41035)
(92.9208 -7.63019 -8.1414)
(91.6126 -29.0471 -6.82541)
(-0.0116453 -8.41604 13.6129)
(-6.89746e-05 0.00403147 -5.39231)
(0.0110267 8.41657 13.6111)
(-91.6121 29.0441 -6.82532)
(-92.9198 7.62861 -8.14261)
(-92.0532 -24.7819 -5.41035)
(93.254 19.9574 -1.35084)
(93.5781 -3.56572 -3.72836)
(93.1291 -23.8727 -1.74006)
(-0.00704128 -10.2766 7.42823)
(-0.000136131 0.00326513 -4.494)
(0.00621637 10.2787 7.42514)
(-93.129 23.8694 -1.74035)
(-93.5773 3.56617 -3.72968)
(-93.2548 -19.9527 -1.35063)
(93.9416 3.37937 0.843626)
(94.0873 -2.34367 -1.1232)
(93.9067 -6.57717 2.28364)
(-0.00273532 -5.56967 -0.0420008)
(-0.00017174 0.00322617 -0.862633)
(0.00180543 5.57258 -0.0430494)
(-93.9068 6.57451 2.28354)
(-94.0868 2.347 -1.1233)
(-93.9428 -3.37269 0.843433)
(90.1284 -31.6885 -1.48913)
(91.4017 -36.4229 -4.4032)
(91.6659 -38.0829 -5.76979)
(-0.00858762 15.6066 9.75328)
(-0.00956688 13.1672 5.94506)
(-0.0120041 11.8598 7.42447)
(-90.6893 -26.927 -0.752766)
(-91.5732 -31.64 -2.90131)
(-91.7481 -33.3769 -3.91415)
(90.7493 -24.8483 4.05288)
(92.147 -29.3629 3.37632)
(92.7636 -30.4841 1.61706)
(-0.00344756 19.274 1.85467)
(-0.00182488 19.365 -3.3198)
(-0.00362504 18.9388 -0.602077)
(-91.35 -20.9756 3.64868)
(-92.2019 -25.2793 3.13229)
(-92.4696 -26.7076 1.99458)
(93.3411 -8.25824 7.63011)
(93.8394 -4.19422 7.73624)
(93.8146 4.89407 8.14642)
(-0.00171937 11.2203 -5.29724)
(-0.000399489 10.8557 -3.31744)
(-0.00512148 15.079 -0.630524)
(-93.5291 -4.9606 6.19104)
(-93.7924 -1.20812 6.21174)
(-93.4857 3.77335 7.47729)
(91.7585 33.3783 -3.91369)
(91.5799 31.6454 -2.90066)
(90.6842 26.9351 -0.75227)
(0.0104763 -11.8592 7.42463)
(0.00779153 -13.1658 5.94515)
(0.00689894 -15.6059 9.75433)
(-91.6566 38.0771 -5.7705)
(-91.3954 36.4141 -4.40413)
(-90.1324 31.6801 -1.48989)
(92.4817 26.7082 1.99543)
(92.21 25.2848 3.13275)
(91.3447 20.9834 3.64958)
(0.00213546 -18.9401 -0.600656)
(-2.34274e-06 -19.3654 -3.31831)
(0.00172158 -19.2742 1.85722)
(-92.7544 30.4799 1.61538)
(-92.1414 29.3551 3.37541)
(-90.7535 24.8406 4.05242)
(93.4843 -3.77178 7.47774)
(93.7903 1.21419 6.21172)
(93.5266 4.96862 6.19051)
(0.00374456 -15.0818 -0.631673)
(-0.00143294 -10.8579 -3.31872)
(-1.98858e-05 -11.221 -5.29776)
(-93.8171 -4.89646 8.14423)
(-93.8416 4.18546 7.73497)
(-93.3424 8.25137 7.62986)
(91.1552 15.2416 -16.8444)
(89.5724 19.172 -10.7422)
(92.2952 31.2226 -8.23567)
(0.0573941 8.31366 -3.66848)
(0.0472342 5.46858 4.61391)
(0.02651 -4.47937 10.732)
(-90.8675 17.4672 -19.5339)
(-89.6289 21.6643 -13.0987)
(-92.2276 34.5796 -10.6206)
(91.7065 4.20731 -30.2499)
(91.2883 11.8221 -16.2254)
(93.4668 24.1117 -1.79376)
(0.0511304 4.38821 -7.05477)
(0.0354549 3.05587 8.33644)
(0.0156813 -10.9052 8.36102)
(-91.5401 5.87858 -32.4351)
(-91.098 11.361 -18.776)
(-93.5417 25.2807 -2.27862)
(95.0981 2.16999 -39.3649)
(91.0539 9.12569 -12.832)
(92.3469 6.97671 5.54215)
(0.0471151 4.48173 -11.771)
(0.0256508 -6.48427 19.2574)
(0.0115778 -17.4871 11.7652)
(-95.3105 3.2756 -41.1737)
(-90.1009 5.67914 -15.3099)
(-92.903 17.6044 3.11646)
(93.773 -6.62188 -55.2231)
(93.2452 1.25812 -1.01326)
(92.6589 7.29133 56.604)
(0.0307499 -6.97532 13.0394)
(0.0262181 7.09564 38.386)
(0.0271419 -2.11482 58.4749)
(-93.9224 -7.34486 -56.3958)
(-93.1629 -0.876943 -8.70801)
(-92.6162 11.6952 58.8325)
(91.8196 -2.17265 -74.2848)
(91.1549 -7.96318 -18.3297)
(90.9544 0.0627559 12.0791)
(-0.028756 -1.17828 30.5351)
(-0.0266224 -0.436047 68.2116)
(-0.023428 -0.71949 86.5259)
(-92.0244 -1.72194 -78.3395)
(-91.1643 -8.49158 -33.0844)
(-91.0327 0.410849 -0.248425)
(86.3319 -1.90575 -120.237)
(85.7172 -3.15757 -109.629)
(86.0995 -1.43276 -106.845)
(-0.0887711 -2.02575 176.348)
(-0.0896554 -2.68506 187.38)
(-0.0901045 -1.5534 183.444)
(-86.7446 -1.71627 -122.941)
(-86.0469 -2.77423 -112.923)
(-86.3243 -1.45404 -109.509)
(92.2271 -34.5831 -10.6195)
(89.6301 -21.6662 -13.0967)
(90.8672 -17.4684 -19.5312)
(-0.0276135 4.48153 10.7328)
(-0.0480007 -5.46955 4.61592)
(-0.0580302 -8.3146 -3.66741)
(-92.2954 -31.2229 -8.2367)
(-89.5718 -19.173 -10.7434)
(-91.1586 -15.2423 -16.8466)
(93.5413 -25.2834 -2.27568)
(91.0996 -11.3619 -18.7716)
(91.5436 -5.87726 -32.4303)
(-0.0166481 10.9051 8.36018)
(-0.0360104 -3.05684 8.3391)
(-0.0512856 -4.38892 -7.05322)
(-93.4682 -24.1138 -1.79622)
(-91.2886 -11.8236 -16.2292)
(-91.7067 -4.20836 -30.2576)
(92.9022 -17.6042 3.1212)
(90.1019 -5.67512 -15.3041)
(95.3166 -3.27309 -41.1676)
(-0.0120627 17.4842 11.7657)
(-0.0255991 6.48132 19.2588)
(-0.0460512 -4.48217 -11.7702)
(-92.347 -6.97967 5.53741)
(-91.0528 -9.13324 -12.8381)
(-95.0876 -2.17334 -39.3814)
(92.6176 -11.6962 58.8419)
(93.164 0.874296 -8.69908)
(93.9286 7.34389 -56.3913)
(-0.024547 2.1131 58.4771)
(-0.0238287 -7.09719 38.3868)
(-0.0282773 6.97655 13.0388)
(-92.6564 -7.29408 56.5969)
(-93.2425 -1.26241 -1.01951)
(-93.7648 6.61869 -55.233)
(91.032 -0.410863 -0.247059)
(91.1645 8.49182 -33.0804)
(92.0134 1.72242 -78.3411)
(0.0208245 0.718991 86.5267)
(0.0241621 0.437052 68.2115)
(0.0259693 1.17892 30.5349)
(-90.9569 -0.0607215 12.0789)
(-91.1565 7.97136 -18.3379)
(-91.8334 2.17735 -74.2874)
(86.3249 1.45398 -109.514)
(86.0478 2.77419 -112.928)
(86.7435 1.71613 -122.937)
(0.0908947 1.5532 183.443)
(0.0904457 2.68537 187.377)
(0.0895414 2.02593 176.351)
(-86.0992 1.433 -106.84)
(-85.717 3.15791 -109.625)
(-86.3352 1.90601 -120.236)
)
;

boundaryField
{
    fuel
    {
        type            fixedValue;
        value           uniform (0 0 0.25);
    }
    primary_air
    {
        type            fixedValue;
        value           uniform (0 0 2.5);
    }
    Secondary_air_RHS
    {
        type            fixedValue;
        value           uniform (0 25 0);
    }
    Secondary_air_LHS
    {
        type            fixedValue;
        value           uniform (0 -25 0);
    }
    outlet
    {
        type            pressureInletOutletVelocity;
        value           nonuniform List<vector> 
18
(
(0 0 -109.514)
(0.0908947 1.5532 183.443)
(0 0 -106.84)
(0 0 -112.928)
(0.0904457 2.68537 187.377)
(0 0 -109.625)
(0 0 -122.937)
(0.0895414 2.02593 176.351)
(0 0 -120.236)
(0 0 -120.237)
(-0.0887711 -2.02575 176.348)
(0 0 -122.941)
(0 0 -109.629)
(-0.0896554 -2.68506 187.38)
(0 0 -112.923)
(0 0 -106.845)
(-0.0901045 -1.5534 183.444)
(0 0 -109.509)
)
;
    }
    stove_body
    {
        type            noSlip;
    }
    frontAndBack
    {
        type            empty;
    }
}


// ************************************************************************* //
