/*--------------------------------*- C++ -*----------------------------------*\
  =========                 |
  \\      /  F ield         | OpenFOAM: The Open Source CFD Toolbox
   \\    /   O peration     | Website:  https://openfoam.org
    \\  /    A nd           | Version:  6
     \\/     M anipulation  |
\*---------------------------------------------------------------------------*/
FoamFile
{
    version     2.0;
    format      ascii;
    class       volVectorField;
    location    "1";
    object      U;
}
// * * * * * * * * * * * * * * * * * * * * * * * * * * * * * * * * * * * * * //

dimensions      [0 1 -1 0 0 0 0];

internalField   nonuniform List<vector> 
297
(
(55.798 -0.00304417 10.4984)
(55.7987 0.00147612 10.4935)
(55.7979 0.00420064 10.4993)
(-2.42463e-09 -0.0423138 9.81154)
(1.07672e-08 0.00631684 9.83791)
(2.01715e-09 0.0422177 9.81127)
(-55.798 -0.00304409 10.4984)
(-55.7987 0.00147617 10.4935)
(-55.7979 0.00420061 10.4993)
(55.7433 0.00543486 10.7036)
(55.741 0.000189976 10.6998)
(55.7432 -0.00415939 10.7048)
(8.49842e-10 0.249524 8.48062)
(8.35468e-09 -0.0318042 8.32257)
(2.21889e-09 -0.255686 8.47549)
(-55.7433 0.00543489 10.7036)
(-55.741 0.000190033 10.6998)
(-55.7432 -0.00415936 10.7048)
(56.5792 0.0809 14.7608)
(56.565 0.0106662 14.7806)
(56.579 -0.0634091 14.7658)
(5.99016e-09 -6.80772 5.8105)
(2.80615e-09 0.0599155 8.31837)
(3.14112e-09 6.69952 5.79139)
(-56.5792 0.0809003 14.7608)
(-56.565 0.0106668 14.7806)
(-56.579 -0.0634088 14.7658)
(36.5876 -0.398488 5.97583)
(36.5826 -1.49784 9.05321)
(36.6207 -1.20826 5.03745)
(-0.00154429 -0.208985 10.6932)
(-0.00151662 -0.969563 10.0281)
(-0.00161034 -0.763969 10.5953)
(-36.5899 -0.42214 6.13208)
(-36.5871 -1.44018 9.00509)
(-36.6233 -1.12596 4.93945)
(36.6687 7.98504 25.966)
(36.7722 -1.79429 22.4442)
(37.06 -9.57571 17.408)
(-0.00172211 11.1868 49.2727)
(-0.00122971 -1.73795 36.6597)
(-0.00120538 -12.4877 47.2754)
(-36.621 7.50435 26.526)
(-36.7396 -2.34393 22.5257)
(-37.0056 -9.24691 18.576)
(36.1355 8.54454 13.5719)
(36.9344 -2.67018 29.9427)
(36.3884 -4.08581 -2.8985)
(0.000168392 -9.47801 72.5883)
(0.000145978 -0.986989 22.4751)
(-1.55641e-05 11.5531 69.5575)
(-36.0714 8.99525 15.9905)
(-36.8907 -3.24464 30.2933)
(-36.3563 -4.46507 -1.85587)
(36.8853 -11.8311 -54.0479)
(36.8476 2.28382 -14.2822)
(37.0428 9.88881 -62.7776)
(0.00238733 -0.176178 29.6257)
(-0.00198009 -1.76479 -30.7261)
(9.21709e-05 2.15045 17.1605)
(-36.8517 -12.6808 -51.7568)
(-36.7826 1.35473 -13.2007)
(-37.0267 10.326 -61.1306)
(37.1494 14.8024 -32.9205)
(37.6864 4.91253 -41.8027)
(37.6679 -19.6483 -43.3899)
(-0.0011797 6.01109 5.26396)
(-0.0041918 -0.601761 -18.9001)
(0.00585145 -6.71838 -6.43158)
(-37.0041 11.3815 -30.3062)
(-37.6013 2.80811 -41.5831)
(-37.607 -14.5998 -42.1559)
(37.9755 18.9888 -15.4739)
(38.2778 11.6446 -16.8695)
(38.3136 -17.5985 -17.5207)
(-0.0106454 2.11842 6.8094)
(-0.00676453 -8.74563 -13.7223)
(0.0117618 -7.16942 -1.57193)
(-37.9319 13.4124 -14.6057)
(-38.3036 17.9489 -12.7)
(-38.2096 -7.44798 -17.3485)
(31.175 6.38149 -71.9257)
(35.9613 1.05042 35.2099)
(30.4644 -4.99758 -81.4027)
(0.0127546 -4.41763 98.335)
(-0.00126704 -1.72568 -41.3591)
(0.00677717 6.90554 94.2428)
(-31.2919 6.61288 -70.2168)
(-35.8846 0.70675 35.5165)
(-30.5371 -5.2055 -80.5245)
(32.3424 -0.941117 -75.5031)
(33.8535 1.42609 34.2956)
(31.8097 0.636978 -84.8861)
(0.0119932 -1.5854 109.279)
(-0.00137518 -1.92003 -43.8855)
(0.00679283 4.0964 104.411)
(-32.435 -1.17829 -73.6359)
(-33.79 1.1216 34.6173)
(-31.8484 0.628716 -83.9099)
(34.8741 -5.31162 -69.7318)
(34.1497 2.04851 32.2959)
(34.9974 4.62669 -79.4092)
(0.0115872 0.955521 108.044)
(-0.00165259 -1.94956 -44.2881)
(0.00711522 1.48249 102.856)
(-34.951 -5.5828 -67.553)
(-34.0864 1.90785 32.604)
(-35.138 4.66148 -78.1302)
(38.0404 37.4531 -8.11284)
(38.1403 2.45199 -9.09597)
(37.8168 -32.0346 -8.53339)
(-0.0143814 -3.4686 8.16357)
(-0.00962998 3.55034 -1.77083)
(0.00752605 4.97283 -2.35316)
(-38.1111 40.1709 -5.85936)
(-38.1929 29.9709 -9.95889)
(-37.8645 -21.526 -7.83585)
(38.4979 28.6568 4.89437)
(38.3247 6.56727 0.855545)
(38.1141 -25.8384 2.85639)
(-0.013239 -2.21845 7.02638)
(-0.0100806 8.53891 -1.5364)
(0.00534744 -0.78949 -1.21025)
(-38.5084 34.405 4.26178)
(-38.5024 27.4196 1.68565)
(-38.0809 -15.2087 3.04675)
(38.6616 -4.82046 -0.955082)
(38.5015 2.62696 1.4611)
(38.2745 5.84975 -1.80121)
(-0.0130801 -12.6932 -1.49203)
(-0.00961569 3.88389 0.402146)
(0.00430705 6.35689 -1.50447)
(-38.6059 -20.6742 -5.04019)
(-38.5706 13.2323 0.892339)
(-38.1534 -1.08975 0.754138)
(37.7696 -36.9838 -3.90078)
(37.719 -42.6304 -8.02049)
(37.617 -46.1422 -9.42691)
(0.00195915 7.43954 -1.52296)
(-0.000812361 11.7208 -0.338904)
(-0.00327535 -5.43808 1.35663)
(-37.7963 -29.5097 -2.89098)
(-37.7212 -33.3741 -6.0468)
(-37.6225 -37.9376 -7.03975)
(37.8966 -30.4213 5.79199)
(38.1427 -34.2564 4.78576)
(38.1516 -35.3102 1.69388)
(0.00469598 5.26958 -1.76117)
(0.00516348 12.3806 2.9206)
(0.00377651 3.1133 9.38167)
(-37.8911 -23.3888 5.50258)
(-38.037 -25.5518 4.9038)
(-37.9608 -29.0727 3.20875)
(38.1773 -1.37979 6.89223)
(38.2442 3.07602 7.46185)
(38.1518 11.4263 10.6197)
(0.00457832 9.42163 -0.459661)
(0.00616005 13.2268 0.486815)
(0.00367128 22.8815 5.6738)
(-38.0788 1.20971 5.55789)
(-38.1316 7.10173 5.92534)
(-37.9559 12.2928 8.3484)
(37.8318 55.9572 -11.2369)
(37.9089 49.5107 -9.28607)
(38.2027 45.9993 -5.4953)
(0.0157082 19.8466 -1.72121)
(0.00141491 -4.55469 2.07647)
(-0.00579124 -13.8258 6.75811)
(-37.6334 57.4994 -11.4148)
(-37.7118 52.2145 -8.5053)
(-38.1502 49.5133 -4.82727)
(38.4622 42.46 5.52411)
(38.5265 35.3133 8.31113)
(38.313 32.6813 8.12269)
(-0.000284418 1.74138 15.3353)
(-0.00631044 -21.4526 7.95489)
(-0.00699196 -11.9971 3.05299)
(-38.5014 45.8591 1.73077)
(-38.5599 43.2809 7.37569)
(-38.1819 37.8791 7.59779)
(38.2551 -18.2767 11.3371)
(38.6469 -9.70434 7.30861)
(38.5718 -4.96041 6.59161)
(-0.00432758 -37.789 6.92778)
(-0.00855002 -25.518 -0.0342752)
(-0.00683482 -19.2896 -1.17092)
(-38.2241 -17.8349 14.6359)
(-38.5269 -4.28867 8.58425)
(-38.5159 1.7021 7.53288)
(37.368 23.6686 -35.4291)
(37.149 31.5211 -26.4704)
(38.1909 53.6087 -20.6439)
(0.00590151 18.271 -14.6375)
(0.0279883 20.2443 -10.2608)
(0.0345518 25.7525 -3.44097)
(-37.906 19.7579 -35.3342)
(-37.8337 29.2187 -30.6873)
(-38.1925 50.1813 -24.3056)
(37.61 3.86303 -56.8628)
(37.5875 22.4557 -32.6724)
(38.5861 40.8333 -5.6538)
(0.0102919 8.99475 -15.8932)
(0.0397926 13.4997 -2.91639)
(0.0216797 18.8037 17.9301)
(-37.7284 9.00423 -54.6242)
(-37.4951 23.2284 -44.0139)
(-38.2871 37.1837 -12.7399)
(38.895 -0.41851 -71.773)
(37.7624 18.4168 -22.7251)
(37.6205 -14.2173 15.9123)
(-0.00153583 6.49507 -23.3884)
(0.0136343 -12.9583 25.2452)
(0.00513921 -31.6768 23.2036)
(-38.977 3.99491 -71.9969)
(-37.9454 16.3803 -46.448)
(-37.4909 -3.93052 19.4601)
(38.5366 -13.8383 -96.7082)
(38.3907 3.62198 5.59945)
(37.6822 -3.88684 97.6755)
(-0.0802578 -9.32205 12.4355)
(-0.0850937 11.9457 54.4177)
(-0.0909973 -11.7062 94.1121)
(-38.6215 -5.71042 -106.019)
(-38.2373 -3.72068 -53.1297)
(-38.0721 6.92475 53.6281)
(37.0713 -1.04576 -129.786)
(37.3605 -14.8368 -95.3485)
(37.5353 -3.80255 -7.77623)
(-0.225557 -1.72597 40.4514)
(-0.239923 1.66578 76.1584)
(-0.246311 -8.80087 110.566)
(-37.9137 0.947189 -138.645)
(-37.8264 -4.05857 -101.583)
(-37.7232 5.44334 93.3983)
(36.0162 -2.55724 -148.757)
(35.9042 -4.32149 -147.186)
(35.9365 -2.60464 -144.057)
(-0.0304045 -3.41873 173.414)
(-0.0257798 -3.34888 180.36)
(-0.0137688 -5.18678 193.269)
(-36.0723 -4.68082 -155.014)
(-35.8846 -8.28264 -122.703)
(-36.4838 -1.30275 -17.8299)
(37.8049 -43.6758 -17.3941)
(37.0089 -25.6775 -20.9779)
(37.1847 -19.1873 -28.351)
(-0.0151083 -15.8145 -1.03013)
(-0.0343611 -12.8145 -6.73859)
(-0.045916 -12.2263 -11.4512)
(-37.7758 -37.2528 -13.8798)
(-37.1052 -21.7149 -17.3361)
(-37.2455 -16.2182 -23.9773)
(38.1112 -30.9698 -5.18231)
(37.3937 -18.3072 -26.3191)
(37.2991 -3.78107 -45.7473)
(-0.00522359 -11.6537 12.2945)
(-0.0186796 -7.38435 -1.8906)
(-0.034104 -4.56385 -14.1688)
(-38.0197 -27.3884 -3.75369)
(-37.4225 -15.2724 -21.8201)
(-37.3651 -2.33777 -40.2367)
(37.7545 0.526348 9.95654)
(37.5081 -12.1409 -16.08)
(38.1909 -0.435627 -56.6439)
(-0.00327935 18.9678 15.0785)
(-0.0141395 8.67771 17.1478)
(-0.0299401 -3.13554 -18.4776)
(-37.5537 9.98088 11.2633)
(-37.581 -13.293 -13.9293)
(-38.1475 0.037862 -51.1327)
(37.7895 -3.33965 68.0301)
(38.089 -1.18342 4.66592)
(38.127 9.56821 -71.1439)
(-0.022158 6.30805 57.4303)
(-0.0227576 -8.31065 35.6928)
(-0.0247719 7.9306 8.20002)
(-37.7876 2.5781 64.5061)
(-38.106 -5.21551 13.6359)
(-38.0556 8.37766 -66.9256)
(37.5927 1.7086 -0.449673)
(37.5319 10.1416 -55.0131)
(37.4361 0.912354 -93.8529)
(0.00922571 4.3529 84.1841)
(0.0129123 2.61584 64.8432)
(0.0164754 1.39606 31.1441)
(-37.4973 3.01212 29.191)
(-37.5603 9.01715 -19.0088)
(-37.2908 1.6468 -86.3631)
(36.0461 1.70279 -118.556)
(35.9251 3.23354 -120.175)
(35.9195 1.88358 -122.143)
(0.0782383 2.84068 177.482)
(0.0775722 4.09477 187.751)
(0.0751286 2.66012 192.324)
(-35.8114 1.77848 -114.443)
(-35.649 4.00733 -115.557)
(-35.6112 2.63997 -117.742)
)
;

boundaryField
{
    fuel
    {
        type            fixedValue;
        value           uniform (0 0 10);
    }
    primary_air
    {
        type            fixedValue;
        value           uniform (0 0 10);
    }
    Secondary_air_RHS
    {
        type            fixedValue;
        value           uniform (0 79.5 0);
    }
    Secondary_air_LHS
    {
        type            fixedValue;
        value           uniform (0 -79.5 0);
    }
    outlet
    {
        type            pressureInletOutletVelocity;
        value           nonuniform List<vector> 
18
(
(0 0 -118.556)
(0.0782383 2.84068 177.482)
(0 0 -114.443)
(0 0 -120.175)
(0.0775722 4.09477 187.751)
(0 0 -115.557)
(0 0 -122.143)
(0.0751286 2.66012 192.324)
(0 0 -117.742)
(0 0 -148.757)
(-0.0304045 -3.41873 173.414)
(0 0 -155.014)
(0 0 -147.186)
(-0.0257798 -3.34888 180.36)
(0 0 -122.703)
(0 0 -144.057)
(-0.0137688 -5.18678 193.269)
(0 0 -17.8299)
)
;
    }
    stove_body
    {
        type            noSlip;
    }
    frontAndBack
    {
        type            empty;
    }
}


// ************************************************************************* //
