/*--------------------------------*- C++ -*----------------------------------*\
  =========                 |
  \\      /  F ield         | OpenFOAM: The Open Source CFD Toolbox
   \\    /   O peration     | Website:  https://openfoam.org
    \\  /    A nd           | Version:  6
     \\/     M anipulation  |
\*---------------------------------------------------------------------------*/
FoamFile
{
    version     2.0;
    format      ascii;
    class       volScalarField;
    location    "0.015";
    object      N2;
}
// * * * * * * * * * * * * * * * * * * * * * * * * * * * * * * * * * * * * * //

dimensions      [0 0 0 0 0 0 0];

internalField   nonuniform List<scalar> 
3773
(
0.556101
0.565046
0.560392
0.562251
0.564353
0.562813
0.55835
0.612878
0.625374
0.616754
0.621547
0.625615
0.620749
0.616104
0.514881
0.529982
0.52446
0.523869
0.525328
0.525762
0.517128
0.508784
0.517118
0.51853
0.517649
0.517463
0.520536
0.509838
0.514711
0.52373
0.524125
0.522569
0.525547
0.526014
0.517485
0.615631
0.621829
0.620416
0.62401
0.627162
0.618686
0.615393
0.559
0.567623
0.56321
0.563411
0.56618
0.5628
0.558877
0.648092
0.667101
0.66428
0.664178
0.6627
0.662931
0.651272
0.977305
0.988129
0.987235
0.987707
0.988144
0.987667
0.977575
0.969429
0.968505
0.962508
0.965787
0.968533
0.959882
0.970881
0.96987
0.980876
0.981635
0.980825
0.980862
0.983711
0.971655
0.969769
0.979924
0.966197
0.965523
0.969822
0.964898
0.971145
0.977755
0.988771
0.987538
0.988209
0.988413
0.987866
0.977841
0.651966
0.660948
0.663939
0.66142
0.665163
0.664504
0.652011
0.677556
0.696574
0.69484
0.695624
0.693537
0.693292
0.681063
0.97003
0.983851
0.98394
0.983377
0.982175
0.982323
0.970387
0.989017
0.997992
0.996514
0.997129
0.997393
0.996688
0.988748
0.990124
0.998987
0.999367
0.999367
0.999408
0.999232
0.990292
0.988649
0.998348
0.997235
0.997319
0.997572
0.996728
0.988774
0.971291
0.982663
0.983049
0.983455
0.983178
0.982888
0.971125
0.683272
0.691308
0.695345
0.696341
0.697289
0.695219
0.682868
0.752244
0.778496
0.781231
0.783827
0.781858
0.776843
0.752979
0.975284
0.987811
0.988182
0.988498
0.987597
0.987437
0.975021
0.990232
0.999626
0.999542
0.999642
0.999702
0.999658
0.990145
0.990945
0.999907
0.99997
0.999964
0.999965
0.999865
0.990937
0.990196
0.999707
0.999665
0.99974
0.999737
0.999536
0.990187
0.97547
0.987233
0.9879
0.987699
0.988664
0.987414
0.975216
0.749423
0.767767
0.775152
0.777444
0.780517
0.773861
0.746917
0.893418
0.91405
0.917799
0.919306
0.91869
0.914725
0.893499
0.98025
0.992832
0.993403
0.993631
0.993621
0.993148
0.979983
0.990452
0.999834
0.99993
0.999953
0.999954
0.999917
0.990407
0.991001
0.999973
0.999998
0.999998
0.999998
0.999912
0.990964
0.990435
0.99991
0.999945
0.999949
0.999969
0.999902
0.990441
0.979764
0.992538
0.993128
0.993251
0.993735
0.992767
0.979569
0.889172
0.907765
0.913432
0.914956
0.916732
0.91208
0.887301
0.955624
0.979732
0.981176
0.981615
0.981553
0.980199
0.955864
0.985314
0.998233
0.998537
0.998574
0.998531
0.998297
0.985336
0.990581
0.999864
0.999987
0.999988
0.999987
0.99995
0.990573
0.991139
0.999982
1
1
1
0.999904
0.991066
0.99057
0.999922
0.999986
0.999985
0.999989
0.999956
0.990589
0.985144
0.998152
0.998382
0.99843
0.998489
0.998288
0.985079
0.953372
0.977534
0.979842
0.980276
0.980386
0.9793
0.952848
1
1
1
1
1
1
1
1
1
1
1
1
1
1
1
1
1
1
1
1
1
1
1
1
1
1
1
1
1
1
1
1
1
1
1
1
1
1
1
1
1
1
1
1
1
1
1
1
1
0.998271
0.999348
0.999461
0.999387
0.999105
0.99883
0.997539
0.99753
0.9984
0.99887
0.99878
0.998694
0.998539
0.9976
0.99611
0.996749
0.996942
0.997024
0.99712
0.997086
0.996878
0.99227
0.99221
0.991462
0.991734
0.992176
0.992888
0.993158
0.99576
0.996668
0.996704
0.996675
0.996629
0.996407
0.995517
0.997391
0.998391
0.998448
0.998474
0.998479
0.998069
0.996848
0.997591
0.998698
0.998956
0.999161
0.999226
0.999157
0.99865
0.998862
0.999812
0.99996
0.999971
0.999977
0.999983
0.999763
0.998368
0.999866
0.999954
0.999969
0.999957
0.999961
0.999958
0.997229
0.998399
0.998892
0.999039
0.999062
0.999322
0.999406
0.993039
0.992878
0.992109
0.992651
0.993048
0.993768
0.994034
0.998051
0.998341
0.998544
0.998685
0.998672
0.998319
0.996749
0.999611
0.99997
0.999969
0.999934
0.99977
0.999548
0.998936
0.999783
0.999983
0.99998
0.999975
0.999967
0.999967
0.999992
0.998844
0.999794
0.999957
0.999969
0.999976
0.999986
0.99999
0.998585
0.999772
0.999904
0.999955
0.999939
0.999943
0.999976
0.997745
0.999029
0.999177
0.999205
0.999104
0.999177
0.999178
0.994202
0.993814
0.993904
0.993826
0.994457
0.994445
0.994675
0.998907
0.998961
0.999046
0.999103
0.99923
0.999085
0.998099
0.999949
0.999956
0.999952
0.999895
0.999805
0.999777
0.999806
0.999944
0.999983
0.999979
0.999968
0.999944
0.99994
0.999995
0.998784
0.999792
0.999958
0.99997
0.999977
0.999988
0.999996
0.998533
0.999406
0.999804
0.999939
0.999919
0.999917
0.99996
0.997994
0.999147
0.999235
0.999205
0.999079
0.998876
0.998798
0.994598
0.994626
0.994848
0.994166
0.994719
0.995024
0.994874
0.998853
0.998925
0.999093
0.999153
0.999347
0.999368
0.998846
0.99995
0.999944
0.999948
0.999917
0.999859
0.999809
0.999876
0.999981
0.999978
0.999975
0.99996
0.999929
0.999922
0.999991
0.999795
0.999949
0.999974
0.999976
0.999984
0.99999
0.999999
0.998822
0.999372
0.999793
0.999919
0.999912
0.999897
0.999941
0.998183
0.999126
0.999255
0.999268
0.999229
0.998787
0.998364
0.994673
0.995363
0.995694
0.994645
0.994925
0.995533
0.994746
0.998657
0.998976
0.999203
0.999179
0.999335
0.999251
0.998714
0.999896
0.999919
0.999951
0.999919
0.999728
0.999524
0.999782
0.999984
0.99997
0.999972
0.999959
0.999921
0.999916
0.999988
1
0.999979
0.999977
0.999979
0.999987
0.999991
1
0.999661
0.999762
0.999879
0.999908
0.999911
0.999886
0.999938
0.99855
0.999022
0.999283
0.999312
0.999296
0.998744
0.997871
0.994659
0.995706
0.996076
0.996074
0.995909
0.995932
0.994719
0.998281
0.99897
0.999348
0.999275
0.999275
0.999037
0.998392
0.999752
0.999805
0.999932
0.999885
0.999594
0.999423
0.999763
0.999983
0.999957
0.999969
0.999957
0.999914
0.999915
0.999992
1
0.999988
0.999978
0.999986
0.99999
0.999991
1
1
0.999823
0.99986
0.999907
0.999921
0.99988
0.999959
0.998533
0.998682
0.999211
0.999404
0.999391
0.998769
0.997839
0.994837
0.996259
0.997084
0.996906
0.996781
0.996228
0.994998
0.998153
0.998953
0.999444
0.999386
0.999081
0.99858
0.997494
0.999641
0.999661
0.999873
0.999816
0.999592
0.999482
0.999828
0.999975
0.99993
0.999969
0.999971
0.999951
0.999961
0.999999
0.999999
0.999997
0.999995
0.999995
0.999993
0.999995
0.999996
0.999991
0.999962
0.999979
0.999983
0.999983
0.99998
0.999986
0.999032
0.998531
0.999152
0.999484
0.99951
0.999604
0.999995
0.996917
0.996773
0.997423
0.997434
0.997499
0.99743
0.997696
0.999482
0.999015
0.999344
0.999269
0.998754
0.998371
0.998603
0.999966
0.99988
0.999973
0.999913
0.999794
0.999847
0.999997
0.999999
0.999986
0.999998
0.999995
0.999994
0.999995
0.999997
0.999999
0.999996
0.999993
0.99999
0.999989
0.999991
0.999995
0.999985
0.99991
0.999975
0.999969
0.999962
0.999968
0.999982
0.999358
0.998851
0.999302
0.999652
0.999616
0.999891
0.999994
0.997558
0.997663
0.998102
0.998028
0.998124
0.998156
0.998283
0.999937
0.999263
0.999439
0.999307
0.998941
0.998931
0.999431
0.999991
0.999986
0.999979
0.99988
0.999787
0.999942
0.999996
1
0.999998
0.999997
0.999992
0.999992
0.999994
0.999997
0.999998
0.999995
0.999993
0.999984
0.999987
0.999991
0.999995
0.999993
0.999924
0.999961
0.999949
0.99993
0.999954
0.999983
0.999494
0.999157
0.999424
0.999616
0.999499
0.999588
0.999976
0.998132
0.998113
0.998306
0.998597
0.998607
0.998439
0.998835
0.999972
0.999399
0.999519
0.99939
0.999208
0.999735
0.999995
0.999996
0.999984
0.999942
0.999886
0.999823
0.999979
0.999993
0.999999
0.999997
0.999997
0.99999
0.999992
0.999994
0.999997
0.999998
0.999995
0.999992
0.999982
0.999986
0.999992
0.999995
0.999957
0.999921
0.99996
0.999942
0.999905
0.999951
0.999988
0.999614
0.999296
0.999523
0.999628
0.999492
0.999621
0.999973
0.998771
0.998368
0.998632
0.9988
0.998791
0.998859
0.999361
0.999989
0.999599
0.999572
0.999534
0.999597
0.999971
0.999995
0.999993
0.999963
0.999924
0.999924
0.999953
0.999976
0.99999
0.999999
0.999996
0.999997
0.999991
0.999992
0.999994
0.999997
0.999998
0.999998
0.999992
0.999983
0.999978
0.999995
0.999996
0.999961
0.99995
0.999968
0.99995
0.999892
0.999951
0.999992
0.999822
0.999483
0.99962
0.999713
0.999547
0.99975
0.999978
0.999351
0.99863
0.99876
0.998914
0.998904
0.999339
0.999718
0.999982
0.999737
0.999608
0.999693
0.999785
0.99992
0.999991
0.999991
0.999955
0.999906
0.99993
0.99996
0.999975
0.999986
0.999998
0.999995
0.999996
0.99999
0.999991
0.999993
0.999995
0.999996
0.999998
0.999995
0.999991
0.999977
0.99999
0.999997
0.999977
0.999967
0.999989
0.999973
0.999915
0.999947
0.999992
0.999939
0.9998
0.999801
0.999819
0.999757
0.999812
0.999953
0.999786
0.999199
0.999166
0.999232
0.999138
0.999506
0.999895
0.999941
0.999779
0.999731
0.99983
0.99982
0.999877
0.999977
0.999981
0.999951
0.999952
0.999968
0.999973
0.99998
0.999988
0.999997
0.999996
0.999996
0.999992
0.999992
0.999993
0.999995
0.999996
0.999998
0.999998
0.999996
0.999995
0.999995
0.999997
0.999989
0.999995
0.999997
0.99999
0.99996
0.999965
0.999988
0.999953
0.999902
0.999863
0.999907
0.999869
0.999884
0.999941
0.999885
0.999507
0.999388
0.999459
0.999388
0.99955
0.999844
0.999979
0.999958
0.999943
0.999931
0.999901
0.999918
0.999973
0.999989
0.999989
0.999994
0.999992
0.999983
0.999987
0.999991
0.999998
0.999999
0.999999
0.999998
0.999998
0.999997
0.999996
1
0.999996
0.99998
0.999991
0.99999
0.999989
1
1
0.999871
0.999759
0.99995
0.999928
0.999888
1
0.998551
0.998648
0.999108
0.999359
0.999372
0.998777
0.998373
0.995084
0.996363
0.997104
0.996929
0.996817
0.996596
0.995589
0.99825
0.998905
0.999389
0.999334
0.998973
0.998056
0.99764
1
0.999379
0.999815
0.999845
0.999695
0.999656
1
1
0.999823
0.99997
0.999992
0.999976
0.999977
1
1
0.999997
0.999986
0.999993
0.999992
0.999994
1
1
0.999917
0.99984
0.999965
0.999941
0.999933
1
0.998572
0.998627
0.999105
0.999344
0.999365
0.998794
0.999232
0.995162
0.996365
0.997123
0.996944
0.996856
0.996616
0.995711
0.998289
0.998893
0.999368
0.999324
0.998964
0.998034
0.99768
1
0.999364
0.99985
0.999875
0.999727
0.999706
1
1
0.999931
0.999977
0.999994
0.99998
0.999983
1
1
0.999997
0.999988
0.999993
0.999993
0.999995
1
1
0.999924
0.999856
0.999968
0.999948
0.999948
1
0.998626
0.998627
0.999098
0.999351
0.999351
0.998831
1
0.995292
0.996368
0.997161
0.99698
0.996901
0.996661
0.995958
0.998356
0.998867
0.999368
0.999306
0.998935
0.997993
0.997763
1
0.999413
0.999863
0.999884
0.999737
0.999724
1
1
0.999967
0.999979
0.999995
0.999982
0.999985
1
1
0.999997
0.99999
0.999993
0.999993
0.999995
1
1
0.999919
0.999856
0.999967
0.999956
0.999957
1
0.998666
0.998612
0.999092
0.99936
0.999339
0.9989
1
0.995424
0.996379
0.997196
0.997006
0.996946
0.996751
0.996132
0.998487
0.998866
0.999365
0.999305
0.998921
0.997958
0.997822
1
0.999554
0.999861
0.999889
0.999741
0.999734
1
1
0.99997
0.99998
0.999995
0.999984
0.999986
1
1
0.999997
0.999991
0.999993
0.999993
0.999995
1
1
0.999916
0.999867
0.999967
0.999965
0.999967
1
0.998744
0.998566
0.99909
0.999363
0.999324
0.998949
1
0.995547
0.996407
0.99723
0.997048
0.99701
0.996814
0.996309
0.998619
0.998867
0.99936
0.999295
0.99889
0.997944
0.997943
1
0.999671
0.999862
0.99989
0.999747
0.999742
1
1
0.999956
0.999986
0.999995
0.999985
0.999986
1
1
0.999997
0.999993
0.999994
0.999993
0.999994
1
1
0.99992
0.999917
0.999971
0.999976
0.999982
1
0.9988
0.998549
0.99909
0.999367
0.999321
0.999035
1
0.99572
0.996436
0.997268
0.997068
0.997043
0.996874
0.996523
0.998669
0.998866
0.999356
0.999264
0.998871
0.997943
0.99801
1
0.999676
0.999912
0.999892
0.99975
0.999765
1
1
0.999947
0.999994
0.999995
0.99999
0.99999
1
1
0.999998
0.999994
0.999994
0.999993
0.999995
1
1
0.999945
0.999962
0.999983
0.999984
0.999994
1
0.99891
0.998531
0.99908
0.999367
0.999312
0.999135
1
0.995884
0.996441
0.997282
0.997121
0.997081
0.996894
0.996759
0.998822
0.998855
0.999339
0.999227
0.99883
0.997946
0.998161
1
0.999604
0.999943
0.999906
0.999774
0.999798
1
1
0.999884
0.999997
0.999996
0.999993
0.999993
1
1
1
0.999999
0.999999
0.999999
0.999999
1
1
0.999999
0.999996
0.999992
0.999991
0.999992
0.999997
0.999947
0.999885
0.999839
0.999884
0.999799
0.999845
0.99991
0.999924
0.999614
0.999485
0.999525
0.999529
0.999601
0.999841
1
0.999986
0.999967
0.999971
0.999925
0.999868
0.999959
1
1
0.999999
0.999996
0.999995
0.999997
1
1
1
1
1
1
1
1
1
0.999999
0.999999
0.999999
0.999999
0.999999
1
1
0.999998
0.999994
0.999994
0.999993
0.999993
0.999997
0.99994
0.999899
0.999881
0.99988
0.999896
0.999883
0.999903
0.999921
0.999661
0.999512
0.999546
0.99955
0.99962
0.999825
0.999998
0.999959
0.999965
0.999934
0.999935
0.999889
0.999937
1
0.999999
0.999997
0.999997
0.999997
0.999997
0.999999
1
1
1
1
1
1
1
0.999999
0.999998
0.999997
0.999997
0.999998
0.999998
0.999999
1
0.999998
0.999993
0.999992
0.999991
0.999991
0.999994
0.999941
0.999901
0.999867
0.99986
0.99988
0.999869
0.999889
0.999919
0.999669
0.999552
0.999574
0.999576
0.999629
0.999794
0.999974
0.999948
0.999939
0.999885
0.999925
0.999912
0.999934
1
0.999998
0.999996
0.999996
0.999996
0.999996
0.999998
0.999999
0.999999
0.999999
0.999999
0.999999
0.999999
0.999999
0.999999
0.999998
0.999997
0.999997
0.999998
0.999998
0.999998
1
0.999998
0.999994
0.999994
0.999993
0.999993
0.999993
0.999946
0.999923
0.999904
0.999898
0.999878
0.99988
0.999902
0.99991
0.999684
0.999618
0.999622
0.999607
0.999649
0.999757
0.999971
0.999941
0.999931
0.999883
0.999911
0.999914
0.999928
0.999998
0.999996
0.999995
0.999994
0.999995
0.999996
0.999997
0.999999
0.999999
0.999999
0.999999
0.999999
0.999999
0.999999
0.999999
0.999998
0.999998
0.999998
0.999998
0.999998
0.999998
1
0.999998
0.999995
0.999996
0.999995
0.999995
0.999994
0.999959
0.999939
0.999942
0.999935
0.999903
0.999897
0.999902
0.999887
0.999721
0.999675
0.999674
0.999641
0.999666
0.999753
0.999968
0.999957
0.999948
0.999925
0.999891
0.999894
0.999903
0.999998
0.999996
0.999995
0.999994
0.999994
0.999994
0.999993
0.999999
0.999999
0.999999
0.999999
0.999999
0.999999
0.999998
0.999999
0.999998
0.999998
0.999998
0.999998
0.999999
0.999999
0.999999
0.999998
0.999996
0.999997
0.999997
0.999998
0.999997
0.999966
0.999956
0.999978
0.999973
0.999944
0.999923
0.999912
0.999888
0.999824
0.999789
0.999784
0.999705
0.99971
0.999757
0.999969
0.999978
0.99998
0.999965
0.999917
0.999893
0.999893
0.999997
0.999996
0.999995
0.999995
0.999994
0.999994
0.999995
0.999999
0.999999
0.999999
0.999999
0.999999
0.999999
0.999999
0.999999
0.999998
0.999998
0.999998
0.999998
0.999999
0.999999
0.999999
0.999998
0.999998
0.999998
0.999998
0.999998
0.999998
0.999984
0.999983
0.999994
0.999989
0.999966
0.99995
0.999931
0.999916
0.999924
0.999903
0.999901
0.999818
0.99982
0.999804
0.999981
0.999996
0.999997
0.999989
0.999961
0.999945
0.999917
0.999997
0.999997
0.999997
0.999998
0.999998
0.999997
0.999997
0.999999
0.999999
0.999999
0.999999
0.999999
0.999999
0.999999
1
1
1
1
1
1
1
0.999998
0.999999
1
1
1
1
1
0.999926
0.999938
0.999977
1
1
1
1
0.999873
0.99992
0.999963
0.999986
0.999995
0.999996
0.999997
0.999967
0.999975
0.999999
1
1
1
1
1
1
1
1
1
1
1
1
1
1
1
1
1
1
1
1
1
1
1
1
1
0.999998
0.999998
0.999999
1
1
1
1
0.999926
0.999933
0.99995
0.999985
1
1
1
0.999868
0.999903
0.999938
0.999963
0.999978
0.999987
0.999989
0.999961
0.99997
0.999982
0.999996
1
1
1
1
1
1
1
1
1
1
1
1
1
1
1
1
1
0.999999
1
1
1
1
1
1
0.999995
0.999996
0.999998
0.999998
0.999999
1
1
0.999903
0.999919
0.999927
0.999941
0.999978
1
1
0.999847
0.999885
0.9999
0.999923
0.999941
0.999957
0.999967
0.999942
0.99995
0.99996
0.999971
0.999988
0.999998
1
0.999999
0.999999
0.999999
0.999999
1
1
1
0.999999
0.999999
0.999999
0.999999
1
1
1
0.999998
0.999999
0.999999
0.999999
0.999999
0.999999
1
0.999992
0.999994
0.999995
0.999997
0.999998
0.999999
0.999999
0.999909
0.999916
0.99992
0.999933
0.999945
0.999965
0.999993
0.999825
0.999852
0.99988
0.999903
0.999919
0.999931
0.999944
0.999941
0.999949
0.999955
0.999959
0.99997
0.999982
0.999994
0.999998
0.999999
0.999999
0.999999
0.999999
1
1
0.999999
0.999999
0.999999
0.999999
0.999999
0.999999
1
0.999998
0.999998
0.999999
0.999999
0.999999
0.999999
0.999999
0.999995
0.999996
0.999996
0.999997
0.999996
0.999998
0.999999
0.999911
0.999925
0.999935
0.999937
0.999945
0.999954
0.999969
0.99979
0.999807
0.999844
0.99987
0.99988
0.999901
0.99992
0.999926
0.999932
0.999936
0.999945
0.999952
0.999958
0.999976
0.999994
0.999997
0.999997
0.999998
0.999999
0.999999
0.999999
0.999998
0.999999
0.999998
0.999999
0.999999
0.999999
0.999999
0.999998
0.999998
0.999999
0.999999
0.999999
0.999999
0.999999
0.999997
0.999998
0.999998
0.999998
0.999997
0.999998
0.999998
0.999907
0.999909
0.999918
0.999923
0.999939
0.999947
0.999961
0.999777
0.999793
0.999803
0.999827
0.999836
0.999857
0.99987
0.999896
0.999902
0.999907
0.999916
0.999924
0.999937
0.999951
0.999995
0.999996
0.999997
0.999998
0.999998
0.999998
0.999999
0.999998
0.999998
0.999998
0.999999
0.999999
0.999999
0.999999
0.999999
0.999999
0.999999
0.999999
0.999999
0.999999
0.999999
0.999998
0.999998
0.999998
0.999999
0.999999
0.999999
0.999998
0.999918
0.999919
0.99992
0.999923
0.999927
0.999938
0.999942
0.999808
0.999812
0.99982
0.999828
0.999834
0.999847
0.999853
0.999915
0.999915
0.999916
0.999918
0.99992
0.999925
0.999933
0.999997
0.999997
0.999997
0.999997
0.999997
0.999997
0.999997
0.999999
0.999999
0.999999
0.999999
0.999999
0.999999
0.999999
1
1
1
1
1
1
1
1
1
1
1
1
1
1
1
1
1
0.999985
0.999969
0.999964
0.999962
0.999998
0.999997
0.999995
0.999992
0.99999
0.999991
0.999952
1
1
1
1
1
1
1
1
1
1
1
1
1
1
1
1
1
1
1
1
1
1
1
1
1
1
1
1
1
1
1
1
1
1
1
1
1
1
0.999982
0.99997
0.999961
0.999951
0.999996
0.999994
0.999991
0.999987
0.999982
0.999972
0.999949
1
1
1
1
0.999999
0.999999
0.999999
1
1
1
1
1
1
1
1
1
1
1
1
1
1
1
1
1
1
1
1
1
1
1
1
1
1
1
1
1
1
0.999994
0.999974
0.999963
0.999955
0.999947
0.999992
0.999989
0.999984
0.999979
0.999973
0.999961
0.999943
1
1
1
1
0.999995
0.999989
0.999986
1
1
1
0.999999
0.999999
0.999999
1
1
1
1
0.999999
0.999999
1
1
1
0.999999
0.999999
1
1
1
0.999999
1
1
1
1
1
0.999999
0.999999
0.999999
0.999988
0.999975
0.999966
0.999957
0.999954
0.999951
0.999985
0.999981
0.999975
0.999971
0.999965
0.999953
0.999934
0.999998
0.999997
0.999996
0.999993
0.99999
0.999987
0.999982
1
0.999999
0.999999
0.999999
0.999999
0.999999
0.999999
1
0.999999
0.999999
0.999999
1
1
1
1
0.999999
0.999999
0.999999
0.999999
0.999999
0.999999
1
0.999999
1
1
1
0.999999
0.999999
0.999989
0.999982
0.999977
0.999975
0.999975
0.999973
0.999965
0.999979
0.99997
0.999965
0.999955
0.999949
0.999933
0.999913
0.999996
0.999993
0.999991
0.999987
0.999984
0.999981
0.999974
0.999998
0.999998
0.999998
0.999998
0.999999
0.999999
0.999999
0.999999
0.999999
0.999999
0.999999
0.999999
0.999999
0.999999
1
0.999999
0.999999
0.999999
0.999999
0.999999
0.999999
0.999999
0.999999
0.999999
0.999999
0.999999
0.999999
0.999999
0.999989
0.999987
0.999987
0.999986
0.999983
0.999981
0.999978
0.999966
0.999954
0.999949
0.999943
0.999933
0.999915
0.999901
0.999991
0.999989
0.999986
0.999983
0.999981
0.999976
0.999974
0.999998
0.999998
0.999998
0.999998
0.999997
0.999997
0.999997
0.999999
0.999999
0.999999
0.999999
0.999999
0.999999
0.999999
1
0.999999
0.999999
0.999999
0.999999
0.999999
0.999999
0.999999
0.999999
0.999999
0.999999
0.999999
0.999999
0.999999
0.999991
0.999991
0.999991
0.999991
0.999989
0.999987
0.999985
0.999954
0.999951
0.999945
0.999935
0.999929
0.999921
0.999918
0.999987
0.999986
0.999983
0.999979
0.999978
0.999976
0.999976
0.999998
0.999998
0.999998
0.999998
0.999998
0.999998
0.999997
0.999999
0.999999
0.999999
0.999999
0.999999
0.999999
0.999999
1
1
1
1
1
1
1
1
1
1
1
1
1
1
1
1
1
1
1
1
1
0.999999
0.999998
0.999998
0.999998
0.999998
0.999998
0.999998
1
1
1
1
1
1
1
1
1
1
1
1
1
1
1
1
1
1
1
1
1
1
1
1
1
1
1
1
1
1
1
1
1
1
1
1
0.999999
0.999999
1
1
1
1
0.999999
0.999998
0.999997
0.999997
0.999997
0.999996
0.999996
1
0.999999
0.999999
1
1
1
1
1
1
1
1
1
1
1
1
1
1
1
1
1
1
1
1
1
1
1
1
1
1
1
1
1
1
1
1
1
0.999999
0.999999
0.999999
1
1
1
0.999998
0.999997
0.999997
0.999996
0.999996
0.999995
0.999994
1
0.999999
0.999999
1
1
1
1
1
1
1
1
1
1
1
1
1
1
1
1
1
1
1
1
1
1
1
1
1
1
1
1
1
1
1
1
1
0.999999
0.999999
0.999999
1
1
1
0.999998
0.999996
0.999996
0.999994
0.999993
0.999991
0.999988
1
0.999999
0.999999
1
1
1
0.999999
1
1
1
1
1
1
1
1
1
1
1
1
1
1
1
1
1
1
1
1
1
1
1
1
1
1
1
1
0.999999
0.999999
0.999999
0.999999
1
0.999999
0.999997
0.999998
0.999995
0.999993
0.999991
0.999989
0.999987
0.999983
1
0.999999
0.999999
1
0.999999
0.999999
0.999998
1
1
1
1
1
1
0.999999
1
1
1
1
1
1
1
1
1
1
1
1
1
1
1
1
1
1
1
1
0.999999
0.999999
0.999999
0.999999
1
1
0.999997
0.999992
0.999997
0.999994
0.999991
0.999988
0.999984
0.999976
0.999971
0.999999
0.999999
0.999999
1
0.999999
0.999997
0.999994
1
1
1
1
1
0.999999
0.999998
1
1
1
1
1
1
1
1
1
1
1
1
1
1
1
1
1
1
1
0.999999
0.999999
0.999999
0.999999
0.999999
0.999998
0.999996
0.999993
0.999992
0.999996
0.99999
0.999984
0.999977
0.99997
0.999964
0.99996
0.999999
0.999999
0.999999
0.999998
0.999995
0.999992
0.99999
1
1
1
1
0.999999
0.999999
0.999998
1
1
1
1
1
1
1
1
1
1
1
1
1
1
1
1
1
1
1
1
1
0.999999
0.999999
0.999999
0.999999
0.999998
0.999996
0.999997
0.999995
0.999989
0.999986
0.999984
0.999982
0.99998
0.99998
0.999999
0.999999
0.999999
0.999999
0.999998
0.999996
0.999995
1
1
1
1
1
1
0.999999
1
1
1
1
1
1
1
1
1
1
1
1
1
1
1
1
1
1
1
1
1
1
1
1
0.999999
0.999999
0.999998
0.999998
0.999995
0.999991
0.99999
0.99999
0.999989
0.999986
0.999988
1
1
1
0.999999
0.999999
0.999998
0.999997
1
1
1
1
1
1
1
1
1
1
1
1
1
1
1
1
1
1
1
1
1
1
1
1
1
1
1
1
1
1
1
1
0.999999
0.999999
0.999999
0.999996
0.999993
0.999992
0.999993
0.999991
0.999989
0.999989
1
1
1
1
0.999999
0.999998
0.999998
1
1
1
1
1
1
1
1
1
1
1
1
1
1
1
1
1
1
1
1
1
1
1
1
1
1
1
1
1
0.999999
1
1
1
0.999999
0.999999
0.999997
0.999994
0.999993
0.999994
0.999992
0.999991
0.999991
1
1
1
1
0.999999
0.999999
0.999998
1
1
1
1
1
1
1
1
1
1
1
1
1
1
1
1
1
1
1
1
1
1
1
1
1
1
1
1
1
0.999999
0.999999
1
1
0.999999
0.999999
0.999997
0.999995
0.999994
0.999994
0.999993
0.999992
0.999992
1
1
1
1
0.999999
0.999999
0.999998
1
1
1
1
1
1
1
1
1
1
1
1
1
1
1
1
1
1
1
1
1
1
1
1
1
1
1
1
1
1
1
1
1
0.999999
0.999999
0.999998
0.999996
0.999995
0.999995
0.999995
0.999993
0.999993
1
1
1
1
0.999999
0.999999
0.999999
1
1
1
1
1
1
1
1
1
1
1
1
1
1
1
1
1
1
1
1
1
1
1
1
1
1
1
1
1
1
1
1
1
1
0.999999
0.999998
0.999996
0.999996
0.999996
0.999995
0.999994
0.999994
1
1
1
1
0.999999
0.999999
0.999999
1
1
1
1
1
1
1
1
1
1
1
1
1
1
1
1
1
1
1
1
1
1
1
1
1
1
1
1
1
1
1
1
1
1
1
0.999997
0.999998
0.999998
0.999998
0.999998
0.999998
0.999999
1
1
1
1
1
1
1
1
1
1
1
1
1
1
1
1
1
1
1
1
1
1
1
1
1
1
1
1
1
1
1
1
1
1
1
1
1
0.999999
0.999999
0.999999
0.999999
1
0.999989
0.999991
0.999992
0.999993
0.999995
0.999997
0.999998
1
1
1
0.999999
0.999999
0.999999
1
1
1
1
1
1
1
1
1
1
1
1
1
1
1
1
1
1
1
1
1
1
1
1
1
1
1
1
1
0.999999
0.999999
0.999999
0.999998
0.999998
0.999998
0.999999
0.999976
0.999981
0.999983
0.999985
0.999987
0.999991
0.999996
1
1
0.999999
0.999999
0.999998
0.999999
0.999999
1
1
1
1
1
1
1
1
1
1
1
1
1
1
1
1
1
1
1
1
1
0.999999
0.999999
1
1
1
1
1
0.999999
0.999999
0.999998
0.999997
0.999997
0.999998
0.999998
0.999952
0.999962
0.999967
0.999972
0.999979
0.999984
0.999993
0.999999
1
0.999999
0.999998
0.999997
0.999998
0.999999
1
1
1
1
1
1
1
1
1
1
1
1
1
1
1
1
1
1
1
1
1
0.999999
0.999999
0.999999
1
1
1
1
0.999987
0.999996
0.999998
0.999997
0.999995
0.999996
0.999997
0.999929
0.999942
0.99995
0.999957
0.999965
0.999976
0.999988
0.999986
0.999994
0.999998
0.999998
0.999996
0.999997
0.999998
0.999999
1
1
1
1
1
1
1
1
1
1
1
1
1
1
1
1
1
1
1
1
0.999997
0.999998
0.999999
1
1
1
1
0.99997
0.99999
0.999997
0.999997
0.999993
0.999994
0.999996
0.999896
0.99991
0.999931
0.999943
0.99995
0.999964
0.999985
0.999963
0.999979
0.999993
0.999998
0.999995
0.999995
0.999997
0.999998
0.999999
1
1
1
1
1
1
1
1
1
1
1
1
1
1
1
1
1
1
1
0.999998
0.999998
0.999999
0.999999
1
1
1
0.999951
0.999962
0.999977
0.999992
0.999992
0.999991
0.999994
0.999864
0.999877
0.999891
0.999907
0.999926
0.999944
0.999973
0.999938
0.999953
0.999964
0.999984
0.999993
0.999992
0.999995
0.999998
0.999998
1
1
1
1
1
1
1
1
1
1
1
1
1
1
1
1
1
1
1
0.999999
1
1
1
1
1
1
0.999979
0.99998
0.999987
0.999994
0.999995
0.999993
0.999992
0.999929
0.999926
0.999932
0.999939
0.99994
0.999944
0.999963
0.999975
0.99997
0.999971
0.999985
0.999993
0.999994
0.999993
1
1
1
1
1
1
1
1
1
1
1
1
1
1
1
1
1
1
1
1
1
1
1
1
1
1
1
1
0.999987
0.999989
0.999993
0.999996
0.999996
0.999995
0.999994
0.999944
0.999943
0.999947
0.999953
0.999954
0.99995
0.999967
0.999987
0.999983
0.999985
0.999992
0.999995
0.999995
0.999994
1
1
1
1
1
1
1
1
1
1
1
1
1
1
1
1
1
1
1
1
1
1
1
1
1
1
1
1
0.99999
0.999991
0.999995
0.999997
0.999997
0.999996
0.999996
0.999948
0.999949
0.999957
0.999961
0.999961
0.999955
0.999969
0.999989
0.999987
0.999989
0.999994
0.999996
0.999996
0.999996
1
1
1
1
1
1
1
1
1
1
1
1
1
1
1
1
1
1
1
1
1
1
1
1
1
1
1
1
0.99999
0.999991
0.999994
0.999996
0.999997
0.999996
0.999996
0.999954
0.999954
0.99996
0.999965
0.999965
0.99996
0.999971
0.99999
0.999988
0.99999
0.999994
0.999996
0.999996
0.999996
1
1
1
1
1
1
1
1
1
1
1
1
1
1
1
1
1
1
1
1
1
1
1
1
1
1
1
1
0.99999
0.999991
0.999994
0.999997
0.999997
0.999997
0.999996
0.999957
0.999957
0.999963
0.999967
0.999967
0.999963
0.999972
0.999991
0.99999
0.999991
0.999995
0.999997
0.999996
0.999996
1
1
1
1
1
1
1
1
1
1
1
1
1
1
1
1
1
1
1
1
1
1
1
1
1
1
1
1
0.999991
0.999992
0.999995
0.999997
0.999998
0.999997
0.999997
0.999966
0.999964
0.999968
0.999971
0.999971
0.999968
0.999975
0.999993
0.999991
0.999993
0.999996
0.999997
0.999996
0.999996
1
1
1
1
1
1
1
1
1
1
1
1
1
1
1
1
1
1
1
1
1
1
1
1
1
1
1
1
0.999992
0.999993
0.999995
0.999998
0.999998
0.999998
0.999997
0.999969
0.999967
0.99997
0.999973
0.999973
0.99997
0.999976
0.999993
0.999992
0.999994
0.999996
0.999997
0.999997
0.999997
1
1
1
1
1
1
1
1
1
1
1
1
1
1
)
;

boundaryField
{
    fuel
    {
        type            fixedValue;
        value           uniform 0;
    }
    primary_air
    {
        type            fixedValue;
        value           uniform 0.77;
    }
    Secondary_air_RHS
    {
        type            fixedValue;
        value           uniform 0.77;
    }
    Secondary_air_LHS
    {
        type            fixedValue;
        value           uniform 0.77;
    }
    outlet
    {
        type            inletOutlet;
        inletValue      uniform 0;
        value           nonuniform List<scalar> 
98
(
1
1
0.999992
0.999969
0.999993
1
1
1
1
0.999993
0.999967
0.999992
1
1
1
1
0.999995
0.99997
0.999994
1
1
1
1
0.999998
0.999973
0.999996
1
1
1
1
0.999998
0.999973
0.999997
1
1
1
1
0.999998
0.99997
0.999997
1
1
1
1
0.999997
0.999976
0.999997
1
1
1
1
1
0.999998
1
1
1
1
1
1
0.999996
1
1
1
1
1
1
0.999996
1
1
1
1
1
1
0.999996
1
1
1
1
1
1
0.999995
0.999999
1
1
1
1
1
0.999994
0.999999
1
1
1
1
0.999999
0.999994
0.999999
1
1
)
;
    }
    stove_body
    {
        type            fixedValue;
        value           uniform 0;
    }
    frontAndBack
    {
        type            empty;
    }
}


// ************************************************************************* //
