/*--------------------------------*- C++ -*----------------------------------*\
  =========                 |
  \\      /  F ield         | OpenFOAM: The Open Source CFD Toolbox
   \\    /   O peration     | Website:  https://openfoam.org
    \\  /    A nd           | Version:  6
     \\/     M anipulation  |
\*---------------------------------------------------------------------------*/
FoamFile
{
    version     2.0;
    format      ascii;
    class       volScalarField;
    location    "0.015";
    object      O2;
}
// * * * * * * * * * * * * * * * * * * * * * * * * * * * * * * * * * * * * * //

dimensions      [0 0 0 0 0 0 0];

internalField   nonuniform List<scalar> 
3773
(
0
0
0
0
0
0
0
0
0
0
0
0
0
0
0
0
0
0
0
0
0
0
0
0
0
0
0
0
0
0
0
0
0
0
0
0
0
0
0
0
0
0
0
0
0
0
0
0
0
0
0
0
0
0
0
0
0
0
0
0
0
0
0
0
0
0
0
0
0
0
0
0
0
0
0
0
0
0
0
0
0
0
0
0
0
0
0
0
0
0
0
0
0
0
0
0
0
0
0
0
0
0
0
0
0
0
0
0
0
0
0
0
0
0
0
0
0
0
0
0
0
0
0
0
0
0
0
0
0
0
0
0
0
0
0
0
0
0
0
0
0
0
0
0
0
0
0
0
0
0
0
0
0
0
0
0
0
0
0
0
0
0
0
0
0
0
0
0
0
0
0
0
0
0
0
0
0
0
0
0
0
0
0
0
0
0
0
0
0
0
0
0
0
0
0
0
0
0
0
0
0
0
0
0
0
0
0
0
0
0
0
0
0
0
0
0
0
0
0
0
0
0
0
0
0
0
0
0
0
0
0
0
0
0
0
0
0
0
0
0
0
0
0
0
0
0
0
0
0
0
0
0
0
0
0
0
0
0
0
0
0
0
0
0
0
0
0
0
0
0
0
0
0
0
0
0
0
0
0
0
0
0
0
0
0
0
0
0
0
0
0
0
0
0
0
0
0
0
0
0
0
0
0
0
0
0
0
0
0
0
0
0
0
0
0
0
0
0
0
0
0
0
0
0
0
0
0
0
0
0
0
0
0
0
0
0
0
0
0
0
0
0
0
0.00172938
0.00065171
0.000539372
0.000613093
0.000894694
0.00117033
0.00246121
0.00247047
0.00160021
0.00112978
0.0012197
0.00130615
0.00146098
0.00239999
0.00388995
0.0032513
0.00305845
0.00297629
0.00288049
0.00291384
0.00312199
0.00772983
0.00778974
0.00853787
0.00826621
0.00782393
0.00711193
0.00684248
0.00424023
0.00333159
0.00329565
0.00332519
0.00337053
0.00359251
0.00448326
0.00260912
0.00160903
0.0015516
0.00152616
0.0015209
0.00193145
0.00315195
0.00240903
0.00130246
0.00104391
0.000839353
0.000773899
0.000843482
0.00135036
0.00113771
0.000188059
4.04039e-05
2.93001e-05
2.32617e-05
1.66472e-05
0.000236577
0.00163225
0.000134444
4.55187e-05
3.06605e-05
4.29652e-05
3.8503e-05
4.21718e-05
0.00277134
0.00160131
0.00110813
0.000960838
0.000938301
0.000678481
0.000593566
0.00696065
0.00712155
0.00789107
0.00734889
0.00695183
0.00623187
0.00596638
0.00194912
0.00165853
0.00145562
0.00131519
0.00132753
0.00168073
0.00325144
0.000388852
2.97441e-05
3.1083e-05
6.63084e-05
0.000230066
0.000451851
0.00106425
0.000216608
1.7269e-05
1.99953e-05
2.52853e-05
3.28686e-05
3.28306e-05
8.22958e-06
0.00115588
0.000206141
4.32737e-05
3.05958e-05
2.42718e-05
1.44372e-05
9.65565e-06
0.00141508
0.000227956
9.62417e-05
4.49186e-05
6.11217e-05
5.70172e-05
2.37243e-05
0.0022553
0.000970856
0.000823402
0.000795342
0.000896064
0.000822978
0.000821999
0.00579777
0.00618565
0.00609615
0.00617436
0.00554258
0.00555512
0.00532469
0.00109333
0.00103932
0.00095386
0.000896804
0.000770354
0.000915411
0.00190106
5.09301e-05
4.37593e-05
4.77863e-05
0.000104903
0.000195024
0.000222566
0.000194016
5.5583e-05
1.68912e-05
2.09275e-05
3.23533e-05
5.61254e-05
5.97109e-05
5.37533e-06
0.00121607
0.000207995
4.20063e-05
3.01522e-05
2.31736e-05
1.22527e-05
3.61284e-06
0.0014672
0.00059428
0.000195553
6.06343e-05
8.09232e-05
8.2669e-05
3.95649e-05
0.00200638
0.000852951
0.000765078
0.000795
0.000920529
0.00112396
0.00120181
0.00540162
0.00537373
0.00515205
0.00583376
0.00528092
0.0049764
0.00512578
0.00114724
0.00107545
0.000907054
0.000846693
0.00065333
0.000631771
0.00115376
5.03049e-05
5.58133e-05
5.20869e-05
8.2791e-05
0.00014059
0.000191374
0.000123903
1.94443e-05
2.22543e-05
2.51478e-05
3.99266e-05
7.12605e-05
7.83164e-05
8.56937e-06
0.000205478
5.07857e-05
2.59717e-05
2.37709e-05
1.62995e-05
9.64317e-06
1.02665e-06
0.0011778
0.000628133
0.000206886
8.08277e-05
8.84262e-05
0.000103382
5.88994e-05
0.00181658
0.000874197
0.000744907
0.000732231
0.000770965
0.00121341
0.00163635
0.00532673
0.00463655
0.0043056
0.00535517
0.00507474
0.00446733
0.0052544
0.00134269
0.0010235
0.000797016
0.00082132
0.000664844
0.000748507
0.00128639
0.000104106
8.11134e-05
4.88184e-05
8.10606e-05
0.000272405
0.000476126
0.000218348
1.58458e-05
2.99263e-05
2.80874e-05
4.12687e-05
7.9157e-05
8.35734e-05
1.19202e-05
1.52206e-08
2.0909e-05
2.28036e-05
2.11476e-05
1.26538e-05
9.0244e-06
4.99284e-07
0.000339462
0.000237852
0.000121263
9.19312e-05
8.92857e-05
0.000114203
6.20981e-05
0.00145024
0.000977876
0.000716557
0.000688142
0.000704343
0.00125639
0.00212853
0.00534079
0.00429393
0.00392391
0.00392551
0.00409107
0.00406843
0.00528073
0.00171854
0.00102999
0.000652101
0.000724713
0.000725322
0.000963149
0.00160752
0.000247695
0.000195121
6.79073e-05
0.000114921
0.000406364
0.000577245
0.00023693
1.72952e-05
4.26419e-05
3.06054e-05
4.29463e-05
8.5793e-05
8.54724e-05
8.4431e-06
0
1.2191e-05
2.18434e-05
1.43447e-05
9.66071e-06
9.06864e-06
0
4.89691e-08
0.000177294
0.000139693
9.25516e-05
7.85413e-05
0.000120086
4.05886e-05
0.00146734
0.00131843
0.000789292
0.000595972
0.000608727
0.00123149
0.00216093
0.00516336
0.00374106
0.00291626
0.0030945
0.00321899
0.00377157
0.00500235
0.00184684
0.00104723
0.000556038
0.000614056
0.000918624
0.00142011
0.002506
0.000359475
0.000339155
0.000127261
0.000184348
0.000407663
0.000517516
0.000172495
2.5324e-05
6.98395e-05
3.10035e-05
2.92622e-05
4.86824e-05
3.88685e-05
5.93611e-07
1.15415e-06
2.56653e-06
5.22957e-06
5.47034e-06
6.53631e-06
5.19309e-06
3.97033e-06
8.53531e-06
3.76309e-05
2.06318e-05
1.68516e-05
1.6995e-05
1.99217e-05
1.40712e-05
0.000967659
0.00146929
0.000847524
0.000515872
0.000490237
0.000396223
4.91124e-06
0.0030831
0.00322722
0.00257679
0.00256615
0.00250133
0.00256965
0.00230449
0.000517513
0.000984747
0.00065639
0.000730566
0.00124591
0.00162915
0.00139721
3.41455e-05
0.000120084
2.73943e-05
8.70928e-05
0.000205955
0.00015317
2.70733e-06
1.24882e-06
1.38148e-05
2.39253e-06
4.69901e-06
5.61383e-06
4.75279e-06
2.68533e-06
1.21383e-06
3.87583e-06
6.55252e-06
1.01086e-05
1.07377e-05
8.87922e-06
5.10225e-06
1.4631e-05
9.01303e-05
2.50145e-05
3.06624e-05
3.75499e-05
3.20681e-05
1.76367e-05
0.000641623
0.00114912
0.000698048
0.000348054
0.000384498
0.000109451
6.28229e-06
0.00244239
0.00233681
0.00189823
0.00197222
0.00187584
0.00184365
0.00171737
6.25806e-05
0.000736938
0.000560877
0.000693123
0.00105919
0.0010687
0.000568837
9.20308e-06
1.37028e-05
2.14371e-05
0.000120201
0.000213183
5.80432e-05
3.69259e-06
4.47635e-07
1.5422e-06
2.84756e-06
7.97261e-06
7.76126e-06
6.00587e-06
2.93079e-06
1.67479e-06
4.82797e-06
6.56837e-06
1.56793e-05
1.33785e-05
9.40197e-06
5.44622e-06
6.57562e-06
7.61354e-05
3.88714e-05
5.08474e-05
7.00436e-05
4.5902e-05
1.73042e-05
0.000506048
0.000842604
0.000576042
0.000384228
0.000501479
0.00041176
2.41166e-05
0.00186847
0.0018865
0.00169354
0.00140279
0.00139302
0.00156124
0.00116524
2.84818e-05
0.000601197
0.000481318
0.000610457
0.000791981
0.000265188
5.48728e-06
3.74289e-06
1.57459e-05
5.82639e-05
0.000113774
0.000177175
2.11235e-05
6.87501e-06
7.2061e-07
2.5688e-06
3.13404e-06
9.89038e-06
8.38233e-06
6.19075e-06
3.13296e-06
1.93525e-06
4.77904e-06
7.51284e-06
1.78323e-05
1.43187e-05
8.05728e-06
4.91829e-06
4.27851e-05
7.87141e-05
4.02096e-05
5.7554e-05
9.54928e-05
4.88466e-05
1.18362e-05
0.000385618
0.000704024
0.000477059
0.000372291
0.00050766
0.000379083
2.69534e-05
0.00122905
0.00163249
0.00136764
0.0011996
0.00120904
0.00114146
0.000638651
1.10691e-05
0.000401434
0.000427871
0.000465827
0.000403158
2.89699e-05
5.10517e-06
6.57728e-06
3.68188e-05
7.55884e-05
7.56957e-05
4.74901e-05
2.37263e-05
1.00869e-05
1.22002e-06
3.76804e-06
3.39037e-06
9.35877e-06
7.84622e-06
6.00383e-06
3.26824e-06
2.37382e-06
2.38019e-06
7.73474e-06
1.7099e-05
2.18792e-05
5.14742e-06
3.77029e-06
3.89113e-05
5.04927e-05
3.22426e-05
4.99895e-05
0.000107839
4.85156e-05
8.31046e-06
0.00017825
0.000517344
0.000379996
0.000286898
0.000453437
0.000250125
2.20919e-05
0.000649211
0.00137016
0.00124015
0.00108628
0.00109588
0.000661196
0.000282069
1.80078e-05
0.000263148
0.000391812
0.000306851
0.000215364
7.98535e-05
9.04567e-06
8.86852e-06
4.4589e-05
9.3705e-05
6.97086e-05
4.04446e-05
2.49541e-05
1.36272e-05
2.22769e-06
4.53821e-06
3.72442e-06
9.62911e-06
8.59206e-06
7.12148e-06
4.95449e-06
3.64089e-06
1.8748e-06
4.58111e-06
9.41859e-06
2.2944e-05
9.75044e-06
3.12798e-06
2.28671e-05
3.26456e-05
1.07326e-05
2.66925e-05
8.51063e-05
5.32207e-05
7.50119e-06
6.109e-05
0.000199694
0.000199056
0.000181393
0.000242664
0.000187532
4.73069e-05
0.000214056
0.000801089
0.000833776
0.000768159
0.000862382
0.000493915
0.000104517
5.88388e-05
0.00022055
0.000269243
0.000169587
0.000180303
0.000123277
2.34259e-05
1.94709e-05
4.94547e-05
4.75543e-05
3.19704e-05
2.65605e-05
1.98614e-05
1.24765e-05
3.13121e-06
4.0677e-06
3.70049e-06
8.30804e-06
8.44043e-06
7.00954e-06
4.87254e-06
3.78933e-06
1.78217e-06
2.2266e-06
3.95666e-06
5.21012e-06
4.51372e-06
3.25767e-06
1.13444e-05
4.93806e-06
3.37864e-06
1.04352e-05
4.04363e-05
3.47236e-05
1.21516e-05
4.73688e-05
9.81732e-05
0.000136551
9.2875e-05
0.000131499
0.000116314
5.87335e-05
0.000114894
0.000493
0.000612305
0.000540956
0.000612145
0.000449579
0.000155701
2.05129e-05
4.18248e-05
5.71943e-05
6.86655e-05
9.88789e-05
8.16861e-05
2.7455e-05
1.14674e-05
1.0556e-05
5.54554e-06
8.01214e-06
1.70905e-05
1.3263e-05
9.04222e-06
1.75222e-06
6.83731e-07
1.26348e-06
2.13328e-06
1.86972e-06
2.64032e-06
3.58037e-06
0
3.98914e-06
1.96684e-05
8.76991e-06
9.96676e-06
1.12785e-05
0
0
0.000128803
0.000240697
4.96429e-05
7.23109e-05
0.000111862
0
0.00144881
0.00135236
0.000892246
0.000640922
0.000628093
0.00122279
0.00162747
0.00491601
0.00363669
0.00289588
0.00307139
0.00318322
0.00340361
0.00441063
0.00174979
0.00109453
0.000610696
0.000665989
0.00102683
0.00194433
0.00235993
0
0.00062131
0.000184808
0.000154601
0.000304905
0.000344439
0
0
0.00017708
2.97993e-05
7.76323e-06
2.42352e-05
2.30459e-05
0
0
3.03173e-06
1.36717e-05
7.20098e-06
7.98245e-06
6.04174e-06
0
0
8.30511e-05
0.000160035
3.5023e-05
5.85464e-05
6.69954e-05
0
0.00142756
0.00137278
0.000895472
0.000655729
0.000635369
0.00120583
0.000768427
0.00483832
0.00363539
0.00287659
0.00305622
0.00314448
0.00338419
0.00428933
0.00171085
0.00110679
0.00063216
0.000676015
0.00103609
0.00196644
0.0023198
0
0.000635558
0.000150244
0.000124673
0.0002725
0.000293897
0
0
6.93788e-05
2.34743e-05
5.78475e-06
1.9649e-05
1.70492e-05
0
0
3.08742e-06
1.21268e-05
6.86157e-06
7.23253e-06
5.28177e-06
0
0
7.59568e-05
0.00014405
3.23867e-05
5.22253e-05
5.2058e-05
0
0.00137395
0.00137288
0.000902067
0.000649028
0.000649015
0.00116926
0
0.00470793
0.00363179
0.00283943
0.00301976
0.00309915
0.00333946
0.00404198
0.00164424
0.00113255
0.000632054
0.000694488
0.00106461
0.00200738
0.00223749
0
0.000587062
0.000137024
0.000116147
0.000263003
0.000275713
0
0
3.29034e-05
2.12835e-05
5.17046e-06
1.78037e-05
1.51442e-05
0
0
3.18792e-06
1.02542e-05
6.80386e-06
6.99736e-06
5.36294e-06
0
0
8.1481e-05
0.000143736
3.34016e-05
4.40471e-05
4.2942e-05
0
0.00133439
0.00138759
0.000908389
0.00064009
0.000661313
0.00110022
0
0.00457635
0.00362051
0.002804
0.00299394
0.00305353
0.00324862
0.00386775
0.00151282
0.00113391
0.000635407
0.000695494
0.00107876
0.00204227
0.00217769
0
0.000446011
0.000139333
0.000111163
0.000259494
0.00026636
0
0
2.9671e-05
2.01361e-05
5.31539e-06
1.58145e-05
1.42821e-05
0
0
3.27491e-06
9.39441e-06
6.77347e-06
6.97931e-06
5.42234e-06
0
0
8.41798e-05
0.000132994
3.34985e-05
3.46072e-05
3.28781e-05
0
0.00125642
0.00143406
0.000909936
0.000636563
0.000675504
0.0010514
0
0.00445277
0.00359277
0.00277024
0.00295161
0.00299047
0.00318575
0.00369084
0.00138117
0.00113291
0.000640275
0.000705297
0.00111029
0.00205601
0.00205672
0
0.000329297
0.000137981
0.000109504
0.000253405
0.000257566
0
0
4.44811e-05
1.43435e-05
5.38444e-06
1.45318e-05
1.41709e-05
0
0
2.82133e-06
6.88713e-06
5.81161e-06
7.0744e-06
5.51708e-06
0
0
8.04928e-05
8.33419e-05
2.8884e-05
2.44001e-05
1.75374e-05
0
0.00120006
0.00145139
0.000910276
0.000633449
0.000678779
0.000964529
0
0.00427967
0.00356382
0.00273239
0.00293245
0.00295679
0.00312642
0.00347731
0.00133061
0.00113389
0.000643709
0.000736004
0.00112854
0.00205687
0.00198992
0
0.000323904
8.78775e-05
0.000107699
0.000250365
0.000235293
0
0
5.32169e-05
5.7737e-06
5.45094e-06
1.00343e-05
1.00871e-05
0
0
2.13098e-06
5.79813e-06
5.51867e-06
6.67236e-06
5.14192e-06
0
0
5.4641e-05
3.77694e-05
1.68446e-05
1.57619e-05
6.43616e-06
0
0.00109026
0.00146853
0.000919831
0.000633042
0.000687969
0.000865232
0
0.00411637
0.00355874
0.00271793
0.00287851
0.0029187
0.00310591
0.00324063
0.00117756
0.0011451
0.000660814
0.000772767
0.0011702
0.00205383
0.00183916
0
0.000395897
5.70073e-05
9.39322e-05
0.000226241
0.00020217
0
0
0.000116171
2.52538e-06
4.28242e-06
7.18595e-06
6.78707e-06
0
5.93728e-08
4.86406e-07
1.21962e-06
1.18836e-06
8.49695e-07
7.14682e-07
1.33268e-07
2.45304e-07
5.97925e-07
4.26734e-06
7.60622e-06
8.64878e-06
7.73289e-06
2.66448e-06
5.29892e-05
0.000114539
0.000160958
0.000116037
0.000200893
0.000155461
9.03549e-05
7.62799e-05
0.000385525
0.000515368
0.000474956
0.000471215
0.000399153
0.000158882
3.60506e-07
1.41072e-05
3.28435e-05
2.93118e-05
7.47615e-05
0.000132064
4.12147e-05
2.75986e-08
3.45609e-07
1.3574e-06
4.26365e-06
4.88057e-06
2.89277e-06
4.72014e-07
5.4368e-08
3.2738e-07
4.22282e-07
3.70233e-07
1.53205e-07
9.46966e-08
3.80317e-08
3.07955e-07
1.18889e-06
1.23669e-06
1.23924e-06
1.1148e-06
6.95215e-07
3.44419e-07
2.54602e-07
1.59393e-06
5.57461e-06
5.9431e-06
6.61448e-06
6.56325e-06
3.24531e-06
5.97893e-05
0.000101214
0.000119055
0.000120193
0.000103822
0.000116794
9.69521e-05
7.89995e-05
0.000339402
0.000487741
0.000454047
0.000450008
0.00038015
0.000174563
1.75665e-06
4.0915e-05
3.47746e-05
6.62471e-05
6.51451e-05
0.000110873
6.25382e-05
1.55393e-07
1.4675e-06
3.02065e-06
3.4232e-06
3.48831e-06
2.55329e-06
7.08824e-07
2.1574e-07
4.96827e-07
4.78952e-07
4.75479e-07
3.25167e-07
2.14066e-07
1.4525e-07
7.2108e-07
1.8287e-06
2.68811e-06
2.69809e-06
2.16364e-06
1.6718e-06
7.51119e-07
2.06239e-07
1.79304e-06
7.07341e-06
8.15128e-06
8.54269e-06
8.60224e-06
6.28623e-06
5.89434e-05
9.93269e-05
0.000133247
0.000139903
0.000119531
0.000131403
0.000111014
8.06584e-05
0.000331363
0.000448359
0.000426155
0.000424417
0.000371143
0.000206306
2.63296e-05
5.24242e-05
6.10398e-05
0.000114593
7.51937e-05
8.75548e-05
6.6049e-05
3.6678e-07
2.38029e-06
3.95892e-06
4.17579e-06
4.48132e-06
3.79868e-06
1.90788e-06
5.12543e-07
8.05992e-07
1.15708e-06
1.23153e-06
9.64941e-07
6.69316e-07
5.41072e-07
9.69193e-07
2.02406e-06
2.69447e-06
2.58366e-06
2.37979e-06
1.79176e-06
1.62485e-06
3.34549e-07
1.92341e-06
6.09139e-06
6.37492e-06
6.87816e-06
7.20711e-06
7.3124e-06
5.44143e-05
7.73682e-05
9.58488e-05
0.000102443
0.000121814
0.000119833
9.77763e-05
9.02531e-05
0.000316391
0.000381711
0.000378396
0.000393194
0.000350632
0.0002429
2.88904e-05
5.86899e-05
6.94954e-05
0.000117082
8.89669e-05
8.58462e-05
7.21162e-05
1.55886e-06
3.79601e-06
5.0656e-06
5.74168e-06
4.72398e-06
3.75157e-06
3.30181e-06
5.98152e-07
9.26331e-07
1.15154e-06
1.16807e-06
9.99169e-07
8.41713e-07
8.57951e-07
1.28997e-06
1.99198e-06
2.37694e-06
1.9984e-06
2.0187e-06
1.64005e-06
1.50214e-06
4.8918e-07
2.1666e-06
4.91985e-06
4.36046e-06
4.81565e-06
5.45914e-06
5.85074e-06
4.10329e-05
6.06723e-05
5.77413e-05
6.5341e-05
9.66713e-05
0.000103144
9.7514e-05
0.000113098
0.000278788
0.000325021
0.000325542
0.000358999
0.000334016
0.0002475
3.24777e-05
4.28e-05
5.16628e-05
7.54266e-05
0.000109244
0.00010629
9.67071e-05
2.389e-06
4.20109e-06
5.23334e-06
6.11891e-06
6.36849e-06
5.84273e-06
7.07378e-06
7.84297e-07
9.58602e-07
1.16758e-06
1.33639e-06
1.44759e-06
1.4974e-06
1.65963e-06
1.37191e-06
1.90634e-06
2.07869e-06
1.83078e-06
1.62635e-06
1.42506e-06
1.45759e-06
8.36362e-07
1.90613e-06
4.024e-06
3.28327e-06
2.77143e-06
2.18909e-06
2.79878e-06
3.4164e-05
4.35204e-05
2.17355e-05
2.74121e-05
5.60201e-05
7.72226e-05
8.75662e-05
0.000112126
0.000176383
0.000211326
0.000216325
0.00029511
0.00029048
0.000243338
3.05476e-05
2.19261e-05
2.00764e-05
3.47289e-05
8.31732e-05
0.000106872
0.000107348
2.95577e-06
3.85688e-06
4.69382e-06
4.87573e-06
5.64331e-06
5.85944e-06
4.86408e-06
8.28507e-07
9.51554e-07
1.14548e-06
1.24371e-06
1.31997e-06
1.38751e-06
1.46745e-06
1.43704e-06
1.72469e-06
1.73901e-06
1.6771e-06
1.58682e-06
1.45855e-06
1.38704e-06
1.03721e-06
1.5513e-06
2.30317e-06
2.17899e-06
2.08239e-06
1.8039e-06
1.69783e-06
1.56196e-05
1.7122e-05
5.53188e-06
1.10014e-05
3.39362e-05
4.96878e-05
6.94794e-05
8.39399e-05
7.55417e-05
9.74246e-05
9.85427e-05
0.000181873
0.000180212
0.000195854
1.91378e-05
4.01385e-06
3.41392e-06
1.0922e-05
3.92098e-05
5.54583e-05
8.31527e-05
2.65188e-06
3.22592e-06
2.91475e-06
2.3785e-06
2.48512e-06
3.17875e-06
3.28206e-06
8.31685e-07
9.87969e-07
1.06076e-06
1.10714e-06
1.0929e-06
1.14907e-06
1.14658e-06
3.90943e-08
1.85352e-08
1.5407e-08
1.37669e-08
1.32636e-08
1.26233e-08
5.91557e-09
1.51565e-06
9.28878e-07
2.51594e-07
5.74263e-09
5.03309e-09
2.9731e-09
2.43399e-09
7.44496e-05
6.21741e-05
2.33683e-05
8.48314e-08
1.086e-07
1.30889e-07
1.98035e-07
0.000127015
7.961e-05
3.69254e-05
1.40076e-05
5.15867e-06
3.92887e-06
3.14238e-06
3.28087e-05
2.51085e-05
5.80326e-07
3.328e-08
3.51055e-08
4.72619e-08
5.90636e-08
1.31131e-07
1.27492e-08
1.22668e-08
5.77717e-09
4.53159e-09
2.05266e-09
9.75054e-10
2.4e-08
2.27145e-08
2.30648e-08
2.00601e-08
1.23983e-08
5.88496e-09
3.16697e-09
1.65733e-07
1.13222e-07
1.06827e-07
9.43543e-08
8.59793e-08
8.01648e-08
4.42041e-08
2.49011e-06
2.09869e-06
9.06358e-07
3.98551e-07
2.80339e-08
2.76133e-08
2.66004e-08
7.44379e-05
6.67881e-05
4.99696e-05
1.52215e-05
1.33429e-07
1.71962e-07
2.54591e-07
0.000132488
9.6697e-05
6.2277e-05
3.70566e-05
2.21122e-05
1.31911e-05
1.11921e-05
3.91673e-05
3.02628e-05
1.82163e-05
3.69091e-06
5.10661e-08
6.53445e-08
8.16963e-08
3.23684e-07
1.61495e-07
1.07959e-07
5.15884e-08
2.76023e-08
2.26716e-08
1.23041e-08
1.44226e-07
1.50771e-07
1.54334e-07
1.28452e-07
6.37594e-08
3.46938e-08
2.04553e-08
5.83787e-07
4.99306e-07
4.31982e-07
3.75678e-07
3.51915e-07
3.20895e-07
1.94379e-07
4.66618e-06
3.74709e-06
2.41231e-06
1.80434e-06
6.16626e-07
1.74343e-07
1.89122e-07
9.71128e-05
8.13814e-05
7.30685e-05
5.9043e-05
2.24442e-05
2.68755e-07
3.83654e-07
0.000153469
0.000115467
9.99742e-05
7.73926e-05
5.86257e-05
4.34746e-05
3.2569e-05
5.78416e-05
4.97909e-05
3.98203e-05
2.9043e-05
1.23055e-05
1.66778e-06
1.47169e-07
1.27667e-06
9.10542e-07
8.03494e-07
6.66971e-07
1.54107e-07
1.06954e-07
1.02814e-07
5.38851e-07
5.75671e-07
5.97349e-07
5.64947e-07
4.04095e-07
1.57583e-07
7.87813e-08
1.9052e-06
1.39807e-06
1.16362e-06
8.07939e-07
6.4402e-07
6.76515e-07
3.76631e-07
7.87668e-06
5.67178e-06
4.83881e-06
3.05019e-06
1.96386e-06
8.71183e-07
6.72429e-07
9.12213e-05
8.35293e-05
7.95901e-05
6.74233e-05
5.54785e-05
3.51114e-05
6.7175e-06
0.000174892
0.000147946
0.000120108
9.67913e-05
8.09811e-05
6.85251e-05
5.55552e-05
5.91684e-05
5.14661e-05
4.48436e-05
4.09533e-05
2.98252e-05
1.81032e-05
6.12687e-06
2.13236e-06
1.47107e-06
1.31987e-06
1.0458e-06
6.29211e-07
4.78677e-07
4.47277e-07
9.63314e-07
9.9155e-07
1.03659e-06
9.99379e-07
8.81925e-07
5.50447e-07
1.8837e-07
1.67154e-06
1.52025e-06
1.25776e-06
1.12899e-06
9.3332e-07
9.20407e-07
6.71473e-07
5.29093e-06
3.99147e-06
3.58591e-06
3.31074e-06
3.8121e-06
2.48852e-06
1.4466e-06
8.8834e-05
7.47083e-05
6.51661e-05
6.32484e-05
5.48432e-05
4.6159e-05
3.1369e-05
0.000210361
0.00019307
0.000156205
0.000129647
0.000119666
9.9163e-05
7.95601e-05
7.40102e-05
6.81759e-05
6.38332e-05
5.47198e-05
4.75693e-05
4.17073e-05
2.44381e-05
5.95903e-06
3.43446e-06
3.10832e-06
1.95509e-06
1.25034e-06
1.30533e-06
1.33545e-06
1.9919e-06
1.47485e-06
1.60083e-06
1.39989e-06
1.27783e-06
9.16397e-07
6.13701e-07
1.55805e-06
1.50079e-06
1.40821e-06
1.30122e-06
1.16862e-06
1.08068e-06
9.23756e-07
2.78936e-06
2.07972e-06
1.88501e-06
2.30147e-06
2.5622e-06
1.89649e-06
2.16368e-06
9.27977e-05
9.06869e-05
8.16416e-05
7.67175e-05
6.11126e-05
5.25802e-05
3.85e-05
0.000223007
0.000206705
0.000197475
0.000172875
0.000163738
0.000142621
0.000130076
0.000103919
9.76415e-05
9.2675e-05
8.35212e-05
7.63976e-05
6.26282e-05
4.9023e-05
4.58436e-06
3.85888e-06
3.23206e-06
2.28317e-06
1.6861e-06
1.54789e-06
1.43695e-06
1.67658e-06
1.67646e-06
1.56127e-06
1.47911e-06
1.3476e-06
1.14813e-06
8.0216e-07
1.35785e-06
1.3373e-06
1.28299e-06
1.25243e-06
1.19171e-06
1.13432e-06
9.72206e-07
1.67356e-06
1.62484e-06
1.53611e-06
1.49106e-06
1.47361e-06
1.39187e-06
1.73662e-06
8.15286e-05
8.14385e-05
7.98417e-05
7.67983e-05
7.25197e-05
6.20428e-05
5.80614e-05
0.000191903
0.000187956
0.000179848
0.000172088
0.000165523
0.000152647
0.000147141
8.4693e-05
8.52889e-05
8.4405e-05
8.19312e-05
7.99252e-05
7.45241e-05
6.7196e-05
3.2948e-06
3.30705e-06
3.28143e-06
3.19902e-06
3.03887e-06
2.93728e-06
2.77289e-06
1.12763e-06
1.23811e-06
1.31164e-06
1.28865e-06
1.22978e-06
1.19198e-06
9.0169e-07
6.18811e-09
1.64331e-08
1.82241e-08
2.25384e-08
2.32129e-08
2.25854e-08
2.44311e-08
2.13914e-09
3.96257e-09
4.78116e-09
5.65289e-09
5.58567e-09
5.34589e-09
2.64966e-07
7.43537e-08
3.20453e-08
3.48974e-08
1.49093e-05
3.07148e-05
3.55042e-05
3.83797e-05
2.29787e-06
2.72025e-06
5.37288e-06
8.37836e-06
1.02933e-05
9.05759e-06
4.83413e-05
4.27795e-08
2.7354e-08
1.75773e-08
1.46031e-08
3.9217e-08
7.28649e-08
8.98567e-08
2.72376e-09
3.60532e-09
5.42003e-09
9.52034e-09
1.25098e-08
1.32874e-08
1.40518e-08
6.45902e-09
8.07147e-09
1.1668e-08
1.94948e-08
2.37937e-08
2.41158e-08
2.42128e-08
3.4315e-08
8.83095e-08
1.12745e-07
1.63855e-07
1.81236e-07
1.79721e-07
1.69729e-07
1.74653e-08
2.78696e-08
3.54423e-08
4.13438e-08
4.30542e-08
4.19975e-08
2.94432e-07
6.7215e-08
3.40427e-08
9.80871e-08
1.81646e-05
2.97067e-05
3.86824e-05
4.91452e-05
4.17791e-06
6.28352e-06
9.02041e-06
1.29192e-05
1.75701e-05
2.81586e-05
5.10825e-05
4.67402e-08
3.016e-08
2.82014e-08
4.14121e-08
5.78868e-07
1.05422e-06
1.30263e-06
1.3053e-08
1.94226e-08
5.5736e-08
8.93693e-08
1.15729e-07
1.27639e-07
1.41113e-07
2.82245e-08
4.64101e-08
1.31818e-07
1.70795e-07
1.94032e-07
1.92619e-07
1.74638e-07
1.06216e-07
2.6572e-07
4.5829e-07
4.54764e-07
4.34345e-07
4.17616e-07
3.20972e-07
1.23485e-07
1.44246e-07
1.87395e-07
2.00512e-07
1.94168e-07
1.77e-07
1.77694e-07
7.86759e-08
5.00654e-08
5.72009e-06
2.60006e-05
3.73471e-05
4.46057e-05
5.33999e-05
7.97048e-06
1.0625e-05
1.61242e-05
2.10795e-05
2.74586e-05
3.85183e-05
5.70276e-05
5.63208e-08
5.12328e-08
1.07017e-07
2.31885e-07
5.46094e-06
1.12551e-05
1.40804e-05
7.71974e-08
1.5309e-07
3.9158e-07
5.33335e-07
5.89101e-07
5.86861e-07
4.91487e-07
9.6841e-08
2.84728e-07
4.93211e-07
5.07223e-07
5.16503e-07
4.88792e-07
3.97077e-07
2.71062e-07
6.3402e-07
6.24013e-07
4.83224e-07
4.05628e-07
4.76985e-07
5.766e-07
2.79225e-07
3.74362e-07
3.97731e-07
3.90161e-07
3.95841e-07
7.1981e-07
5.63324e-07
1.47331e-06
1.18461e-05
2.50109e-05
3.36381e-05
4.30905e-05
4.62576e-05
4.85841e-05
1.51492e-05
1.91864e-05
2.47172e-05
2.88054e-05
3.52096e-05
4.66994e-05
6.62995e-05
2.11754e-06
2.96619e-06
4.06462e-06
7.03268e-06
1.02833e-05
1.31171e-05
1.82239e-05
2.26417e-07
8.81085e-07
1.27536e-06
9.1473e-07
7.89573e-07
8.21163e-07
8.68262e-07
3.64043e-07
6.928e-07
6.73264e-07
5.23135e-07
4.81619e-07
4.77669e-07
4.79614e-07
3.99447e-07
7.6921e-07
7.34284e-07
6.94532e-07
7.30265e-07
7.83595e-07
9.61338e-07
4.30269e-07
5.10976e-07
4.65078e-07
4.58295e-07
4.78276e-07
5.44282e-07
5.20321e-07
1.12772e-05
1.8479e-05
2.31398e-05
2.48937e-05
2.48346e-05
2.6741e-05
3.53664e-05
2.11648e-05
3.04543e-05
3.47873e-05
4.49814e-05
5.08794e-05
6.68323e-05
8.66039e-05
3.55893e-06
7.08141e-06
9.27875e-06
1.33675e-05
1.64241e-05
1.9172e-05
2.63255e-05
1.52969e-06
1.86663e-06
1.88752e-06
1.61186e-06
1.31313e-06
1.27343e-06
1.35122e-06
5.88783e-07
8.14652e-07
7.29166e-07
5.96244e-07
5.51134e-07
5.4125e-07
6.10156e-07
4.89856e-07
9.60767e-07
1.00221e-06
1.03446e-06
1.0521e-06
1.10868e-06
1.2751e-06
5.68028e-07
5.83501e-07
5.79926e-07
6.0195e-07
6.26851e-07
6.86428e-07
7.1882e-07
1.1055e-05
1.3357e-05
1.32518e-05
1.37284e-05
1.67756e-05
1.89647e-05
2.18646e-05
3.41975e-05
4.63853e-05
5.09098e-05
5.71584e-05
6.74689e-05
8.46655e-05
9.94923e-05
9.4676e-06
1.13408e-05
1.37104e-05
1.69459e-05
1.87805e-05
2.40171e-05
2.61064e-05
1.8152e-06
2.14861e-06
2.38878e-06
2.44123e-06
2.59186e-06
2.65711e-06
2.72702e-06
7.71055e-07
8.54432e-07
8.04423e-07
7.34138e-07
7.10604e-07
7.03677e-07
7.26459e-07
4.99669e-07
1.0099e-06
1.11431e-06
1.16162e-06
1.20438e-06
1.25434e-06
1.32968e-06
7.56433e-07
7.88885e-07
8.18584e-07
8.59428e-07
8.98048e-07
9.74742e-07
1.00454e-06
8.62972e-06
8.61949e-06
8.96002e-06
9.47159e-06
1.10687e-05
1.32788e-05
1.46036e-05
4.5756e-05
4.8922e-05
5.49835e-05
6.5193e-05
7.10847e-05
7.88042e-05
8.24018e-05
1.26006e-05
1.37211e-05
1.67647e-05
2.06825e-05
2.20539e-05
2.35776e-05
2.4158e-05
1.61787e-06
1.7242e-06
2.0527e-06
2.16824e-06
2.2614e-06
2.45474e-06
2.5193e-06
7.90649e-07
8.24236e-07
8.84121e-07
8.29306e-07
8.15103e-07
7.9854e-07
8.02619e-07
6.97554e-12
6.77322e-12
1.23518e-11
1.96797e-11
3.60991e-11
1.00637e-10
3.23131e-10
2.05179e-11
1.02504e-10
2.61597e-10
3.46621e-10
7.51643e-10
9.64865e-10
1.54978e-09
3.24341e-07
4.32021e-07
4.14435e-07
3.38383e-07
1.99548e-07
1.49824e-07
1.00753e-07
1.17711e-06
1.54647e-06
1.68642e-06
1.79312e-06
1.85851e-06
2.00914e-06
2.0684e-06
3.47849e-07
4.53637e-07
3.9493e-07
2.78621e-07
2.00535e-07
1.12123e-07
7.1828e-08
2.58225e-11
4.50597e-11
7.24427e-11
1.03498e-10
2.22257e-10
5.26126e-10
1.23891e-09
2.6195e-11
3.64156e-11
1.07946e-10
2.34135e-10
6.30608e-10
9.75185e-10
2.32339e-09
5.76297e-12
6.27763e-12
1.84033e-11
4.3114e-11
1.08255e-10
6.1503e-10
2.36518e-09
3.43993e-11
3.80466e-10
1.55176e-09
3.80568e-09
5.18393e-09
6.98465e-09
1.09586e-08
3.57305e-07
5.61211e-07
5.66764e-07
3.85139e-07
2.50918e-07
1.60887e-07
1.11453e-07
1.39404e-06
2.33819e-06
2.89419e-06
3.10256e-06
3.22681e-06
3.55873e-06
3.73278e-06
3.69054e-07
5.36819e-07
5.2896e-07
3.73048e-07
1.9963e-07
1.20056e-07
7.11585e-08
2.16197e-11
9.01201e-11
1.35122e-10
2.88851e-10
1.13446e-09
4.41575e-09
9.70636e-09
2.49067e-11
4.57936e-11
2.03261e-10
7.5896e-10
2.32763e-09
3.97596e-09
9.36806e-09
2.68937e-12
6.02579e-12
2.41089e-11
7.36621e-11
2.11476e-10
1.40015e-09
8.19342e-09
1.24283e-10
6.2953e-10
4.30579e-09
1.64048e-08
3.332e-08
5.0948e-08
9.85929e-08
3.93209e-07
6.1737e-07
6.72011e-07
5.48314e-07
2.77535e-07
1.76222e-07
1.11718e-07
1.65529e-06
2.88124e-06
3.39865e-06
3.61508e-06
3.99842e-06
4.98612e-06
6.29428e-06
4.0546e-07
6.44663e-07
6.30187e-07
4.08439e-07
2.24345e-07
1.15415e-07
9.36419e-08
1.49869e-11
1.4488e-10
2.55634e-10
9.74274e-10
6.43961e-09
2.4959e-08
5.50732e-08
1.51278e-11
5.68321e-11
2.88011e-10
1.57e-09
4.44722e-09
9.25964e-09
3.21818e-08
2.62686e-12
6.88154e-12
2.7707e-11
8.36578e-11
2.57829e-10
2.97096e-09
1.0719e-08
2.39623e-10
2.52929e-09
2.21443e-08
5.75938e-08
1.0715e-07
1.7718e-07
2.48116e-07
4.22943e-07
6.66336e-07
7.04593e-07
5.57499e-07
3.12049e-07
1.81387e-07
1.11443e-07
1.78616e-06
3.66794e-06
4.43917e-06
5.52412e-06
7.38443e-06
9.45314e-06
1.24713e-05
4.18873e-07
6.74482e-07
8.5718e-07
4.57159e-07
2.57174e-07
1.35402e-07
7.34344e-07
6.83551e-11
2.50753e-10
4.16374e-10
2.41783e-09
1.81788e-08
1.41364e-07
2.52714e-07
2.53535e-11
8.05337e-11
4.76424e-10
2.13314e-09
5.43671e-09
1.45879e-08
4.25408e-08
2.65138e-12
7.05194e-12
3.01339e-11
9.03214e-11
3.1101e-10
4.06194e-09
1.21548e-08
3.10133e-10
6.48652e-09
4.74368e-08
1.28156e-07
2.481e-07
3.14369e-07
4.1086e-07
5.2751e-07
8.37646e-07
8.0226e-07
5.03491e-07
2.99746e-07
5.6684e-07
2.61072e-06
2.42132e-06
4.89024e-06
6.87131e-06
9.40128e-06
1.14055e-05
1.33181e-05
1.65738e-05
4.75371e-07
7.83588e-07
8.95502e-07
3.94746e-07
5.27947e-07
1.02464e-06
2.37039e-06
1.45786e-10
4.38799e-10
7.3262e-10
1.03245e-08
1.21315e-07
4.43794e-07
5.80756e-07
3.16279e-11
9.2787e-11
5.58612e-10
2.52005e-09
6.57762e-09
1.64294e-08
6.33448e-08
2.64602e-12
7.07756e-12
3.10709e-11
9.25867e-11
3.35477e-10
4.70864e-09
1.27737e-08
3.99663e-10
9.55622e-09
8.95261e-08
1.58234e-07
3.37054e-07
4.54143e-07
5.21239e-07
6.7566e-07
9.3299e-07
8.61348e-07
4.9447e-07
4.81651e-07
2.87777e-06
7.58031e-06
2.6156e-06
5.63891e-06
8.52022e-06
1.17578e-05
1.56343e-05
2.40406e-05
2.932e-05
5.53775e-07
8.70853e-07
8.93443e-07
4.22412e-07
8.00424e-07
2.86206e-06
5.51676e-06
1.90665e-10
6.1381e-10
1.20898e-09
2.98732e-08
4.30777e-07
1.04017e-06
1.58494e-06
3.48379e-11
1.05559e-10
6.53232e-10
2.70379e-09
7.10015e-09
1.77922e-08
8.35998e-08
2.23971e-12
6.74915e-12
3.14062e-11
9.28137e-11
3.49848e-10
4.78888e-09
1.30104e-08
4.51519e-10
6.35573e-09
9.02941e-08
1.28633e-07
4.17097e-07
5.81592e-07
6.65752e-07
7.20793e-07
1.15554e-06
9.98224e-07
1.62242e-06
3.54381e-06
6.72366e-06
8.11421e-06
4.00777e-06
1.01148e-05
1.60479e-05
2.33123e-05
3.01924e-05
3.58747e-05
3.9674e-05
6.46021e-07
1.1246e-06
1.13092e-06
2.14103e-06
4.57507e-06
7.84887e-06
1.02096e-05
2.41479e-10
7.97424e-10
2.59742e-09
5.36695e-08
6.63936e-07
1.20529e-06
1.51506e-06
3.66198e-11
1.09512e-10
6.97868e-10
2.77426e-09
7.36208e-09
1.81366e-08
9.74162e-08
5.52025e-13
6.27275e-12
1.69289e-11
9.08762e-11
2.36337e-10
8.4196e-10
1.32217e-08
5.08839e-11
1.17415e-09
5.76065e-09
6.9763e-09
3.39582e-08
3.73008e-08
6.35159e-08
7.39649e-07
6.95496e-07
6.63576e-07
1.07391e-06
2.31738e-06
3.92626e-06
2.6011e-06
5.41067e-06
1.14408e-05
1.36315e-05
1.62733e-05
1.84877e-05
1.98386e-05
2.03825e-05
7.76608e-07
7.00419e-07
7.25882e-07
1.16661e-06
2.49459e-06
4.23706e-06
4.62851e-06
3.81586e-10
1.45206e-09
1.94078e-09
1.15396e-08
1.25662e-07
2.96366e-07
7.71133e-07
1.52813e-11
1.12655e-10
3.97522e-10
2.82804e-09
5.44588e-09
1.8327e-08
2.6367e-08
5.75852e-13
2.82786e-12
1.14172e-11
9.83588e-13
3.11532e-13
8.86215e-13
6.59564e-13
9.23898e-12
3.14842e-11
7.84689e-11
1.41007e-11
1.92558e-11
1.16628e-10
3.47206e-11
4.7313e-07
4.04903e-07
4.43462e-07
5.31941e-07
9.88581e-07
1.59399e-06
1.59249e-06
4.58023e-06
9.46493e-06
9.68779e-06
1.00946e-05
1.14933e-05
1.38845e-05
1.21404e-05
4.68678e-07
3.66464e-07
4.19157e-07
5.74296e-07
9.75428e-07
1.94238e-06