/*--------------------------------*- C++ -*----------------------------------*\
  =========                 |
  \\      /  F ield         | OpenFOAM: The Open Source CFD Toolbox
   \\    /   O peration     | Website:  https://openfoam.org
    \\  /    A nd           | Version:  6
     \\/     M anipulation  |
\*---------------------------------------------------------------------------*/
FoamFile
{
    version     2.0;
    format      ascii;
    class       volScalarField;
    location    "0.015";
    object      p;
}
// * * * * * * * * * * * * * * * * * * * * * * * * * * * * * * * * * * * * * //

dimensions      [1 -1 -2 0 0 0 0];

internalField   nonuniform List<scalar> 
3773
(
42805.3
42805.5
42805.4
42805.2
42805.3
42805.4
42805.4
103308
103308
103308
103308
103308
103308
103308
139541
139541
139540
139540
139540
139541
139541
151552
151553
151554
151554
151554
151553
151553
139541
139541
139540
139540
139540
139541
139541
103307
103307
103307
103307
103307
103307
103307
42804.6
42804.7
42804.5
42804.5
42804.7
42804.9
42804.6
42803.6
42803.7
42803.6
42803.3
42803.5
42803.6
42803.6
103310
103310
103310
103310
103310
103310
103310
139542
139542
139542
139541
139542
139542
139542
151551
151552
151552
151553
151552
151551
151551
139542
139542
139541
139541
139542
139542
139543
103309
103309
103309
103309
103309
103309
103309
42802.8
42802.9
42802.7
42802.6
42802.8
42803.1
42802.9
42801.2
42801.1
42800.9
42800.7
42801
42801.2
42801.3
103313
103314
103314
103313
103313
103313
103313
139545
139544
139544
139544
139544
139544
139545
151548
151549
151550
151550
151550
151549
151549
139544
139544
139544
139543
139544
139544
139545
103313
103312
103312
103312
103312
103313
103312
42800.3
42800.4
42800.2
42800
42800.2
42800.5
42800.5
42798.3
42798.3
42797.9
42797.7
42797.9
42798.2
42798.2
103318
103318
103318
103318
103318
103318
103318
139547
139547
139546
139546
139546
139547
139547
151545
151546
151547
151547
151547
151546
151546
139547
139547
139546
139546
139546
139547
139547
103317
103317
103317
103317
103317
103317
103317
42797.2
42797.3
42797.1
42796.8
42797
42797.3
42797.4
42794.3
42794.3
42793.9
42793.6
42793.8
42794.1
42794.2
103323
103323
103323
103323
103323
103323
103323
139549
139548
139548
139548
139548
139549
139549
151542
151543
151544
151544
151543
151543
151543
139548
139548
139548
139548
139548
139548
139548
103322
103321
103322
103322
103322
103322
103322
42793.1
42793.2
42793
42792.7
42792.7
42793.1
42793.4
42790
42790.2
42789.8
42789.4
42789.6
42789.9
42789.8
103327
103327
103327
103327
103327
103327
103327
139550
139549
139549
139549
139549
139549
139549
151540
151540
151541
151541
151541
151540
151540
139549
139549
139548
139548
139549
139549
139549
103326
103326
103326
103326
103326
103326
103326
42788.4
42788.8
42788.7
42788.3
42788.4
42788.7
42788.8
42787.2
42787.5
42787.2
42786.8
42786.9
42787.1
42786.9
103329
103329
103329
103330
103329
103329
103330
139550
139550
139549
139549
139549
139550
139550
151538
151539
151540
151540
151539
151539
151539
139549
139549
139549
139549
139549
139549
139549
103328
103328
103328
103329
103328
103328
103328
42785.3
42785.9
42785.9
42785.6
42785.6
42785.9
42785.8
63557.1
63756.7
63839.7
63681.3
63444.9
63329.7
63328.1
150201
150176
150229
150202
150201
150199
150190
201059
200898
200816
200771
200783
200817
200857
217695
217605
217546
217504
217497
217535
217592
200709
200665
200630
200611
200630
200695
200810
149872
149823
149815
149853
149945
150047
150178
63137.5
63105
63161.6
63372.7
63583.6
63731.7
63823.5
62594.1
62770.6
62955.9
62995.6
62967.6
62916
62923.2
149178
149176
149326
149421
149537
149584
149641
200415
200269
200241
200238
200295
200383
200457
217288
217193
217140
217105
217114
217143
217194
200315
200258
200205
200167
200194
200258
200383
149358
149322
149284
149245
149335
149547
149788
62769.4
62718
62713.6
62820.6
62985.6
63145.3
63241.8
62078.1
62135.3
62340.9
62540.8
62649.2
62684.5
62716.8
148570
148559
148737
148900
149087
149236
149367
199913
199827
199832
199850
199917
200041
200141
216869
216799
216755
216744
216745
216738
216745
199891
199827
199756
199743
199729
199678
199679
148895
148833
148734
148661
148680
148780
148950
62416
62367
62336.4
62330.9
62383.7
62479.4
62576.7
62103.3
62031.8
62094.1
62261.4
62429.8
62506
62559.7
148469
148289
148441
148631
148837
149007
149138
199691
199622
199636
199692
199752
199854
199910
216547
216527
216518
216534
216523
216504
216487
199523
199468
199412
199367
199275
199196
199124
148460
148376
148221
148057
147979
147915
147989
62092.2
62055.4
62003.4
61919.8
61905
61954.3
62057.9
62285
62084
61967.4
62041.2
62213.4
62292.1
62375.1
148661
148368
148346
148463
148605
148719
148847
199572
199515
199514
199570
199656
199748
199761
216254
216284
216340
216377
216417
216450
216478
199157
199152
199175
199155
199129
199099
199032
148068
148012
147923
147769
147703
147632
147652
61832.7
61803.1
61741.9
61635
61549.8
61630.1
61848
62140.2
61982.7
61740.1
61725.7
61873.9
62005.1
62127.1
148386
148334
148148
148098
148162
148340
148503
199325
199268
199265
199338
199448
199564
199632
215978
216025
216099
216175
216259
216334
216401
198930
198931
198998
199042
199091
199097
199070
147858
147811
147806
147702
147695
147670
147660
61753.1
61699
61568
61538
61463.9
61511.1
61724.8
62093.6
62241
61542.3
61560.8
61661.8
61795.4
61899.1
147791
147954
147696
147756
147772
148017
148252
198885
198789
198894
199025
199140
199316
199424
215750
215745
215810
215934
216031
216097
216190
198793
198744
198771
198819
198886
198901
198996
147724
147672
147639
147621
147641
147646
147711
61719.1
61662.2
61544.6
61601.2
61689.8
61798.9
61963.2
62626.4
62614.7
62065.7
61979.1
61945.8
61961.2
61962.9
147971
147968
148235
148120
148067
148155
148322
198575
198573
198780
198856
198868
198934
199059
215378
215417
215511
215608
215650
215678
215779
198674
198613
198605
198547
198567
198726
198958
147608
147558
147521
147438
147617
147904
148452
61602.6
61617.6
61822.6
61893.4
62267.3
62739.2
63083.8
61749.8
61598.3
61539
61612
61656.3
61622
61662.6
147013
146895
147235
147453
147418
147469
147642
198005
197989
198023
198058
198081
198159
198314
215099
215078
215044
215024
215075
215151
215260
198307
198279
198246
198194
198194
198388
198648
147339
147363
147322
147194
147130
147431
147944
61501.6
61722.2
61726.5
61834
61946.4
62177.8
62500.2
61353.3
61255.1
61081.9
61056.5
61092
61147.1
61225.9
146404
146413
146430
146450
146439
146593
146811
197536
197546
197482
197432
197415
197467
197630
214707
214659
214623
214558
214543
214577
214689
197889
197854
197843
197834
197863
197983
198240
146897
146929
146990
146958
146929
147151
147597
61075.3
61552.9
61683.5
61601.1
61501.1
61597.2
61872.8
61155.3
61105
60815.7
60615.7
60687.2
60776.9
60899.4
146036
146440
146438
146218
146072
146108
146257
197238
197357
197360
197274
197129
197046
197152
214422
214381
214381
214320
214204
214143
214234
197493
197424
197481
197517
197489
197533
197889
146366
146207
146381
146632
146829
147149
147655
60728.5
60968.7
61323.9
61217.8
61227.3
61389.5
61569.7
60718.5
61080.6
61051.8
60624.9
60685.1
60764.9
60865.3
145714
146449
146781
146401
146177
146150
146183
197101
197318
197414
197375
197115
196879
196947
214336
214280
214269
214195
213964
213767
213868
197304
197173
197225
197234
197064
197080
197643
146091
145798
145897
146332
146749
147326
148059
60749.8
60737.2
60626.9
60650.9
61053.1
61468.9
61775.8
59796.3
62017.1
62168
60876.1
60780.2
60859.3
60916.2
145250
146295
147567
146754
146288
146229
146205
197143
197359
197636
197655
197255
196831
196802
214261
214197
214159
214140
213886
213514
213470
197221
197195
197284
197222
196931
196808
197173
146064
146058
146117
146477
146500
146849
147577
61142.8
61076.4
60834.5
60561.8
60926.3
61289.8
61652.8
59334.9
65401.8
65275.1
61811.7
61004.3
60852.9
60654.8
145195
147800
149224
146764
145945
146114
146116
197111
197424
197512
197209
196830
196631
196552
213631
213719
213739
213892
213785
213196
212609
196779
197325
197522
197434
197104
196533
196027
145505
147366
148025
146895
146078
145854
146334
60711
64228.1
63583.1
61506.2
60996.8
60817.2
61031.6
63396.7
64143.6
62035.6
61929.6
61869.3
61919
62026.1
148182
148574
147888
148032
147947
148189
148335
198635
198535
198759
199002
199154
199414
199471
215512
215434
215642
215735
215876
215932
215996
198698
198623
198602
198636
198710
198755
198921
147671
147620
147687
147896
147923
147816
148168
61682.7
61669.3
61658
62233.9
62693.9
62879.6
62824.3
63502.5
64266.8
62102.8
61934
61871.9
61920.1
62026.6
148249
148601
147918
148044
147982
148221
148341
198618
198484
198746
198999
199159
199430
199470
215490
215392
215594
215687
215846
215913
215979
198694
198615
198585
198620
198685
198737
198891
147666
147618
147688
147920
147937
147827
148256
61678.1
61666.9
61663.5
62261.1
62784.9
62973.2
62903
63580.8
64335.2
62153.7
61933.3
61861.3
61921.3
62014.5
148293
148599
147939
148016
148018
148244
148366
198621
198448
198739
198992
199164
199441
199459
215476
215376
215546
215644
215819
215897
215965
198696
198623
198575
198613
198662
198722
198858
147663
147618
147670
147914
147932
147817
148335
61674.6
61665.8
61670.1
62218.7
62853.9
63032.3
62997.4
63682
64448.4
62213.1
61964.1
61861.3
61928.4
62001
148327
148618
147956
147968
148053
148249
148395
198625
198434
198737
198981
199163
199443
199439
215468
215375
215516
215623
215797
215875
215953
198699
198630
198568
198606
198645
198705
198835
147656
147612
147652
147892
147916
147808
148378
61671.6
61667.6
61685.5
62133.7
62938.1
63131.5
63120.8
63808.4
64656.1
62294.5
62015.6
61882.2
61940.1
61997.6
148359
148648
147987
147916
148078
148240
148411
198622
198422
198742
198971
199154
199437
199423
215463
215373
215508
215611
215775
215845
215938
198703
198629
198568
198593
198629
198689
198828
147648
147602
147643
147870
147912
147811
148395
61668.4
61667.4
61710.1
62039.6
63068.5
63294.8
63272.7
63877
64715.4
62371.2
62089.9
61923.1
61953.2
62002.9
148384
148654
148047
147849
148077
148227
148423
198612
198406
198758
198966
199140
199430
199403
215455
215368
215507
215603
215755
215812
215915
198710
198621
198574
198578
198611
198676
198830
147641
147593
147639
147852
147943
147814
148423
61664.4
61662.7
61735.3
61952.2
63130.3
63423
63392.8
63773.1
64445.3
62371.1
62138.3
61962.4
61959.9
62006.2
148386
148582
148095
147803
148059
148223
148423
198601
198415
198773
198969
199123
199402
199374
215442
215364
215505
215601
215739
215786
215893
198714
198612
198582
198574
198599
198674
198842
147637
147589
147631
147814
147956
147819
148456
61659.3
61657.3
61750.4
61883.6
63027.4
63388.3
63378.8
68157.2
70469.9
67681.3
63136.7
61540.5
61206.6
61689.7
150820
155323
153753
148441
146404
145988
145887
196886
198413
198395
197200
197034
196622
195209
212031
213398
213651
213556
213735
213424
210868
197321
197710
197440
197380
197306
196729
194516
151686
151837
150267
148123
146575
145926
145216
69794.2
69548.3
65421.1
62447.4
61331.4
60660.3
60528.1
70092
70617
66832.5
63286.1
61714.9
61131.3
61343
152189
156722
154431
149036
146708
145943
145463
196883
198851
198745
197364
197068
196495
194996
211997
213482
213764
213631
213685
213361
211014
197509
197846
197405
197305
197245
196726
194606
153069
153194
150152
148010
146739
145914
144753
70961.2
69851.4
65128.9
62534.2
61433.1
60613.2
60043.7
69590.9
69650.9
65907.4
63279.5
61818.4
61128.2
61159.1
152072
156265
154140
149286
147173
146137
145113
197000
199257
199030
197598
197040
196334
194963
212395
213779
214027
213874
213707
213298
211441
197602
197990
197425
197308
197243
196665
194936
152611
153085
149736
147839
146925
145934
144475
70065.4
68850.8
64507.8
62504.9
61540
60582.5
59607.6
68415.5
68183.5
65344.1
63279.5
61863.4
61178.3
61102.8
151381
155208
153244
149226
147454
146319
145128
197284
199593
199267
197855
197124
196371
195021
212864
214123
214319
214172
213918
213443
211858
197710
198049
197472
197356
197278
196654
195135
152118
152011
149015
147779
147094
145900
144280
68933.7
67271.9
63942.9
62418.9
61514.6
60507.4
59445.3
67891.2
67522
65072.7
63172.5
61831.5
61181.2
61042.3
151157
154570
152497
149123
147560
146570
145426
197693
199821
199483
198099
197327
196551
195184
213249
214377
214579
214438
214236
213776
212256
197891
198065
197545
197443
197366
196771
195299
152167
151285
148624
147800
147184
145855
144101
68598.3
66458.5
63726.9
62424.2
61496.5
60432.5
59344.9
68255.4
67647.6
65048.7
63120.4
61841.3
61196.1
60986.4
151607
154651
152246
149131
147603
146639
145582
198102
200009
199706
198333
197523
196683
195398
213468
214477
214762
214597
214555
214119
212681
198060
198123
197594
197521
197483
196923
195429
152719
151296
148547
147803
147187
145834
143944
68969.7
66427.2
63692.3
62427.9
61468.5
60335.6
59246.4
68983.7
68214.9
65213.3
63172.3
61906
61266.1
61014.2
152378
155170
152488
149384
147688
146658
145655
198414
200277
199999
198571
197696
196752
195553
213548
214471
214861
214651
214791
214294
213052
198247
198257
197663
197617
197597
197014
195524
153470
151687
148691
147854
147244
145865
143878
69663.1
66748.3
63784.7
62451.9
61465.4
60291.7
59202
63256
63073.7
62567.3
62715
64964.4
70285.1
78564.7
145191
145069
145235
145487
145846
146946
149873
191952
192382
193176
193052
191651
189097
185995
205176
205651
205890
204935
202904
199970
196346
190057
190313
190575
190187
189267
187826
186252
143664
142765
142627
143160
144857
148071
152716
60837.1
60494.4
60823
62610.5
66522.5
73291.5
82583
61949.3
61970.9
61861.2
62024
63309
67205.3
74422.8
144833
144749
144739
144764
144866
145663
147999
193050
192856
193188
192986
191703
189250
186107
207495
206691
206116
205032
203075
200208
196559
191615
190841
190561
190180
189212
187780
186080
143094
142152
141733
142115
143532
146103
149974
59704.7
59560.5
59920
61171.3
64056.2
69628.7
78029.8
61244.2
61317.7
61410.4
61490.5
61806.7
63719
68532.2
144324
144202
144116
143953
143719
143816
145077
193520
192962
192854
192674
191700
189425
186279
208959
207600
206456
205141
203229
200537
196930
192565
191383
190603
190029
189176
187797
186001
143001
141944
141199
141212
142031
143518
146179
58951
58936.8
59310.1
60079.9
61513.3
64615.3
70997.3
61011.3
61078.4
61262.7
61447.1
61539.9
62202.8
64586.3
144170
143892
143675
143400
142969
142539
142731
193637
192882
192309
191891
191063
189223
186391
209787
208367
206910
205307
203313
200585
196976
193112
191868
190685
189715
188702
187449
185931
143062
142090
141077
140623
140831
141308
142606
58943
58840.9
59056.9
59638.7
60161.3
60709.5
64003.7
60911.2
60953.5
61178.9
61452.4
61638.4
62021.9
63257.7
144345
143945
143705
143383
142807
142075
141451
193751
192845
191955
191147
190070
188372
185933
210357
208970
207373
205578
203348
200204
196081
193434
192169
190761
189362
187978
186541
184975
143097
142247
141244
140458
140061
139986
140424
58995.2
58860.9
58947.6
59336
59617.7
59402.7
60831.6
60755.1
60799.1
61078
61434.6
61729.6
62293.3
63484.9
144407
143947
143759
143497
142873
141978
140973
193855
192836
191778
190676
189344
187308
184510
210807
209450
207822
205908
203390
199483
193965
193577
192276
190784
189120
187342
185302
183008
142975
142210
141241
140343
139753
139542
139731
59050.3
58897
58895.6
59257.9
59732.1
59840.8
61090.7
60754.2
60796
61125.9
61606
62097.7
62821.1
63969.1
144476
143987
143854
143772
143167
142102
140889
193956
192914
191725
190463
188936
186552
182289
211154
209840
208216
206234
203515
199119
190948
193625
192323
190789
189038
186999
184452
180502
142968
142206
141214
140316
139791
139607
140033
59149.2
59111.8
59107
59516.9
60041.4
60351.2
61618.7
84632.3
75943
69295.6
65619.2
64652
65689.5
67518.8
156594
152828
150133
148573
148197
148834
149696
189787
191850
193887
195042
195078
194638
194974
199894
202856
205426
207319
208374
208894
208892
190462
191975
193225
194275
195297
196169
196645
157952
154359
152144
150964
150620
151032
151720
83009.2
75298.6
70127
67433.7
66516.8
67277.6
69075.5
81008.8
72687.4
67079.2
64051.1
63148
64093
66426
154443
151126
148870
147544
147090
147589
148884
189534
191652
193658
194794
194921
194659
195083
199942
202950
205414
207302
208456
209156
209894
190311
191916
193152
194218
195136
195863
196467
155781
153032
151373
150126
149468
149407
150092
79045.2
72667.7
68901.2
66429.8
65104.5
65371.9
67511.7
76018.3
69070.2
65231.7
62886
62020
62777.6
65204.9
151767
149175
147645
146629
146194
146590
148083
189332
191389
193288
194407
194590
194588
195161
199960
203008
205440
207265
208561
209600
210658
190247
191808
193052
194249
195193
195700
196270
153396
151991
150745
149389
148620
148449
149186
74296
70421.5
68032.4
65614.9
64147.7
64133.9
66033.2
72015.3
67372.8
64692.8
62680.8
61705.7
62233.9
64493.3
149502
147976
147057
146227
145767
146097
147550
189058
191189
192933
193947
194189
194452
195247
199729
202810
205347
207281
208714
210003
211234
190278
191662
192787
193889
194878
195540
196301
152038
151925
150538
148933
148112
148144
149218
71507
69831.4
67851.2
65462.5
63911.5
63981.5
65694.4
70426.7
67226.4
64915.9
63141
62317.8
62856.5
64655.6
148128
147504
146893
146240
145812
146233
147665
188828
190946
192470
193340
193776
194440
195506
198748
202211
205141
207344
208946
210343
211628
189407
190979
192313
193476
194588
195554
196515
151527
151645
150419
149080
148457
148695
149752
70564.1
69758.2
68112.3
66116
64784.5
64866.3
66196.2
70127.7
67522.7
65391.2
63875.4
63383.1
64089.2
65626
147450
147248
146801
146323
146184
146876
148425
188023
190485
191976
192794
193519
194523
195839
196644
201322
204919
207373
209138
210609
211849
187197
189667
191691
193227
194533
195726
196771
150423
150866
150343
149554
149293
149766
150826
70024.3
69592.7
68474.7
67048.3
66162.3
66319.5
67322.6
68366.5
67788.5
65985
64727.2
64457.9
65193.3
66500.3
147528
147504
147057
146672
146787
147773
149321
186387
189979
191697
192516
193390
194649
196115
193793
200855
204898
207461
209295
210780
211931
184315
188736
191369
193187
194666
195969
196975
149007
150384
150382
150060
150140
150874
151926
69616
69675.2
68915
67774.9
67222
67543.5
68402.4
100054
102157
102226
101434
99634.4
96166.1
91485.8
171139
171123
170499
168649
166417
163649
160469
189739
188619
187494
186810
186800
187367
188320
200239
198703
196387
194418
193931
195196
197198
190895
190083
188961
187972
187683
188139
189119
172727
174489
174423
172671
169547
165824
162080
101298
103464
103749
102584
99643.6
95402.2
90201.9
97888.3
98937
99635.9
98930.5
96320.5
92826.7
88183.2
169894
168897
167810
166236
163970
161221
158108
188997
187825
186576
186002
186155
186881
187961
200112
198262
195675
193710
193427
194879
197077
189789
188841
187795
187028
186984
187647
188790
169424
169729
170270
168768
165756
162476
159188
97685.4
99070.5
100222
99301.4
96240.3
92001.1
86370.5
96628.3
96164.9
95670.1
94482.9
91465.4
88146.7
83818.4
168887
166744
164538
162731
160547
158025
155135
187719
186700
185507
184982
185300
186276
187575
199514
197408
194725
193039
192945
194362
196875
188191
186952
186010
185664
186067
187163
188640
168391
166847
165573
163494
160729
158129
155651
96241
95969
95576.9
94284.4
91376.1
87262.1
81092.8
93988.4
92451.6
90872.6
89033.3
86283.3
83173.3
78777.7
165799
162788
160485
158984
156909
154812
152400
185662
184976
184093
183791
184485
185763
187224
198539
196496
193731
191886
191621
193306
196439
186176
184882
184021
184132
185207
186880
188615
167758
165088
161559
158557
156141
154247
152832
94635.1
92964.7
91139.9
89119.2
86063.3
81925.2
76273
89733.5
88100.6
86181.5
84041.2
81522.9
78735.2
75115.1
160702
158170
156592
155309
153515
151806
149814
183095
182547
182057
182325
183457
184975
186759
197376
195298
192202
189774
189180
191428
195174
183481
182473
181938
182532
184068
185889
187689
164260
160928
156800
154258
152605
151380
151036
90768.9
89141.2
86933.1
84684.8
81706.6
77883.3
73515
84349.3
83823.8
82214.4
80140.8
77351.7
75239.7
73387.4
154649
153489
152981
152721
151294
149653
148103
179993
179379
179185
180065
181698
183409
185349
194936
192818
189422
186978
186696
188504
191938
179910
179094
179049
180047
181734
183272
184985
157880
155207
151726
150746
149742
149205
149197
85554.2
85237.6
83136.9
81166
78460.2
75522.9
72153.3
78462.3
79303.8
78071.9
76457
73423.8
71783.3
72004.1
148623
148614
148501
149603
149026
147846
146984
176373
175542
175708
177363
178851
179243
180270
191669
189236
185554
182882
181658
181574
184225
175863
175240
175511
176825
177730
177304
177921
150579
149087
146346
146803
145821
145767
145103
79464.9
80162.1
78467.6
76991.7
74824.8
73042.2
70179.3
59263
59357.3
59547.9
59265.4
59475.6
59578.6
59367.8
131904
131717
131338
131395
131480
131131
130841
162447
161979
161295
160309
158320
155147
151548
172959
171040
168163
164837
160784
155768
149859
160728
160099
159062
157603
154791
150645
146216
129297
128125
127119
126531
125600
124700
123727
58023.9
57713.6
57903.6
57259.8
57118
56876
57224.9
47889.7
47713.4
47761.5
47904.7
48292.4
48607.7
48776.1
111220
111390
111488
111325
111266
111326
111419
142326
142222
142129
142074
142001
141848
141553
153339
152841
152176
151600
151170
150755
150063
144642
144579
144645
144691
144436
144115
143744
115651
115337
115154
114887
114800
115035
115196
50613
50302.5
50149.4
50076.7
50050.2
50173.7
50400.9
41774.7
41843.9
41901.8
41863.4
41737.8
41647.2
41603.1
97226.7
97368
97417.4
97348.4
97323.8
97318.2
97358.8
128565
128721
129041
129456
129901
130268
130406
141016
141004
141159
141525
142101
142771
142931
133425
133471
133856
134671
135625
136513
136956
104317
104562
104953
105491
106126
106637
106979
45434.2
45527.1
45669
45808.6
45984.2
46100
46141.3
39609.1
39597.6
39560.9
39505.7
39482.6
39490.5
39476.9
90612
90634
90660.7
90682.8
90699.3
90693.2
90675.7
121042
121062
121184
121370
121518
121580
121585
132850
132863
132949
133111
133287
133433
133411
124507
124537
124685
124934
125214
125468
125587
94840.1
94985.7
95237
95563.7
95914.1
96198.2
96375.4
41319.5
41347.1
41464.7
41618.3
41749.3
41856.7
41909.3
39248.7
39218.3
39221.8
39267.8
39273.8
39264.2
39308.8
88912.4
88914.2
88888.6
88849
88845.7
88844.9
88813.4
116948
116848
116795
116813
116838
116840
116751
126738
126613
126465
126351
126264
126183
126031
117886
117833
117769
117702
117587
117471
117365
89883.3
89913.9
89914.3
89904.2
89876.1
89831.6
89790
39696.3
39738.9
39783
39805
39813.2
39816.5
39818.7
40313.6
40282.8
40298.8
40370.1
40387.1
40373.6
40416.6
89511.8
89522.4
89503.8
89448.4
89440.9
89463.5
89455.6
113923
113830
113841
113870
113901
113976
113902
121262
121052
120838
120662
120586
120623
120401
113058
112992
112954
112894
112772
112691
112601
88270.3
88272.3
88271.4
88264
88251.1
88235.4
88231.9
40080.3
40081.8
40085.7
40091.9
40100.5
40109.2
40116.2
49153.3
49154.6
49160.6
49143.5
49137.9
49136.4
49115.9
88398.7
88416
88470.5
88514.1
88551.1
88556.1
88564.6
108658
108645
108759
108848
108907
109003
108961
114642
114462
114351
114206
114128
114323
114064
107359
107322
107370
107397
107346
107368
107311
86912
86928.4
86954.4
86977.5
86989.8
86992.9
86993.8
48765.5
48758.7
48744.7
48734.4
48731.9
48731.6
48725.6
86205.8
91356.7
95628.6
99339.1
102405
105425
108355
154186
158618
163387
168207
172942
177799
181315
183730
182368
181879
182919
185009
187207
188353
192962
190685
190060
191104
193287
195551
196896
185154
184476
184182
184571
185729
186986
188018
157259
160711
163377
165927
168454
169520
169566
89881.5
95190.7
98646.7
99602.9
100292
100863
98955.8
82554.2
88591.5
92982.6
96688.2
99833.2
101757
103343
151761
155666
159868
164556
169186
173091
175859
183566
181940
181286
182042
183926
185819
186964
192991
190343
189441
190485
192799
195361
197042
184788
183943
183436
183669
184567
185885
187049
154285
157926
161038
163492
165345
166541
167528
85430.9
90908.3
94962.7
96918
97281
96961.9
96252.6
76583
83967.8
88748.4
92304.9
95392.4
96645.5
96794.8
147886
151089
154703
158887
163578
167156
168855
183414
181462
180450
180731
182189
183697
184622
193039
189608
188422
189588
192083
195017
197071
184455
183283
182442
182344
183083
184389
185457
149929
153729
157212
159687
161330
163477
165450
78600.7
84367.2
88781.1
91647.7
92798.3
93377.1
93875.5
70684.9
78081.9
83765.1
87394.4
89904.9
90950.4
90848.6
144430
146951
150014
153427
157616
160916
162208
183390
181120
179469
178974
179742
180864
181493
192862
188832
187075
188240
191113
194578
196837
184170
182677
181530
180890
181180
182170
183013
145442
149037
152794
155101
156069
158389
161028
71477.8
77380.2
81648.2
85569.8
87566
88898.7
90122.9
67279.8
73302.6
78669.9
82140.9
84379.9
85547
85815.4
141805
143753
146659
149381
152459
155103
156205
183216
180667
178311
176762
176667
177468
177991
191638
187382
184760
185843
189340
193615
196441
183450
181985
180661
179429
178848
179251
179892
142142
144894
148370
150778
151091
152404
154672
66499.9
70998.4
75297.6
79582.8
82485.1
84293.1
85548.8
66333.6
70797.7
73818.4
76148.6
78455
80317.9
81386.7
140201
141899
144580
146532
147960
149856
150816
181629
179083
176508
174245
173237
173638
174059
188096
184052
182032
182695
186198
190966
194177
181122
179758
178575
177024
175774
175531
176094
141061
142808
144881
146715
146375
146467
147630
64770.2
67284.6
71043.1
75067.9
78256
80249.8
80875.6
66237.4
69229.4
68803.7
69481.7
71776
74403
76498
138777
140756
141952
142676
142949
144305
145173
175481
174112
173462
171611
169885
169868
170281
179544
176103
176184
178046
181757
186988
190792
174743
173962
174491
173795
171994
171140
171725
140951
141629
141962
142147
141132
141055
140782
64067.1
65379.1
67960.6
71578.3
74494.5
76150.9
75533.6
56020.4
55339.8
55368
55299.6
55293.6
55261.3
55735.8
121423
122085
122870
123631
124181
124817
125416
141381
146011
150062
152729
154304
155462
156339
140658
147295
153177
158180
162404
166133
168727
142160
145709
149773
152777
154366
155127
155581
124845
124605
123962
123270
123090
123489
124008
57593.7
57765.3
57032.2
56433
56978.8
57680
58709.2
46453.1
46083.7
45976.1
45956
45881.2
45701.7
45444.4
106178
105868
105741
105765
105938
106138
106235
134440
134762
134946
135050
135161
135409
135685
140897
141841
142430
143100
143884
144756
145437
133703
134092
134501
134866
135159
135416
135689
107165
106959
106583
106333
106522
106251
106027
47485.9
47321.7
46977
46484
46137.3
45763
45581.1
41493.4
41346.4
41115.2
40889
40784.1
40745.9
40775.5
96487.8
96064.7
95458.3
94824.7
94243.7
93840.5
93623
126171
125755
124961
124153
123550
123250
123152
135256
135118
134386
133804
133466
133361
133447
126035
125970
125762
125558
125283
124868
124768
96257.6
96314.9
96554.7
97053.1
97457.6
97367.9
96993.9
41946.4
41998.7
42076
42163.5
42176.1
42059.4
41935.6
38723.7
38755.5
38747.8
38716.6
38672.3
38677.2
38702.2
89237.2
89088.1
88848.5
88612.6
88395.2
88236.3
88147.2
117929
117861
117661
117427
117247
117177
117163
127762
127722
127510
127300
127162
127120
127162
118543
118543
118513
118461
118304
118116
118063
89674.5
89817.3
89989.4
90164.5
90286.8
90250.8
90130.8
39273
39314.9
39369.9
39456.6
39540.9
39610.7
39618.9
38171
38131.9
38143.2
38092.1
38099.5
38048.4
38033
86615.7
86642
86660.5
86680.6
86701.1
86731.5
86757.2
113498
113684
113777
113901
113997
114148
114231
122342
122485
122517
122582
122705
122889
123073
114115
114125
114092
114073
114054
114060
114083
87345
87351.2
87344.7
87349
87331.8
87343.2
87337
38635.5
38607.9
38644.5
38632
38655.1
38637.4
38665
39659.2
39584.8
39578.1
39502.6
39476.8
39369.9
39300
87572.5
87585.8
87602.6
87614.2
87627.4
87643.2
87663.2
111461
111622
111681
111796
111845
111948
111983
118328
118602
118573
118653
118834
119071
119341
111787
111790
111728
111669
111606
111567
111618
87793.2
87791.1
87779.3
87803.7
87797
87797.5
87794
39788.6
39734.1
39765.2
39755.7
39783.2
39766.7
39826.1
49256.5
49274.6
49270.9
49294.8
49301.2
49328.1
49343.4
87299.8
87264.9
87243.3
87195.5
87151.4
87089.3
87048.5
107324
107347
107307
107286
107231
107193
107151
113111
113433
113279
113379
113511
113629
113867
107478
107458
107432
107355
107212
107059
107078
87298.1
87277.2
87278.6
87253
87187.1
87112.8
87090.6
49176.8
49191.8
49180.5
49183.2
49168.4
49178.5
49160.4
)
;

boundaryField
{
    fuel
    {
        type            zeroGradient;
    }
    primary_air
    {
        type            zeroGradient;
    }
    Secondary_air_RHS
    {
        type            zeroGradient;
    }
    Secondary_air_LHS
    {
        type            zeroGradient;
    }
    outlet
    {
        type            totalPressure;
        rho             rho;
        psi             none;
        gamma           1;
        p0              uniform 100000;
        value           nonuniform List<scalar> 
98
(
44741.3
75917.8
100000
100000
100000
75884.5
44803.4
44904.1
75967.9
100000
100000
100000
75986.3
44953.7
44695.6
75810.7
100000
100000
100000
75983.5
44766.2
44880.6
75914.3
100000
100000
100000
76012.9
44949.9
44676
75637.6
100000
100000
100000
75702.2
44775.1
44848.5
75750.8
100000
100000
100000
75680
44959.7
44841.3
75631.7
100000
100000
100000
75415.7
44821.9
45181.8
76582.8
100000
100000
100000
75671.6
44798.5
45318.7
76665.5
100000
100000
100000
75744.6
44776.4
45305.1
76840.2
100000
100000
100000
75896.3
44768.3
45118.8
77050
100000
100000
100000
75939.3
44767.2
45125.7
77192.2
100000
100000
100000
75960
44774
45351.6
77062.9
100000
100000
100000
75811.2
44775.5
45138.4
77055.3
100000
100000
100000
75882.8
44804.6
)
;
    }
    stove_body
    {
        type            zeroGradient;
    }
    frontAndBack
    {
        type            empty;
    }
}


// ************************************************************************* //
