/*--------------------------------*- C++ -*----------------------------------*\
  =========                 |
  \\      /  F ield         | OpenFOAM: The Open Source CFD Toolbox
   \\    /   O peration     | Website:  https://openfoam.org
    \\  /    A nd           | Version:  6
     \\/     M anipulation  |
\*---------------------------------------------------------------------------*/
FoamFile
{
    version     2.0;
    format      ascii;
    class       surfaceScalarField;
    location    "0.015";
    object      phi;
}
// * * * * * * * * * * * * * * * * * * * * * * * * * * * * * * * * * * * * * //

dimensions      [1 0 -1 0 0 0 0];

internalField   nonuniform List<scalar> 
10143
(
-4.65146e-08
-4.4374e-05
4.70001e-05
-2.4004e-07
-4.34703e-05
4.61729e-05
1.50412e-07
-4.41294e-05
4.62634e-05
2.29996e-07
-4.37531e-05
4.61007e-05
-4.56298e-08
-4.34457e-05
4.612e-05
-2.54699e-08
-4.38991e-05
4.64026e-05
-4.43426e-05
4.68798e-05
9.61077e-08
-1.98247e-05
-1.28e-05
1.2813e-07
-1.95022e-05
-1.19361e-05
-8.95669e-07
-1.96512e-05
-1.13191e-05
-7.9882e-07
-1.96629e-05
-1.21441e-05
-1.19988e-07
-1.94322e-05
-1.27062e-05
-5.93293e-07
-1.93834e-05
-1.19796e-05
-1.97016e-05
-1.347e-05
-7.27687e-08
-4.43346e-06
-1.22523e-06
8.62231e-07
-4.3902e-06
-1.96847e-06
2.65332e-07
-4.64099e-06
-2.02383e-07
-1.49358e-07
-4.73036e-06
-3.01703e-07
-1.1338e-07
-4.61885e-06
-6.53886e-07
-5.45301e-07
-4.64886e-06
-8.85308e-08
-4.40641e-06
-1.81621e-06
-1.63803e-07
4.33616e-06
1.52191e-06
-1.21261e-07
4.254e-06
1.36192e-06
-4.03463e-08
4.5464e-06
7.8747e-07
-1.72243e-07
4.69774e-06
8.08814e-07
-1.68839e-07
4.48644e-06
9.96082e-07
8.0498e-08
4.42537e-06
7.40774e-07
4.24266e-06
1.52089e-06
6.22611e-08
1.9668e-05
-1.36348e-06
7.4149e-07
1.94667e-05
-1.85638e-06
2.55833e-07
1.93733e-05
-4.92248e-08
-3.20708e-07
1.91926e-05
3.87232e-07
-4.28483e-07
1.93794e-05
-5.62493e-07
-7.02985e-07
1.94169e-05
-5.64384e-07
1.95604e-05
-1.96716e-06
4.22496e-07
4.45359e-05
-1.35585e-05
1.70969e-07
4.41365e-05
-1.26055e-05
-2.16001e-07
4.41267e-05
-1.25244e-05
9.82396e-08
4.36481e-05
-1.29326e-05
1.03206e-06
4.35573e-05
-1.32331e-05
-1.27466e-07
4.42639e-05
-1.16596e-05
4.44696e-05
-1.33444e-05
2.45286e-08
4.70992e-05
-2.39121e-07
4.70091e-05
2.64947e-08
4.63708e-05
-6.15595e-08
4.61377e-05
-1.10565e-07
4.60443e-05
1.00852e-07
4.66343e-05
4.71878e-05
-1.91986e-07
-1.17718e-05
5.83356e-05
-3.16566e-07
-1.27455e-05
5.8393e-05
1.05515e-07
-1.29921e-05
5.81634e-05
2.50478e-07
-1.24645e-05
5.7721e-05
-2.78411e-08
-1.19717e-05
5.7637e-05
2.65221e-08
-1.24516e-05
5.81271e-05
-1.20115e-05
5.82708e-05
-3.84236e-07
4.35152e-06
-2.71295e-05
-3.9647e-07
3.43393e-06
-2.6849e-05
-9.56466e-07
3.59841e-06
-2.61727e-05
-3.34786e-07
3.7494e-06
-2.79056e-05
4.34225e-07
4.2341e-06
-2.86534e-05
3.32339e-09
4.17627e-06
-2.70841e-05
4.39303e-06
-2.85112e-05
-4.60336e-08
3.39783e-06
-6.87946e-07
4.99963e-07
3.26857e-06
-2.71488e-06
2.37513e-07
3.24664e-06
6.20359e-08
4.20389e-07
3.18002e-06
-2.74154e-07
4.38255e-07
3.22757e-06
-1.08811e-07
-2.45887e-07
3.39852e-06
9.41051e-07
3.4042e-06
-1.55738e-06
-1.4755e-09
-3.55675e-06
3.0989e-06
1.78063e-07
-3.75523e-06
2.68073e-06
-1.07191e-07
-3.44679e-06
2.26253e-06
-5.52554e-07
-3.32066e-06
2.31705e-06
-6.47212e-07
-3.35227e-06
2.22494e-06
-2.58832e-07
-3.5501e-06
1.76928e-06
-3.54948e-06
2.79234e-06
-9.27219e-08
-4.47271e-06
-8.82056e-07
2.68144e-07
-4.79808e-06
-1.73377e-06
2.55793e-07
-4.3222e-06
4.97203e-07
1.95692e-07
-4.41126e-06
1.17982e-06
1.4754e-07
-4.34794e-06
5.01035e-08
-2.39163e-07
-4.31147e-06
1.174e-07
-4.35515e-06
-1.82501e-06
2.57313e-08
1.21773e-05
-2.88458e-05
-1.8872e-07
1.17054e-05
-2.75176e-05
-3.56387e-07
1.27246e-05
-2.84534e-05
5.40094e-07
1.1976e-05
-2.93834e-05
1.7173e-06
1.22918e-05
-3.00273e-05
4.57082e-07
1.28868e-05
-2.64748e-05
1.22394e-05
-2.81291e-05
-2.01131e-08
5.86277e-05
-3.7641e-07
5.84079e-05
2.55012e-08
5.79915e-05
-1.39175e-07
5.76054e-05
-3.11729e-08
5.75166e-05
1.92128e-07
5.86511e-05
5.89699e-05
-2.49461e-08
1.56973e-07
5.89765e-05
-2.12714e-07
-1.1376e-06
6.07143e-05
8.60937e-08
-1.24799e-06
6.00573e-05
2.38729e-07
-6.85865e-07
5.92916e-05
-7.56789e-08
8.28017e-08
5.8921e-05
-2.32469e-07
-2.39056e-07
5.94864e-05
1.18627e-07
5.86081e-05
2.07043e-07
8.3453e-06
-3.34675e-05
6.95468e-08
8.20933e-06
-3.43787e-05
-7.69634e-07
8.29864e-06
-3.3221e-05
-6.0869e-07
8.19346e-06
-3.53538e-05
1.31932e-08
8.16921e-06
-3.55652e-05
-1.16416e-08
8.72289e-06
-3.42438e-05
8.68063e-06
-3.50011e-05
-2.83818e-07
4.03794e-06
2.19435e-06
3.7538e-07
4.011e-06
-7.49318e-07
4.217e-07
4.26681e-06
2.43993e-06
6.22624e-07
4.00275e-06
2.08297e-06
2.32523e-07
4.14227e-06
2.61974e-06
-3.49433e-08
4.76687e-06
3.48545e-06
4.24269e-06
1.06021e-06
-8.91023e-08
-4.31415e-06
6.02233e-06
1.60407e-07
-4.49253e-06
5.28067e-06
-1.9657e-07
-3.88192e-06
5.1735e-06
-5.70866e-07
-3.81236e-06
4.99319e-06
-5.87243e-07
-4.1479e-06
4.98465e-06
-1.84976e-07
-4.62862e-06
5.10534e-06
-4.39459e-06
5.69183e-06
-1.6944e-07
-8.70682e-06
1.86704e-06
2.21935e-07
-8.80286e-06
4.56644e-07
4.69499e-07
-8.76152e-06
3.53744e-06
2.31524e-07
-7.67439e-06
3.71411e-06
-2.09692e-07
-8.25156e-06
2.95321e-06
-9.7905e-10
-8.90505e-06
2.4637e-06
-8.75915e-06
8.3011e-07
4.93969e-08
-2.26981e-07
-3.52101e-05
1.28383e-07
2.7718e-07
-3.48445e-05
-4.47969e-07
3.93784e-07
-3.54016e-05
5.8304e-07
-3.25401e-07
-3.59506e-05
1.04564e-06
5.8628e-07
-3.77009e-05
1.43026e-07
5.6728e-07
-3.3307e-05
-3.35872e-07
-3.42826e-05
1.55984e-07
5.88376e-05
-2.81335e-07
5.99184e-05
-5.1783e-09
5.8865e-05
-3.64234e-07
5.83637e-05
-8.90195e-08
5.86659e-05
-4.13973e-08
6e-05
5.91962e-05
7.87548e-08
4.17074e-06
6.28456e-05
-5.62469e-09
3.81129e-06
6.5805e-05
2.25399e-07
3.91277e-06
6.49662e-05
2.15712e-07
4.07675e-06
6.42206e-05
1.40018e-08
4.33976e-06
6.36056e-05
-9.72363e-08
4.08977e-06
6.41544e-05
4.39626e-06
6.20556e-05
1.20458e-06
5.97435e-06
-3.37553e-05
1.03596e-07
7.97287e-06
-3.53188e-05
-9.58585e-07
7.88984e-06
-3.40649e-05
-1.22496e-06
6.88001e-06
-3.58313e-05
-8.79267e-08
4.96679e-06
-3.50133e-05
9.65538e-08
5.86894e-06
-3.38453e-05
7.21725e-06
-3.4916e-05
-3.68449e-07
3.71885e-06
2.93186e-06
2.25228e-07
4.01035e-06
4.97181e-07
6.17647e-07
4.30825e-06
3.52165e-06
8.09571e-07
4.03121e-06
2.78456e-06
2.44562e-08
3.78351e-06
2.84585e-06
-8.3327e-08
4.27435e-06
3.31418e-06
4.03957e-06
1.99152e-06
-1.39384e-07
-3.93231e-06
8.39851e-06
2.71255e-07
-4.04762e-06
7.36409e-06
-2.43473e-07
-2.5611e-06
7.08494e-06
-5.65516e-07
-2.82626e-06
6.76993e-06
-5.15737e-07
-3.84552e-06
7.1245e-06
-2.1305e-07
-4.4738e-06
7.97753e-06
-4.20586e-06
8.27293e-06
-8.09735e-08
-6.92912e-06
2.82465e-06
2.55518e-07
-7.39635e-06
1.40048e-06
6.23179e-07
-5.78994e-06
4.59893e-06
3.41654e-07
-4.29664e-06
3.82868e-06
-6.01498e-07
-4.51494e-06
2.93993e-06
5.48044e-08
-7.80863e-06
2.97768e-06
-7.46908e-06
2.04972e-06
1.62917e-07
-4.09816e-06
-3.52932e-05
-1.46421e-07
-4.07161e-06
-3.52923e-05
-5.35036e-07
-3.85816e-06
-3.47119e-05
6.31403e-07
-3.94466e-06
-3.51451e-05
1.05607e-06
-3.41052e-06
-3.70585e-05
1.08376e-07
-4.02387e-06
-3.37048e-05
-4.0934e-06
-3.47144e-05
1.40804e-07
6.19032e-05
-2.45137e-07
6.45899e-05
-2.14849e-07
6.33759e-05
-3.28254e-07
6.30255e-05
-1.57922e-07
6.37197e-05
-1.64977e-07
6.44035e-05
6.20366e-05
1.92239e-08
1.78674e-05
5.30123e-05
3.14797e-07
1.792e-05
5.53918e-05
4.20171e-07
1.82258e-05
5.43049e-05
4.86092e-07
1.79736e-05
5.37775e-05
3.67223e-07
1.78486e-05
5.34997e-05
2.6627e-07
1.77587e-05
5.43895e-05
1.81016e-05
5.2179e-05
1.47745e-06
4.89056e-06
-1.99125e-05
2.88158e-08
7.45799e-06
-2.2476e-05
-8.40681e-07
7.17069e-06
-2.12529e-05
-1.28217e-06
5.59424e-06
-2.19556e-05
-1.87129e-07
3.75886e-06
-2.03608e-05
8.94438e-08
4.70899e-06
-1.9358e-05
6.38825e-06
-2.07703e-05
-2.34143e-07
2.87073e-06
3.32843e-06
5.37312e-08
3.69562e-06
1.9788e-06
7.78767e-07
3.4714e-06
4.52254e-06
8.92608e-07
3.42979e-06
3.05543e-06
-8.64472e-08
3.53534e-06
2.41555e-06
-7.15218e-08
3.24436e-06
3.07205e-06
3.35498e-06
2.78283e-06
-2.54517e-07
-3.20062e-06
9.52383e-06
2.89865e-07
-3.71451e-06
8.86378e-06
-2.80678e-07
-2.70586e-06
8.53858e-06
-4.62424e-07
-3.09727e-06
8.24125e-06
-3.19487e-07
-3.28005e-06
8.5189e-06
-2.75911e-07
-3.46484e-06
9.22652e-06
-3.47203e-06
9.59669e-06
4.10499e-08
-5.96075e-06
3.44373e-06
2.27347e-07
-6.23405e-06
1.81783e-06
7.36811e-07
-4.7299e-06
4.41201e-06
3.23656e-07
-3.43776e-06
2.97873e-06
-8.48178e-07
-2.46425e-06
1.81847e-06
2.41935e-08
-6.92395e-06
3.53051e-06
-6.47621e-06
2.99992e-06
1.7004e-07
-1.7368e-05
-2.15638e-05
-4.12242e-07
-1.77394e-05
-2.15845e-05
-4.02231e-07
-1.75202e-05
-2.02367e-05
4.16011e-07
-1.72231e-05
-2.0364e-05
9.62773e-07
-1.67094e-05
-2.15664e-05
1.55474e-07
-1.78756e-05
-2.039e-05
-1.73294e-05
-2.12816e-05
1.31177e-07
5.27634e-05
-4.87144e-07
5.56469e-05
-4.50334e-07
5.36898e-05
-4.39326e-07
5.37729e-05
-2.85087e-07
5.45113e-05
-3.1083e-07
5.45745e-05
5.31399e-05
-1.48832e-07
2.34144e-05
3.28098e-05
5.87624e-07
2.31832e-05
3.40747e-05
4.7949e-07
2.34376e-05
3.34058e-05
5.28586e-07
2.30656e-05
3.29603e-05
3.45022e-07
2.33168e-05
3.26425e-05
5.43338e-07
2.33539e-05
3.3343e-05
2.34811e-05
3.22224e-05
1.33567e-06
7.39707e-06
-5.89656e-06
-9.84846e-08
8.49813e-06
-7.7794e-06
-5.04391e-07
8.054e-06
-6.93036e-06
-1.18196e-06
7.72746e-06
-7.45282e-06
-6.22501e-07
7.39434e-06
-6.35037e-06
-2.06182e-07
7.7804e-06
-5.54852e-06
8.24016e-06
-6.38097e-06
1.04747e-07
8.97086e-07
7.45875e-06
-1.73223e-07
2.11006e-06
6.32395e-06
7.24119e-07
1.29946e-06
8.06655e-06
7.65366e-07
1.64138e-06
6.90792e-06
-1.04554e-07
2.20406e-06
6.28708e-06
-1.08224e-08
1.55185e-06
6.9655e-06
1.58829e-06
6.94677e-06
-4.03733e-07
-1.3633e-06
7.27668e-06
2.85879e-07
-2.48949e-06
7.68006e-06
-2.89081e-07
-1.78252e-06
7.17819e-06
-5.01383e-07
-2.10312e-06
7.19972e-06
-3.42824e-07
-2.11388e-06
7.64651e-06
-4.03963e-07
-1.51154e-06
7.21833e-06
-1.69504e-06
7.54895e-06
2.53495e-07
-7.97604e-06
7.39493e-06
1.0612e-07
-8.13749e-06
5.33249e-06
6.9737e-07
-7.84087e-06
7.67412e-06
1.42349e-07
-7.06582e-06
6.32533e-06
-7.42015e-07
-6.7174e-06
5.23306e-06
-5.03383e-08
-8.31635e-06
7.33378e-06
-8.12851e-06
7.05133e-06
1.59823e-07
-2.30228e-05
-7.18168e-06
-2.77316e-07
-2.33204e-05
-7.62066e-06
-6.95994e-08
-2.31606e-05
-6.42507e-06
4.60648e-07
-2.29886e-05
-6.35297e-06
4.93396e-07
-2.20257e-05
-7.75857e-06
1.6419e-07
-2.33969e-05
-6.23355e-06
-2.31097e-05
-6.73386e-06
6.87526e-08
3.2877e-05
-5.51138e-07
3.58957e-05
-4.28315e-07
3.29709e-05
-4.49594e-07
3.34294e-05
-5.813e-07
3.5065e-05
-2.66657e-07
3.35508e-05
3.31377e-05
-4.29921e-07
2.91448e-05
8.00634e-07
2.8793e-05
5.29893e-07
2.95597e-05
6.95318e-07
2.86473e-05
3.76246e-07
2.87165e-05
8.87248e-07
2.86022e-05
2.89655e-05
1.05015e-06
1.13428e-05
-7.78658e-08
1.12335e-05
2.16476e-07
1.15676e-05
-7.08776e-07
1.13971e-05
-8.00588e-07
1.16743e-05
5.9041e-08
1.13326e-05
1.18414e-05
5.9393e-07
4.03048e-06
-3.7994e-07
4.37835e-06
8.78342e-07
3.95542e-06
9.39693e-07
4.06966e-06
2.23926e-07
4.28735e-06
6.40051e-08
4.24893e-06
4.30701e-06
-3.99824e-07
-4.22307e-06
2.30509e-07
-4.36889e-06
-4.14653e-07
-3.99657e-06
-6.32441e-07
-4.27487e-06
-4.75755e-07
-3.93486e-06
-6.57646e-07
-4.29996e-06
-4.48066e-06
4.01722e-07
-1.15093e-05
-2.17665e-07
-1.2496e-05
7.30261e-07
-1.14386e-05
2.55502e-07
-1.19826e-05
-2.00436e-07
-1.19481e-05
5.09315e-08
-1.14136e-05
-1.17653e-05
-6.19608e-07
-2.87825e-05
3.1546e-07
-3.27e-05
1.13128e-07
-2.84385e-05
3.00017e-08
-2.9132e-05
1.70931e-07
-3.16012e-05
3.656e-07
-2.85673e-05
-2.89517e-05
2.66301e-09
-8.53487e-07
-4.92905e-07
-3.6035e-07
-9.9276e-07
-1.6698e-07
-0.00392511
0.00258339
0.00139152
-0.00114446
0.0035073
-0.00626764
0.0019758
0.00386285
-0.00699607
0.00404523
0.00326021
-0.00536307
0.00436185
0.00261989
-0.00297152
0.0035952
0.0022176
-0.00146973
0.00225575
0.00131772
-0.00485358
0.00298763
0.00469653
-0.00293786
0.0031778
-0.00140337
0.000758038
0.00412805
-0.00382266
0.00192461
0.00501944
-0.00279749
0.00284159
0.00531132
-0.00349313
0.00336733
0.00522412
-0.00344085
0.00536631
0.000294083
-0.00583974
0.00357768
0.0055568
-0.00767362
0.00255675
0.00274417
-0.00712247
0.00167209
0.002126
-0.00524298
0.00166375
0.00164487
-0.00337178
0.00187928
0.00168369
-0.00135617
0.00240401
0.000889369
0.00293947
0.00112207
-8.46672e-05
-0.00187822
0.00564809
-0.000232713
-0.00168503
0.00444847
-0.000932073
-0.00174725
0.00413684
-0.00127541
-0.00179535
0.00378837
-0.00140728
-0.00194249
0.00390986
-0.000786491
-0.00255504
0.00430823
-0.00272084
0.00486537
-0.000160878
-0.00464021
0.00314831
0.00114536
-0.00448231
0.00168001
0.00265506
-0.00463607
0.001564
0.00370707
-0.00426719
0.00160692
0.00394328
-0.00394559
0.0019555
0.00315125
-0.00382066
0.00226078
-0.00384587
0.00446134
-0.00429384
-0.00223404
0.00193983
-0.00446735
-0.00231493
-0.00190631
-0.0049631
-0.00263947
-0.00134093
-0.00452259
-0.00307933
-0.00141065
-0.00242947
-0.00359976
-0.00219924
-0.000148315
-0.00388311
-0.00197859
-0.00386649
0.000143566
-0.00356018
0.00125682
-0.00494949
-0.000965152
-0.00564554
-0.00192602
-0.00463137
-0.00406871
-0.00280927
-0.00540147
-0.00107612
-0.00558405
-0.0048757
-0.00194513
0.00144264
0.00183127
-0.000662978
0.00184125
-0.00945216
0.00014897
0.00244559
-0.0103085
0.000751697
0.00181737
-0.00784447
0.0012756
0.00171856
-0.00526453
0.00118035
0.00190525
-0.003313
0.00196032
0.000512712
-0.00258735
0.00151135
0.00730769
-0.00229923
0.00170233
-0.00151248
-0.00197268
0.00244458
-0.00409966
-0.00302942
0.00331792
-0.00318274
-0.00181441
0.00371828
-0.00661771
-0.000413324
0.00420298
-0.00702521
0.00460678
-0.00268885
-0.004724
0.00287099
0.0090788
-0.00732361
0.00151417
0.00569374
-0.0077317
0.0010546
0.00406673
-0.00691645
0.00106636
0.00320668
-0.0050537
0.000889482
0.0027849
-0.00255963
0.00139857
0.00134642
0.00212961
0.00117837
0.000665621
-0.000655524
0.00853054
-0.000215691
-0.000183747
0.00700015
-0.00103158
-0.000330262
0.00629262
-0.00141653
-0.00074758
0.0059215
-0.00149668
-0.0013806
0.00621567
-0.00119694
-0.00152709
0.00692764
-0.00201371
0.00785029
0.00107583
-0.00345453
0.00505227
0.00211265
-0.00305334
0.00369282
0.00329731
-0.00378985
0.00402653
0.00288611
-0.00287569
0.00431389
0.00184473
-0.00247784
0.00425664
0.0007272
-0.00318133
0.00519648
-0.00364377
0.00698133
-0.00237611
-0.0018474
0.00277451
-0.0031286
-0.00155679
-0.00257821
-0.00509806
-0.00199432
-0.00103396
-0.00666219
-0.00162746
-0.000919611
-0.00608837
-0.00208107
-0.0029611
-0.0040187
-0.00246795
-0.00457469
-0.00215482
-0.00511637
-0.00275164
0.00209762
-0.00362002
-0.00168702
-0.00410188
-0.00343411
-0.00344934
-0.00636487
-0.00266879
-0.00829352
-0.00189535
-0.00884044
-0.00893173
-0.000524807
0.00124346
0.00100103
0.000345237
0.000865374
-0.0112754
0.00062517
0.00125464
-0.0118998
0.000746424
0.000978004
-0.00898964
0.000565185
0.00131294
-0.00643298
-4.24913e-05
0.00152756
-0.00423243
0.00167074
-0.00118287
-0.00145267
0.00156405
0.00842634
-0.000960967
0.00125613
-0.00240828
-0.00248886
0.00203359
-0.00329857
-0.00423615
0.0027463
-0.00310754
-0.00343905
0.00291726
-0.00884963
-0.00249384
0.00336875
-0.00962136
0.0035236
-0.00687208
-0.00326588
0.00283034
0.0111594
-0.0059983
0.00189264
0.00788767
-0.00730082
0.00159392
0.00593585
-0.00700042
0.00122755
0.00459044
-0.00536948
0.000678528
0.003595
-0.0030685
0.00102523
0.00162321
0.00153914
0.000346972
0.000971194
-0.000458041
0.0108343
0.00035604
-0.000194617
0.00966855
-0.000145821
-0.00028707
0.00862326
-0.000612776
-0.0008103
0.00834382
-0.000862527
-0.00172435
0.0088361
-0.000815073
-0.00198346
0.0099397
-0.00199984
0.0106849
0.00198808
-0.00322263
0.00603064
0.00317368
-0.0026477
0.00515402
0.0036098
-0.00236295
0.00586131
0.00262157
-0.00169432
0.00635774
0.00105314
-0.00234018
0.00662381
-0.000268938
-0.00293032
0.00769034
-0.00362563
0.00859698
-0.00129548
-0.00149517
0.00244626
-0.00388243
-0.000745634
-0.00180563
-0.00683192
-0.000962966
0.000672517
-0.0074726
-0.000926209
-0.000823367
-0.00623738
-0.00120796
-0.0051495
-0.00442852
-0.00117215
-0.00801598
-0.000793663
-0.0122031
-0.00173927
0.00232252
-0.00194003
-0.00224193
-0.00185477
-0.00448276
-0.00153554
-0.00764127
-0.00130935
-0.00978715
-0.000856381
-0.0105241
-0.0106397
0.00135194
0.0010989
-0.00152636
0.00191298
0.00094293
-0.0128093
0.00195049
0.000536705
-0.0124759
0.00158423
0.00050998
-0.00913093
0.000882179
0.00122202
-0.00695814
-0.000212742
0.00153672
-0.0046626
0.00137142
-0.00275493
0.000742109
0.00119409
0.00767042
0.00184821
-0.000164542
-0.00233047
0.00130121
0.000979959
-0.00308911
-0.000948153
0.00238162
-0.00259476
-0.0014932
0.00280521
-0.00968429
-0.00156318
0.00293925
-0.0107513
0.00296381
-0.00987599
-0.00171923
0.00226133
0.0119541
-0.00426121
0.00204983
0.00835181
-0.005188
0.00159806
0.00639565
-0.0047458
0.00114931
0.00554614
-0.00304348
0.000736235
0.00422549
-0.00194182
0.000718342
0.00304744
0.000971126
0.000691871
0.000787328
-0.000245695
0.0126076
0.000724717
5.78313e-05
0.0117005
0.000649304
-0.000329934
0.0105444
0.000551263
-0.000977968
0.0104676
0.000343147
-0.00108847
0.0108208
0.000277658
-0.00107901
0.0118112
-0.000584594
0.0125295
0.00182101
-0.0027512
0.00697575
0.00307101
-0.00230763
0.00650239
0.00332599
-0.00188935
0.00734783
0.00243208
-0.00182596
0.00827691
0.00121462
-0.00145277
0.00834756
2.28597e-05
-0.000962544
0.00891571
-0.00142842
0.009613
-0.00118665
-0.00104655
0.00205523
-0.00380074
-0.00066097
-0.000696797
-0.00557254
-0.000165609
0.000869864
-0.0049509
-0.00113243
-0.00195506
-0.003427
-0.000493163
-0.00757873
-0.00232735
-0.000668344
-0.00941148
-7.36865e-05
-0.0158898
-0.00103522
0.00233503
-0.00177221
-0.00215417
-0.00150242
-0.00492563
-0.00166987
-0.00862208
-0.00146326
-0.0105134
-0.00106548
-0.0116488
-0.0118642
0.00303406
0.000962322
-0.00540988
0.00283167
0.000706892
-0.0132278
0.00269254
-0.000189028
-0.012116
0.00209536
0.000144211
-0.00863011
0.00106685
0.000889162
-0.00680171
-0.000326304
0.001437
-0.00471973
0.00068382
-0.00378919
0.00381797
0.00192662
0.0031642
0.00363803
0.000765968
-0.00198678
0.00319875
0.0012751
-0.00393154
0.00158562
0.00185429
-0.0024941
0.000214819
0.00218013
-0.00941167
-0.000333261
0.00241667
-0.0109998
0.00145651
-0.0108941
0.000442158
0.00134727
0.0124125
-0.00094162
0.00144316
0.00933858
-0.00179466
0.00169555
0.00708413
-0.00199959
0.00120689
0.00662803
-0.00102204
0.000732823
0.00497521
-0.000201396
0.000639497
0.00431036
-1.18045e-06
0.00216417
0.000388177
-0.000478011
0.0140176
0.000778547
-0.00028228
0.0130044
0.00144731
-0.000512757
0.0119991
0.00151732
-0.000270213
0.0117295
0.00162916
-0.000145555
0.0115015
0.00140706
0.000462155
0.0121558
0.0009781
0.0130112
0.000969406
-0.00218523
0.00801041
0.00172008
-0.00219101
0.00787101
0.00266937
-0.0018105
0.00786121
0.0026992
-0.00102865
0.00912379
0.0017669
0.00026983
0.00895944
0.000693361
0.00104337
0.00955692
0.00106188
0.0103438
-0.000634996
-0.000887869
0.00151779
-0.00252553
-0.000505884
-0.000355048
-0.00209198
-4.67326e-05
-0.00121429
-0.00111569
0.00028133
-0.00416956
-0.00119264
0.000173584
-0.00750958
-9.22696e-05
-0.000544347
-0.00900404
0.00104769
-0.0160204
-0.000395523
0.00183735
-0.00133811
-0.00171623
-0.00160127
-0.0047114
-0.00109178
-0.00887999
-0.000521447
-0.0109302
-0.000861099
-0.0118877
-0.0117041
0.00222101
0.000917456
-0.00838848
0.00358205
-0.00123846
-0.0130746
0.00310195
-0.000769187
-0.0108056
0.00294045
-0.000542475
-0.00793371
0.00146761
0.000822786
-0.00616203
8.10361e-05
0.00127633
-0.00465849
0.000242915
-0.00398697
0.00571299
0.00238969
-0.00363857
0.00425615
0.001495
-0.00305547
0.00120625
0.00171244
-0.00319978
0.000504223
0.00119954
-0.00334356
0.0005584
0.00115557
-0.00960245
0.000515322
0.00141734
-0.010967
0.000741666
-0.0108591
0.00156149
0.000875897
0.0127321
0.0020589
1.18502e-05
0.010603
0.00192133
0.00107225
0.00811211
0.00134731
0.00077381
0.00786523
0.000619669
0.000571298
0.00657206
0.000449967
0.000258846
0.00587952
-0.000203361
0.0037288
0.000179749
-4.29112e-05
0.0148063
0.000332199
-0.000103608
0.0128749
0.00134142
-0.000818252
0.0127306
0.00159259
-0.000155193
0.012186
0.00149745
0.000358938
0.0116566
0.00126611
0.000856858
0.0117183
0.00165759
0.0124573
2.40551e-05
-0.00143723
0.00968377
0.000415857
-0.00197122
0.00957477
0.00143982
-0.00224566
0.00842215
0.00211032
-0.000886528
0.00931432
0.00133754
0.000869643
0.00935952
0.000913042
0.00132703
0.00971163
0.00171083
0.0112787
0.000613172
-0.00102927
0.000555271
-0.000626195
-0.000586968
-0.000411365
-0.000556125
-0.000568913
-0.00282966
-0.000620756
0.0015157
-0.00637761
-0.00177905
0.00171048
-0.00716334
-0.000107303
0.000456667
-0.00969505
0.00107941
-0.0154515
-3.7936e-05
0.000815668
-0.000924634
-0.0014417
-0.00217697
-0.00405818
-0.00120992
-0.00843009
4.25405e-05
-0.0104965
-0.000199631
-0.0111742
-0.010803
0.00204907
0.000432966
-0.0111578
0.00436504
-0.0013606
-0.0138235
0.00397722
-0.00152386
-0.00879523
0.00406292
-0.00121026
-0.00680475
0.0024806
2.83416e-05
-0.00464239
0.00105054
0.000304365
-0.00361385
-0.000203131
-0.00278562
-0.000208149
0.00114512
-0.00392429
0.00176808
0.00136046
-0.00754178
-0.00168304
0.00106479
-0.00211097
0.00135812
-5.51712e-05
-0.00736616
0.00299067
-0.000404007
-0.0108208
0.00273886
-0.000127058
-0.0102191
0.000392897
-0.00868703
0.00170798
-0.000209195
0.0126748
0.00228638
-0.000702101
0.0125161
0.001684
0.00138575
0.00864912
0.000945243
0.00139266
0.00725315
-0.000683953
0.00155893
0.00639173
-0.00117583
0.0015698
0.00489602
0.00179064
0.00129781
0.00034242
-0.00190677
0.0161515
7.06508e-05
-0.00158875
0.0137794
0.00135499
-0.00165138
0.0142285
0.000141619
-0.000344671
0.0149264
-2.219e-06
0.000640074
0.0125717
-0.000329111
0.00209519
0.0114028
0.00318978
0.0107541
-0.000118082
-0.00122976
0.00929937
-0.000141039
-0.0017323
0.00985494
-0.000112329
-0.00176071
0.00862278
6.0054e-05
-0.000482222
0.00941175
-0.000389735
0.000668749
0.00995768
-0.00025805
0.00146256
0.0104538
0.00167579
0.0127414
0.000243827
-0.00109147
0.000218205
-0.00122238
-0.000812546
0.000283917
-0.0028135
0.000326066
-0.00317398
-0.00338629
0.00207717
-0.00831113
-0.00399068
0.00215717
-0.00793774
-0.00112168
0.000994455
-0.0117723
0.000471034
-0.0152127
-0.000465238
0.000149203
-0.00209652
-0.000652424
-0.00293783
-0.00294943
-0.000984228
-0.00832136
0.000776412
-0.0101486
0.00105789
-0.0104906
-0.0092892
-0.000180824
0.00316416
-0.0130775
0.00984294
0.000851015
0.00286937
-0.0173339
0.013411
0.00250487
-0.000261623
-0.008857
0.00747737
0.00265144
0.000672698
-0.00627014
0.00543356
0.00276491
0.000349747
-0.00357501
0.00308689
0.00221596
0.000191219
-0.0018246
0.00211232
0.000708094
-8.87725e-05
0.001586
-0.000770335
0.00128425
-0.000886545
0.00379624
-0.00134165
9.11404e-05
-0.00639826
0.00964271
0.00424145
0.00216099
-0.0113346
0.0033995
0.00817902
0.00188069
-0.0143777
0.00927924
0.00819349
0.00161666
-0.0122932
0.0110978
0.00535482
0.00215883
-0.00968003
0.0106168
0.00406802
-0.00459334
0.00666808
0.000517156
-0.000675794
0.0139096
-0.012325
-0.000515246
-0.000819863
0.0138388
-0.0118867
-0.00132058
0.000257053
0.0113967
-0.0085305
-0.00137317
0.00104478
0.00816013
-0.00709331
-0.00169615
0.00116965
0.00741513
-0.00646512
-0.000906019
0.00150345
0.00300006
-0.00296646
0.00215378
-0.000197887
0.00140654
0.000182652
-0.00139493
0.0156086
-0.0152343
-0.000685366
-0.000903593
0.015358
-0.0144952
-0.000822458
-0.000880709
0.0142781
-0.0131432
-0.000828382
-0.000433224
0.0141372
-0.0126866
-0.00164595
0.00030525
0.0137403
-0.0120839
-0.00166763
0.000144004
0.0130737
-0.0117197
-0.000298016
0.0124648
-0.0117688
0.00175586
-0.000957232
0.00582038
-0.00837798
0.000700542
-0.000750636
0.0106071
-0.00953919
-0.000792126
-0.000641754
0.0101941
-0.00880119
-0.00162634
-0.000491202
0.0103789
-0.00936054
-0.00334743
0.00101696
0.0112607
-0.0101944
-0.00378737
0.00147249
0.00970958
-0.010428
-9.20952e-05
0.00693439
-0.0107913
-0.00165075
-0.000384367
0.00206907
-0.00100859
-0.00153207
-0.000551368
0.00122353
-0.0015066
-0.000361686
-0.00184039
-0.00247555
0.002558
-0.00271152
-0.00196916
-0.00470401
0.00843212
-0.00302722
-0.00217894
-0.00509617
0.0085775
-0.00129243
-0.00254337
-0.0105668
0.0128833
-0.00320452
-0.013486
0.015387
-0.000787245
0.00108887
-0.000734798
-0.000951057
-0.000308361
-0.000107681
0.00227549
-0.00766194
0.00260483
0.00267148
-0.0112989
0.00889498
0.0028239
-0.0117768
0.00950602
0.00226787
-0.0108091
0.00881716
-0.00757336
0.00662593
-0.00031564
0.00130983
-0.0141158
-0.000443644
-0.000320973
-0.0169838
0.00156793
-0.000626567
-0.0102294
0.00316526
-0.0011653
-0.00671415
0.00393169
-0.00105522
-0.00326008
0.00301907
-0.000160478
-0.000759198
0.000430449
0.00251542
-0.000689856
0.000714467
0.000460054
-0.00027087
-0.00111205
-0.0061711
0.00701102
0.0012106
-0.0204032
0.00995557
0.00103632
-0.0194635
0.0100443
0.000247889
-0.0135927
0.00755158
0.00165441
-0.00888103
0.00383307
-0.000281551
0.000493228
-0.000492488
0.0146568
-0.0010728
-0.000416804
0.0148086
-0.000744768
5.23523e-05
0.0123506
-0.000766578
-0.000322902
0.00966193
-0.0010453
-0.00123467
0.00924675
-0.000227164
-0.00052255
0.00433552
0.00118902
0.00229052
0.000210703
-0.00108239
0.0158229
-0.000701494
-0.000448618
0.0162047
-0.000920882
-0.00128676
0.015711
-0.0016484
-0.00115483
0.0156065
-0.00277052
-0.00178474
0.0152807
-0.0034851
-0.00157015
0.0147705
-0.00279328
0.0129266
0.000380828
-0.00161079
0.00585394
0.00076899
-0.00118472
0.0110932
-0.000923197
-0.000603082
0.0113263
-0.00371402
0.000592651
0.0114345
-0.00739267
0.00181138
0.0113721
-0.00703765
0.00138969
0.00646086
-0.0005379
-0.00230629
-0.00191839
-0.000442886
0.00284186
-0.000744662
-0.00100189
-6.03487e-05
7.1799e-06
-0.000919411
-0.00286336
-0.00257457
7.76123e-05
-0.0016488
-0.00367843
0.000274146
-0.00248371
-0.000956441
-0.000877825
-0.0110149
-0.00224354
-0.012778
-0.000887381
0.00145164
0.00122521
-0.00344686
0.00482306
-0.012207
0.00566063
-0.012061
0.00536259
-0.0112258
0.00361362
-0.00998508
-0.00626792
-0.00159116
0.00152254
-0.0140416
-0.000371723
-0.0008733
-0.0173023
0.0014076
-5.97492e-05
-0.0119704
0.00375288
-0.00190191
-0.00722411
0.00391933
-0.00037606
-0.00309636
0.00220707
0.000881057
7.03683e-05
0.000618836
0.00413965
0.00118173
0.000154549
0.00068754
0.00274493
-0.00109165
-0.00767408
0.00775365
-0.000480569
-0.0250815
0.00924251
-0.000822961
-0.0220678
0.00806575
-0.000551757
-0.0122619
0.00496009
0.00193806
-0.00675575
0.00285834
0.00260505
0.000814535
-0.000557461
0.0145109
-0.00042516
0.000234769
0.0147542
-0.00016582
-0.000413632
0.0120302
-0.00124066
-0.00151172
0.0114905
-0.00165558
-0.00256619
0.0117227
0.000681904
-0.00219855
0.00621313
0.000996843
0.00494169
0.000258588
-0.000890946
0.0156498
-0.00080552
0.000478075
0.0168678
-0.000904506
-0.00107444
0.0162564
-0.000821784
-0.00222058
0.0160573
-0.00289615
-0.00164042
0.0162398
-0.00372233
-0.00188246
0.015164
-0.00229835
0.0123745
-0.000194494
-0.00119838
0.00634587
0.00111785
-0.000527151
0.0107807
-0.00104203
-0.000145996
0.0126139
-0.00432736
0.000460153
0.012068
-0.00696062
0.00162594
0.0108055
-0.00415443
0.000587883
0.00133771
-0.00107441
-0.00747015
-0.00196543
-5.85856e-05
0.00367648
-0.000770961
-0.00132427
-0.000334947
-0.00102429
-0.000679874
-0.00201182
-0.00270533
0.00106928
-0.000666971
-0.000144215
0.000219902
-0.00357579
0.00119301
-0.00110156
-0.0106115
-0.00167183
-0.0110268
-0.00171617
0.00308109
0.00352144
-0.00996883
0.00499563
-0.0144648
0.00622288
-0.0121992
0.00583312
-0.0106649
0.00346425
-0.00877749
-0.00454049
-0.00241123
0.00169015
-0.0132689
-0.00126525
-0.00120713
-0.0170775
-0.00028351
-0.000904697
-0.0121025
0.00235719
-0.00265313
-0.00732107
0.00191652
-1.19706e-05
-0.00273011
0.000520802
0.00048526
0.000933982
0.000631182
0.00402453
0.003144
-0.00209958
0.00121542
0.00759864
-0.00155157
-0.0119126
0.00851524
-0.000156463
-0.0268702
0.0068188
-0.00147164
-0.0216188
0.00456721
-0.00112397
-0.00895685
0.00152124
0.00116045
-0.00439403
0.00178175
0.00305228
0.000176377
-0.0010095
0.0131726
0.0006053
-0.00091237
0.0135896
0.00122737
-0.00078724
0.0120306
0.00017686
-0.0011228
0.0121955
-0.00064531
-0.0016471
0.0130579
0.000470105
-0.00172386
0.00796687
0.00122551
0.00600948
0.000368199
-0.00054634
0.014446
0.000105833
-0.000156441
0.0161728
-0.000470603
-0.000388715
0.0161854
0.000217499
-0.00164843
0.015689
-0.00202797
-0.00043064
0.017037
-0.00324712
-0.00144948
0.0158439
-0.00144819
0.011587
0.000289025
-0.000878083
0.00638241
0.000117467
-0.000164651
0.0107006
-0.00199384
0.000491175
0.0139137
-0.00431609
-3.71185e-05
0.0127962
-0.00436261
-0.000248364
0.0107098
-0.00182036
-0.00204804
-0.000432838
-0.003651
-0.00701975
-0.00214097
0.000791222
0.00417594
-0.00217839
-0.000537979
0.000187883
-0.000946738
-0.000770553
-0.00179208
0.00105771
0.00129982
-0.00395555
0.00612028
-0.000309027
-0.00838976
0.00449098
-7.09085e-05
-0.0108694
-0.000250988
-0.00991431
0.000646379
0.00315305
0.00572522
-0.0156938
0.00522337
-0.0147877
0.00572195
-0.0114045
0.00408172
-0.00938887
0.00172512
-0.00654663
-0.0031006
-0.00302267
0.000974678
-0.0111463
-0.00337031
-9.17462e-05
-0.0164928
-0.00173295
-0.00291175
-0.0108625
-0.000437583
-0.00310036
-0.00560553
-0.000932252
-0.00142676
-0.000873355
-0.00116096
-0.000277574
0.00138071
-0.000535905
0.00335523
0.00260603
-0.0043558
0.00385669
0.00985896
-0.00170766
-0.0174871
0.00858874
-0.0013464
-0.0272029
0.00511973
-0.00217234
-0.0190411
0.0034061
-0.00224191
-0.00646984
0.000329927
0.00054469
-0.00218236
0.000776899
0.0021029
-0.000669166
-0.000501446
0.00991586
0.000693607
-0.000951804
0.0113103
0.00232869
-0.000595481
0.00964594
0.0016626
0.000535321
0.0101596
0.000450072
-0.000161419
0.0121438
0.000554393
3.21794e-05
0.0083383
0.00215048
0.0052215
0.000484383
0.000276209
0.0128604
0.000218138
6.26992e-05
0.0151247
0.0002297
-0.000147543
0.015521
0.00175327
-0.000534905
0.0150414
0.000193912
0.00128333
0.0169013
-0.00275838
0.00200666
0.0165177
-0.000555272
0.0113088
-0.000113953
0.000372899
0.00638937
-0.00106671
0.00163436
0.00990217
-0.00181781
0.00196777
0.0125541
-0.00179373