/*--------------------------------*- C++ -*----------------------------------*\
  =========                 |
  \\      /  F ield         | OpenFOAM: The Open Source CFD Toolbox
   \\    /   O peration     | Website:  https://openfoam.org
    \\  /    A nd           | Version:  6
     \\/     M anipulation  |
\*---------------------------------------------------------------------------*/
FoamFile
{
    version     2.0;
    format      ascii;
    class       volScalarField;
    location    "0.015";
    object      T;
}
// * * * * * * * * * * * * * * * * * * * * * * * * * * * * * * * * * * * * * //

dimensions      [0 0 0 1 0 0 0];

internalField   nonuniform List<scalar> 
3773
(
291.656
291.696
291.942
291.769
291.623
291.834
291.678
292.55
292.883
293.351
293.027
292.72
293.12
292.554
306.18
307.687
307.564
307.535
307.536
307.516
306.206
309.939
310.207
310.264
310.246
310.238
310.3
309.963
306.202
306.407
307.547
307.506
307.569
307.484
306.255
292.662
293
293.264
292.824
292.842
293.421
292.683
291.749
291.919
291.961
291.694
291.703
292.026
291.765
289.476
289.614
289.796
289.637
289.497
289.695
289.523
270.195
275.324
275.609
274.741
273.553
274.333
270.722
314.105
313.066
313.28
313.495
313.267
312.694
314.204
325.789
326.163
326.512
326.567
326.532
326.309
326.236
314.478
314.543
313.29
313.324
313.446
313.171
314.551
270.757
271.818
274.526
273.202
274.143
275.012
270.918
289.598
289.793
289.854
289.586
289.619
289.914
289.628
285.656
285.205
285.299
285.132
285
285.406
285.841
261.835
268.109
267.879
266.688
264.32
264.953
261.924
313.249
311.97
312.656
313.879
313.232
311.019
312.8
327.373
326.718
327.3
327.931
327.902
326.558
327.217
313.057
312.014
311.818
313.457
313.29
311.757
312.798
262.443
264.849
265.456
263.518
265.628
266.003
262.415
286.165
285.811
285.856
285.646
285.454
285.867
286.278
270.253
267.303
266.364
266.135
266.41
267.873
270.766
255.947
262.651
262.488
261.692
258.663
258.965
255.738
313.773
312.29
312.254
313.075
313.623
311.353
313.179
327.507
327.135
327.397
327.9
327.597
326.838
327.332
313.684
311.13
314.026
315.616
314.036
311.183
313.196
256.515
259.471
259.602
258.3
260.192
259.864
256.374
272.284
269.606
269.007
268.624
267.621
269.355
272.807
239.337
237.801
236.828
236.238
236.075
237.127
239.51
252.555
257.837
257.566
257.851
255.587
255.606
252.089
314.384
312.083
311.933
312.994
312.262
310.904
313.889
327.633
327.105
327.433
327.462
327.151
326.751
327.57
314.211
311.432
313.365
314.044
313.951
311.54
314.022
252.974
256.127
256.151
255.403
257.268
256.024
252.756
240.892
238.729
237.953
236.911
236.975
238.483
241.357
224.405
224.522
223.66
223.446
222.792
222.854
224.309
252.164
256.335
256.15
257.269
256.122
255.898
251.479
315.182
311.775
312.276
311.746
311.285
311.116
314.408
328.062
327.382
327.323
327.438
327.022
327.659
328.021
314.729
312.104
311.899
312.116
312.098
312.499
314.626
252.169
255.316
256.047
256.185
257.714
255.251
251.932
224.894
223.682
223.373
222.088
223.877
223.569
225.023
213.988
213.518
213.428
214.471
214.012
213.8
213.968
248.954
250.232
247.969
249.851
249.927
250.144
248.876
311.588
311.736
309.855
310.74
309.431
311.193
309.853
336.126
337.584
337.412
337.339
337.968
336.029
338.059
311.458
316.802
311.36
309.727
318.77
311.748
310.054
249.244
238.347
249.985
248.934
241.235
249.892
249.039
214.201
213.265
213.973
213.041
213.711
213.994
214.14
348.113
348.282
349.37
349.119
349.11
348.025
345.613
345.713
346.628
345.837
345.786
343.63
342.754
343.284
337.699
338.617
339.642
339.927
339.836
340.228
341.632
325.058
327.344
328.392
328.982
329.143
328.945
329.145
336.882
337.013
336.994
336.972
336.733
336.367
335.515
344.247
343.353
343.844
345.252
346.394
347.789
345.401
346.001
347.42
349.36
352.108
352.743
352.981
352.237
347.501
347.1
348.088
347.737
348.527
348.229
346.203
344.001
341.33
339.493
340.53
340.264
342.428
344.546
336.569
336.592
337.003
337.205
336.82
337.81
339.776
324.251
325.882
326.968
328.097
327.438
327.322
327.606
335.727
334.252
334.154
334.218
334.559
334.894
334.762
343.6
341.036
340.379
340.887
344.001
345.621
345.931
346.975
347.775
350.467
353.013
353.527
353.916
355.001
345.356
346.319
347.352
346.771
348.266
349.167
347.097
340.035
334.371
330.802
332.717
338.783
343.551
345.053
334.818
332.585
331.198
331.884
333.366
336.064
337.231
323.143
323.699
325.614
327.511
326.029
325.568
325.052
333.355
330.743
330.508
330.379
331.66
332.95
334.371
342.336
337.034
335.913
337.395
342.532
344.611
347.25
346.863
347.452
349.784
351.476
351.079
351.599
354.099
340.408
346.717
347.908
347.001
348.703
350.053
348.007
337.738
333.928
328.851
328.077
339.193
343.852
344.813
331.312
326.698
327.62
327.486
329.867
331.044
332.839
321.177
321.61
324.67
327.634
325.847
322.93
320.877
331.632
328.165
327.453
328.225
329.333
328.749
332.769
339.945
333.482
332.724
337.281
341.61
342.577
347.701
346.009
347.411
349.877
351.019
349.949
350.62
352.822
342.918
347.914
348.977
348.368
350.614
350.558
347.98
334.314
332.2
329.013
326.952
339.902
344.018
343.81
328.041
323.355
325.179
326.084
328.11
325.971
327.775
317.885
319.435
324.267
328.405
326.216
321.141
318.732
328.968
326.119
325.982
327
326.978
326.025
328.931
336.838
331.412
332.089
336.125
337.518
335.733
346.136
345.217
347.155
349.748
350.694
349.492
350.191
352.396
350.677
350.809
350.168
350.125
351.304
350.861
347.973
335.328
333.459
331.789
329.979
342.944
344.357
343.661
321.278
319.995
319.633
322.207
324.337
321.445
318.066
313.985
318.746
324.322
330.729
327.983
321.018
316.099
322.974
322.923
325.493
326.611
325.341
322.908
325.388
334.727
329.596
334.014
338.656
334.006
333.322
345.897
344.389
346.005
350.214
350.707
349.305
350.398
352.287
352.6
354.424
351.22
350.807
351.166
350.681
348.277
340.115
340.558
337.536
339.823
345.621
344.672
344.528
318.871
317.14
317.1
319.159
319.615
315.006
311.622
311.851
317.249
324.315
330.159
327.752
319.629
313.412
313.058
316.904
323.145
324.013
320.273
318.259
317.608
331.072
326.529
334.49
339.385
334.228
336.753
347.573
343.666
345.763
350.731
353.816
352.267
353.169
352.924
350.885
351.452
353.982
352.919
351.745
351.521
350.11
348.43
348.698
347.645
348.261
348.341
348.113
348.495
316.323
313.575
317.224
321.803
320.25
319.383
334.45
310.101
316.292
325.824
329.988
326.675
317.104
312.285
321.724
313.68
320.672
321.802
315.739
312.694
313.18
339.682
336.962
344.354
343.376
341.251
346.574
354.428
345.905
348.039
355.448
355.344
356.006
355.975
356.372
346.729
348.935
353.852
351.793
350.66
350.468
350.173
342.826
342.858
347.939
347.576
346.483
346.693
347.788
315.185
311.881
318.01
324.886
326.538
340.846
348.301
311.216
315.191
325.986
328.862
323.225
315.504
314.404
340.176
314.253
319.859
318.439
314.863
315.529
323.757
341.627
341.888
342.401
335.332
334.718
346.962
354.098
346.078
348.779
357.413
354.324
353.423
353.606
354.879
346.564
348.221
354.254
350.805
350.793
350.62
350.118
343.435
342.227
346.147
345.747
345.047
346.208
347.969
315.092
311.316
320.317
325.477
327.084
337.627
347.783
313.294
314.953
326.308
328.175
322.545
316.647
320.626
343.066
315.582
318.692
318.277
316.514
328.618
345.168
343.519
342.284
338.574
333.242
333.348
347.869
353.391
346.29
355.481
356
353.372
352.886
353.057
354.404
346.533
348.319
351.545
349.282
350.1
350.884
350.148
339.115
341.116
345.815
345.383
343.133
345.752
348.332
315.833
311.907
320.487
326.03
328.055
337.223
347.373
317.105
315.164
326.943
328.42
323.224
320.163
328.434
345.079
322.648
318.729
319.234
322.753
338.202
351.218
343.709
340.265
337.722
334.737
340.863
348.687
352.802
346.119
354.38
355.032
352.985
352.725
352.743
354.238
347.129
349.378
350.362
348.898
348.939
351.235
350.101
332.008
343.013
348.669
346.684
342.26
345.404
348.23
319.511
314.864
320.852
326.113
328.843
338.683
347.47
322.971
317.656
329.155
329.798
325.499
326.614
334.441
345.418
331.459
319.764
321.886
328.717
341.243
352.131
344.448
343.616
343.285
346.023
350.771
352.012
353.151
345.258
349.719
353.796
352.756
352.936
353.933
354.791
346.457
350.302
350.448
351.092
348.112
349.442
349.414
326.458
347.407
352.528
350.692
341.691
343.961
348.113
322.88
321.229
324.699
326.544
328.935
335.206
344.86
325.315
320.991
329.646
330.357
327.453
328.217
338.502
341.339
329.043
323.003
323.526
328.606
337.64
350.597
344.87
349.529
349.836
352.089
352.886
353.897
354.768
341.242
346.738
354.764
355.365
355.152
355.685
354.991
340.315
349.414
350.252
352.095
351.184
350.785
350.737
343.65
348.945
355.059
353.107
346.149
344.653
346.284
337.81
346.397
347.633
345.918
338.424
338.542
342.146
333.022
330.923
333.822
332.951
331.528
331.66
337.512
351.714
352.14
347.704
334.511
330.886
334.129
344.51
350.859
351.712
353.975
355.3
353.558
353.635
354.257
338.77
347.481
357.158
358.776
355.531
354.991
355.492
351.273
355.047
351.514
351.486
351.016
350.872
349.233
344.475
346.373
338.419
346.729
345.477
345.222
346.005
318.422
314.765
317.237
319.309
319.505
313.071
310.542
311.208
317.346
324.597
330.197
327.968
319.537
313.07
312.649
316.576
322.96
323.952
320.411
317.154
317.436
325.245
319.745
338.108
341.579
338.1
342.491
350.749
337.959
341.392
350.008
357.406
354.732
355.008
355.08
351.363
354.747
351.863
351.722
351.142
351.159
349.731
346.102
347.951
341.705
347.153
346.203
346.581
347.254
318.094
314.566
317.045
319.306
319.388
313
308.729
311.104
317.314
324.62
330.236
328.02
319.494
312.923
312.309
316.398
322.769
323.855
320.249
316.837
317.21
327.94
319.855
339.747
342.846
338.984
343.353
351.351
341.663
346.34
350.187
357.629
354.976
355.186
355.3
351.424
354.368
352.081
351.82
351.18
351.192
349.786
346.473
348.333
342.388
347.356
346.515
347.146
347.849
317.793
314.77
316.869
319.288
319.145
312.82
307.504
310.925
317.3
324.676
330.274
328.005
319.385
312.565
311.862
316.252
322.55
323.746
320.146
316.446
316.814
331.033
320.929
340.167
343.215
339.321
343.918
351.906
344.563
347.454
350.074
357.641
355.253
355.413
355.381
351.546
354.302
352.416
351.891
351.204
351.139
349.738
346.918
348.219
342.629
347.304
346.914
347.404
347.905
317.346
314.874
316.525
319.361
318.915
312.373
307.937
310.833
317.283
324.727
330.337
327.905
319.108
312.399
311.592
315.827
322.434
323.488
319.898
315.99
316.399
332.378
325.358
340.023
343.277
339.518
344.157
352.445
345.99
347.02
350.191
357.264
355.417
355.482
355.73
351.742
354.445
353.007
352.093
351.235
351.136
349.73
346.974
348.154
342.723
347.253
347.426
347.771
347.926
317.063
314.951
316.287
319.293
318.749
311.717
312.445
310.645
317.241
324.76
330.381
327.887
318.922
312.072
311.004
315.521
322.204
323.346
319.791
315.512
316.11
331.153
329.081
339.96
343.24
339.749
344.448
352.912
346.217
345.623
351.407
356.956
356.02
355.81
355.88
351.745
354.604
353.564
352.551
351.314
351.153
349.747
347.047
348.395
344.7
347.562
347.908
348.201
347.925
316.893
314.953
316.097
319.119
318.271
311.19
322.603
310.551
317.22
324.823
330.436
327.889
318.77
311.998
310.515
315.156
321.871
323.275
319.584
315.359
315.729
329.061
329.501
341.752
343.227
340.233
344.99
353.297
345.83
345.466
353.2
356.789
356.274
356.285
356.343
351.462
354.415
353.743
352.826
351.612
351.353
350.013
347.756
348.917
346.646
348.171
348.336
348.676
348.683
316.511
314.866
315.995
319.206
318.251
315.103
329.996
310.336
317.159
324.885
330.546
327.927
318.706
311.753
309.912
314.621
321.647
323.067
319.466
315.156
315.381
329.297
327.611
343.19
343.708
340.759
345.613
353.868
341.569
342.004
354.513
356.683
356.322
356.309
356.421
331.902
357.267
336.681
328.031
325.174
323.424
321.684
348.246
354.683
357.69
347.36
346.323
345.845
345.364
340.612
351.368
349.011
349.243
342.021
340.975
341.723
334.481
333.532
335.11
334.338
333.043
332.993
336.519
356.379
356.883
356.387
356.211
344.258
335.752
343.168
342.199
350.972
359.557
349.304
348.653
347.834
346.109
332.382
354.329
334.642
325.042
323.224
321.632
320.114
351.996
347.612
343.903
339.36
334.329
332.315
331.225
352.277
361.409
350.805
347.231
346.041
345.11
344.711
349.864
352.045
349.866
349.26
349.355
346.273
343.321
334.701
334.279
335.908
335.26
333.491
333.244
336.097
358.974
353.369
352.113
350.892
347.583
338.215
341.447
351.116
359.687
350.784
347.549
346.451
345.138
344.93
357.379
344.254
338.753
334.661
331.535
328.999
326.674
358.846
349.068
350.652
348.002
344.32
344.311
348.966
356.45
361.975
352.68
350.578
348.831
347.148
346.786
352.468
352.612
349.5
348.86
349.341
347.31
346.218
335.532
335.707
336.711
336.079
334.305
333.807
335.861
354.422
351.858
350.049
346.995
347.556
342.17
341.35
359.573
355.471
350.698
348.945
347.876
346.828
346.581
360.765
345.419
345.573
343.935
340.983
338.979
337.125
357.354
352.256
354.864
353.181
352.604
352.862
355.25
358.819
361.623
354.995
355.023
352.964
352.329
353.945
353.122
354.105
352.07
351.695
349.825
348.581
348.245
336.002
336.907
337.37
336.734
335.024
334.277
335.368
352.086
350.602
349.542
347.038
346.245
342.671
341.373
360.124
352.313
351.087
351.219
350.898
349.532
347.991
355.138
347.821
350.323
350.257
350.426
349.772
349.129
355.93
353.31
355.892
354.54
353.978
354.331
354.52
359.864
360.684
357.372
357.802
356.514
356.11
355.643
354.354
354.263
354.538
353.635
351.064
349.693
348.499
336.995
338.421
338.906
338.343
336.158
335.42
335.43
349.973
351.178
350.086
349.379
346.347
343.278
340.788
357.198
352.671
351.811
351.767
351.88
351.269
350.278
351.653
350.587
352.553
352.713
352.61
351.697
350.944
356.483
356.374
356.499
355.258
354.618
353.842
354.147
360.599
360.774
359.055
358.248
358.163
357.851
357.72
355.037
354.764
357.092
356.053
353.667
351.218
349.758
338.327
341.496
341.418
341.252
337.674
336.745
336.003
349.403
352.175
351.851
351.214
348.913
344.978
342.802
355.507
352.893
351.538
351.364
351.498
351.377
350.924
352.324
353.248
352.64
353.006
353.029
352.054
351.043
357.005
358.143
355.977
352.587
350.318
349.768
349.894
360.007
360.635
359.13
357.45
356.225
355.812
355.802
357.555
358.175
359.305
357.728
354.788
352.958
349.051
341.598
346.913
346.74
345.684
341.422
340.651
338.113
352.84
354.271
354.22
353.664
351.42
349.939
346.011
355.194
353.911
351.522
351.253
351.424
351.282
350.654
354.196
354.566
350.479
349.341
348.785
347.99
347.303
320.319
320.006
318.926
319.043
323.238
332.331
339.534
343.703
343.287
342.81
342.24
342.009
343.016
346.915
342.226
343.078
352.206
357.842
357.032
356.902
357.164
338.434
340.864
348.312
354.314
355.86
355.707
355.272
343.707
345.799
358.43
358.906
358.397
358.439
358.996
343.087
342.503
341.332
340.946
342.349
346.826
349.403
314.717
312.256
311.543
314.961
324.877
331.396
340.945
331.618
330.876
330.038
329.758
330.867
335.039
341.023
344.265
343.719
343.519
342.895
342.956
344.489
346.303
343.316
343.535
345.169
353.056
356.342
355.83
356.096
338.262
340.191
342.021
345.918
349.671
350.789
350.705
342.878
344.02
346.982
355.758
357.849
357.539
358.003
343.249
342.153
341.064
340.966
341.841
345.211
348.122
324.173
321.675
321.747
322.957
328.09
333.875
342.745
350.252
350.451
348.178
347.071
344.412
344.94
343.028
346.937
346.72
347.374
347.556
347.47
347.907
348.727
345.498
344.816
344.961
346.02
353.468
355.593
355.213
338.196
338.826
339.543
340.198
342.337
344.392
346.228
341.652
342.179
343.068
345.738
352.792
356.225
357.313
345.579
344.832
343.81
343.466
343.705
344.46
346.282
338.259
339.257
340.669
341.56
341.306
341.435
342.157
355.965
355.949
356.059
355.781
354.916
354.874
348.392
354.487
354.849
355.564
356.001
356.337
356.422
357.574
347.579
347.46
347.148
346.429
347.011
350.943
355.478
337.744
338.207
338.632
338.635
338.614
338.655
339.305
341.052
340.694
340.676
340.963
342.081
345.545
351.019
347.618
347.05
346.399
346.119
346.082
345.919
345.917
350.228
350.895
351.452
352.398
352.113
347.024
341.064
354.687
354.802
355.124
355.69
355.927
355.863
354.447
355.94
356.685
358.022
358.545
358.806
359.251
359.698
348.992
349.571
349.679
349.154
347.915
347.913
349.744
336.629
336.904
337.265
337.258
337.091
336.874
335.824
340.599
340.246
339.884
339.049
339.056
339.439
340.52
350.279
350.585
350.446
350.373
350.518
350.38
349.338
351.299
351.402
351.558
351.958
352.199
352.128
344.33
354.658
354.827
355.231
355.709
355.761
355.796
355.303
357.552
357.751
358.146
358.534
358.903
358.753
358.263
347.378
347.178
347.158
347.483
347.73
347.571
347.564
336.124
336.102
335.735
335.491
334.554
333.904
332.442
341.898
341.269
340.886
340.166
339.656
338.464
338.89
350.747
350.78
350.735
350.831
350.927
351.082
351.872
350.809
350.714
350.61
351.094
351.819
352.772
351.617
349.805
349.971
350.62
351.626
352.303
353.881
355.54
355.494
355.38
355.345
355.504
355.226
354.273
353.162
346.888
346.315
346.025
345.279
344.681
344.08
341.485
337.851
337.305
336.824
335.789
334.759
332.613
329.078
344.793
342.876
342.199
341.596
340.347
339.414
336.985
350.504
350.262
350.032
349.796
349.848
350.117
350.686
347.73
348.005
348.668
349.559
351.008
352.191
352.327
344.654
337.244
328.216
324.052
323.224
325.785
328.859
352.067
349.37
346.993
344.496
344.478
345.23
346.565
359.843
359.091
358.431
346.272
339.24
338.298
338.161
353.337
353.454
351.425
349.348
348.891
348.997
337.431
358.052
356.926
355.492
354.169
353.938
354.132
354.814
349.815
346.728
343.686
341.916
341.05
341.098
341.929
342.037
332.863
326.566
323.484
322.948
324.436
328.876
345.385
340.8
334.829
334.381
334.002
336.99
340.598
353.066
350.821
348.647
347.222
347.01
347.215
349.28
359.551
359.57
359.03
344.44
341.246
341.733
344.939
350.88
350.607
348.68
346.869
346.11
342.457
337.466
355.159
354.94
355.929
356.829
356.89
357.209
357.707
347.31
344.885
344.163
344.269
344.836
344.992
346.029
343.504
337.051
334.035
334.738
334.455
336.276
339.063
345.363
347.046
350.743
350.646
350.096
351.515
351.489
356.209
354.124
353.784
353.253
353.189
353.245
354.039
359.932
360.195
354.666
343.895
345.03
350.082
351.633
349.4
347.737
346.409
345.321
344.188
339.845
337.12
355.784
356.561
356.699
357.556
357.439
355.053
354.452
348.797
349.683
351.485
354.467
356.915
357.576
357.444
346.574
348.291
351.549
353.802
355.905
356.862
354.699
348.133
359.733
360.424
358.895
356.714
356.467
357.906
360.359
359.853
359.78
359.373
359.161
358.719
358.519
359.724
355.24
348.208
346.99
350.266
351.056
352.057
345.014
344.078
343.77
342.019
340.248
338.779
337.227
357.201
356.602
356.745
356.305
355.118
354.694
354.597
355.012
357.196
357.966
358.928
359.381
359.925
360.32
349.304
355.748
356
357.024
358.553
359.007
359.453
355.501
362.239
359.176
357.521
355.308
355.401
355.946
361.544
361.286
360.395
359.965
359.503
359.548
359.713
354.194
351.155
350.864
352.585
354.496
354.789
354.606
341.731
341.523
340.943
340.424
339.357
338.336
337.742
354.209
354.171
352.939
352.217
351.764
351.515
351.468
356.847
356.906
357.166
357.066
357.474
357.748
357.916
354.025
355.493
354.797
354.586
354.198
354.048
353.703
356.763
361.876
359.455
356.598
354.774
354.908
355.84
360.589
360.352
359.913
359.117
358.887
358.947
360.03
353.24
353.172
354.641
355.293
355.417
355.585
355.649
337.89
338.783
339.146
339.301
338.909
338.883
338.64
350.4
349.497
349.758
349.749
349.851
349.862
349.876
354.966
355.245
355.148
354.543
354.547
355.172
355.414
354.858
355.141
353.681
352.185
351.548
351.136
351.968
355.791
358.944
356.987
355.194
354.031
353.924
354.913
357.124
357.165
356.765
356.612
356.589
357.158
358.091
350.689
353.559
354.273
354.434
354.57
355.446
356.036
335.638
338.265
339.477
339.877
340.232
340.497
340.84
346.245
348.033
348.682
348.899
349.806
350.174
350.561
353.658
354.945
354.658
354.247
354.108
354.464
354.918
353.912
354.491
354.352
353.257
351.854
351.829
353.17
362.841
361.875
364.315
362.947
358.628
356.524
349.141
363.82
360.404
361.167
361.033
359.951
357.583
355.995
361.221
359.558
359.562
359.732
360.179
360.148
360.131
355.105
354.512
353.026
352.241
351.911
352.242
352.998
360.945
359.67
360.094
359.972
359.586
359.215
358.538
363.71
360.802
361.492
359.372
357.599
355.329
352.088
364.56
362.248
363.213
360.12
357.974
351.892
346.845
361.553
357.798
362.912
357.175
355.099
355.016
348.595
358.449
356.778
358.189
358.182
357.741
356.932
354.996
359.492
358.461
358.358
358.429
358.815
359.234
359.545
354.96
353.111
351.299
350.347
350.039
350.434
350.786
360.847
358.264
357.917
357.583
356.959
355.984
355.847
364.6
355.587
354.531
352.238
351.274
349.884
348.643
366.174
358.046
357.842
353.971
352.917
348.966
345.767
355.322
355.939
358.863
351.7
352.393
351.599
345.19
350.568
354.321
357.468
357.67
358.173
357.956
357.089
355.821
356.303
357.322
358.004
358.74
359.292
360.035
354.273
352.385
351.471
350.573
350.298
350.161
350.036
359.978
357.128
356.358
356.263
355.524
355.035
355.236
361.705
352.627
349.633
349.303
349.729
349.095
349.681
359.03
353.879
353.14
350.365
350.355
347.363
345.6
352.844
351.101
354.065
345.301
348.884
346.644
338.455
347.552
355.38
359.345
359.059
361.072
360.781
360.908
353.419
354.386
356.11
356.628
358.289
359.479
360.079
353.488
352.376
351.09
349.344
348.247
347.021
346.557
356.461
354.644
354.202
353.619
353.683
354.321
356.582
350.33
345.372
347.45
347.77
349.297
351.355
355.145
354.684
348.282
348.537
342.804
345.06
342.296
343.26
350.024
347.286
350.344
342.598
346.701
341.106
335.148
342.935
358.087
359.857
357.605
362.372
361.291
360.739
352.205
354.304
355.822
356.548
359.224
359.904
359.243
352.851
351.083
347.946
345.688
343.86
343.203
343.517
355.166
353.759
352.716
352.694
354.745
355.404
355.134
346.037
342.601
347.216
346.935
352.198
357.544
357.385
352.897
343.977
344.027
338.787
342.023
337.632
342.759
345.94
343.763
346.244
340.092
342.956
338.354
332.718
338.733
359.257
357.884
357.175
363.716
361.184
360.673
349.555
353.66
354.689
354.289
356.803
355.752
353.051
350.822
349.31
346.727
343.28
340.594
339.44
338.172
352.187
351.764
350.628
350.221
352.326
351.979
350.494
342.052
338.446
347.428
345.716
357.789
358.045
355.201
345.556
339.642
341.05
335.919
339.232
335.717
344.312
338.621
336.715
344.114
337.658
340.24
334.338
331.227
336.382
358.371
355.17
350.833
363.649
359.841
358.599
348.151
351.093
351.544
352.003
352.343
349.68
349.281
349.14
344.91
339.151
336.519
333.168
331.73
331.478
350.425
348.162
347.522
346.749
346.842
343.546
343.309
335.726
333.049
346.819
344.815
359.866
357.579
353.007
342.282
336.22
338.407
332.577
337.169
333.131
342.319
332.067
320.477
336.577
320.352
320.776
327.48
329.341
329.334
346.786
334.702
335.97
333.924
333.775
334.252
336.869
341.049
340.114
342.699
341.365
338.905
330.793
330.828
332.407
335.222
334.897
332.54
331.385
325.699
338.45
338.639
334.958
335.09
336.62
340.657
334.361
325.137
324.274
327.77
333.472
337.975
349.129
340.17
334.159
331.26
331.599
329.435
330.512
330.33
332.225
307.126
297.468
300.151
306.502
306.737
307.623
307.488
317.77
323.915
327.584
323.987
318.646
321.673
322.112
331.688
333.212
331.082
332.586
334.214
334.252
330.861
325.48
327.798
327.524
329.071
329.058
328.182
325.374
334.957
333.406
329.874
330.467
329.993
330.212
329.559
318.517
318.01
320.651
326.256
336.318
338.156
339.819
307.655
302.038
303.378
300.032
300.549
302.101
303.386
290.437
290.896
291.084
290.63
290.168
290.654
290.594
309.908
310.247
310.422
312.107
309.511
310.74
310.446
323.896
324.468
324.086
324.895
328.34
328.164
327.723
316.982
318.463
319.395
321.238
322.64
323.498
321.614
332.387
330.9
328.734
326.497
327.11
328.279
326.144
313.934
313.184
314.201
315.347
315.629
316.869
315.868
295.766
295.667
294.722
294.712
294.791
295.457
295.227
282.496
282.156
282.016
281.845
280.311
281.786
280.522
304.714
306.174
306.566
305.799
306.869
307.793
306.232
322.648
323.067
321.823
320.524
323.596
325.21
324.406
311.972
314.193
315.85
316.981
317.239
318.257
317.474
326.767
324.275
323.757
323.138
321.936
324.909
323.189
306.905
308.443
308.916
309.827
309.165
307.875
307.565
284.989
286.718
288.311
288.796
288.407
289.579
289.113
279.607
279.545
279.533
279.212
279.073
279.122
279.3
303.318
303.272
303.602
304.005
303.798
303.988
303.98
320.734
319.782
317.863
316.232
318.698
321.634
319.544
306.394
308.271
309.611
310.265
311.275
311.715
310.523
318.701
317.271
315.485
316.038
318.189
317.525
316.948
304.366
304.36
304.444
304.65
304.451
304.689
304.708
281.449
281.481
281.509
281.615
281.721
281.817
282.032
280.167
279.804
279.827
280.3
280.403
279.751
280.469
303.155
303.155
303.419
303.64
303.456
303.592
303.618
320.687
319.674
317.759
315.939
318.187
321.118
318.9
303.823
305.521
306.861
307.682
308.9
309.251
307.871
315.437
315.546
314.657
315.627
317.569
316.652
316.242
303.223
303.178
303.257
303.349
303.242
303.324
303.385
280.784
280.793
280.821
280.878
280.891
280.919
281.001
292.166
292.392
292.178
292.145
292.133
292.12
292.112
305.421
305.463
305.59
305.634
305.577
305.579
305.57
313.753
312.502
310.262
308.097
309.276
311.916
310.599
287.945
288.843
290.265
291.708
293.541
293.647
291.801
307.776
307.291
306.629
308.099
309.856
309.06
307.919
305.042
305.036
305.211
305.281
305.211
305.23
305.315
292.102
292.057
292.096
292.061
292.068
292.079
292.085
346.486
353.581
356.688
360.388
362.813
363.56
360.845
348.711
351.777
353.173
355.612
356.494
357.433
355.076
357.412
357.172
357.072
357.4
357.677
358.125
357.809
354.221
353.375
353.48
354.075
355.17
357.065
358.023
359.473
359.844
360.181
360.666
360.79
361.286
362.11
355.516
358.696
360.029
362.55
362.984
362.556
364.873
350.229
358.59
360.893
363.957
364.33
362.056
364.068
346.414
351.171
356.205
359.243
362.904
364.946
356.394
348.255
349.976
350.835
352.069
353.304
353.414
348.471
356.189
355.704
355.584
355.845
356.129
356.301
355.275
349.852
349.344
349.493
350.517
352.072
354.779
357.092
358.334
358.493
358.674
358.748
358.725
360.065
361.42
351.487
355.425
357.137
358.189
358.316
358.318
362.956
347.607
357.34
357.553
361.918
362.999
358.36
361.759
346.438
347.289
349.689
353.217
355.224
360.945
349.634
350.288
350.45
349.755
348.262
347.339
347.757
343.218
355.247
354.807
354.374
354.299
354.273
354.539
353.795
346.256
346.322
346.758
347.944
350.109
352.556
355.403
357.108
357.254
357.84
357.919
357.621
358.136
358.694
348.946
351.656
354.525
356.312
355.749
352.629
351.884
342.093
347.256
344.187
348.816
359.363
354.542
355.478
345.67
345.43
347.207
350.435
351.852
357.326
347.377
359.223
359.012
355.41
349.061
345.421
343.42
338.093
355.003
353.736
352.463
351.637
351.803
351.389
350.294
340.63
340.851
341.738
343.311
346.662
350.932
354.669
355.426
355.797
356.003
355.863
355.161
355.424
354.868
346.447
347.079
349.734
356.203
355.302
350.697
346.273
334.932
336.645
333.179
337.359
352.334
345.823
351.883
344.765
338.766
341.705
347.721
346.655
352.918
343.95
361.086
362.272
360.822
354.773
342.111
338.587
335.939
354.284
354.694
353.797
350.968
349
348.499
349.081
335.833
335.904
336.547
338.311
340.344
344.502
352.074
344.115
349.781
354.04
355.245
354.327
353.332
352.817
349.489
344.91
341.05
355.031
356.139
349.872
339.963
322.947
326.942
327.954
334.825
346.346
340.498
346.267
347.279
337.146
337.653
337.019
336.138
347.01
338.482
358.118
362.428
362.264
357.342
340.596
336.106
332.702
348.607
349.724
350.62
349.205
347.372
346.664
346.49
331.641
332.073
333.518
336.965
339.654
343.041
348.741
338.384
339.851
345.866
351.621
351.764
351.306
348.736
353.04
352.563
338.631
350.939
356.956
349.079
334.222
319.666
322.434
327.216
333.203
345.616
335.961
341.366
347.32
331.767
330.348
330.811
329.712
343.399
331.21
354.986
358.989
360.901
354.848
337.422
333.351
329.21
339.633
340.7
345.139
346.235
344.014
342.573
345.228
323.802
323.836
324.915
328.616
332.308
336.139
345.73
334.8
334.451
336.99
343.492
347.438
346.5
346.933
352.91
355.113
338.151
347.372
356.826
346.291
331.445
320.026
322.072
327.473
331.581
345.416
333.168
339.517
331.777
314.809
324.337
324.5
326.886
317.693
325.481
336.785
338.256
334.078
332.811
331.555
327.066
325.415
329.139
334.389
335.164
336.065
336.905
334.875
332.525
318.829
323.669
325.238
327.977
329.151
325.088
323.367
330.636
332.742
331.038
330.882
332.425
337.365
333.96
331.925
330.104
329.563
335.972
332.981
341.961
328.5
320.326
321.45
325.586
329.395
342.131
330.608
336.95
302.243
300.35
302.049
294.635
295.982
294.549
297.732
334.288
324.396
321.232
316.719
315.743
313.711
313.595
326.497
328.348
329.057
328.014
328.216
327.932
328.631
319.286
320.907
320.609
319.223
318.669
318.754
316.434
330.242
330.409
327.31
322.469
321.692
326
329.861
319.525
316.094
317.768
331.994
336.291
334.161
313.389
305.167
303.212
303.364
303.979
298.637
294.206
300.706
289.555
288.282
288.679
287.709
288.609
287.356
289.521
312.176
311.875
312.648
311.011
311.215
309.586
308.27
320.471
322.709
322.202
324.466
326.407
325.254
324.889
317.092
317.615
314.914
313.139
311.836
310.767
307.976
328.347
327.548
324.444
319.765
319.959
323.142
324.906
310.211
308.494
308.781
310.762
310.721
309.601
308.762
291.453
288.098
289.24
286.159
288.624
287.737
287.138
279.435
279.096
280.758
279.079
281.11
278.928
279.58
305.495
303.914
305.773
303.603
305.19
303.025
303.781
317.72
318.412
318.613
319.233
321.733
321.261
320.764
313.778
313.443
311.497
309.966
308.801
307.712
305.551
325.169
320.463
320.672
318.165
318.993
320.445
323.693
307.338
306.21
306.379
306.093
305.412
303.883
304.774
281.337
280.248
282.518
280.541
282.716
280.545
283.365
277.746
277.442
277.755
277.456
277.972
277.442
277.652
303.57
301.37
303.769
301.474
303.643
301.411
302.049
316.44
317.918
316.66
318.342
318.531
319.914
319.148
308.973
308.81
307.853
305.603
303.954
303.411
301.316
320.552
318.147
315.807
314.777
317.123
319.884
320.605
303.437
302.211
303.421
303.735
303.765
301.678
303.241
279.246
278.255
278.716
278.387
278.848
278.57
279.498
279.127
278.307
279.049
278.289
278.991
278.186
277.946
303.087
302.163
303.234
302.31
303.228
302.293
302.328
316.757
318.973
316.495
319.001
318.273
319.779
319.076
307.052
306.966
306.105
303.849
301.805
301.318
299.211
320.148
318.796
315.619
314.542
317.73
321.105
320.357
303.064
302.539
302.925
303.32
303.184
301.999