/*--------------------------------*- C++ -*----------------------------------*\
  =========                 |
  \\      /  F ield         | OpenFOAM: The Open Source CFD Toolbox
   \\    /   O peration     | Website:  https://openfoam.org
    \\  /    A nd           | Version:  6
     \\/     M anipulation  |
\*---------------------------------------------------------------------------*/
FoamFile
{
    version     2.0;
    format      ascii;
    class       volScalarField;
    location    "0.0175";
    object      N2;
}
// * * * * * * * * * * * * * * * * * * * * * * * * * * * * * * * * * * * * * //

dimensions      [0 0 0 0 0 0 0];

internalField   nonuniform List<scalar> 
3773
(
0.521169
0.533505
0.526882
0.53019
0.533184
0.52977
0.524355
0.566247
0.579049
0.569314
0.574327
0.578592
0.572788
0.57127
0.461152
0.476788
0.467964
0.468017
0.470622
0.46982
0.464837
0.44605
0.455236
0.457862
0.456837
0.456189
0.459848
0.446855
0.461616
0.472583
0.467979
0.466116
0.470791
0.471135
0.465426
0.569854
0.576004
0.574085
0.576929
0.581414
0.571061
0.5704
0.524252
0.532862
0.53051
0.532221
0.535359
0.528966
0.524296
0.610567
0.630739
0.627046
0.626888
0.626016
0.625667
0.613511
0.972223
0.985231
0.984481
0.984757
0.984899
0.984484
0.972377
0.966684
0.968018
0.961745
0.964988
0.967736
0.959299
0.968166
0.966101
0.978507
0.979403
0.978621
0.978658
0.981375
0.967826
0.967043
0.978739
0.965401
0.964685
0.968973
0.964143
0.968437
0.972636
0.985535
0.984479
0.985003
0.985258
0.984787
0.972734
0.614296
0.623988
0.627491
0.623763
0.628722
0.627316
0.614636
0.646925
0.668854
0.666407
0.666236
0.663984
0.663845
0.650572
0.958561
0.975808
0.976071
0.975247
0.973181
0.973011
0.958685
0.986651
0.997305
0.995885
0.996478
0.996624
0.995852
0.986381
0.988504
0.998831
0.999208
0.99921
0.999257
0.999061
0.98869
0.986325
0.997597
0.996465
0.996585
0.996857
0.996004
0.986437
0.959388
0.973031
0.97384
0.973062
0.974507
0.973755
0.959103
0.652403
0.66303
0.66648
0.664937
0.66809
0.666059
0.652355
0.672555
0.695347
0.693967
0.695091
0.692852
0.692116
0.676077
0.966413
0.9811
0.981335
0.981698
0.980451
0.98017
0.965963
0.988095
0.999022
0.998949
0.999106
0.999191
0.999066
0.987929
0.989492
0.999879
0.999953
0.999943
0.999944
0.999829
0.989479
0.988017
0.999063
0.99913
0.999272
0.999295
0.9989
0.987983
0.966711
0.980131
0.980874
0.980389
0.98201
0.98047
0.966568
0.677825
0.68967
0.694629
0.695105
0.696817
0.69382
0.677128
0.765635
0.788035
0.793256
0.796906
0.795824
0.789367
0.767869
0.967931
0.982373
0.982931
0.983435
0.983165
0.982576
0.967747
0.9885
0.999438
0.999568
0.999647
0.999661
0.999566
0.9884
0.989569
0.999961
0.999996
0.999995
0.999995
0.999892
0.98952
0.988431
0.999497
0.999613
0.999655
0.999713
0.999493
0.988416
0.968018
0.982176
0.982924
0.98314
0.983803
0.982576
0.967864
0.763293
0.778473
0.789112
0.791259
0.79391
0.785351
0.75992
0.897021
0.927679
0.931995
0.933997
0.934139
0.93005
0.898559
0.977452
0.99303
0.993593
0.993827
0.993673
0.99313
0.977604
0.988951
0.999759
0.99991
0.999918
0.999914
0.999862
0.988935
0.989746
0.999975
1
1
1
0.999883
0.989657
0.988926
0.999808
0.999904
0.999909
0.99992
0.999862
0.98894
0.977233
0.992536
0.993283
0.993354
0.993587
0.992999
0.976966
0.893469
0.921896
0.929825
0.93116
0.930826
0.927194
0.891397
1
1
1
1
1
1
1
1
1
1
1
1
1
1
1
1
1
1
1
1
1
1
1
1
1
1
1
1
1
1
1
1
1
1
1
1
1
1
1
1
1
1
1
1
1
1
1
1
1
0.998199
0.999401
0.999391
0.999326
0.999236
0.998881
0.997883
0.997439
0.998818
0.998871
0.998869
0.998871
0.998537
0.997434
0.995871
0.996639
0.996773
0.996796
0.997009
0.996861
0.995743
0.992195
0.992194
0.991588
0.991558
0.992245
0.99288
0.992717
0.995539
0.996101
0.996331
0.996571
0.996667
0.996542
0.996383
0.997124
0.997897
0.99868
0.99887
0.998913
0.998937
0.998945
0.997461
0.998766
0.999216
0.999301
0.999251
0.99924
0.999157
0.999516
0.999952
0.999935
0.999947
0.999965
0.999976
0.99871
0.998682
0.999814
0.999923
0.999956
0.999962
0.999965
0.998296
0.997211
0.998604
0.998837
0.999002
0.999285
0.999308
0.997926
0.993017
0.993031
0.992402
0.992578
0.993489
0.994471
0.994474
0.996495
0.998051
0.998276
0.99822
0.998202
0.997835
0.997242
0.997945
0.999623
0.999931
0.999885
0.999821
0.999805
0.999863
0.997979
0.999743
0.999969
0.999959
0.999935
0.99993
0.999962
0.99994
0.999957
0.999935
0.999949
0.99997
0.999978
0.999224
0.999021
0.999527
0.999853
0.999942
0.999953
0.999941
0.999737
0.998202
0.999257
0.999401
0.999601
0.999693
0.999709
0.999537
0.994338
0.994414
0.994109
0.994136
0.995092
0.995821
0.995863
0.997871
0.998936
0.999067
0.998983
0.998957
0.998582
0.997669
0.998843
0.99992
0.999946
0.999871
0.999664
0.99965
0.999789
0.99847
0.999962
0.999967
0.99995
0.99993
0.999926
0.999955
0.999974
0.999958
0.999937
0.999949
0.999966
0.999961
0.999731
0.999047
0.999386
0.99969
0.99992
0.999938
0.999949
0.999956
0.998615
0.99932
0.999475
0.999541
0.999565
0.999566
0.999603
0.995166
0.994808
0.99485
0.995012
0.995576
0.996078
0.996093
0.998794
0.999274
0.999357
0.999275
0.999233
0.999092
0.998296
0.999447
0.999955
0.999946
0.99987
0.999557
0.999558
0.99973
0.999114
0.99996
0.999963
0.999936
0.999923
0.999925
0.999955
0.999972
0.999956
0.999947
0.999947
0.99995
0.999974
0.999985
0.998983
0.999412
0.999738
0.999899
0.999903
0.9999
0.999968
0.998736
0.999334
0.999501
0.999544
0.999495
0.999324
0.999185
0.99565
0.995612
0.995631
0.995444
0.995548
0.996009
0.995988
0.99923
0.999317
0.999417
0.999371
0.99933
0.999276
0.998633
0.999797
0.999918
0.99992
0.999778
0.999504
0.999531
0.999695
0.999664
0.99995
0.999959
0.999927
0.999916
0.999923
0.999961
0.999965
0.999956
0.999948
0.999944
0.999939
0.999946
0.999983
0.999233
0.999636
0.999839
0.999872
0.999841
0.999848
0.999953
0.998729
0.999346
0.999542
0.999536
0.999337
0.998954
0.998881
0.995672
0.995723
0.995852
0.995462
0.995418
0.995702
0.995538
0.999268
0.999186
0.999338
0.999348
0.999333
0.999287
0.998626
0.999922
0.999876
0.999856
0.999571
0.999471
0.999554
0.999679
0.999939
0.999967
0.999956
0.999921
0.999914
0.999929
0.999983
1
0.999962
0.999946
0.999939
0.999934
0.999938
0.999979
0.999963
0.999795
0.999739
0.999774
0.999806
0.999815
0.999955
0.99881
0.9993
0.999517
0.999479
0.999209
0.998716
0.99891
0.995707
0.995996
0.99656
0.995909
0.995516
0.99571
0.995175
0.999206
0.999225
0.999396
0.999363
0.999324
0.999238
0.998202
0.999917
0.999812
0.9998
0.99952
0.999481
0.999724
0.999899
0.999999
0.99997
0.999948
0.999916
0.999907
0.999945
0.999997
0.999926
0.999976
0.999974
0.999952
0.999948
0.999958
0.999985
0.999794
0.99967
0.999708
0.999779
0.999816
0.999895
0.999948
0.998828
0.998733
0.999077
0.999256
0.999374
0.999268
0.99995
0.995924
0.99605
0.996682
0.996358
0.996059
0.995923
0.996214
0.999536
0.999038
0.999194
0.999049
0.998689
0.998534
0.998591
0.999976
0.999911
0.999827
0.999767
0.999701
0.99992
0.999954
0.999993
0.99998
0.999952
0.999965
0.999974
0.999977
0.999984
0.999923
0.999976
0.99997
0.999939
0.999937
0.999954
0.999983
0.99961
0.999334
0.99965
0.999742
0.999785
0.999873
0.999939
0.998522
0.998425
0.998956
0.999078
0.99903
0.999368
0.999966
0.995904
0.996145
0.996971
0.99669
0.996631
0.996786
0.996855
0.999478
0.999098
0.999228
0.998912
0.998685
0.998954
0.999341
0.999976
0.999876
0.999667
0.999713
0.99981
0.999895
0.999937
0.999995
0.999982
0.999947
0.999959
0.999961
0.999965
0.999967
0.999939
0.999983
0.999965
0.99993
0.999929
0.999954
0.999983
0.999672
0.999464
0.999638
0.999733
0.999763
0.999863
0.999938
0.998431
0.998325
0.998963
0.998943
0.998906
0.999454
0.999959
0.996027
0.996426
0.997212
0.996929
0.996915
0.997174
0.997537
0.999584
0.999228
0.99924
0.998998
0.999052
0.999821
0.999964
0.999985
0.999927
0.999844
0.99988
0.999875
0.999878
0.999908
0.999996
0.999988
0.999968
0.999958
0.999954
0.999951
0.999953
0.999943
0.999985
0.999964
0.999929
0.999934
0.999956
0.999984
0.999559
0.999466
0.99967
0.999749
0.999772
0.999852
0.999945
0.998422
0.998313
0.998962
0.998958
0.998976
0.999551
0.999953
0.996507
0.996839
0.99773
0.997423
0.99764
0.997846
0.998457
0.999843
0.99931
0.999292
0.999138
0.999054
0.999604
0.999953
0.999991
0.999918
0.999899
0.99988
0.999832
0.999845
0.999897
0.999995
0.999991
0.999976
0.999954
0.999941
0.999943
0.999949
0.999939
0.999985
0.999966
0.999939
0.999943
0.99997
0.999985
0.999435
0.999512
0.999782
0.999831
0.999776
0.999852
0.999951
0.998557
0.998397
0.999039
0.999133
0.999132
0.999527
0.999953
0.997085
0.99707
0.998034
0.997948
0.997903
0.998387
0.998947
0.999853
0.999272
0.999335
0.999201
0.999009
0.999289
0.999935
0.999991
0.999886
0.999907
0.999871
0.999729
0.999805
0.999901
0.999993
0.99999
0.999979
0.999953
0.999939
0.999952
0.999953
0.999934
0.999987
0.999984
0.999965
0.999937
0.999969
0.999985
0.999484
0.999641
0.99991
0.999899
0.999747
0.999827
0.999956
0.999061
0.998817
0.999273
0.999361
0.999306
0.999438
0.999883
0.997689
0.99792
0.998476
0.998472
0.998217
0.998504
0.999415
0.999795
0.999397
0.999471
0.999401
0.999245
0.999292
0.999815
0.999961
0.999886
0.999944
0.999862
0.999659
0.999774
0.999934
0.999992
0.99999
0.999984
0.999972
0.999958
0.999972
0.999964
0.999949
0.999984
0.999989
0.999985
0.999982
0.999983
0.999986
0.999707
0.999895
0.999974
0.999947
0.999814
0.999851
0.99996
0.999459
0.999512
0.999729
0.999738
0.999564
0.999572
0.999804
0.99836
0.998331
0.998594
0.99877
0.998591
0.998673
0.999365
0.999812
0.999701
0.999793
0.999792
0.999637
0.999548
0.999756
0.999961
0.999963
0.999982
0.999932
0.999868
0.999849
0.999944
0.999992
0.999994
0.999992
0.999991
0.999985
0.999978
0.999975
1
0.999961
0.999951
0.999934
0.999932
0.999934
1
1
0.999682
0.999628
0.999738
0.999788
0.999791
1
0.998823
0.9993
0.999399
0.999304
0.999224
0.99886
1
0.995777
0.996072
0.996533
0.99599
0.995673
0.995704
0.995278
0.999231
0.999172
0.999288
0.999112
0.999026
0.999079
0.998291
1
0.999866
0.99972
0.999531
0.999523
0.999876
1
1
0.999975
0.99994
0.99992
0.99992
0.999972
1
1
0.999965
0.999958
0.999941
0.999938
0.999941
1
1
0.999683
0.99964
0.999754
0.999804
0.999821
1
0.998845
0.999282
0.999381
0.999288
0.999202
0.998882
1
0.995806
0.99607
0.996537
0.996011
0.995677
0.995704
0.995319
0.999289
0.999153
0.999277
0.999104
0.999027
0.999059
0.998323
1
0.999878
0.999755
0.999582
0.999576
0.999891
1
1
0.999976
0.999945
0.999935
0.999937
0.999974
1
1
0.999967
0.999961
0.999943
0.99994
0.999944
1
1
0.99968
0.999645
0.99976
0.99981
0.999831
1
0.998902
0.999275
0.99934
0.999258
0.999137
0.99882
1
0.995858
0.996065
0.996548
0.996019
0.995684
0.99571
0.995416
0.999358
0.999143
0.999243
0.999081
0.999031
0.999017
0.998417
1
0.999881
0.999764
0.999593
0.999593
0.999897
1
1
0.999977
0.999946
0.999939
0.999941
0.999975
1
1
0.999968
0.999961
0.999945
0.99994
0.999946
1
1
0.999672
0.999651
0.999761
0.999818
0.999848
1
0.998942
0.999259
0.999314
0.999249
0.999119
0.998759
1
0.995904
0.996062
0.996553
0.99604
0.995715
0.995729
0.995471
0.999413
0.999123
0.999237
0.999078
0.999044
0.999001
0.998456
1
0.999885
0.999756
0.999598
0.9996
0.999898
1
1
0.999978
0.999944
0.99994
0.999943
0.999975
1
1
0.99997
0.999962
0.999945
0.999939
0.999948
1
1
0.999667
0.999663
0.999762
0.999821
0.999859
1
0.998991
0.999229
0.999299
0.999232
0.999096
0.998729
1
0.995953
0.996056
0.996564
0.99607
0.995771
0.995769
0.995582
0.999524
0.999093
0.999232
0.999081
0.999062
0.998954
0.998548
1
0.999887
0.99975
0.999634
0.999608
0.999896
1
1
0.999979
0.999943
0.99994
0.999942
0.999974
1
1
0.999973
0.999969
0.999952
0.99994
0.999952
1
1
0.999668
0.999685
0.999773
0.999831
0.999881
1
0.999006
0.999155
0.999269
0.999213
0.998992
0.998683
1
0.995994
0.996054
0.996572
0.996076
0.995834
0.995795
0.995641
0.999554
0.999034
0.999216
0.999079
0.99907
0.998922
0.998611
1
0.999898
0.999756
0.999694
0.999626
0.999897
1
1
0.999979
0.999943
0.999956
0.999959
0.999977
1
0.999961
0.999976
0.999973
0.999956
0.999943
0.999954
1
1
0.999674
0.999697
0.999781
0.999839
0.999894
1
0.999064
0.999119
0.999226
0.999168
0.999179
0.99868
1
0.996069
0.996047
0.99658
0.99608
0.995843
0.995802
0.995773
0.999667
0.998992
0.999177
0.999062
0.999054
0.998846
0.998724
1
0.999906
0.999785
0.999721
0.999656
0.999918
1
1
0.99998
0.999948
0.999961
0.999968
0.999979
1
1
0.999998
0.999995
0.999995
0.999997
0.999998
1
0.999998
0.999998
0.999989
0.99997
0.999967
0.999966
0.999993
0.999563
0.999523
0.999684
0.999673
0.999684
0.999443
0.999683
0.998555
0.998456
0.998645
0.99884
0.99873
0.998739
0.999327
0.999807
0.999663
0.999651
0.999667
0.999726
0.999333
0.999628
0.999991
0.999991
0.999991
0.999986
0.999981
0.999979
0.999992
0.999999
0.999999
0.999999
0.999998
0.999998
0.999998
0.999999
0.999999
0.999995
0.999994
0.999996
0.999996
0.999998
0.999999
0.999999
0.999997
0.999981
0.999981
0.999981
0.999981
0.999992
0.999563
0.999584
0.999703
0.999709
0.999679
0.999563
0.999642
0.998674
0.998504
0.998672
0.998868
0.998786
0.99878
0.999277
0.999811
0.999652
0.99966
0.999705
0.999711
0.999611
0.999635
0.999995
0.999995
0.999995
0.999989
0.999985
0.999986
0.999987
0.999999
0.999999
0.999999
0.999998
0.999997
0.999998
0.999998
0.999996
0.999993
0.99999
0.999992
0.999994
0.999995
0.999997
0.999997
0.999996
0.999979
0.999977
0.999977
0.999977
0.999982
0.999544
0.999596
0.999652
0.999689
0.999634
0.999517
0.999593
0.998748
0.998536
0.998693
0.998908
0.998825
0.99881
0.999218
0.999814
0.999582
0.999553
0.999678
0.99968
0.999649
0.999664
0.999993
0.999995
0.999996
0.999992
0.999985
0.999983
0.999985
0.999999
0.999999
0.999999
0.999999
0.999995
0.999994
0.999994
0.999996
0.999991
0.999989
0.999992
0.999993
0.999993
0.999993
0.999995
0.999996
0.999981
0.999978
0.999973
0.999971
0.999967
0.999493
0.999619
0.999761
0.999783
0.999647
0.999569
0.999595
0.998792
0.9986
0.998736
0.998998
0.998899
0.998866
0.999145
0.999788
0.999608
0.999595
0.999699
0.999685
0.999624
0.999661
0.999989
0.999993
0.999995
0.999994
0.999987
0.999982
0.999981
0.999998
0.999998
0.999999
0.999999
0.999996
0.999993
0.999992
0.999994
0.999991
0.99999
0.999993
0.999994
0.999994
0.999993
0.999995
0.999996
0.999984
0.999984
0.999982
0.999977
0.999975
0.999555
0.999713
0.999876
0.999851
0.999772
0.999643
0.999625
0.998857
0.998772
0.998807
0.999078
0.998976
0.998921
0.999086
0.999743
0.999739
0.999726
0.999745
0.999729
0.999657
0.999651
0.99999
0.999994
0.999996
0.999994
0.99999
0.999986
0.999984
0.999998
0.999999
0.999999
0.999999
0.999996
0.999994
0.999994
0.999993
0.999991
0.99999
0.999991
0.999993
0.999993
0.999993
0.999996
0.999996
0.999989
0.999987
0.999989
0.999988
0.999986
0.999735
0.999838
0.999931
0.999942
0.999875
0.999726
0.999685
0.999012
0.999153
0.999007
0.99921
0.999101
0.999043
0.999103
0.999832
0.999877
0.999821
0.999805
0.999787
0.999722
0.999692
0.999997
0.999997
0.999997
0.999995
0.999994
0.999992
0.99999
0.999999
0.999999
0.999999
0.999999
0.999996
0.999995
0.999995
0.999993
0.999992
0.999992
0.999992
0.999992
0.999993
0.999993
0.999996
0.999996
0.999993
0.999992
0.999991
0.999991
0.99999
0.999932
0.999956
0.999984
0.999982
0.999921
0.999821
0.999721
0.99946
0.999679
0.99945
0.999552
0.999332
0.999294
0.999213
0.999966
0.999962
0.999951
0.99993
0.999889
0.999843
0.99975
0.999998
0.999998
0.999998
0.999995
0.999995
0.999994
0.999993
0.999999
0.999999
0.999999
0.999997
0.999996
0.999996
0.999996
1
1
1
1
1
1
1
0.999997
0.999999
1
1
1
1
1
0.999753
0.999915
0.999998
0.999997
0.999997
0.999997
0.999996
0.99944
0.999612
0.999813
0.999902
0.999957
0.999967
0.999973
0.999712
0.999785
0.999992
0.999999
0.999999
0.999999
0.999998
0.999998
0.999999
1
1
1
1
1
1
1
1
1
1
1
1
0.999999
0.999999
0.999999
0.999999
0.999999
0.999999
1
0.999995
0.999998
0.999999
1
1
1
1
0.999723
0.999786
0.999945
0.999997
0.999997
0.999997
0.999996
0.999395
0.99951
0.999666
0.999809
0.999886
0.999931
0.999941
0.999685
0.999725
0.999791
0.99994
0.999999
0.999998
0.999998
0.999995
0.999997
0.999999
1
1
1
1
0.999999
0.999999
0.999999
0.999999
0.999999
1
1
0.999997
0.999997
0.999997
0.999997
0.999997
0.999998
0.999999
0.999988
0.999992
0.999996
0.999998
0.999999
0.999999
0.999999
0.999695
0.999717
0.999769
0.999874
0.999981
0.999996
0.999995
0.999366
0.999451
0.999489
0.999588
0.999675
0.999749
0.999801
0.999687
0.999721
0.999743
0.99979
0.999899
0.999995
0.999998
0.999988
0.999992
0.999993
0.999997
0.999998
0.999998
0.999998
0.999996
0.999996
0.999996
0.999997
0.999997
0.999999
1
0.999991
0.999992
0.999994
0.999995
0.999995
0.999996
0.999997
0.999967
0.999976
0.999983
0.999989
0.999995
0.999997
0.999996
0.999651
0.999672
0.999718
0.999752
0.999804
0.999901
0.999973
0.999366
0.999415
0.999472
0.999526
0.999571
0.99963
0.99968
0.999698
0.999714
0.999733
0.999779
0.999811
0.999889
0.999973
0.999982
0.999986
0.999987
0.999989
0.999992
0.999994
0.999994
0.999992
0.999994
0.999994
0.999995
0.999995
0.999996
0.999999
0.999992
0.999993
0.999993
0.999994
0.999994
0.999994
0.999996
0.99998
0.999987
0.99999
0.999993
0.999993
0.999992
0.999993
0.99966
0.999673
0.999698
0.99972
0.999766
0.999798
0.999859
0.999297
0.999337
0.999425
0.999462
0.999492
0.999547
0.999632
0.99968
0.99969
0.99971
0.999729
0.999786
0.999829
0.999894
0.999987
0.99999
0.999991
0.999992
0.999993
0.999991
0.999992
0.999994
0.999994
0.999994
0.999994
0.999994
0.999995
0.999998
0.999993
0.999993
0.999993
0.999993
0.999994
0.999994
0.999995
0.999989
0.999992
0.999993
0.999994
0.999994
0.999994
0.999994
0.999624
0.999629
0.999642
0.999658
0.999703
0.999751
0.999787
0.99917
0.999231
0.999282
0.999365
0.999384
0.999432
0.999477
0.999664
0.999668
0.999679
0.999689
0.999704
0.999755
0.999786
0.99999
0.999988
0.999987
0.999987
0.999988
0.999988
0.999989
0.999996
0.999995
0.999995
0.999995
0.999995
0.999995
0.999998
0.999993
0.999993
0.999993
0.999993
0.999993
0.999994
0.999994
0.999991
0.999991
0.999991
0.999992
0.999992
0.999992
0.999993
0.999667
0.999648
0.999652
0.999654
0.999663
0.999697
0.999711
0.999225
0.999251
0.999264
0.999299
0.999314
0.999351
0.999371
0.999664
0.999653
0.999654
0.99966
0.999672
0.999708
0.999724
0.999992
0.999992
0.999991
0.999991
0.99999
0.99999
0.99999
0.999996
0.999996
0.999995
0.999995
0.999995
0.999995
0.999997
1
1
1
1
1
1
1
1
1
1
1
1
1
0.999998
0.999998
0.999951
0.999773
0.999698
0.999669
0.999638
0.999608
0.999897
0.999858
0.999841
0.999815
0.999733
0.999513
0.998889
0.99999
0.999992
0.999993
0.999995
0.999996
0.999967
0.99984
1
1
1
1
1
1
0.999999
1
1
1
1
1
1
1
1
1
1
0.999999
0.999999
0.999999
0.999999
1
1
1
1
1
1
0.999999
0.999997
0.999924
0.999781
0.99974
0.999681
0.999646
0.999604
0.999884
0.999834
0.999803
0.999737
0.999616
0.999309
0.998902
0.999989
0.999992
0.999994
0.999995
0.999996
0.999954
0.999848
1
1
1
1
1
0.999999
0.999998
1
1
1
1
1
1
1
1
0.999998
0.999998
0.999998
0.999998
0.999998
0.999998
1
1
0.999998
0.999998
0.999997
0.999996
0.999996
0.99999
0.999852
0.999748
0.999687
0.999667
0.999632
0.99959
0.999837
0.999806
0.999737
0.999665
0.999486
0.999184
0.998945
0.99999
0.999993
0.999995
0.999995
0.999994
0.999938
0.999855
0.999999
0.999999
0.999999
0.999999
0.999999
0.999998
0.999997
1
0.999999
0.999999
0.999999
0.999999
0.999999
0.999999
0.999999
0.999997
0.999997
0.999997
0.999997
0.999997
0.999998
0.999998
0.999996
0.999995
0.999993
0.999994
0.999994
0.999993
0.999932
0.999798
0.999721
0.999688
0.999645
0.999583
0.999546
0.999766
0.999686
0.9996
0.999471
0.999275
0.99908
0.998948
0.999993
0.999995
0.999995
0.999992
0.999974
0.999903
0.999835
0.999999
0.999999
0.999999
0.999999
0.999998
0.999997
0.999993
0.999999
0.999999
0.999999
0.999999
0.999999
0.999998
0.999998
0.999998
0.999996
0.999997
0.999998
0.999998
0.999998
0.999998
0.999998
0.999997
0.999994
0.999994
0.999996
0.999996
0.999995
0.999897
0.999846
0.999834
0.999814
0.999753
0.999697
0.99962
0.999586
0.999453
0.999391
0.999273
0.9992
0.999063
0.998974
0.99999
0.999986
0.999978
0.999955
0.999894
0.999834
0.999789
0.999998
0.999998
0.999998
0.999996
0.999993
0.999988
0.999995
0.999999
0.999998
0.999999
0.999998
0.999998
0.999998
0.999998
0.999997
0.999995
0.999996
0.999996
0.999996
0.999996
0.999996
0.999995
0.999996
0.999997
0.999997
0.999997
0.999996
0.999996
0.999912
0.999901
0.999893
0.999863
0.999846
0.999826
0.999811
0.999456
0.999361
0.999307
0.999209
0.999164
0.999078
0.999046
0.999932
0.999919
0.999896
0.999843
0.999825
0.999797
0.99979
0.999998
0.999998
0.999997
0.999997
0.999997
0.999997
0.999998
0.999998
0.999998
0.999999
0.999999
0.999999
0.999999
0.999999
0.999997
0.999995
0.999994
0.999994
0.999994
0.999994
0.999993
0.999995
0.999996
0.999996
0.999996
0.999995
0.999995
0.999995
0.999932
0.999931
0.999923
0.9999
0.999888
0.999878
0.999878
0.999474
0.999452
0.99941
0.999365
0.999351
0.999345
0.999382
0.999908
0.999904
0.999895
0.999892
0.999894
0.999906
0.999924
0.999998
0.999998
0.999998
0.999998
0.999998
0.999998
0.999998
0.999998
0.999998
0.999998
0.999998
0.999998
0.999998
0.999998
1
1
1
1
1
1
1
1
1
1
1
1
1
1
0.999978
0.999975
0.999977
0.999982
0.99999
0.999994
0.999996
0.999934
0.999922
0.999918
0.999914
0.999912
0.999908
0.999904
0.999978
0.999974
0.999975
0.999977
0.999984
0.999987
0.999988
1
1
1
1
1
1
1
1
1
1
1
1
1
1
1
1
1
1
1
1
1
1
1
1
1
1
1
1
0.999977
0.999974
0.999976
0.999983
0.999988
0.999992
0.999995
0.999928
0.999913
0.999908
0.999905
0.999903
0.999896
0.999893
0.999976
0.999971
0.999972
0.999977
0.999982
0.999984
0.999986
1
1
1
1
1
1
1
1
1
1
1
1
1
1
1
1
1
1
1
1
1
1
1
1
1
1
1
1
0.999977
0.999974
0.999974
0.999982
0.999989
0.999993
0.999996
0.999929
0.999916
0.999911
0.999906
0.999903
0.999896
0.999884
0.999976
0.999971
0.999971
0.999975
0.999983
0.999988
0.999988
1
1
1
1
1
1
0.999999
1
1
1
1
1
1
1
1
1
1
1
1
1
1
1
1
1
1
1
0.999999
0.999999
0.999977
0.999975
0.999974
0.999981
0.999987
0.999994
0.999992
0.999933
0.999918
0.999908
0.999897
0.999883
0.999861
0.999823
0.999977
0.999974
0.999973
0.999976
0.999984
0.999988
0.999991
1
1
1
0.999999
0.999999
0.999999
0.999999
1
1
1
1
1
1
1
1
1
1
1
1
1
1
1
1
1
1
0.999999
0.999998
0.999998
0.999978
0.999976
0.999976
0.999984
0.99999
0.999989
0.999967
0.999933
0.999911
0.999888
0.999852
0.999796
0.999726
0.999654
0.999977
0.999975
0.999974
0.999979
0.999987
0.999991
0.999991
1
1
1
0.999999
0.999998
0.999998
0.999997
1
1
1
1
1
1
1
1
1
1
1
1
1
1
1
1
1
1
0.999998
0.999997
0.999995
0.999977
0.999975
0.999975
0.999984
0.999989
0.999976
0.99994
0.999932
0.999893
0.999822
0.999757
0.99967
0.999591
0.999513
0.999977
0.999974
0.999973
0.999981
0.999987
0.999975
0.99996
1
1
0.999999
0.999999
0.999998
0.999997
0.999997
1
1
1
1
1
1
1
1
1
1
1
1
1
1
1
1
1
1
0.999997
0.999996
0.999996
0.999978
0.99997
0.999975
0.999982
0.999972
0.999954
0.999937
0.999908
0.999803
0.999706
0.999622
0.999575
0.999542
0.999513
0.999977
0.999968
0.999972
0.99997
0.999948
0.999932
0.999918
1
1
0.999999
0.999999
0.999998
0.999998
0.999998
1
1
1
1
1
1
1
1
1
1
1
1
1
1
1
1
1
1
1
0.999999
0.999999
0.999979
0.999979
0.999982
0.999986
0.999983
0.999978
0.999972
0.999889
0.999798
0.999769
0.999775
0.999774
0.999783
0.999795
0.99998
0.99998
0.999982
0.99998
0.999961
0.999956
0.999969
1
1
1
1
1
1
0.999999
1
1
1
1
1
1
1
1
1
1
1
1
1
1
1
1
1
1
1
1
0.999999
0.999989
0.999989
0.999988
0.999989
0.999989
0.999987
0.999985
0.999907
0.999835
0.999845
0.999832
0.999826
0.999833
0.99985
0.999992
0.99999
0.999989
0.999988
0.999981
0.999973
0.999977
1
1
1
1
1
1
1
1
1
1
1
1
1
1
1
1
1
1
1
1
1
1
1
1
1
1
1
1
0.99999
0.99999
0.999992
0.999993
0.999993
0.999991
0.999989
0.999919
0.999857
0.999873
0.999871
0.999867
0.999864
0.999861
0.999996
0.999995
0.999993
0.999991
0.999987
0.999981
0.99998
1
1
1
1
1
1
1
1
1
1
1
1
1
1
1
1
1
1
1
1
1
1
1
1
1
1
1
1
0.999986
0.999985
0.99999
0.999992
0.999993
0.999991
0.99999
0.999928
0.99988
0.999892
0.99989
0.999885
0.999885
0.999883
0.999998
0.999996
0.999994
0.999993
0.999989
0.999985
0.999982
1
1
1
1
1
1
1
1
1
1
1
1
1
1
1
1
1
1
1
1
1
1
1
1
1
1
1
1
0.999987
0.999987
0.99999
0.999993
0.999994
0.999991
0.999991
0.999932
0.999889
0.999899
0.999899
0.999893
0.999894
0.999891
0.999997
0.999997
0.999995
0.999994
0.999991
0.999987
0.999984
1
1
1
1
1
1
1
1
1
1
1
1
1
1
1
1
1
1
1
1
1
1
1
1
1
1
1
1
0.99999
0.999989
0.999992
0.999994
0.999995
0.999993
0.999992
0.999942
0.999909
0.999917
0.999919
0.999912
0.999913
0.999909
0.999998
0.999998
0.999997
0.999996
0.999992
0.99999
0.999988
1
1
1
1
1
1
1
1
1
1
1
1
1
1
1
1
1
1
1
1
1
1
1
1
1
1
1
1
0.999991
0.99999
0.999993
0.999995
0.999996
0.999993
0.999993
0.999949
0.999919
0.999927
0.999929
0.999922
0.999921
0.999918
0.999999
0.999998
0.999997
0.999996
0.999993
0.999991
0.99999
1
1
1
1
1
1
1
1
1
1
1
1
1
1
1
1
1
1
1
1
1
1
1
1
1
1
1
1
0.999996
0.999996
0.999995
0.999994
0.999994
0.999994
0.999994
0.999974
0.999976
0.999977
0.999978
0.999979
0.999981
0.999984
0.999998
0.999997
0.999997
0.999995
0.999994
0.999994
0.999995
1
1
1
1
1
1
1
1
1
1
1
1
1
1
1
1
1
1
1
1
1
1
1
1
1
1
1
1
0.999995
0.999995
0.999994
0.999992
0.999992
0.999992
0.999993
0.999942
0.999949
0.999953
0.999957
0.999964
0.999972
0.999979
0.999997
0.999996
0.999995
0.999994
0.999992
0.999992
0.999994
1
1
1
1
1
1
1
1
1
1
1
1
1
1
1
1
1
1
1
1
1
0.999999
1
1
1
1
1
1
0.999995
0.999993
0.999991
0.999986
0.999985
0.999988
0.999991
0.999831
0.999853
0.999872
0.99989
0.999912
0.999945
0.99997
0.999997
0.999996
0.999994
0.999989
0.999987
0.999989
0.999992
0.999999
0.999999
0.999999
1
1
1
1
1
1
1
1
1
1
1
1
1
1
1
1
1
1
0.999996
0.999998
0.999999
1
1
1
1
0.999994
0.999991
0.999984
0.999978
0.999973
0.999981
0.999987
0.999732
0.999767
0.999792
0.999813
0.999838
0.999879
0.999945
0.999997
0.999996
0.999993
0.999985
0.999979
0.999983
0.999987
0.999996
0.999998
0.999998
0.999999
1
1
1
1
1
1
1
1
1
1
0.999999
1
1
1
1
1
1
0.999994
0.999994
0.999997
0.999999
1
1
1
0.999936
0.999966
0.999984
0.999979
0.999963
0.999968
0.999976
0.99966
0.999708
0.999741
0.99977
0.99979
0.999827
0.999905
0.999963
0.999989
0.999993
0.999986
0.999971
0.99997
0.999974
0.999993
0.999994
0.999997
0.999998
1
1
1
1
1
1
1
1
1
1
0.999999
1
1
1
1
1
1
0.999988
0.99999
0.999995
0.999998
1
1
1
0.999845
0.999918
0.999976
0.999979
0.999958
0.999957
0.99997
0.999569
0.999623
0.999682
0.999729
0.999757
0.999796
0.999889
0.999867
0.999939
0.999986
0.999986
0.999966
0.999957
0.999969
0.999991
0.999993
0.999996
0.999998
0.999999
1
1
1
1
1
1
1
1
1
0.999999
1
1
1
1
1
1
0.999991
0.999992
0.999995
0.999998
1
1
1
0.999745
0.999791
0.999853
0.999941
0.99995
0.999946
0.999956
0.999421
0.999463
0.999519
0.999593
0.99966
0.999725
0.999835
0.999766
0.999815
0.999873
0.999951
0.999961
0.999949
0.99996
0.999992
0.999993
0.999996
0.999999
0.999999
1
1
1
1
1
1
1
1
1
0.999999
1
1
1
1
1
1
0.999996
0.999999
0.999999
1
1
1
1
0.99989
0.999889
0.999912
0.999959
0.999964
0.999956
0.999949
0.999666
0.99966
0.999676
0.999722
0.999726
0.99973
0.999793
0.999922
0.999881
0.999891
0.999954
0.999968
0.999962
0.999953
1
1
1
1
1
1
1
1
1
1
1
1
1
1
1
1
1
1
1
1
1
0.999999
1
1
1
1
1
1
0.999931
0.999933
0.999951
0.999969
0.999969
0.999963
0.999956
0.999727
0.999722
0.999747
0.999767
0.999772
0.999762
0.999808
0.999948
0.999933
0.999943
0.99997
0.999972
0.999967
0.999962
1
1
1
1
1
1
1
1
1
1
1
1
1
1
1
1
1
1
1
1
1
1
1
1
1
1
1
1
0.999939
0.999944
0.999962
0.999975
0.999975
0.999973
0.999968
0.999739
0.999743
0.999787
0.999806
0.9998
0.999776
0.999815
0.999955
0.999948
0.999959
0.999974
0.999976
0.999976
0.999977
1
1
1
1
1
1
1
1
1
1
1
1
1
1
1
1
1
1
1
1
1
1
1
1
1
1
1
1
0.999936
0.99994
0.999958
0.999975
0.999977
0.999971
0.999966
0.999765
0.999764
0.999801
0.999824
0.999817
0.999791
0.999819
0.99996
0.999951
0.999968
0.999977
0.999979
0.999975
0.999976
1
1
1
1
1
1
1
1
1
1
1
1
1
1
1
1
1
1
1
1
1
1
1
1
1
1
1
1
0.999939
0.999943
0.999959
0.999976
0.999978
0.999974
0.999969
0.999778
0.999776
0.999811
0.999831
0.999825
0.999799
0.999823
0.999962
0.999959
0.99997
0.999978
0.999979
0.999972
0.999971
1
1
1
1
1
1
1
1
1
1
1
1
1
1
1
1
1
1
1
1
1
1
1
1
1
1
1
1
0.999944
0.999948
0.999962
0.999979
0.999981
0.999977
0.999973
0.999807
0.999803
0.999835
0.999849
0.999844
0.999819
0.999834
0.999968
0.999964
0.999976
0.999981
0.99998
0.999975
0.999975
1
1
1
1
1
1
1
1
1
1
1
1
1
1
1
1
1
1
1
1
1
1
1
1
1
1
1
1
0.999947
0.999951
0.999965
0.99998
0.999983
0.999979
0.999974
0.99982
0.999815
0.999846
0.999858
0.999853
0.999828
0.999842
0.99997
0.999967
0.999978
0.999982
0.999982
0.999977
0.999977
1
1
1
1
1
1
1
1
1
1
1
1
1
1
)
;

boundaryField
{
    fuel
    {
        type            fixedValue;
        value           uniform 0;
    }
    primary_air
    {
        type            fixedValue;
        value           uniform 0.77;
    }
    Secondary_air_RHS
    {
        type            fixedValue;
        value           uniform 0.77;
    }
    Secondary_air_LHS
    {
        type            fixedValue;
        value           uniform 0.77;
    }
    outlet
    {
        type            inletOutlet;
        inletValue      uniform 0;
        value           nonuniform List<scalar> 
98
(
1
1
0.999947
0.99982
0.99997
1
1
1
1
0.999951
0.999815
0.999967
1
1
1
1
0.999965
0.999846
0.999978
1
1
1
1
0.99998
0.999858
0.999982
1
1
1
1
0.999983
0.999853
0.999982
1
1
1
1
0.999979
0.999828
0.999977
1
1
1
1
0.999974
0.999842
0.999977
1
1
1
1
0.999991
0.999949
0.999999
1
1
1
1
0.99999
0.999919
0.999998
1
1
1
1
0.999993
0.999927
0.999997
1
1
1
1
0.999995
0.999929
0.999996
1
1
1
1
0.999996
0.999922
0.999993
1
1
1
1
0.999993
0.999921
0.999991
1
1
1
1
0.999993
0.999918
0.99999
1
1
)
;
    }
    stove_body
    {
        type            fixedValue;
        value           uniform 0;
    }
    frontAndBack
    {
        type            empty;
    }
}


// ************************************************************************* //
