/*--------------------------------*- C++ -*----------------------------------*\
  =========                 |
  \\      /  F ield         | OpenFOAM: The Open Source CFD Toolbox
   \\    /   O peration     | Website:  https://openfoam.org
    \\  /    A nd           | Version:  6
     \\/     M anipulation  |
\*---------------------------------------------------------------------------*/
FoamFile
{
    version     2.0;
    format      ascii;
    class       volScalarField;
    location    "0.0175";
    object      O2;
}
// * * * * * * * * * * * * * * * * * * * * * * * * * * * * * * * * * * * * * //

dimensions      [0 0 0 0 0 0 0];

internalField   nonuniform List<scalar> 
3773
(
0
0
0
0
0
0
0
0
0
0
0
0
0
0
0
0
0
0
0
0
0
0
0
0
0
0
0
0
0
0
0
0
0
0
0
0
0
0
0
0
0
0
0
0
0
0
0
0
0
0
0
0
0
0
0
0
0
0
0
0
0
0
0
0
0
0
0
0
0
0
0
0
0
0
0
0
0
0
0
0
0
0
0
0
0
0
0
0
0
0
0
0
0
0
0
0
0
0
0
0
0
0
0
0
0
0
0
0
0
0
0
0
0
0
0
0
0
0
0
0
0
0
0
0
0
0
0
0
0
0
0
0
0
0
0
0
0
0
0
0
0
0
0
0
0
0
0
0
0
0
0
0
0
0
0
0
0
0
0
0
0
0
0
0
0
0
0
0
0
0
0
0
0
0
0
0
0
0
0
0
0
0
0
0
0
0
0
0
0
0
0
0
0
0
0
0
0
0
0
0
0
0
0
0
0
0
0
0
0
0
0
0
0
0
0
0
0
0
0
0
0
0
0
0
0
0
0
0
0
0
0
0
0
0
0
0
0
0
0
0
0
0
0
0
0
0
0
0
0
0
0
0
0
0
0
0
0
0
0
0
0
0
0
0
0
0
0
0
0
0
0
0
0
0
0
0
0
0
0
0
0
0
0
0
0
0
0
0
0
0
0
0
0
0
0
0
0
0
0
0
0
0
0
0
0
0
0
0
0
0
0
0
0
0
0
0
0
0
0
0
0
0
0
0
0
0
0
0
0
0
0
0
0
0
0
0
0
0
0
0
0
0
0
0.00180063
0.000598935
0.000609126
0.000673557
0.000764402
0.00111917
0.00211684
0.00256117
0.0011817
0.00112859
0.00113097
0.00112896
0.00146342
0.00256588
0.00412875
0.00336065
0.00322743
0.00320407
0.00299106
0.00313857
0.00425721
0.00780505
0.00780611
0.00841221
0.00844177
0.00775498
0.00712001
0.00728285
0.00446057
0.00389851
0.00366937
0.00342913
0.00333306
0.00345802
0.00361703
0.00287636
0.00210311
0.00132047
0.00113016
0.00108711
0.00106256
0.00105493
0.00253946
0.00123442
0.00078366
0.000699215
0.000748658
0.000760051
0.000843032
0.000483775
4.83668e-05
6.52347e-05
5.27274e-05
3.4516e-05
2.36288e-05
0.00129043
0.0013182
0.000185821
7.68553e-05
4.41199e-05
3.78821e-05
3.53737e-05
0.0017038
0.00278944
0.00139565
0.00116265
0.000997897
0.000714731
0.000691633
0.00207428
0.00698269
0.00696898
0.00759829
0.0074222
0.00651113
0.00552923
0.00552574
0.0035053
0.00194919
0.00172357
0.00178013
0.00179769
0.00216526
0.00275793
0.00205523
0.000376607
6.85678e-05
0.000114628
0.000178927
0.000195159
0.00013677
0.00202142
0.000256585
3.12894e-05
4.14271e-05
6.52254e-05
7.02936e-05
3.83078e-05
6.02669e-05
4.29316e-05
6.53956e-05
5.10064e-05
2.98395e-05
2.23335e-05
0.000776379
0.000979394
0.000472926
0.000147206
5.78286e-05
4.66772e-05
5.90915e-05
0.000262835
0.00179844
0.000742621
0.00059926
0.000399106
0.000307187
0.000291134
0.000462667
0.00566232
0.0055857
0.00589137
0.0058637
0.0049083
0.00417909
0.00413743
0.00212927
0.00106352
0.000933176
0.00101737
0.00104256
0.00141835
0.00233102
0.00115721
7.99736e-05
5.38423e-05
0.000128552
0.00033635
0.000350038
0.000210784
0.00153008
3.77693e-05
3.30355e-05
4.98553e-05
6.97193e-05
7.35319e-05
4.54772e-05
2.61803e-05
4.19493e-05
6.27263e-05
5.09172e-05
3.38183e-05
3.8623e-05
0.000268888
0.00095271
0.000613779
0.000310065
8.02756e-05
6.17322e-05
5.0953e-05
4.39451e-05
0.00138546
0.000679696
0.000524929
0.000458568
0.000434647
0.000433789
0.000396941
0.0048338
0.0051918
0.00514965
0.00498782
0.00442406
0.00392243
0.00390705
0.00120572
0.000726471
0.000643178
0.00072526
0.000766957
0.000907867
0.0017043
0.000553373
4.54159e-05
5.38599e-05
0.000130018
0.000443249
0.000442074
0.000269703
0.000886268
4.02708e-05
3.69321e-05
6.42955e-05
7.70808e-05
7.54061e-05
4.51927e-05
2.82158e-05
4.38428e-05
5.31097e-05
5.28747e-05
5.03091e-05
2.55401e-05
1.46475e-05
0.0010174
0.000588177
0.000261981
0.000100731
9.71573e-05
9.96226e-05
3.2108e-05
0.0012637
0.000665983
0.000499222
0.000455607
0.000504527
0.000675634
0.000815098
0.00435045
0.0043883
0.00436873
0.00455594
0.00445235
0.00399122
0.0040115
0.000770075
0.00068267
0.000582779
0.000628877
0.000670304
0.000723637
0.00136727
0.000202603
8.23616e-05
8.01835e-05
0.000222421
0.000496498
0.000469197
0.000304733
0.000335919
5.04895e-05
4.07148e-05
7.2755e-05
8.39998e-05
7.68697e-05
3.89389e-05
3.5002e-05
4.40177e-05
5.21839e-05
5.56818e-05
6.09632e-05
5.37852e-05
1.66032e-05
0.000766617
0.000363604
0.000161373
0.000127684
0.000158501
0.00015228
4.66568e-05
0.0012708
0.000653715
0.000458021
0.000463957
0.00066267
0.00104577
0.00111871
0.00432791
0.00427744
0.00414849
0.00453814
0.00458198
0.00429759
0.00446152
0.000732093
0.00081423
0.000661867
0.000652081
0.000667327
0.000712607
0.00137379
7.78556e-05
0.000123683
0.000144295
0.000429058
0.000529055
0.000446088
0.00032074
6.09247e-05
3.25733e-05
4.36293e-05
7.89225e-05
8.58145e-05
7.08954e-05
1.71595e-05
0
3.78818e-05
5.38511e-05
6.10304e-05
6.59026e-05
6.19358e-05
2.14609e-05
3.66925e-05
0.000205437
0.000260949
0.000226201
0.000193714
0.000185356
4.5093e-05
0.00119042
0.00069982
0.000483072
0.000520666
0.000791051
0.00128361
0.00108999
0.00429304
0.00400392
0.00344015
0.00409089
0.00448354
0.00429024
0.00482543
0.000793642
0.000774938
0.000603671
0.000636874
0.000676336
0.000762005
0.00179849
8.31113e-05
0.000187815
0.0001999
0.000479638
0.000518817
0.000275751
0.000101208
1.1385e-06
3.02733e-05
5.24479e-05
8.44296e-05
9.3287e-05
5.4963e-05
2.87839e-06
7.35115e-05
2.40735e-05
2.58754e-05
4.80837e-05
5.22482e-05
4.1939e-05
1.53231e-05
0.000206489
0.00033046
0.000291867
0.00022101
0.00018434
0.000105391
5.18901e-05
0.00117171
0.00126703
0.000922655
0.000743586
0.000626241
0.000731591
4.99319e-05
0.0040762
0.00395041
0.00331774
0.00364242
0.00394128
0.00407729
0.00378565
0.000463669
0.00096234
0.00080626
0.00095135
0.00131143
0.00146569
0.00140894
2.41355e-05
8.91839e-05
0.000173111
0.000232848
0.000298856
7.95395e-05
4.60755e-05
6.62481e-06
1.99781e-05
4.81842e-05
3.46135e-05
2.61653e-05
2.29922e-05
1.55445e-05
7.67297e-05
2.42584e-05
2.97986e-05
6.08114e-05
6.33422e-05
4.62805e-05
1.69482e-05
0.000390072
0.000665764
0.000350269
0.000257806
0.000214849
0.000126682
6.08749e-05
0.00147835
0.00157521
0.00104438
0.000921683
0.00096996
0.000632218
3.35591e-05
0.00409563
0.0038546
0.00302884
0.00330983
0.00336941
0.00321425
0.00314532
0.000521661
0.000902064
0.000771795
0.00108811
0.0013151
0.00104639
0.000658952
2.39854e-05
0.000123775
0.000333414
0.000286858
0.000190138
0.000104901
6.27378e-05
5.19755e-06
1.82565e-05
5.28244e-05
4.12076e-05
3.90425e-05
3.54329e-05
3.29935e-05
6.13994e-05
1.67687e-05
3.46852e-05
7.01666e-05
7.07088e-05
4.59545e-05
1.68648e-05
0.000328224
0.000535818
0.000361982
0.000266972
0.000236746
0.00013721
6.17543e-05
0.00156931
0.00167489
0.00103733
0.00105691
0.00109399
0.000545897
4.08989e-05
0.00397261
0.00357443
0.00278798
0.00307069
0.0030849
0.00282556
0.00246251
0.000415686
0.000772127
0.000759683
0.00100208
0.000948149
0.000178856
3.5792e-05
1.45471e-05
7.29033e-05
0.000155613
0.000119672
0.000124822
0.000121785
9.15996e-05
3.72641e-06
1.17705e-05
3.17652e-05
4.17054e-05
4.59019e-05
4.9403e-05
4.66693e-05
5.70611e-05
1.50527e-05
3.56863e-05
7.14382e-05
6.57744e-05
4.35292e-05
1.60469e-05
0.000441263
0.000533955
0.000329708
0.000250667
0.000228313
0.000148374
5.46638e-05
0.00157774
0.00168671
0.00103843
0.00104165
0.00102371
0.000448576
4.6518e-05
0.00349304
0.00316132
0.00227018
0.00257737
0.00235995
0.00215421
0.00154339
0.000157451
0.00068963
0.000708022
0.000861769
0.000946429
0.000396301
4.69304e-05
9.1468e-06
8.19027e-05
0.000101237
0.00012012
0.000168061
0.00015493
0.000102804
4.92007e-06
9.32749e-06
2.40623e-05
4.56557e-05
5.9285e-05
5.72616e-05
5.12324e-05
6.11243e-05
1.45196e-05
3.41863e-05
6.05959e-05
5.66765e-05
2.99467e-05
1.45716e-05
0.000565444
0.000487875
0.000217512
0.000168892
0.000224198
0.000148466
4.89218e-05
0.00144272
0.00160323
0.00096054
0.0008667
0.000867601
0.000472596
4.66445e-05
0.00291535
0.00292974
0.00196598
0.00205222
0.00209683
0.00161311
0.00105292
0.000146628
0.000727948
0.000665406
0.000799005
0.000991054
0.000711255
6.46195e-05
9.41807e-06
0.000114253
9.25689e-05
0.000128773
0.000271272
0.000195487
9.87972e-05
6.75655e-06
1.01688e-05
2.11343e-05
4.74701e-05
6.09791e-05
4.76873e-05
4.65112e-05
6.63559e-05
1.32596e-05
1.57962e-05
3.5388e-05
6.2638e-05
3.05903e-05
1.46169e-05
0.00051646
0.00035904
8.99967e-05
0.000100845
0.0002527
0.00017298
4.43976e-05
0.000938574
0.00118265
0.00072746
0.000639217
0.000693805
0.000562455
0.000116825
0.00231134
0.0020804
0.00152398
0.00152763
0.0017827
0.00149637
0.000584564
0.000205144
0.000602508
0.000528621
0.000598847
0.000754584
0.000708293
0.000184547
3.92283e-05
0.00011394
5.62511e-05
0.00013843
0.000340721
0.000226359
6.57252e-05
7.87128e-06
9.71664e-06
1.56066e-05
2.80946e-05
4.21377e-05
2.77394e-05
3.6239e-05
5.09441e-05
1.57914e-05
1.06689e-05
1.50263e-05
1.81706e-05
1.67629e-05
1.3665e-05
0.000293028
0.000104622
2.56242e-05
5.27801e-05
0.000186331
0.000149327
4.02109e-05
0.000540933
0.000487552
0.000271265
0.000261686
0.000436407
0.000428006
0.00019568
0.00163974
0.00166939
0.00140642
0.00123042
0.00140949
0.00132745
0.000635387
0.000187754
0.00029946
0.000206816
0.000207661
0.000363219
0.000451787
0.000243918
3.90784e-05
3.68541e-05
1.75692e-05
6.77798e-05
0.000131615
0.000151111
5.64275e-05
7.87417e-06
6.12388e-06
8.48685e-06
9.49849e-06
1.49604e-05
2.17114e-05
2.4951e-05
0
3.8522e-05
4.91632e-05
6.63151e-05
6.78675e-05
6.59885e-05
0
0
0.000318468
0.000371761
0.000262029
0.000212255
0.000208819
0
0.00117696
0.000699646
0.000601286
0.000696275
0.000776412
0.00113993
0
0.00422291
0.00392787
0.00346695
0.00401013
0.00432731
0.00429609
0.0047215
0.000769395
0.000827696
0.000712446
0.000887675
0.000974285
0.00092078
0.00170899
0
0.000133559
0.000280301
0.000469127
0.000476964
0.000123534
0
0
2.48501e-05
6.00301e-05
7.95342e-05
8.0452e-05
2.83628e-05
0
0
3.46748e-05
4.16915e-05
5.90787e-05
6.17619e-05
5.85011e-05
0
0
0.0003169
0.000359708
0.000245545
0.000195567
0.000179026
0
0.0011546
0.00071754
0.000618761
0.000712402
0.000798266
0.00111798
0
0.00419445
0.00393002
0.00346268
0.00398909
0.00432257
0.00429584
0.00468118
0.000711331
0.000846594
0.000722689
0.000895877
0.000973052
0.000941339
0.00167653
0
0.000122066
0.000245224
0.00041799
0.00042435
0.000109345
0
0
2.35528e-05
5.51314e-05
6.4688e-05
6.33691e-05
2.56363e-05
0
0
3.34724e-05
3.94666e-05
5.66209e-05
6.04487e-05
5.64095e-05
0
0
0.000319683
0.000354991
0.000240246
0.000189822
0.000168528
0
0.00109818
0.00072492
0.000660144
0.000741722
0.000862657
0.00117969
0
0.00414211
0.00393497
0.0034521
0.00398082
0.00431575
0.00428986
0.00458369
0.000641536
0.000856653
0.000756696
0.000919395
0.000968552
0.000983077
0.00158269
0
0.000119192
0.00023598
0.000406806
0.000407493
0.000102561
0
0
2.29995e-05
5.44003e-05
6.07455e-05
5.86043e-05
2.47136e-05
0
0
3.15704e-05
3.87369e-05
5.49601e-05
6.03907e-05
5.44887e-05
0
0
0.00032832
0.000349014
0.000238693
0.000182319
0.000152444
0
0.00105758
0.000741079
0.0006862
0.000750875
0.000881237
0.00124063
0
0.00409609
0.00393841
0.0034469
0.0039597
0.00428526
0.00427149
0.00452854
0.00058714
0.000877472
0.000763478
0.000922232
0.000955753
0.000999278
0.00154449
0
0.000115478
0.000243719
0.000401531
0.000399636
0.000102479
0
0
2.23749e-05
5.62266e-05
6.00318e-05
5.741e-05
2.54337e-05
0
0
2.98282e-05
3.8023e-05
5.48118e-05
6.07977e-05
5.24342e-05
0
0
0.000332653
0.000337011
0.000237823
0.000179454
0.000141243
0
0.00100883
0.000771118
0.000700753
0.000768308
0.000903767
0.00127148
0
0.00404657
0.00394393
0.00343641
0.00393028
0.0042289
0.00423133
0.00441811
0.000475843
0.000906827
0.000767584
0.000918946
0.000937956
0.00104628
0.00145218
0
0.000113201
0.000250004
0.000366095
0.000392342
0.000103513
0
0
2.12737e-05
5.68319e-05
5.98641e-05
5.77503e-05
2.61719e-05
0
6.71139e-08
2.69061e-05
3.10277e-05
4.79616e-05
5.96143e-05
4.82545e-05
0
0
0.00033231
0.000314975
0.000227067
0.000168612
0.000118958
0
0.000993582
0.000845358
0.000731467
0.000786709
0.00100774
0.00131703
0
0.0040063
0.00394604
0.00342764
0.00392412
0.00416632
0.00420483
0.00435859
0.000445818
0.000966261
0.00078438
0.000921441
0.000929984
0.00107781
0.00138875
0
0.000102277
0.00024351
0.00030618
0.00037376
0.000102695
0
0
2.07406e-05
5.6584e-05
4.44106e-05
4.1002e-05
2.34919e-05
0
3.93039e-05
2.37855e-05
2.72853e-05
4.42218e-05
5.72105e-05
4.62287e-05
0
0
0.000325987
0.000303086
0.000219055
0.000160608
0.000106423
0
0.000935733
0.000881136
0.000773834
0.000832407
0.0008205
0.0013198
0
0.00393101
0.00395335
0.00342002
0.00391985
0.00415734
0.00419834
0.00422747
0.000332953
0.00100769
0.000822893
0.000938099
0.000946324
0.00115441
0.00127629
0
9.41972e-05
0.000215019
0.000279247
0.000343835
8.2086e-05
0
0
1.99095e-05
5.20377e-05
3.88777e-05
3.19779e-05
2.12958e-05
0
3.18201e-07
2.35005e-06
5.30879e-06
5.01716e-06
2.91246e-06
2.26503e-06
3.6067e-07
1.65113e-06
2.23905e-06
1.10863e-05
2.99004e-05
3.25364e-05
3.37901e-05
7.29057e-06
0.000437115
0.000477361
0.000316149
0.000326942
0.000316038
0.000557245
0.000317316
0.00144474
0.00154435
0.00135523
0.00115965
0.00127029
0.00126109
0.000673015
0.000193134
0.000337471
0.000348763
0.000333411
0.000273867
0.000666838
0.00037234
8.74399e-06
8.55686e-06
8.97386e-06
1.39108e-05
1.92068e-05
2.13924e-05
7.74682e-06
7.571e-07
9.791e-07
1.14136e-06
2.17007e-06
2.31361e-06
1.74263e-06
7.13104e-07
1.3987e-06
5.47268e-06
5.56447e-06
4.1508e-06
3.83223e-06
2.20305e-06
1.41521e-06
9.67204e-07
3.28854e-06
1.85462e-05
1.90002e-05
1.90976e-05
1.91762e-05
8.33729e-06
0.00043745
0.000416367
0.000297243
0.000290531
0.000320523
0.000437093
0.000358068
0.00132631
0.00149615
0.00132848
0.00113221
0.00121409
0.00121974
0.000723337
0.000188729
0.000348477
0.000340266
0.000295405
0.000289478
0.00038862
0.000365212
5.42948e-06
5.3365e-06
5.18772e-06
1.136e-05
1.45763e-05
1.44709e-05
1.30943e-05
7.50774e-07
9.37958e-07
9.39338e-07
1.5691e-06
3.27153e-06
2.2936e-06
1.83841e-06
3.52875e-06
7.39856e-06
9.82663e-06
7.61658e-06
6.45815e-06
5.20726e-06
3.31651e-06
2.91196e-06
3.65399e-06
2.09161e-05
2.27356e-05
2.31946e-05
2.33464e-05
1.8311e-05
0.000455609
0.000403804
0.000348265
0.000310816
0.000366057
0.00048346
0.000406799
0.00125207
0.00146399
0.00130746
0.00109164
0.00117544
0.00119024
0.000781621
0.000185792
0.000417671
0.000447345
0.000321576
0.00031967
0.000351371
0.00033554
6.57546e-06
5.38472e-06
4.4655e-06
7.81712e-06
1.46966e-05
1.66471e-05
1.48156e-05
1.37511e-06
1.33817e-06
1.17654e-06
1.35353e-06
4.84692e-06
5.86224e-06
5.54535e-06
4.12867e-06
8.53903e-06
1.05474e-05
7.64963e-06
7.04934e-06
6.8745e-06
7.08759e-06
5.25976e-06
3.84619e-06
1.94507e-05
2.19431e-05
2.65601e-05
2.9212e-05
3.33817e-05
0.000507417
0.000381096
0.000238645
0.000217204
0.000352855
0.000430652
0.000405133
0.00120781
0.00140018
0.00126352
0.00100235
0.00110086
0.00113361
0.00085472
0.000212046
0.000391741
0.000404541
0.000300598
0.00031473
0.000375724
0.000338695
1.14068e-05
6.94453e-06
4.53602e-06
6.16444e-06
1.32658e-05
1.8296e-05
1.91623e-05
2.31495e-06
1.63358e-06
1.24434e-06
1.38595e-06
4.47155e-06
6.59338e-06
7.6957e-06
5.505e-06
8.9117e-06
1.04942e-05
7.00761e-06
6.24533e-06
6.2169e-06
6.90272e-06
4.8075e-06
3.71176e-06
1.57074e-05
1.55404e-05
1.8183e-05
2.2607e-05
2.49837e-05
0.000444925
0.000286885
0.000123604
0.000148934
0.00022751
0.000357317
0.000375445
0.00114251
0.00122848
0.00119327
0.00092158
0.00102363
0.00107905
0.000914189
0.000257104
0.000260756
0.000273655
0.0002551
0.000270671
0.000342835
0.000349247
9.96826e-06
5.79773e-06
4.04069e-06
5.82732e-06
9.50512e-06
1.36412e-05
1.57295e-05
1.57638e-06
1.24302e-06
1.04526e-06
1.30778e-06
3.8099e-06
5.51282e-06
6.19864e-06
6.86407e-06
9.02354e-06
1.00665e-05
8.74159e-06
6.88503e-06
6.77071e-06
7.22341e-06
4.41525e-06
3.68062e-06
1.1145e-05
1.28138e-05
1.14882e-05
1.19886e-05
1.41028e-05
0.000264881
0.000162142
6.89895e-05
5.83266e-05
0.000124632
0.000273812
0.000314637
0.000987911
0.000847268
0.000993008
0.000790099
0.000898579
0.000956592
0.000896926
0.000167721
0.000123054
0.000178676
0.00019453
0.000212538
0.000278476
0.000308035
3.22701e-06
2.51325e-06
2.62055e-06
5.03917e-06
6.18856e-06
7.52427e-06
9.52821e-06
1.14441e-06
9.09777e-07
8.5202e-07
1.48218e-06
3.80074e-06
4.67382e-06
4.50433e-06
7.168e-06
8.37947e-06
8.10408e-06
7.92519e-06
7.54099e-06
7.22623e-06
6.8741e-06
4.49501e-06
3.90871e-06
7.00154e-06
8.10592e-06
8.76158e-06
8.9779e-06
9.50693e-06
6.75117e-05
4.36345e-05
1.63601e-05
1.75862e-05
7.91071e-05
0.000178579
0.000279045
0.000539524
0.000321001
0.000549689
0.000447778
0.000667611
0.000705786
0.000787097
3.40948e-05
3.82874e-05
4.90818e-05
7.00664e-05
0.0001114
0.000156661
0.000249591
2.32358e-06
2.29473e-06
2.44182e-06
4.887e-06
5.33925e-06
5.7418e-06
6.69455e-06
1.46417e-06
1.43294e-06
1.48524e-06
2.6072e-06
3.63597e-06
3.93392e-06
4.22987e-06
1.27203e-07
9.01206e-08
8.79289e-08
7.40935e-08
6.80705e-08
6.37443e-08
2.73587e-08
3.41365e-06
8.30051e-07
8.73704e-08
6.82761e-08
3.74978e-08
1.47902e-08
1.26365e-08
0.000247198
8.53593e-05
2.49944e-06
2.85422e-06
2.9585e-06
3.05866e-06
3.56061e-06
0.000560436
0.000387703
0.000187163
9.82313e-05
4.25678e-05
3.29828e-05
2.6778e-05
0.000287658
0.000215335
7.74452e-06
6.32291e-07
9.71704e-07
1.24851e-06
1.71137e-06
2.22488e-06
1.16052e-06
8.01403e-08
5.13208e-08
5.05929e-08
4.37853e-08
3.3455e-08
1.42895e-07
1.15902e-07
1.01397e-07
7.30767e-08
6.15296e-08
3.35082e-08
2.07796e-08
9.42039e-07
8.27388e-07
7.97574e-07
7.42353e-07
5.84848e-07
5.17491e-07
2.484e-07
5.03843e-06
1.64571e-06
6.73313e-07
1.67255e-07
1.44434e-07
1.0951e-07
9.35345e-08
0.000277
0.000213517
5.51229e-05
2.87527e-06
3.25243e-06
3.4585e-06
4.12363e-06
0.000604666
0.000489501
0.000334174
0.000190641
0.000113536
6.88034e-05
5.94417e-05
0.000315238
0.000275315
0.000208861
5.96249e-05
1.07327e-06
1.55492e-06
1.86955e-06
5.44176e-06
3.44233e-06
1.08548e-06
4.05773e-07
3.90255e-07
3.75633e-07
2.74724e-07
1.12277e-06
1.05928e-06
9.70132e-07
6.51689e-07
5.27905e-07
2.40648e-07
9.82855e-08
3.19317e-06
3.1056e-06
3.03164e-06
2.78733e-06
2.55419e-06
1.96328e-06
1.16734e-06
1.2006e-05
7.65283e-06
4.2078e-06
1.8563e-06
1.13603e-06
8.08238e-07
8.2232e-07
0.000305365
0.000283196
0.000231465
0.000126185
1.93704e-05
3.7799e-06
4.72038e-06
0.000633723
0.000549403
0.000510839
0.000412483
0.000324941
0.000250975
0.000199322
0.000312899
0.000279396
0.000256901
0.000209971
0.00010081
4.89461e-06
2.27407e-06
1.19684e-05
7.92697e-06
7.04242e-06
3.27761e-06
1.93191e-06
1.86866e-06
1.63415e-06
4.3026e-06
4.07929e-06
3.82009e-06
3.39504e-06
2.58488e-06
1.24622e-06
2.90491e-07
9.40241e-06
7.67233e-06
6.41698e-06
5.44895e-06
4.55947e-06
4.46685e-06
2.54402e-06
3.34722e-05
2.43911e-05
1.70499e-05
1.11052e-05
4.79622e-06
3.39153e-06
3.56465e-06
0.000349078
0.000328018
0.000282493
0.000247832
0.000196406
9.94264e-05
2.69606e-05
0.000633863
0.000584799
0.000528231
0.000474112
0.000429055
0.00036969
0.000320056
0.00030156
0.000286061
0.000267465
0.000221164
0.00018877
0.000111368
2.69297e-05
1.76032e-05
1.4214e-05
1.2558e-05
1.10171e-05
7.56467e-06
5.75139e-06
5.73129e-06
7.73377e-06
6.19431e-06
5.78246e-06
5.4027e-06
5.00466e-06
4.05349e-06
1.13503e-06
7.68062e-06
7.17867e-06
6.73425e-06
6.4692e-06
5.89449e-06
5.70474e-06
4.41425e-06
1.99164e-05
1.31503e-05
1.00227e-05
7.45364e-06
6.7654e-06
7.80796e-06
6.67177e-06
0.000339523
0.000327278
0.000302138
0.000280314
0.000233996
0.000202341
0.000141198
0.000703281
0.000662935
0.000575004
0.000538237
0.000508092
0.000452828
0.000367943
0.000319662
0.000309741
0.000290353
0.000271261
0.000213878
0.000170731
0.000105751
1.29978e-05
1.02091e-05
8.94261e-06
7.7619e-06
7.46885e-06
8.65044e-06
8.36314e-06
5.85239e-06
5.60311e-06
5.71334e-06
5.79746e-06
5.67688e-06
5.09675e-06
1.99738e-06
7.40633e-06
7.22772e-06
6.93606e-06
6.74191e-06
6.42944e-06
6.20855e-06
5.46562e-06
1.08854e-05
8.34726e-06
7.3959e-06
6.23465e-06
5.9416e-06
6.04122e-06
5.57418e-06
0.000375703
0.00037072
0.000358392
0.000341596
0.000297478
0.000248946
0.000212667
0.000830161
0.000768781
0.000717918
0.000634751
0.000616277
0.000568257
0.000522551
0.000335733
0.000331926
0.00032109
0.000311293
0.000295632
0.000244508
0.000214193
1.02543e-05
1.19859e-05
1.28511e-05
1.28039e-05
1.23952e-05
1.15155e-05
1.08924e-05
4.44098e-06
4.54543e-06
4.89281e-06
5.14354e-06
5.17957e-06
5.14529e-06
2.39167e-06
6.90315e-06
6.89891e-06
6.83278e-06
6.72673e-06
6.53028e-06
6.35092e-06
5.77974e-06
9.4354e-06
9.20316e-06
8.89185e-06
8.48528e-06
8.32545e-06
7.9254e-06
7.41664e-06
0.000333113
0.000352191
0.000348269
0.000346326
0.000336818
0.000302847
0.000289479
0.000775049
0.000749423
0.000735956
0.000701441
0.000686436
0.000648611
0.000628537
0.000335513
0.000346612
0.000345729
0.000339747
0.000327589
0.000291546
0.000275554
7.56018e-06
7.84271e-06
8.50943e-06
8.77706e-06
9.80188e-06
9.72151e-06
9.66729e-06
4.4088e-06
4.49115e-06
4.57655e-06
4.61673e-06
4.63694e-06
4.61255e-06
2.51872e-06
9.58735e-09
3.00704e-08
4.31012e-08
5.87767e-08
6.46742e-08
6.75096e-08
8.30229e-08
1.34943e-08
1.57595e-08
1.63639e-08
1.72348e-08
2.02796e-08
2.36221e-08
1.60417e-06
2.48784e-06
4.90229e-05
0.000226861
0.000301784
0.000331046
0.00036181
0.000391734
0.000102821
0.000141762
0.000159368
0.000184893
0.000266557
0.000486592
0.00111136
1.02613e-05
8.06337e-06
6.67474e-06
5.30252e-06
3.63272e-06
3.28779e-05
0.000159515
2.24386e-08
2.48867e-08
2.64977e-08
7.8885e-08
1.06439e-07
3.82312e-07
1.04318e-06
2.83709e-08
4.82843e-08
5.6428e-08
6.4147e-08
6.70341e-08
6.91708e-08
8.71252e-08
9.01768e-08
2.7838e-07
4.41152e-07
6.54773e-07
6.84594e-07
6.84728e-07
6.19889e-07
7.16682e-08
8.29893e-08
9.54405e-08
1.29471e-07
1.8073e-07
1.92337e-07
9.86822e-07
2.53783e-06
7.60125e-05
0.000218704
0.000259665
0.00031925
0.000354346
0.000395609
0.000116241
0.000165708
0.000196588
0.000262641
0.00038395
0.000691065
0.00109822
1.11628e-05
7.97881e-06
6.24622e-06
5.37852e-06
3.60422e-06
4.62516e-05
0.000151908
1.04573e-07
1.08893e-07
1.09806e-07
1.13994e-07
1.39822e-07
6.49468e-07
1.9785e-06
1.15101e-07
1.85734e-07
2.45241e-07
2.81507e-07
2.9554e-07
2.97822e-07
3.34221e-07
3.98537e-07
1.52078e-06
1.99016e-06
2.11392e-06
2.14554e-06
2.08854e-06
1.77968e-06
3.82361e-07
4.27649e-07
1.58738e-06
2.01142e-06
3.33121e-06
3.66449e-06
3.65076e-06
1.00088e-05
0.000148255
0.000252276
0.000313206
0.000333387
0.00036822
0.000410042
0.000162566
0.000194285
0.00026297
0.000334677
0.000514316
0.000816164
0.001055
9.67205e-06
6.87633e-06
5.48447e-06
4.56993e-06
6.40306e-06
6.18826e-05
0.000144676
5.94436e-07
5.8877e-07
5.87725e-07
6.49635e-07
7.59192e-07
2.41084e-06
3.4784e-06
2.20092e-07
5.55199e-07
8.41261e-07
9.53053e-07
9.54792e-07
9.95782e-07
1.03318e-06
1.26365e-06
3.01622e-06
2.96477e-06
2.63759e-06
2.8319e-06
2.61756e-06
1.83666e-06
1.58908e-06
3.59269e-06
5.23603e-06
6.55241e-06
6.46093e-06
6.44231e-06
6.67595e-06
6.75996e-05
0.000202063
0.000279236
0.000311519
0.000354972
0.000416798
0.000454364
0.000233922
0.000314195
0.000400275
0.000528897
0.000725355
0.00091991
0.00105196
7.07496e-06
4.74892e-06
5.11089e-06
7.59063e-06
2.59696e-05
9.66394e-05
0.000164807
1.39586e-06
1.37331e-06
1.33503e-06
1.39064e-06
2.11568e-06
3.32524e-06
6.97397e-06
7.6785e-07
1.30313e-06
1.38764e-06
1.42887e-06
1.45496e-06
1.52648e-06
1.93286e-06
1.9833e-06
3.50892e-06
2.98642e-06
2.35392e-06
2.29659e-06
2.45122e-06
2.46372e-06
2.48965e-06
3.29948e-06
6.17677e-06
6.00283e-06
3.96469e-06
3.65894e-06
5.1141e-06
0.000103317
0.000154298
0.000166315
0.000186401
0.000247169
0.00030331
0.000379728
0.000414236
0.000546568
0.000609134
0.000727385
0.0007996
0.000937028
0.00102591
9.61889e-06
1.37095e-05
2.16958e-05
4.52681e-05
0.00010582
0.000165645
0.000211378
2.37297e-06
1.72088e-06
2.19162e-06
4.37697e-06
7.39803e-06
1.23164e-05
5.44652e-06
1.24708e-06
1.55257e-06
1.41879e-06
1.58874e-06
2.23579e-06
2.48834e-06
1.59826e-06
2.50052e-06
4.57433e-06
4.10314e-06
3.64727e-06
3.5152e-06
3.5628e-06
4.12286e-06
5.13014e-06
3.723e-06
3.14306e-06
3.29709e-06
3.3469e-06
3.85894e-06
4.20493e-06
8.76942e-05
9.9451e-05
0.000106757
0.000137036
0.000154053
0.000174481
0.000189435
0.000544058
0.000639375
0.000692535
0.000791149
0.000835596
0.000922183
0.000954257
6.84848e-05
8.14336e-05
0.000104454
0.000156623
0.000175113
0.000202591
0.000210249
2.33712e-06
2.07831e-06
2.50221e-06
2.92048e-06
3.16938e-06
3.34007e-06
2.45162e-06
1.55934e-06
1.57067e-06
1.45165e-06
1.34136e-06
1.24179e-06
1.21238e-06
1.13142e-06
2.64068e-06
5.35845e-06
5.5677e-06
5.6821e-06
5.81486e-06
6.15663e-06
6.552e-06
4.50333e-06
4.1349e-06
4.14853e-06
4.23379e-06
4.53942e-06
4.65449e-06
4.68854e-06
6.75438e-05
6.91476e-05
7.73934e-05
9.95151e-05
0.000112317
0.000122472
0.000121901
0.000526386
0.000547806
0.000589716
0.000635281
0.000648754
0.000655061
0.000617574
9.23109e-05
9.61735e-05
0.000104901
0.000107976
0.000105809
9.39756e-05
7.62636e-05
2.10631e-06
2.15135e-06
2.22026e-06
2.23605e-06
2.2434e-06
2.2442e-06
2.23941e-06
1.89861e-06
1.8208e-06
1.79639e-06
1.74409e-06
1.67528e-06
1.63618e-06
1.54152e-06
2.94998e-11
2.92638e-11
3.7933e-11
5.57507e-11
1.35432e-10
7.42386e-10
3.48527e-09
2.48616e-10
2.78351e-10
4.83611e-10
1.29919e-09
2.77022e-09
7.08638e-09
1.08099e-08
2.16023e-05
2.47484e-05
2.31246e-05
1.77175e-05
1.02941e-05
5.67838e-06
4.40474e-06
6.62554e-05
7.79902e-05
8.20241e-05
8.59622e-05
8.84413e-05
9.15861e-05
9.56366e-05
2.15368e-05
2.62284e-05
2.54745e-05
2.25372e-05
1.6027e-05
1.29298e-05
1.23966e-05
1.09605e-09
1.85361e-09
4.99446e-09
8.728e-09
1.79492e-08
1.89728e-08
2.16986e-08
1.13783e-09
1.46009e-09
2.73964e-09
3.99678e-09
9.12226e-09
1.17927e-08
1.62013e-08
2.98008e-11
3.30675e-11
5.12642e-11
1.14841e-10
4.61411e-10
4.18337e-09
2.64554e-08
2.7334e-10
4.20172e-10
1.91159e-09
1.29236e-08
2.27236e-08
4.45421e-08
5.53139e-08
2.32247e-05
2.57253e-05
2.44924e-05
1.65549e-05
1.16655e-05
8.24944e-06
4.98443e-06
7.158e-05
8.67008e-05
9.20554e-05
9.54587e-05
9.74157e-05
0.000103874
0.000107064
2.37529e-05
2.90359e-05
2.82747e-05
2.26511e-05
1.83299e-05
1.58331e-05
1.40895e-05
1.38578e-09
3.01453e-09
2.02838e-08
5.12322e-08
7.27565e-08
7.67278e-08
8.99841e-08
7.43836e-10
1.48049e-09
4.53158e-09
9.1706e-09
2.29923e-08
2.65388e-08
4.97592e-08
2.336e-11
3.71143e-11
6.57208e-11
2.47536e-10
9.21926e-10
1.40911e-08
7.47395e-08
4.43578e-10
4.97146e-10
5.74537e-09
4.67184e-08
7.75179e-08
1.47118e-07
2.83221e-07
2.34282e-05
2.64399e-05
2.58294e-05
1.82089e-05
1.07584e-05
7.30225e-06
4.10703e-06
7.08868e-05
8.37591e-05
8.87528e-05
9.38622e-05
9.73134e-05
0.000104405
0.000115984
2.36951e-05
2.87441e-05
2.9257e-05
2.5231e-05
1.6978e-05
1.24381e-05
1.16069e-05
2.51306e-09
6.86568e-09
3.86151e-08
1.60423e-07
4.25891e-07
4.76469e-07
5.86847e-07
6.90616e-10
1.4227e-09
5.37997e-09
1.36244e-08
2.74855e-08
3.09874e-08
1.02954e-07
2.71816e-11
4.75735e-11
7.72963e-11
3.88755e-10
1.74444e-09
2.65413e-08
1.05823e-07
4.97703e-10
5.05171e-10
1.19827e-08
1.549e-07
3.18833e-07
7.45029e-07
1.2087e-06
2.25157e-05
2.53956e-05
2.56147e-05
1.87818e-05
1.25784e-05
6.27054e-06
7.82963e-06
6.66361e-05
8.24305e-05
9.15146e-05
0.000102583
0.000116586
0.000138577
0.000177004
2.2565e-05
2.57165e-05
2.74245e-05
2.3977e-05
1.64734e-05
1.22639e-05
8.75036e-06
3.1501e-09
1.14223e-08
1.88985e-07
7.04582e-07
8.86713e-07
1.08915e-06
1.39924e-06
7.19816e-10
1.73033e-09
6.92913e-09
1.59639e-08
2.85162e-08
3.26151e-08
1.99117e-07
3.37952e-11
6.06978e-11
8.96945e-11
4.37315e-10
2.27609e-09
3.91931e-08
1.15965e-07
5.45124e-10
5.17154e-10
2.46869e-08
2.83516e-07
8.91732e-07
1.79413e-06
2.4388e-06
2.21252e-05
2.41929e-05
2.40726e-05
1.64805e-05
1.00639e-05
1.07038e-05
3.27401e-05
6.69954e-05
8.87077e-05
0.000111992
0.000147991
0.000203803
0.00027392
0.000346468
2.2721e-05
2.52462e-05
2.5924e-05
2.0713e-05
1.26305e-05
8.94846e-06
8.72826e-06
3.4681e-09
1.63472e-08
4.89392e-07
1.03482e-06
1.65346e-06
2.24458e-06
2.58359e-06
6.85108e-10
1.80201e-09
7.21272e-09
1.67192e-08
2.91601e-08
3.39481e-08
2.50735e-07
3.77357e-11
6.76954e-11
9.40148e-11
4.82485e-10
2.71228e-09
4.10814e-08
1.17745e-07
5.91011e-10
6.04795e-10
5.7168e-08
3.8558e-07
1.82928e-06
3.21968e-06
4.54138e-06
2.26579e-05
2.51971e-05
2.50033e-05
1.55895e-05
1.10242e-05
2.37865e-05
6.00922e-05
6.83347e-05
0.000107064
0.000177912
0.000242853
0.000330205
0.000409234
0.000486777
2.32595e-05
2.64582e-05
2.70848e-05
1.94651e-05
1.30024e-05
2.45277e-05
3.97758e-05
3.72522e-09
1.84829e-08
6.66254e-07
1.38838e-06
2.3446e-06
2.78658e-06
2.84725e-06
6.7028e-10
1.82802e-09
7.3222e-09
1.68904e-08
2.9273e-08
3.45764e-08
3.37495e-07
3.93862e-11
7.10733e-11
9.73988e-11
4.99664e-10
2.92297e-09
3.44873e-08
1.20139e-07
6.49634e-10
7.04625e-10
7.76566e-08
4.19119e-07
3.00827e-06
3.85881e-06
4.35665e-06
2.23531e-05
3.0064e-05
2.48043e-05
1.84406e-05
2.75674e-05
4.61606e-05
6.30359e-05
9.15066e-05
0.000197239
0.000293567
0.000377524
0.000424964
0.000458105
0.000486792
2.29035e-05
3.16436e-05
2.79688e-05
2.97398e-05
5.18835e-05
6.75722e-05
8.15694e-05
3.83553e-09
1.89824e-08
6.85638e-07
1.07484e-06
1.70489e-06
2.02879e-06
2.28361e-06
6.12409e-10
1.82652e-09
7.37683e-09
1.65061e-08
2.93341e-08
3.45796e-08
4.17042e-07
3.12708e-11
8.11572e-11
3.80391e-11
5.03246e-10
1.1826e-09
1.00529e-08
1.25871e-07
9.08653e-10
1.23599e-09
9.29287e-10
2.06302e-09
4.75285e-07
1.08519e-06
1.37105e-06
2.12396e-05
2.11387e-05
1.80356e-05
1.41526e-05
1.68444e-05
2.17322e-05
2.81789e-05
0.000110927
0.000202391
0.00023092
0.000224985
0.000226053
0.000216869
0.000204548
1.99688e-05
1.99358e-05
1.82046e-05
1.99242e-05
3.91224e-05
4.44456e-05
3.11503e-05
3.35385e-09
1.25082e-08
1.21625e-07
2.7282e-07
3.22844e-07
1.23076e-08
8.45172e-07
1.99366e-10
1.83699e-09
4.82753e-09
1.59797e-08
2.99818e-08
3.2616e-08
8.60871e-08
4.059e-11
1.10236e-10
3.83645e-11
8.96792e-11
3.95687e-10
6.65003e-09
2.71529e-08
1.0403e-09
2.48784e-09
8.17644e-10
4.29028e-09
2.4274e-08
1.50485e-07
5.21845e-07
1.14507e-05
1.10123e-05
1.16512e-05
1.05803e-05
1.09841e-05
1.34052e-05
1.53164e-05
9.30738e-05
0.00016493
0.000154661
0.000168433
0.00017358
0.000167117
0.000150021
8.32933e-06
9.80292e-06
1.12806e-05
1.20591e-05
1.94107e-05
2.65024e-05
2.27987e-05