/*--------------------------------*- C++ -*----------------------------------*\
  =========                 |
  \\      /  F ield         | OpenFOAM: The Open Source CFD Toolbox
   \\    /   O peration     | Website:  https://openfoam.org
    \\  /    A nd           | Version:  6
     \\/     M anipulation  |
\*---------------------------------------------------------------------------*/
FoamFile
{
    version     2.0;
    format      ascii;
    class       volScalarField;
    location    "0.0175";
    object      p;
}
// * * * * * * * * * * * * * * * * * * * * * * * * * * * * * * * * * * * * * //

dimensions      [1 -1 -2 0 0 0 0];

internalField   nonuniform List<scalar> 
3773
(
43161.3
43160.8
43160.3
43160
43160.1
43160.7
43161.1
104194
104194
104195
104195
104195
104194
104194
140787
140788
140789
140789
140789
140788
140788
152864
152864
152864
152863
152863
152863
152864
140787
140788
140788
140788
140788
140788
140788
104193
104193
104194
104194
104194
104193
104193
43160.5
43159.9
43159.2
43159
43159.3
43160
43160.4
43161
43160.5
43160
43159.6
43159.8
43160.4
43160.9
104193
104193
104194
104194
104194
104193
104193
140791
140791
140792
140792
140792
140791
140791
152865
152864
152864
152864
152864
152864
152865
140790
140791
140791
140792
140791
140791
140791
104192
104192
104193
104193
104193
104192
104192
43160.3
43159.7
43158.9
43158.7
43159.1
43159.8
43160.2
43161.6
43161.1
43160.5
43160.1
43160.3
43161
43161.6
104192
104192
104193
104193
104193
104192
104192
140794
140795
140795
140796
140796
140795
140795
152867
152867
152866
152866
152866
152866
152867
140794
140795
140795
140795
140795
140795
140794
104191
104191
104192
104192
104192
104191
104191
43161.1
43160.4
43159.5
43159.3
43159.7
43160.4
43160.9
43162.5
43162
43161.3
43160.8
43161.2
43161.9
43162.5
104191
104191
104192
104192
104192
104191
104191
140798
140799
140799
140799
140799
140799
140798
152870
152869
152869
152869
152869
152869
152870
140798
140798
140799
140799
140799
140799
140798
104190
104190
104191
104191
104191
104190
104190
43162.1
43161.3
43160.4
43160.1
43160.5
43161.4
43161.9
43163
43162.4
43161.7
43161.2
43161.6
43162.4
43163
104189
104190
104190
104191
104191
104190
104190
140801
140802
140802
140802
140802
140802
140801
152873
152872
152872
152872
152872
152872
152873
140801
140801
140802
140802
140802
140801
140801
104189
104189
104190
104190
104189
104189
104188
43162.6
43161.9
43160.9
43160.6
43161
43161.9
43162.4
43162.7
43162.2
43161.4
43160.9
43161.3
43162.2
43162.9
104189
104189
104190
104190
104190
104189
104189
140803
140803
140804
140804
140804
140803
140803
152875
152875
152874
152874
152874
152875
152875
140802
140803
140803
140803
140803
140803
140802
104188
104188
104189
104189
104189
104188
104188
43162.5
43161.7
43160.7
43160.3
43160.8
43161.8
43162.2
43162.1
43161.6
43160.7
43160.2
43160.7
43161.6
43162.2
104188
104189
104189
104189
104189
104189
104188
140804
140804
140804
140805
140805
140804
140803
152876
152876
152876
152876
152876
152876
152876
140803
140803
140804
140804
140804
140804
140803
104187
104187
104188
104188
104188
104188
104187
43161.8
43161.1
43160
43159.7
43160.2
43161.2
43161.6
64008.8
64354.4
64189.8
63899
63680.7
63563.1
63618.2
150510
150600
150636
150637
150549
150464
150592
201197
201155
201187
201215
201241
201282
201373
217803
217728
217697
217702
217730
217767
217816
201238
201059
200948
200924
200970
201062
201140
150613
150145
150065
150213
150415
150593
150692
63457.4
63297.8
63539.4
63844.7
63987.5
63994.6
63965.4
63294.5
63335.7
63205.8
63141.5
63024.5
62914.1
62952.6
149633
149595
149722
149800
149830
149751
149853
200740
200666
200739
200810
200859
200877
200941
217463
217397
217399
217417
217439
217459
217492
200578
200428
200364
200384
200431
200508
200580
149435
149051
149000
149225
149433
149607
149764
62716.3
62588.2
62757.6
63088.1
63270.2
63379.5
63439.8
62849.2
62758.5
62532.3
62649.3
62603.2
62553.3
62566.1
149020
148951
149152
149211
149332
149368
149433
200354
200315
200396
200427
200524
200588
200640
217112
217079
217087
217105
217130
217149
217164
200022
199957
199982
200021
200025
200042
200081
148561
148452
148450
148610
148751
148871
149019
62219.6
62287.7
62302.4
62507
62700.6
62859.6
62988.3
62332.1
62365.8
62227.2
62311.1
62378.2
62440
62490.7
148504
148492
148773
148903
148948
149081
149134
200015
199997
200039
200033
200097
200203
200275
216870
216805
216767
216750
216767
216801
216840
199790
199729
199757
199782
199792
199798
199777
148268
148181
148262
148370
148437
148543
148576
62029.6
61971.2
61997.8
62133.9
62310.1
62381.7
62534.9
61831.2
62050.8
62039.2
62073.1
62173.2
62299.7
62387.6
148031
148084
148280
148486
148517
148683
148805
199614
199603
199612
199606
199628
199730
199820
216620
216554
216531
216498
216477
216472
216488
199716
199631
199657
199674
199646
199619
199544
148376
148165
148209
148256
148241
148263
148210
62174.7
61913.9
61913.5
61856.1
61939.1
61940.5
62098.7
61590.2
61845.8
61805.1
61832.4
61920.7
62073.2
62210
147799
147749
147740
147908
148102
148279
148492
199306
199249
199193
199243
199336
199423
199493
216335
216321
216330
216338
216322
216289
216280
199652
199592
199621
199627
199537
199484
199429
148574
148332
148235
148199
148058
147989
147982
62550.3
62154.3
61841.6
61637.8
61634.4
61647.3
61752.3
61627.6
61995.8
61653.4
61657.9
61843.9
62002.9
62126.4
147666
147666
147461
147652
147972
148166
148431
199184
199032
199012
199176
199333
199377
199434
216183
216145
216145
216243
216363
216320
216321
199611
199552
199554
199564
199531
199523
199523
148619
148451
148240
148119
147932
147961
148060
62773.2
62306.3
61782.7
61647.6
61594
61589.6
61652.9
62061.3
62526.9
62112.1
61875.9
61867.8
61906.7
61961
148021
148147
148098
147951
147938
148272
148509
199407
199288
199334
199325
199242
199542
199677
216514
216430
216444
216459
216472
216568
216694
199979
199894
199868
199836
199896
199977
200095
148868
148549
148558
148498
148389
148303
148441
62881.8
62495.6
62265.7
62186.6
62002
61916
61937.3
61572.3
61796.7
61573.7
61582.9
61723.3
61697.7
61671.6
147564
147524
147623
147704
147659
147863
148078
199219
199094
199066
198980
198850
199006
199214
216481
216402
216321
216183
216095
216161
216318
199923
199869
199842
199725
199668
199791
200009
148834
148652
148590
148376
148353
148504
148742
62765.5
62595.7
62336.9
62121
62029.2
62028.9
62045.5
61559.6
61590.1
61220.9
61252.5
61334.1
61241.5
61225.1
147444
147231
147088
147183
147173
147164
147282
198907
198752
198630
198536
198444
198446
198521
216050
215988
215902
215728
215580
215545
215651
199541
199536
199466
199290
199067
199057
199456
148534
148529
148389
148195
148176
148424
148909
62511.8
62563.5
62093.3
61909.5
62036.3
62145.1
62187.6
61590
61502.4
60911
60808.9
60858.6
60875.6
60918.7
147195
147009
146810
146778
146609
146527
146613
198564
198517
198436
198326
198136
197939
197980
215624
215601
215594
215453
215221
215035
215129
199233
199142
199039
198792
198472
198381
198769
148392
148226
147891
147641
147419
147607
148165
62592
62328.2
61500.2
61262.1
61463
61618.1
61810.7
61747
61680.2
60941.8
60638.3
60744.4
60775.5
60847.4
147083
147074
147040
146954
146589
146372
146401
198579
198643
198716
198616
198237
197838
197868
215582
215595
215662
215551
215239
214893
214912
199124
199029
198905
198552
198129
197930
198187
148393
148171
147646
146758
146071
146374
146979
63135.9
62366.2
61311
60553.3
60391.6
60767.2
61133.7
61341.3
62711.5
61909.1
60935.6
60905.1
61015
61038.5
146987
147450
147912
147555
146986
146775
146710
198889
199131
199322
199234
198687
198161
198050
215741
215825
215910
215844
215483
215016
214888
199157
199334
199238
198788
198375
198082
198125
148213
148591
148171
146527
145734
146054
146439
62732.7
62857.1
62138.8
60648.3
59920.9
60389.8
60740.8
60266.6
66685.5
65576.9
62289.5
61403.6
61348.1
61107.1
146507
149218
150872
148479
147347
147162
147009
198518
199111
199349
199050
198740
198399
198092
214802
215228
215405
215499
215394
215029
214655
198418
198999
199229
198905
198631
198307
198010
147881
148639
149436
148487
147435
146712
146214
61651.2
62795
63648
63475.8
62128.5
61116.2
60523.9
62490.4
63611.1
62190.1
61950
61999.2
62039.4
62090.8
148099
148283
147817
147989
148209
148303
148546
199278
199185
199177
199410
199713
199428
199605
216243
216120
216280
216399
216475
216411
216424
199633
199547
199617
199593
199584
199624
199785
149046
148992
148540
148405
148223
148179
148524
63181.6
63302.2
62208.3
62149.1
62071.9
61977.4
61968.4
62569
63753.6
62245.4
61962.2
61996.2
62037.8
62082.6
148155
148347
147879
148029
148233
148324
148557
199285
199170
199196
199439
199777
199433
199625
216208
216085
216266
216380
216485
216422
216434
199639
199560
199628
199597
199587
199653
199808
149080
149037
148563
148441
148260
148194
148559
63156.7
63380.6
62220.1
62173.7
62096.6
61999.7
61987.2
62634.6
63891.8
62314.4
61966
61986.1
62038.5
62078.7
148190
148388
147935
148052
148263
148350
148567
199283
199155
199218
199460
199851
199444
199637
216177
216080
216254
216355
216490
216437
216448
199658
199580
199645
199611
199601
199691
199824
149062
149029
148547
148464
148274
148199
148576
63124.6
63454
62222.4
62182.4
62098.3
62009
61991.1
62741.7
64116.4
62413.4
61992.3
61986.8
62043.3
62077.1
148228
148432
147986
148064
148327
148379
148573
199283
199146
199241
199466
199927
199464
199646
216170
216096
216256
216332
216489
216449
216466
199679
199596
199661
199631
199627
199719
199835
149011
148997
148518
148496
148273
148202
148594
63121.4
63589
62254
62218.6
62123.2
62030.8
61997.8
62881.2
64400.4
62535.1
62058.2
62009
62043.7
62074.5
148289
148487
148034
148066
148442
148405
148575
199292
199140
199267
199455
200008
199493
199659
216174
216122
216267
216320
216484
216454
216490
199697
199610
199677
199654
199658
199737
199845
148964
148970
148501
148533
148271
148194
148609
63148.1
63732.5
62334.2
62295.4
62187.7
62073.5
62019.7
62975.9
64494.1
62634.3
62112.7
62053.4
62041.8
62066.2
148323
148551
148063
148061
148605
148416
148574
199306
199141
199293
199439
200099
199526
199678
216197
216152
216284
216324
216478
216457
216517
199714
199628
199697
199674
199686
199753
199859
148954
148946
148516
148561
148282
148177
148612
63185.4
63736.5
62456.2
62368.8
62246.7
62111.2
62056.7
62912.2
64244.6
62608
62089.8
62086.3
62038.5
62053.1
148316
148582
148073
148046
148705
148406
148566
199319
199152
199310
199427
200090
199555
199687
216235
216183
216307
216337
216473
216463
216544
199740
199660
199719
199691
199714
199779
199884
148956
148898
148537
148569
148295
148165
148593
63174.5
63581.3
62520.9
62361.2
62232.3
62098.7
62079.3
68595.6
70582.2
68064.3
64037.9
62332.3
61665.3
61619.8
150875
155493
155790
150679
148047
147244
146837
197731
200061
200211
199092
198603
198295
196994
212708
214946
215325
215420
215190
215199
213109
196215
197959
199068
199404
198867
199012
197396
145835
147869
152249
153523
151734
149140
147409
60341.6
62113.3
66859.5
69722
67610.9
64207.5
62396.1
70576.3
70382.9
67238.7
64226.8
62574.1
61673
61360
152167
157084
156336
151104
148361
147315
146419
197684
200539
200626
199235
198566
198154
196854
212740
214989
215528
215553
215202
215015
213189
195873
197653
199052
199740
199112
199026
197438
144798
147526
152552
154606
153179
150041
147676
59633.1
61848.3
66531.9
70163.9
69047
65069.6
62374.4
70258.9
69590.3
66377.6
64192.3
62733.2
61681.8
61158.6
152252
156866
155931
151114
148828
147561
146131
198005
201001
200916
199415
198658
197979
196828
213314
215275
215894
215887
215394
214861
213523
195923
197582
199151
200203
199629
198901
197484
143930
147125
152393
154929
153962
150600
147877
59090.1
61383.4
65603.1
70137.2
69461.6
65499.8
62219.4
69114.3
68440.9
65855
64096.5
62748
61743.6
61126.4
151560
155854
154757
150908
149118
147757
146131
198479
201280
201107
199634
198878
198020
196865
213894
215676
216259
216220
215666
214968
213825
196060
197670
199400
200613
200083
199110
197610
143564
146647
151852
155065
154091
150711
148025
58954.4
61139.3
64896.5
69650.9
69375.4
65470.9
62068.5
68605.9
67904.2
65641.2
63971
62685.6
61770.3
61094.6
151365
155142
154064
150733
149284
147982
146325
198988
201477
201326
199863
199154
198245
196899
214318
215927
216517
216440
215918
215270
214111
196201
197797
199686
200951
200482
199379
197754
143785
146686
151627
155350
154116
150684
148018
59047.6
61191.8
64917.5
69339.6
69257.4
65301.9
61917
68925.9
68073.8
65699.2
63941.6
62677.7
61813.4
61081.2
151860
155306
154188
150897
149379
148059
146399
199400
201713
201586
200119
199359
198413
196917
214506
215942
216667
216535
216091
215592
214514
196334
197933
200005
201246
200792
199572
197857
144015
146938
151988
155885
154459
150715
147891
59132.6
61433.4
65320.7
69523
69380.8
65323.4
61962.9
69599.5
68574.5
65874.8
63986.2
62721.4
61864.8
61144
152666
155983
154760
151489
149475
148038
146381
199717
201948
201887
200391
199521
198517
197011
214567
215885
216780
216564
216196
215756
214969
196482
198060
200341
201470
201061
199723
197964
144259
147323
152624
156515
155050
150905
147910
59213.8
61721.4
65837.3
69850.5
69591.1
65543.3
62249.1
62528.9
62400.6
62138.9
62606.8
64938.2
70190.2
78692.3
145894
145476
145233
145038
145114
146591
150386
194450
194504
194019
192698
190694
188252
185787
208007
208395
208216
206840
204459
201322
197675
194265
194401
194684
194370
193457
192014
190340
147605
147751
147924
148663
150561
153783
157949
64535
64836.9
64934.2
66225.5
70295.3
77445.4
86588.4
61542.4
61419.7
61405.8
61813.3
63233.6
67119.6
74431
145427
145076
144649
144173
144052
145159
148138
195151
194580
193901
192608
190723
188297
185762
210075
209279
208397
206912
204615
201527
197856
195350
194808
194602
194354
193482
192021
190194
147244
147088
147132
147747
149270
151933
155677
62915.2
63304.7
63729.3
64710
67690.2
73480
82047.9
60990.2
60898.7
60961.3
61212.5
61743.9
63662.6
68370.3
144969
144511
144016
143452
143001
143255
144905
195453
194589
193762
192614
190735
188365
185886
211380
210021
208686
207064
204838
201865
198194
195956
195144
194608
194262
193580
192124
190139
147145
146769
146656
146915
147714
149378
152272
62126.2
62457
63013.8
63653.5
65214.3
68713.6
75714.1
60902.6
60832.3
60982.9
61247.3
61411.5
62055.6
64442.8
144884
144307
143774
143128
142421
141975
142371
195487
194535
193520
192211
190394
188498
186183
211987
210599
209084
207312
205054
202095
198418
196203
195269
194456
193845
193178
191936
190018
147317
146878
146618
146534
146624
147194
149030
61957.5
62278
62857.8
63460.6
64299.1
66066.4
70474.3
61005.6
61039.4
61242.7
61471.5
61536.5
61838
63273.2
145107
144456
143826
143119
142300
141496
141073
195407
194395
193224
191784
189913
187983
185823
212366
211021
209488
207617
205203
201877
197772
196319
195330
194320
193380
192430
191192
189406
147601
147346
146957
146543
146132
146017
146855
61954
62342.1
62887
63445.9
64158.7
65485.3
68343
61063.8
61165.8
61460.9
61704.7
61773.8
62236.8
63755.3
145258
144657
144070
143338
142411
141447
140711
195301
194265
193028
191527
189534
187115
184347
212738
211436
209887
207946
205290
201262
195787
196422
195408
194272
193105
191848
190216
187953
147736
147627
147211
146668
146075
145738
146094
62135.7
62544.1
63088.8
63695.8
64480
65881.7
68200.4
61328.3
61429.6
61742.3
62026.7
62201.7
62784.2
64079.4
145332
144887
144431
143800
142790
141605
140608
195333
194261
192990
191429
189353
186499
182008
213090
211833
210264
208293
205458
200972
192876
196460
195468
194301
193099
191639
189545
185724
147727
147628
147336
146902
146424
146152
146726
62587.9
62917.6
63427.5
64173.9
65022.9
66204.2
66646.3
82589.7
74550.1
68733.4
65884.3
65482.1
66564.6
68292.8
156400
152453
149843
148502
148372
149217
150105
191635
193830
194829
195039
194897
194580
195148
198734
202124
204983
206974
208009
208030
207310
184784
186852
189221
191226
192516
192904
192815
149076
145334
143445
143163
143495
143905
144689
80076.4
71079.5
64635.4
61285.4
60209.1
60195.5
60476.8
79097.7
71754.3
66845
64475
64209.5
65425.2
67662.1
153981
150783
148771
147797
147585
148197
149390
191484
193701
194652
194899
194998
195065
195528
198865
202221
204980
206954
208128
208662
209356
184543
186780
189182
191225
192585
193184
193792
146787
143770
142473
142330
142679
143071
143564
75242.3
67265.1
62291.1
59947.7
59205.3
59166.4
59302.5
74957.4
68614.5
65098.1
63341.5
63148
64279.8
66540.8
151320
149058
147798
147232
147082
147635
149011
191441
193426
194226
194477
194662
195059
195876
198992
202252
204898
206938
208322
209390
210726
184336
186730
189208
191279
192675
193429
194245
143566
141766
141445
141688
142069
142367
142655
68287.8
62691
60045.5
58825.3
58356
58256.1
58348.3
71633.5
67026.6
64450
62974.3
62725.8
63639.6
65661.9
149316
147934
147313
147046
147156
147593
148614
191159
192815
193455
193815
194206
195007
196219
198840
202069
204757
206943
208556
210034
211538
184260
186669
189199
191303
192687
193551
194415
140797
140457
140857
141346
141782
142123
142492
63094.6
60256.1
59061.9
58418.8
58088.8
58030.9
58222.3
70510.5
66996.5
64623.1
63218.9
62982.7
63834.4
65633.9
148129
147587
147295
147108
147284
147639
148587
190381
191818
192557
193201
193969
195096
196510
198068
201597
204618
207000
208874
210519
212016
184425
186675
189096
191160
192595
193585
194529
139393
140062
140830
141419
141908
142269
142704
60966.1
59586.7
58827.6
58386.7
58155.3
58136.1
58336.4
70559.7
67735.7
65346.6
63895.1
63700.1
64626.3
66343.3
147599
147709
147417
147159
147338
147959
149122
189055
190768
191791
192710
193856
195277
196845
196044
200832
204600
207190
209188
210861
212336
183580
186302
188965
191004
192434
193571
194647
138954
139966
140874
141579
142099
142535
142981
61038.8
59884.7
59029.7
58606.6
58391.2
58340.6
58464.9
69149.5
68276.4
66243.8
64931.7
64751.4
65683.8
67087.9
147413
147941
147703
147521
147811
148630
149888
186868
190000
191449
192587
193923
195518
197208
193148
200414
204667
207375
209357
211048
212527
181473
185930
188958
190998
192412
193690
194845
139131
140226
141084
141788
142349
142859
143327
61427.2
60485.6
59710.3
59192.2
58874.2
58693.3
58686.4
102262
104668
104858
103222
100100
95416.6
89804.1
172409
172754
172462
170800
168304
164962
160962
190711
189593
188223
187363
187334
188069
189465
201454
199373
196306
193636
192415
193184
195595
188338
186779
185053
183472
182700
182827
183548
172936
172568
171099
167682
163146
158432
153899
100685
103400
103062
100719
97148.8
92757.7
87669.1
98837.3
99969.7
100644
99297.2
95770.5
91163.7
85909.4
170510
169704
169022
167530
164936
161463
157762
189764
188438
187084
186378
186536
187485
189132
201108
198829
195600
192955
192001
193132
195588
187155
185648
183715
182267
181677
182004
182982
170920
169227
166524
163066
159076
155066
151034
97752.4
98535.1
98657.5
97048.4
93784.7
89393.9
83428.9
96833.5
96282.1
95549.8
93898.6
90317.4
86211.1
81742.2
169701
167555
165579
163515
160617
157239
154168
188340
187051
185724
185114
185520
186895
188913
200176
197731
194521
192007
191291
192678
195523
185630
184079
182230
180943
180634
181297
182544
168237
164914
160787
156978
153382
150017
146717
95314.2
94269.3
93056.7
91327
88427.8
83723.5
76595.2
94277.4
92560.6
90792.4
88747.5
85529.1
82030.6
77792.8
167472
164369
161684
159866
156631
153739
151408
186287
185240
184159
183784
184594
186386
188638
198707
196529
193368
190814
190017
191668
195217
182967
181743
180361
179539
179813
181019
182443
163060
158909
154695
151306
148079
145236
142692
91597.5
89854.3
87633.3
85422.2
82198.3
77346.9
69943.5
90521.2
88728.8
86803.5
84433.8
81506.4
78585.4
74976.7
163181
160274
157892
156205
153024
151041
149495
183423
182670
182064
182237
183423
185426
187900
197124
195014
191605
188741
187948
190271
194333
179912
178927
178061
177988
179135
180777
182490
157182
153660
150397
147443
144228
141613
139983
86861.9
85663.5
83375.6
80702.2
77416.5
72213
65628.4
85793.6
85166.5
83165.6
80784.6
77523.8
75193.1
73548.1
157580
155757
154171
152969
150099
148714
147939
179936
179148
178973
179677
181345
183585
186168
194534
192280
188627
185936
185623
187714
191394
176675
175729
175497
176310
178205
179956
181558
151308
149384
147177
145191
142159
139471
138399
82229.3
82570.8
80388.4
77485.8
73596.4
68131.5
63726
79817.9
80987.9
78733.3
76445.7
73038.3
71214.1
71718.8
151058
150709
149610
149464
147573
145710
145012
175885
174924
175075
176403
178031
178962
180451
191230
188622
184658
181701
180411
180532
183357
173072
172245
172692
174455
175827
175413
175753
145447
144979
142655
142143
140875
139033
137520
76929.6
78639.6
76822.5
74480
70222.5
65249
62587.5
57250.3
57062.1
56857.3
56256.8
56251
55692.1
54710
130194
129929
129536
128754
127429
125781
124591
160349
159744
158893
157704
155460
151966
147880
171131
169170
166097
162481
158185
152980
146784
159607
159164
158435
157104
154403
150669
146230
127529
126863
126470
126594
127333
127770
127186
57834.9
57267.5
57630.1
57480.9
58033.9
59558.2
60461
48115.7
47981
48066.6
47913.2
47986.3
48047.5
47927.7
110330
110370
110326
109974
109845
110149
110722
140509
140396
140322
140309
140272
140173
139919
150130
149646
149007
148440
148007
147664
146956
140431
140221
140058
139874
139550
139321
139078
109852
109984
110534
110435
110019
109979
110070
47261.7
47321.8
47533.9
47901
48399.9
48722.7
48841.6
42412.9
42465.3
42546.5
42575.8
42625.2
42785.8
42907.7
97864.1
98083.5
98482.6
99038.5
99762.5
100535
101016
127684
127800
128221
128896
129743
130647
131087
137160
137186
137423
137918
138631
139390
139531
127422
127442
127777
128429
128977
129372
129530
97743.1
98017.4
98286
98295.1
98041.9
97979.2
97975.9
42144.1
42262.8
42375.7
42387.5
42340.9
42348.8
42272.1
39605.5
39664.8
39706.3
39762.3
39830
39892.9
39908.1
90576.3
90647.9
90782.2
91031.2
91326
91615.6
91812.7
119903
119951
120123
120352
120566
120742
120820
129444
129425
129474
129612
129797
129973
129946
119437
119382
119503
119777
120017
120164
120173
90262.8
90342.8
90491.7
90591.1
90604.6
90576
90561.7
39867.7
39831.2
39826.8
39834.3
39773.3
39646.8
39676.1
39078.7
39056.2
39085.5
39130.8
39144.3
39136.5
39166.4
88116.4
88119.9
88124.7
88101.5
88092.2
88083.9
88058.3
115246
115165
115059
114955
114848
114758
114603
123966
123784
123536
123334
123186
123081
122881
114835
114707
114596
114580
114552
114530
114429
87740.7
87750.9
87746.2
87748
87758.5
87795.2
87815.3
39327.7
39332.2
39349.3
39371.9
39397
39391.4
39363.1
40152.4
40097.5
40138.2
40246.8
40285.6
40277.8
40324.1
88612.4
88612.6
88623.2
88608.9
88604.8
88608.2
88592.5
112541
112453
112407
112364
112300
112289
112149
119655
119432
119177
118977
118877
118893
118624
112086
112009
111923
111907
111886
111896
111810
88130.2
88143.8
88149.9
88154.7
88155.6
88173
88189.7
40224.2
40222.2
40236.3
40250.4
40265.6
40259
40255.2
49077.9
49099.8
49098.1
49069.2
49058.9
49064.8
49049.1
87913.1
87924.3
87985.1
88038.9
88082.6
88114.4
88130.6
108213
108182
108283
108368
108407
108497
108449
114422
114282
114187
114120
114086
114279
114000
107601
107614
107654
107742
107799
107868
107843
87282.7
87308.5
87347.9
87392.1
87428.1
87454.9
87472.1
48849.2
48853.8
48856.7
48856.6
48859
48866.1
48872.6
86973.9
92628.3
97326.2
101170
104190
107234
110012
155517
160414
165579
170809
175621
180259
183465
184093
183239
183316
184644
186969
189225
190437
194463
192100
191661
193005
195307
197581
198931
189008
188130
187596
187760
188672
189804
190703
161895
164979
167494
169528
171617
172950
173426
93395.2
97687.1
100380
101001
101476
102106
100233
83184.8
89700.6
94315
98059.8
101223
103218
104803
152563
156995
161681
166731
171414
175103
177690
183841
182675
182510
183618
185679
187636
188788
194461
191786
191186
192523
194874
197375
199042
188726
187733
187031
186998
187735
188954
189868
159462
162583
165335
167389
168861
170573
171790
89226.6
93568.7
96633.6
98446.7
98669
98647.6
98161.6
76764.4
84461.4
89200.6
92722
95694
96963.5
97310.9
148157
151788
155731
160078
164648
167958
169436
183660
182125
181410
182046
183600
185093
186006
194508
191329
190365
191640
194117
197039
199135
188462
187227
186261
185888
186427
187561
188477
155698
158776
161769
164189
165266
167288
169561
83363.5
87652.2
91095.7
93999.2
94799
95363
96216.4
70460.5
77743.1
83389.9
86906.6
89074
90096
90130.7
144365
147074
150098
153413
157324
160235
161380
183706
182029
180645
180180
180833
181849
182512
194435
190645
189074
190252
193059
196515
198789
188056
186596
185330
184490
184591
185343
186044
151887
154714
157594
160181
161092
162297
165043
77062.1
81571.3
85354.7
88505.1
90244.3
91413.2
92747.9
67343.8
72934.3
78056.1
81484.4
83491.1
84660.8
85348.9
141753
143672
146200
148636
151608
154031
155155
183833
181913
179838
178139
177820
178501
179126
193455
189300
186811
187861
191191
195327
198084
187422
185646
184019
182643
182137
182457
183125
149080
151548
153956
156127
157052
157555
159450
73117.5
77095.5
80513.3
83693.6
85696.1
87125.8
88059.8
66813.4
70713.7
73749.3
76233.9
78318.4
80438.8
82664.4
140427
141925
144182
145717
147415
149420
150749
182092
180206
178155
175836
174692
175036
175510
190095
186174
184173
184740
188015
192670
195782
185661
183674
181895
180015
178902
178844
179470
148016
149844
151650
152718
152783
153022
153306
71968.6
74457.6
77497.5
79878.4
81616.5
82742.9
82800.4
66058.5
68767.2
69132.1
70481.9
72673.3
75082.4
78591.3
139131
141041
142103
142421
142856
144481
145858
175556
174842
174932
173408
171556
171448
171806
181627
178366
178502
180228
183740
188810
192584
179401
178092
178204
176955
175081
174602
175180
147683
148062
148625
148232
147242
147655
146998
71020.6
71787.6
73632.7
75311.4
76899.4
77884.8
77002.9
56271.5
55757.7
55725.6
55655.5
55485
55087.8
54650.2
122407
122914
123508
124056
124469
124979
125319
142133
146800
151132
154122
155964
157321
158194
143077
149754
155598
160564
164766
168511
171116
145725
149585
153728
156556
158169
159120
159659
128591
128365
127728
126860
126700
127085
127296
59230.8
59436.9
58670.9
58338.9
58337.1
58170.1
58301.2
46858.2
46452.1
46216.9
46137.3
46090.3
46015.1
45871.2
106318
106068
106034
106152
106407
106661
106774
135505
135812
136044
136224
136381
136645
136889
143610
144449
144963
145540
146279
147115
147778
137360
137762
138109
138416
138784
139140
139438
110251
110075
109838
109888
110386
110447
110374
48814.9
48670.5
48423.4
48088.7
47896.7
47768.7
47792.9
41564.5
41447.6
41282.1
41142.6
41095
41070.2
41083
97129.8
96715
96117.5
95493.4
94908.9
94506.8
94329.4
127571
127163
126378
125531
124876
124535
124418
137446
137266
136560
135928
135520
135351
135386
128820
128764
128537
128330
128086
127730
127638
98845.8
98900.8
99169.9
99745.3
100144
100160
99927.2
43122.8
43111.2
43203.7
43392.3
43507.8
43475.1
43410.1
39048
39062.1
39041.6
39019.9
38980.1
39001.9
39044.5
90064.1
89905.6
89658.7
89414.3
89190.8
89034
88923.1
119253
119189
119003
118764
118572
118499
118484
129468
129430
129199
128963
128807
128753
128788
120547
120550
120475
120327
120129
119944
119904
91202
91359.3
91532.2
91689.6
91778.7
91749.7
91662.4
40153.7
40211.7
40241.3
40290.5
40344.7
40380
40389.2
38551.3
38510.2
38507.6
38448.5
38448.2
38394.2
38374.3
87457.7
87482.8
87500.1
87527.4
87551.1
87586.9
87616.1
114572
114753
114871
115007
115109
115273
115374
123604
123732
123752
123806
123946
124157
124367
115551
115586
115510
115407
115311
115224
115305
88482.6
88503.6
88509.8
88486
88437.9
88410
88408.5
39629.6
39632.3
39651.1
39656.9
39650.1
39646.4
39647.7
39882.7
39809.8
39806.2
39738.8
39717.3
39612.5
39551
88196.8
88212.4
88232.5
88256.8
88281.4
88304
88326.5
112334
112486
112546
112648
112694
112797
112847
119330
119561
119504
119567
119744
119999
120292
112702
112724
112656
112561
112456
112363
112443
88489.5
88498.9
88515.5
88529.5
88519.8
88500.4
88486.2
40355.2
40348.9
40372.2
40388
40400.6
40412.3
40417.7
49107.2
49131.2
49128.6
49151.8
49156.3
49187.1
49198.5
87676
87644.5
87621.9
87574.6
87531.4
87473.8
87436.9
108076
108089
108037
108002
107935
107890
107852
113888
114185
114026
114129
114253
114387
114640
107976
108007
108026
108014
107944
107824
107837
87571.2
87565
87582.7
87578.9
87554.6
87519.4
87494.9
48822.7
48833.1
48822.5
48815.6
48819.2
48827.2
48831
)
;

boundaryField
{
    fuel
    {
        type            zeroGradient;
    }
    primary_air
    {
        type            zeroGradient;
    }
    Secondary_air_RHS
    {
        type            zeroGradient;
    }
    Secondary_air_LHS
    {
        type            zeroGradient;
    }
    outlet
    {
        type            totalPressure;
        rho             rho;
        psi             none;
        gamma           1;
        p0              uniform 100000;
        value           nonuniform List<scalar> 
98
(
44751
76332.4
100000
100000
100000
76252
44906.4
44911.6
76464.1
100000
100000
100000
76568.7
44860.8
44707.8
76201.3
100000
100000
100000
76420.7
44869.9
44892.4
76383.5
100000
100000
100000
76341.9
44871.6
44688.8
76003.4
100000
100000
100000
76261.2
44881.5
44834.9
76222.5
100000
100000
100000
76109.1
44891
44852.5
76080.3
100000
100000
100000
75979
44920.1
44932
76275.5
100000
100000
100000
75646.2
44879.7
45089.5
76484.9
100000
100000
100000
75732.5
44817.6
45081.6
76552.1
100000
100000
100000
75863.9
44785.9
44901.4
76540.1
100000
100000
100000
75997.1
44823.7
44935
76587.3
100000
100000
100000
76067.6
44859.4
45137.8
76662.8
100000
100000
100000
76039.7
44797.5
44967.7
76703
100000
100000
100000
76099.3
44835.9
)
;
    }
    stove_body
    {
        type            zeroGradient;
    }
    frontAndBack
    {
        type            empty;
    }
}


// ************************************************************************* //
