/*--------------------------------*- C++ -*----------------------------------*\
  =========                 |
  \\      /  F ield         | OpenFOAM: The Open Source CFD Toolbox
   \\    /   O peration     | Website:  https://openfoam.org
    \\  /    A nd           | Version:  6
     \\/     M anipulation  |
\*---------------------------------------------------------------------------*/
FoamFile
{
    version     2.0;
    format      ascii;
    class       surfaceScalarField;
    location    "0.0175";
    object      phi;
}
// * * * * * * * * * * * * * * * * * * * * * * * * * * * * * * * * * * * * * //

dimensions      [1 0 -1 0 0 0 0];

internalField   nonuniform List<scalar> 
10143
(
8.08688e-09
-4.6457e-05
5.133e-05
-2.07464e-07
-4.57028e-05
5.08146e-05
2.69881e-07
-4.66691e-05
5.10976e-05
3.87073e-07
-4.61846e-05
5.09307e-05
2.44443e-08
-4.57225e-05
5.09279e-05
4.94878e-08
-4.6212e-05
5.10944e-05
-4.6146e-05
5.10647e-05
-1.88851e-08
-1.78912e-05
-1.5705e-05
3.82988e-08
-1.75015e-05
-1.50919e-05
-7.98449e-07
-1.77463e-05
-1.49386e-05
-6.35022e-07
-1.77861e-05
-1.54201e-05
-1.10538e-07
-1.76174e-05
-1.55006e-05
-7.741e-07
-1.75412e-05
-1.48872e-05
-1.77909e-05
-1.63792e-05
-1.61031e-08
-4.23536e-06
-4.3054e-06
9.68331e-07
-4.21373e-06
-5.12762e-06
1.5058e-07
-4.23207e-06
-3.38926e-06
-3.90499e-07
-4.34376e-06
-3.65137e-06
-2.78755e-07
-4.2731e-06
-4.28562e-06
-6.44625e-07
-4.12934e-06
-3.78478e-06
-4.21782e-06
-4.94848e-06
-2.43489e-07
4.17957e-06
4.19608e-07
-3.93609e-07
4.21627e-06
2.58692e-07
-1.74516e-07
4.26957e-06
-1.96543e-07
-1.15174e-07
4.23229e-06
-7.93657e-08
-9.45949e-08
4.16768e-06
1.0954e-07
3.51846e-07
4.08047e-06
-1.20312e-07
4.16595e-06
5.52147e-07
3.62508e-08
1.79367e-05
-4.50133e-06
8.65452e-07
1.76383e-05
-5.08143e-06
2.39201e-07
1.76915e-05
-3.5228e-06
-3.47682e-07
1.75318e-05
-3.4654e-06
-3.44898e-07
1.76983e-05
-4.34334e-06
-7.08186e-07
1.77643e-05
-4.08373e-06
1.78045e-05
-5.06772e-06
4.3753e-07
4.65807e-05
-1.62105e-05
9.07457e-08
4.62824e-05
-1.53217e-05
-8.0788e-08
4.65044e-05
-1.55424e-05
1.24359e-07
4.60772e-05
-1.5581e-05
1.03808e-06
4.59079e-05
-1.60085e-05
-1.71361e-07
4.67923e-05
-1.47007e-05
4.64831e-05
-1.60446e-05
2.05035e-07
5.12224e-05
-1.0534e-07
5.14368e-05
1.17208e-07
5.10964e-05
-4.51024e-08
5.10416e-05
-2.80232e-07
5.0943e-05
2.30488e-08
5.13789e-05
5.13618e-05
-1.67333e-07
-1.12469e-05
6.39199e-05
-1.78226e-07
-1.22576e-05
6.43013e-05
3.23994e-07
-1.2672e-05
6.44778e-05
5.52098e-07
-1.21227e-05
6.39988e-05
1.80368e-07
-1.14292e-05
6.38854e-05
1.42764e-07
-1.1863e-05
6.42108e-05
-1.12647e-05
6.36732e-05
-5.63437e-07
8.51152e-06
-2.9466e-05
-4.77387e-07
7.9432e-06
-3.01488e-05
-8.94582e-07
8.1646e-06
-3.01205e-05
-2.46888e-07
8.37713e-06
-3.13287e-05
3.56355e-07
8.56583e-06
-3.08823e-05
-2.54994e-07
8.49256e-06
-2.94896e-05
8.42125e-06
-3.09595e-05
-2.40958e-08
3.92186e-06
-5.289e-06
4.96104e-07
3.70364e-06
-6.90959e-06
2.1997e-08
4.14546e-06
-4.43972e-06
1.13646e-07
4.13037e-06
-5.10578e-06
3.13386e-07
3.9216e-06
-5.53945e-06
-2.99791e-07
4.19836e-06
-4.51341e-06
3.81685e-06
-6.2489e-06
-6.44104e-08
-3.97505e-06
1.37843e-06
-1.12256e-07
-4.2324e-06
1.04907e-06
-2.37721e-07
-4.11554e-06
9.11778e-07
-4.75484e-07
-4.10452e-06
1.14579e-06
-5.58087e-07
-3.93444e-06
8.20503e-07
-1.18841e-08
-4.26168e-06
4.98468e-07
-3.82056e-06
1.16772e-06
-1.2765e-07
-8.40753e-06
-5.54732e-06
2.65033e-07
-8.92241e-06
-6.61818e-06
1.62006e-07
-8.38441e-06
-4.77862e-06
2.46982e-07
-8.6363e-06
-4.72358e-06
4.21735e-07
-8.34736e-06
-5.72066e-06
-1.60029e-07
-8.41705e-06
-4.92953e-06
-8.23606e-06
-6.37041e-06
2.42206e-08
1.15747e-05
-3.0731e-05
-2.49352e-07
1.12327e-05
-2.96821e-05
-2.02484e-07
1.22389e-05
-3.0992e-05
4.9185e-07
1.14838e-05
-3.11347e-05
1.74157e-06
1.17972e-05
-3.21427e-05
4.50718e-07
1.23872e-05
-2.90241e-05
1.1641e-05
-3.00457e-05
1.61094e-07
6.37836e-05
-1.93725e-07
6.41767e-05
1.01268e-07
6.41549e-05
-1.36832e-07
6.38664e-05
-2.44162e-07
6.39577e-05
3.6749e-08
6.46809e-05
6.42103e-05
5.9607e-08
6.10881e-06
5.83521e-05
-8.07049e-08
5.30217e-06
5.97943e-05
3.15502e-07
5.21853e-06
5.95177e-05
6.29166e-07
5.42518e-06
5.88866e-05
2.18668e-07
6.05989e-06
5.8829e-05
-1.91162e-07
6.01796e-06
5.92482e-05
6.15877e-06
5.79426e-05
1.06021e-07
1.24267e-05
-2.7696e-05
1.11169e-07
1.25891e-05
-2.9841e-05
-6.18884e-07
1.27484e-05
-2.91881e-05
-4.86683e-07
1.26313e-05
-3.08495e-05
-1.88283e-07
1.27843e-05
-2.97328e-05
-3.61104e-07
1.31577e-05
-2.84115e-05
1.26116e-05
-2.95906e-05
-2.19086e-07
4.89812e-06
-3.53377e-06
3.32865e-07
4.79067e-06
-5.58954e-06
1.42133e-07
5.21249e-06
-2.76771e-06
2.07756e-07
5.07336e-06
-3.74308e-06
1.16388e-07
5.0864e-06
-3.9638e-06
3.77128e-08
5.59725e-06
-3.00086e-06
4.99013e-06
-4.61803e-06
-1.32616e-07
-5.05172e-06
3.99728e-06
-9.5835e-08
-5.18513e-06
3.39294e-06
-2.99967e-07
-4.83083e-06
3.57239e-06
-5.2092e-07
-4.71655e-06
3.61457e-06
-4.64535e-07
-5.03093e-06
3.32337e-06
9.7326e-09
-5.45228e-06
3.42392e-06
-5.02966e-06
3.70973e-06
-2.50981e-07
-1.25042e-05
-3.84854e-06
1.5981e-07
-1.30227e-05
-5.36667e-06
2.64094e-07
-1.29141e-05
-2.90248e-06
3.08507e-07
-1.23775e-05
-3.26451e-06
2.04429e-07
-1.25464e-05
-4.19487e-06
1.68566e-07
-1.30079e-05
-3.43688e-06
-1.24891e-05
-4.71152e-06
1.0531e-07
-5.83685e-06
-2.93879e-05
2.06056e-07
-5.87449e-06
-2.88544e-05
-2.42584e-07
-5.79681e-06
-2.96547e-05
4.78153e-07
-6.1633e-06
-2.97399e-05
8.25314e-07
-5.73469e-06
-3.13671e-05
4.95196e-08
-5.62597e-06
-2.77186e-05
-5.882e-06
-2.85324e-05
3.9782e-07
5.80978e-05
-1.096e-07
5.93516e-05
4.00992e-08
5.87317e-05
-4.03478e-07
5.86868e-05
-3.73013e-07
5.87444e-05
-3.47372e-07
5.96345e-05
5.85367e-05
2.13682e-07
2.67862e-06
5.64896e-05
1.514e-07
2.02819e-06
5.90925e-05
3.62602e-07
2.14252e-06
5.85392e-05
4.36147e-07
2.23524e-06
5.78917e-05
9.36037e-08
3.01747e-06
5.74148e-05
-2.02173e-07
2.96887e-06
5.7762e-05
2.8858e-06
5.58573e-05
1.0569e-06
1.38976e-05
-3.10943e-05
6.37373e-08
1.43292e-05
-3.30398e-05
-7.61431e-07
1.43244e-05
-3.23702e-05
-9.91732e-07
1.39625e-05
-3.40289e-05
-2.49973e-07
1.38494e-05
-3.26384e-05
-3.55499e-07
1.44412e-05
-3.11594e-05
1.43514e-05
-3.25304e-05
-1.52211e-07
5.25959e-06
-9.04313e-07
1.51875e-07
5.52595e-06
-3.17616e-06
2.28799e-07
5.61912e-06
-3.06479e-07
2.49956e-07
5.42899e-06
-1.40285e-06
-7.73941e-08
5.43193e-06
-1.53263e-06
1.22025e-07
5.80976e-06
-8.41309e-07
5.51643e-06
-1.91591e-06
-1.60025e-07
-5.41697e-06
7.15055e-06
5.44046e-08
-5.42471e-06
6.29415e-06
-3.10835e-07
-4.55322e-06
6.32293e-06
-5.59538e-07
-4.50127e-06
6.04529e-06
-3.94917e-07
-5.4238e-06
6.23848e-06
-6.34622e-08
-5.73908e-06
6.75095e-06
-5.57103e-06
7.01679e-06
-1.88441e-07
-1.41416e-05
-1.14103e-06
1.09697e-07
-1.47074e-05
-2.66759e-06
3.20744e-07
-1.3973e-05
4.05605e-08
3.92475e-07
-1.31493e-05
-9.31854e-07
1.41725e-08
-1.34808e-05
-1.91597e-06
2.80567e-07
-1.45789e-05
-1.09682e-06
-1.4301e-05
-1.89815e-06
3.05715e-07
-2.43283e-06
-3.25406e-05
-1.31659e-07
-2.44467e-06
-3.2133e-05
-3.88689e-07
-2.67684e-06
-3.2059e-05
7.09896e-07
-2.92784e-06
-3.22891e-05
7.46261e-07
-2.43826e-06
-3.38514e-05
-2.92919e-08
-2.45098e-06
-3.05988e-05
-2.41496e-06
-3.1634e-05
3.9218e-07
5.60858e-05
1.15815e-07
5.81467e-05
-2.25336e-08
5.71592e-05
-3.97407e-07
5.70995e-05
-5.94262e-07
5.75897e-05
-5.08165e-07
5.81232e-05
5.6394e-05
2.73466e-07
7.21529e-06
5.62697e-05
4.22136e-07
7.42926e-06
5.91265e-05
5.14474e-07
7.92208e-06
5.82524e-05
5.38155e-07
7.77689e-06
5.79401e-05
2.07784e-07
8.1706e-06
5.74831e-05
-6.85756e-08
7.86791e-06
5.80091e-05
7.42992e-06
5.55553e-05
1.01773e-06
1.35658e-05
-2.84371e-05
-2.82628e-09
1.41369e-05
-2.93536e-05
-4.47878e-07
1.40191e-05
-2.85239e-05
-8.58643e-07
1.3429e-05
-2.97681e-05
-2.38312e-07
1.34605e-05
-2.87138e-05
-2.25756e-07
1.3947e-05
-2.74518e-05
1.39509e-05
-2.91837e-05
2.76478e-08
4.75254e-06
1.94413e-06
-2.88496e-08
5.30635e-06
-2.63581e-07
3.24972e-07
5.12021e-06
2.19684e-06
2.87783e-07
5.06052e-06
1.04373e-06
-1.43808e-07
5.28995e-06
1.03521e-06
1.78167e-07
5.1556e-06
1.62121e-06
5.09878e-06
1.07617e-06
-2.37915e-07
-4.99992e-06
9.35586e-06
1.18739e-07
-5.42708e-06
8.72079e-06
-3.39524e-07
-4.64633e-06
8.63859e-06
-4.82631e-07
-4.86275e-06
8.22944e-06
-2.58535e-07
-5.06469e-06
8.45391e-06
-1.32879e-07
-5.22715e-06
9.01917e-06
-5.14762e-06
9.30944e-06
-7.8887e-08
-1.39167e-05
1.83988e-06
3.04271e-09
-1.43376e-05
6.36386e-08
3.86771e-07
-1.36032e-05
2.57745e-06
3.52306e-07
-1.32643e-05
1.46262e-06
-9.09966e-08
-1.29851e-05
5.66001e-07
2.60393e-07
-1.42746e-05
1.54639e-06
-1.40314e-05
1.23868e-06
2.00155e-07
-6.62667e-06
-3.00283e-05
-4.34703e-07
-6.96547e-06
-2.92123e-05
-2.6873e-07
-7.45773e-06
-2.85683e-05
4.70955e-07
-7.69127e-06
-2.86524e-05
4.83806e-07
-7.36812e-06
-2.98439e-05
1.34585e-07
-7.24848e-06
-2.75549e-05
-6.45805e-06
-2.9113e-05
4.61638e-07
5.58735e-05
-4.31088e-09
5.91449e-05
-1.05018e-07
5.7325e-05
-4.52038e-07
5.74743e-05
-8.08383e-07
5.82736e-05
-6.16739e-07
5.82766e-05
5.61228e-05
1.49685e-07
2.13851e-05
3.94288e-05
8.96628e-07
2.17905e-05
4.09568e-05
7.71924e-07
2.22587e-05
4.01025e-05
7.02366e-07
2.21029e-05
3.96238e-05
2.22788e-07
2.24574e-05
3.92792e-05
2.5461e-07
2.2201e-05
4.00783e-05
2.16179e-05
3.87821e-05
8.18089e-07
1.26893e-05
-1.24266e-05
-3.23737e-08
1.34853e-05
-1.30154e-05
-5.9324e-08
1.32699e-05
-1.24574e-05
-7.09074e-07
1.3124e-05
-1.33075e-05
-5.3597e-07
1.33219e-05
-1.27261e-05
-2.78014e-07
1.34061e-05
-1.17499e-05
1.31056e-05
-1.26959e-05
2.40365e-07
2.66193e-06
6.5746e-06
-2.63197e-07
3.60542e-06
5.0285e-06
3.01382e-07
2.93782e-06
6.83626e-06
2.54588e-07
3.23799e-06
6.01832e-06
-1.59814e-07
3.77129e-06
5.94371e-06
1.94954e-07
3.29726e-06
6.33028e-06
3.22229e-06
5.87426e-06
-3.65626e-07
-3.00029e-06
7.66335e-06
1.59129e-07
-3.9801e-06
7.88492e-06
-3.57391e-07
-3.26081e-06
7.51246e-06
-5.47411e-07
-3.6419e-06
7.44288e-06
-3.35348e-07
-3.7455e-06
7.87281e-06
-2.80262e-07
-3.27925e-06
7.61037e-06
-3.26741e-06
7.76998e-06
1.13989e-07
-1.29637e-05
6.42491e-06
-1.39595e-07
-1.37443e-05
4.74346e-06
3.75582e-07
-1.32902e-05
6.99513e-06
2.17956e-07
-1.32509e-05
6.15071e-06
-7.72072e-08
-1.31405e-05
5.27553e-06
2.08923e-07
-1.34102e-05
6.22837e-06
-1.3031e-05
5.93044e-06
-1.25267e-08
-2.08378e-05
-1.38314e-05
-2.78571e-07
-2.18357e-05
-1.39056e-05
6.96289e-09
-2.19139e-05
-1.29515e-05
3.71397e-07
-2.21699e-05
-1.29828e-05
4.55443e-08
-2.1653e-05
-1.45304e-05
2.25541e-07
-2.19012e-05
-1.17931e-05
-2.07213e-05
-1.28166e-05
4.61714e-07
3.93941e-05
-5.75631e-08
4.27189e-05
-1.28368e-07
3.96087e-05
-5.65413e-07
3.98935e-05
-1.26088e-06
4.13387e-05
-6.86931e-07
4.03523e-05
3.96909e-05
-2.2296e-07
3.233e-05
1.27863e-06
3.20339e-05
9.55804e-07
3.26632e-05
9.51195e-07
3.16545e-05
3.11853e-07
3.19371e-05
7.98322e-07
3.19265e-05
3.22015e-05
5.09485e-07
1.64375e-05
6.89574e-08
1.6421e-05
6.85142e-07
1.68124e-05
-2.5212e-07
1.64838e-05
-6.29785e-07
1.67173e-05
2.30454e-07
1.63256e-05
1.68629e-05
6.82608e-07
5.42864e-06
-5.03395e-07
5.69683e-06
5.20842e-07
5.26018e-06
5.62588e-07
5.45569e-06
1.71839e-07
5.7499e-06
2.27706e-07
5.67697e-06
5.71562e-06
-3.80095e-07
-5.58211e-06
1.23135e-07
-5.73833e-06
-5.10866e-07
-5.41783e-06
-6.93845e-07
-5.7709e-06
-4.52838e-07
-5.39372e-06
-5.89965e-07
-5.68979e-06
-5.79919e-06
3.18527e-07
-1.64025e-05
-5.10131e-07
-1.74488e-05
4.86799e-07
-1.6442e-05
3.95832e-07
-1.6968e-05
3.15391e-07
-1.67791e-05
3.29067e-07
-1.63838e-05
-1.67558e-05
-1.16241e-06
-3.19243e-05
5.11035e-07
-3.59888e-05
4.50689e-08
-3.17489e-05
-3.29103e-07
-3.23857e-05
-7.95865e-08
-3.48004e-05
4.49385e-07
-3.1588e-05
-3.19894e-05
2.53255e-07
-3.182e-07
-2.37031e-07
-6.34177e-07
-1.80787e-06
-5.37146e-07
-0.00328106
0.00332664
-7.64531e-05
0.00138009
0.00363358
-0.00833294
0.00403477
0.00380383
-0.00648279
0.00549061
0.0033751
-0.00486317
0.00593746
0.00292593
-0.00340212
0.00432911
0.00253724
-0.000944277
0.00208119
0.00225292
-0.00346424
0.00438731
0.00257544
0.000728904
0.00442023
-0.00479177
0.00258214
0.00505829
-0.00293709
0.00470929
0.00520643
-0.00379989
0.0075562
0.00530752
-0.00505425
0.00662816
0.00502796
-0.00136192
0.00483454
0.00409687
-0.00288684
0.0032319
0.00420347
-0.00241073
0.00219106
0.00189921
-0.000700411
0.00194455
0.00153542
0.00105818
0.00211232
0.0014658
0.0024047
0.00291347
0.00119312
0.00243981
0.00369223
0.0014512
0.00389798
0.00353271
4.43802e-05
-0.00254531
0.00569001
0.000433872
-0.00273048
0.0044664
8.50879e-05
-0.00222753
0.00442859
-0.000508126
-0.00174669
0.00435193
-0.000442037
-0.00157534
0.00433298
6.00573e-05
-0.0011752
0.00428005
-0.00125918
0.00513084
-0.00293859
-0.00558406
0.00630157
-0.00533686
-0.00415577
0.00410885
-0.00664252
-0.00390244
0.00323562
-0.00628486
-0.00456241
0.00267881
-0.00440416
-0.00579197
0.00253528
-0.00196214
-0.00611489
0.0026862
-0.00643481
0.00340228
-0.0107244
-0.00077174
0.00622177
-0.0152761
-0.00182791
0.00248077
-0.0142307
-0.00295956
-0.00177448
-0.0107648
-0.00340744
-0.00442652
-0.00717178
-0.00390038
-0.00529421
-0.0034395
-0.00371362
-0.0059568
-0.00340846
-0.0063085
-0.00433022
0.00360474
-0.00680216
0.000678343
-0.00482166
-0.00490415
-0.00235089
-0.005864
-0.00113635
-0.00510594
-0.000194372
-0.0046602
-0.00361984
-0.000279518
0.00328293
-0.00313007
0.00201833
0.00218509
-0.0128683
0.00271758
0.00164322
-0.00883959
0.00295344
0.00186501
-0.00698383
0.00293061
0.00171711
-0.00510557
0.00190642
0.00181229
-0.00173181
0.00136968
0.0028109
-0.000817498
0.00245412
0.00435995
0.00104414
0.00192862
-0.00621372
-0.00186237
0.0034191
-0.00164733
-0.0018156
0.00276625
-0.00456701
-4.89114e-05
0.00318389
-0.00809713
0.000561914
0.00407796
-0.00404916
0.00358715
0.00267441
-0.00239647
0.00220001
0.0070013
-0.00429597
0.000817229
0.00501984
-0.00435624
0.000992697
0.00411064
-0.00429306
0.0011692
0.00311182
-0.00277943
0.00193543
0.00105645
-0.000885575
0.00288697
0.00087238
0.00289435
0.00345761
0.000850887
-0.00153614
0.00845572
0.000435958
-0.0015751
0.0071322
0.000179379
-0.00125693
0.00677983
-0.000666891
-0.000607336
0.00679788
-0.000889698
-0.000223453
0.00654304
-0.000412428
7.47217e-05
0.00645355
3.10152e-05
0.00741398
-0.000434496
-0.00402412
0.00943447
-0.00154744
-0.00315803
0.00699885
-0.00278301
-0.00252122
0.00589767
-0.00373186
-0.00241936
0.00558123
-0.00281116
-0.00357373
0.00508185
-0.0015485
-0.00390042
0.00551507
-0.0040487
0.00607235
-0.00542225
-0.000891694
0.00877133
-0.00707033
-0.00166748
0.00285907
-0.00538717
-0.00210321
-0.00373822
-0.0040264
-0.00235902
-0.00573221
-0.0031248
-0.00257767
-0.00709312
-0.00181678
-0.00321519
-0.00782206
-0.00296606
-0.009065
-0.00163516
0.00434795
-0.00172473
-0.000919542
0.000608779
-0.00938642
0.00165242
-0.00933511
0.00189398
-0.00796988
0.00101465
-0.00701796
-0.00560404
0.00144014
0.00271868
-0.00730523
0.000894793
0.00147462
-0.0138199
0.000947837
0.000461795
-0.00934013
0.00104565
0.000500542
-0.00755744
0.000703874
0.00101209
-0.00577568
0.000274075
0.000899939
-0.00221177
0.000824848
0.00227476
0.00104853
0.00110212
0.00507168
0.00049533
0.00077125
-0.00484921
-0.00327663
0.00265274
0.000134852
-0.00416016
0.00158454
-0.00459881
-0.00289494
0.00269365
-0.0108747
-0.00225993
0.0033081
-0.00691455
0.00311456
-0.00166939
-0.00344268
0.00212489
0.00952709
-0.00688416
0.00141037
0.00786291
-0.00788441
0.00175271
0.00604032
-0.0081006
0.00130514
0.00371914
-0.00591855
0.00201502
-0.000324468
-0.00296496
0.00250028
-0.001173
0.00283649
0.000863038
0.000555665
-0.000815597
0.010637
-7.52488e-05
-0.000724619
0.00969179
-0.000195335
-0.000767926
0.00921437
-0.000936431
-0.000561018
0.00920531
-0.00100995
-0.000537104
0.00900193
-0.000854137
-0.000230414
0.00884163
0.000250735
0.00895291
0.000799846
-0.00266003
0.010593
0.00158442
-0.00279177
0.00842041
0.00135618
-0.00200138
0.00747045
0.000303464
-0.00140125
0.0075757
-0.000181358
-0.00190543
0.00700152
-0.000846109
-0.0016095
0.00762652
-0.00174822
0.00731203
-0.0021373
-0.0009271
0.00942135
-0.00015424
-0.00225071
0.000549392
-0.000311736
-0.00112587
-0.00436889
-0.00114501
-0.0010326
-0.00517557
-0.00187001
-0.00141634
-0.00678581
-0.00112496
-0.00173078
-0.00831933
-0.00177419
-0.010017
-0.000995833
0.00443904
0.00175801
-0.00588891
0.00242223
-0.0112985
0.00257314
-0.0106004
0.00225794
-0.00915324
0.00142819
-0.00795582
-0.00596374
0.000221211
0.00162992
-0.00915017
0.000323621
-8.23704e-06
-0.0139173
0.000560731
0.000593857
-0.0101105
0.000625171
-1.28229e-05
-0.00757741
-0.000401344
0.00136519
-0.00612888
-0.000701136
0.000885511
-0.00282514
0.000946477
0.000611713
0.000705998
0.000112102
0.00601817
-0.000962327
0.00012581
-0.00328176
-0.00146917
0.0019868
-0.000593059
-0.00171992
0.00212432
-0.0063084
-0.00162651
0.00303975
-0.0125333
-0.00136252
0.00319897
-0.00936271
0.0031991
-0.00512427
-0.00424402
0.00205513
0.0119232
-0.00767605
0.00196373
0.00952596
-0.00829063
0.00180615
0.00683872
-0.00735992
0.00118942
0.00378155
-0.00545322
0.00141948
-0.000528799
-0.00289188
0.00168195
-0.00212896
0.00242031
-0.00116211
-0.000237258
-0.000162385
0.0128541
-0.00073918
-0.000119209
0.0120259
-0.00034506
-0.000783166
0.0111762
-0.000676155
-0.000727168
0.0112385
-0.00105457
-0.000661678
0.0112965
-0.000919814
-0.000817292
0.0110317
-0.000230253
0.0105174
0.00134109
-0.00167239
0.0108285
0.00289008
-0.00195273
0.00878698
0.00351247
-0.00177105
0.00792386
0.00356643
-0.00121983
0.00810081
0.00279005
-0.000767839
0.00796132
0.000957618
-0.000344138
0.00906609
-0.000952032
0.00908512
0.00021033
-0.000684264
0.00839831
0.00250941
-0.00161359
-0.00189935
0.00127821
-0.000202159
-0.00461794
-0.000235038
-0.000268306
-0.00457884
-0.00159235
-0.000183929
-0.00591543
-0.000904133
-0.000601611
-0.00855065
-0.00169469
-0.010036
-0.000207079
0.00396236
0.0031719
-0.0108852
0.00352486
-0.0119014
0.00322654
-0.0106138
0.00289126
-0.00901079
0.00194789
-0.00764887
-0.00568804
0.00055366
0.000683072
-0.0104167
0.000537732
0.000138558
-0.0140339
0.00119322
0.000213206
-0.0109186
0.000883977
0.000207744
-0.0074308
-0.000306751
0.00111581
-0.00608567
-0.000348738
0.00115805
-0.0039809
0.00151872
-0.00129331
0.000666925
0.000376105
0.00582372
-0.00146392
0.000354881
-0.00127945
-0.00028257
0.00228447
-0.00367144
0.00124274
0.00277789
-0.0101385
0.000309161
0.00306579
-0.0134763
0.000616087
0.00318191
-0.011606
0.00343014
-0.00629096
-0.00419015
0.00219327
0.0143394
-0.00674603
0.00182059
0.0107149
-0.0064127
0.00146532
0.00743453
-0.00518756
0.0010293
0.00437347
-0.00388039
0.000351162
0.0009248
-0.00232975
0.000531772
-0.000979619
0.00125936
-0.0012128
3.35985e-05
-0.000235132
0.0151368
-0.000226424
0.000121439
0.0138101
-0.000185385
-0.000363555
0.0127562
-0.000151245
-0.000398886
0.0123974
-0.000452267
-0.000684541
0.0124187
-0.00057954
-0.00103251
0.0125499
-0.00121303
0.0122376
0.00205519
-0.00186669
0.010496
0.00328763
-0.000983968
0.0087239
0.00405232
-0.00112541
0.00797722
0.00470315
-0.00132669
0.00842831
0.00404007
-0.000936638
0.0089373
0.00239438
-0.00036455
0.0101529
-0.000279891
0.0106778
0.00303632
-0.00137447
0.00499352
0.0034249
-0.000719782
-0.00236865
0.00123374
0.00132566
-0.00476455
-0.000356712
-3.2248e-05
-0.00417471
-0.00128425
0.000126953
-0.00589186
-0.000713596
-0.000696445
-0.00852144
-0.00120427
-0.00965097
0.00160362
0.000919122
0.00304042
-0.0131146
0.00439762
-0.0119736
0.00347623
-0.00975379
0.00302284
-0.00843492
0.0016156
-0.00696015
-0.0052438
0.0016449
-0.00152434
-0.0106375
0.00157206
-0.000672631
-0.0132757
0.00233855
-0.000905359
-0.0107506
0.00102413
0.000887128
-0.0069789
0.00056768
0.000356057
-0.00603828
0.000910798
0.000109217
-0.00450102
0.00150335
-0.00193562
0.00232814
0.000771848
0.0013816
0.000757055
0.000860424
-0.00106026
0.000257336
0.00181742
-0.00572272
0.0014759
0.00226705
-0.0126261
0.00139657
0.00172049
-0.0146879
0.00157367
0.00171631
-0.013288
0.00349896
-0.00661901
-0.00206994
0.00142034
0.0157586
-0.00341733
0.00105195
0.0119535
-0.00313457
0.0011789
0.00792216
-0.0023467
0.000305355
0.00569101
-0.00277313
-0.000433031
0.00355554
-0.00269892
-0.000347843
0.00103557
0.000417701
-0.000741293
-0.000201941
-0.000365
0.0170105
0.000614226
0.000444842
0.0134391
0.000275435
8.61845e-05
0.0140431
-4.31865e-05
-0.000150442
0.012932
-0.000431475
-0.000510186
0.0126197
-0.000188903
-0.000767291
0.0125223
-0.000596464
0.0129096
0.00215404
-0.00189069
0.00989098
0.00332611
-0.000724976
0.00877158
0.00410582
-0.00101973
0.00838622
0.00460173
-0.00105421
0.00885502
0.00363335
-0.000440427
0.00979824
0.00229044
0.000555286
0.0101648
0.00114957
0.011264
0.00493711
-0.00177372
9.03776e-05
0.00364996
0.00118827
-0.00280158
0.000245374
0.00153846
-0.00371504
-0.00207348
0.000378725
-0.00314416
-0.00246527
-0.000242352
-0.00554801
-0.00116541
-0.000513475
-0.00854709
0.000327458
-0.00982021
0.00252553
-0.00339748
0.00410561
-0.0136294
0.0044329
-0.0108215
0.00314502
-0.00811619
0.00156018
-0.00709886
2.77381e-05
-0.0059267
-0.00489034
0.00146936
-0.00158591
-0.0107083
0.00238598
-0.00140973
-0.0128749
0.0031893
-0.00145054
-0.0100917
0.00223566
0.00020543
-0.00616648
0.00160422
-0.000297653
-0.00512114
0.00171191
-0.000670255
-0.00400656
0.000966793
-0.00124874
0.00127587
0.000956439
-0.0022765
0.00322521
0.000708693
-0.00502368
0.00205957
-0.000281814
-0.00568389
0.00251382
0.000152201
-0.0129969
0.0028711
0.000149374
-0.0154641
0.00252884
0.000475394
-0.0140001
0.00311264
-0.00618576
-3.21943e-05
0.00216781
0.0144854
-0.0018034
0.00168344
0.0127397
-0.00318432
0.00129473
0.00779879
-0.00300582
0.000294013
0.00539105
-0.00235194
-1.22054e-05
0.0030148
-0.00342194
-0.000344327
0.0029109
-3.09356e-05
-0.00101165
0.000988696
-0.000615596
0.0187742
-0.000230913
-3.89012e-05
0.0161288
0.000865754
-0.000590272
0.0146651
-0.00107049
-0.0010444
0.0160408
-0.000557362
-0.00108552
0.0128899
-0.000519351
-0.00138099
0.0131853
-0.000724848
0.0128154
0.00196542
-0.00183943
0.00931789
0.00269391
-0.000935241
0.00901236
0.00293174
-0.00080386
0.0084402
0.00331117
-0.000946226
0.00844078
0.00133584
0.000149747
0.0105485
0.000652683
0.00121975
0.00823715
0.000884855
0.0103396
0.00186318
-0.00225745
-0.00117398
0.00271578
0.00233865
-0.00666972
-1.36922e-05
0.00169953
-0.00335183
-0.0026027
0.000977347
-0.00231218
-0.00374237
0.000529857
-0.00461985
-0.00135282
0.000817913
-0.0103157
0.00103214
-0.0111545
0.000144378
-0.00584324
0.00325773
-0.0145749
0.00214774
-0.00808636
0.000966891
-0.00602237
-0.000227937
-0.00541176
-0.000303067
-0.00505345
-0.00419208
-0.000313664
0.0026916
-0.0121343
0.00974296
0.00254559
0.00319948
-0.0178807
0.0118096
0.0017171
0.00246243
-0.0105776
0.00892529
0.00139793
0.0025748
-0.00715527
0.00496332
0.00182469
0.00058999
-0.00442758
0.00340227
0.00191832
-3.56991e-05
-0.00228498
0.00223115
0.00034962
0.00186124
-0.000281817
0.000127392
-0.000274174
0.000220183
0.00281428
0.00108097
-0.000789722
-0.00335714
0.00643036
0.00578519
-0.000167892
-0.00893888
0.00704427
0.00895265
0.00152501
-0.0137974
0.0118107
0.0064738
0.0027932
-0.0175154
0.0177188
0.00417811
0.00225676
-0.0144209
0.0144866
0.00368932
-0.00390783
0.00482444
-0.000408934
-0.000973727
0.0156625
-0.0144197
-0.00122902
-0.0013893
0.0136525
-0.0122085
-0.0025374
-0.000671864
0.00986328
-0.00796446
-0.000784179
-0.000160811
0.00574494
-0.00572861
-0.00179045
-6.97974e-05
0.00383745
0.000118321
0.000418161
0.000160291
0.00293677
-0.00293178
0.000247314
0.00235117
0.00154199
-0.000262044
-0.000217794
0.0168533
-0.0172005
-0.000714728
-0.000513221
0.0160284
-0.0165627
-0.00152074
-0.00045187
0.0143412
-0.0138993
-0.00216923
-0.000726722
0.014519
-0.0135766
-0.00271583
-0.00117871
0.014303
-0.0129081
-0.001754
-0.00217358
0.0139349
-0.0128141
-0.00255064
0.0132627
-0.0124326
0.00150588
-0.00108858
0.00853134
-0.00884627
0.00110099
2.72324e-06
0.00883573
-0.00872303
0.000411879
-0.000239803
0.00893468
-0.00835204
-0.00112136
-0.000384543
0.0101943
-0.00895929
-0.00327699
0.000412407
0.0102014
-0.00959525
-0.00274243
-0.000611915
0.00691284
-0.00893807
-0.000507211
0.00390519
-0.00861147
-0.000397443
-0.00197748
0.00208098
-0.000534222
-0.00282778
-0.00338639
-0.00441117
0.0103501
-0.00327645
-0.000269782
-0.00103865
0.00162689
-0.00265779
-0.0016727
-0.00211564
0.00288815
-9.80792e-05
-0.00125246
-0.00660986
0.00577345
-0.000203521
-0.00127001
-0.0103608
0.011138
-0.000172774
-0.0125897
0.0120183
-0.00233249
-0.00405877
0.00433851
-0.00200823
-0.0183239
0.0145538
-0.000483058
-0.0081151
0.00627647
-6.19054e-05
-0.00656807
0.00443341
-7.13956e-05
-0.00509617
0.00384074
-0.000704584
-0.00465734
0.00395409
-0.00386373
0.00289363
0.00181789
-0.000986266
-0.0129559
0.000953205
0.000711045
-0.0177356
0.0010086
0.000718114
-0.0113856
0.00112771
0.000226003
-0.00753491
0.00199217
-0.00098876
-0.00433295
0.00142087
-0.000635081
-0.00109641
-0.000136363
0.00339198
-0.00194657
-0.000791971
0.00201672
0.000977471
-0.00147336
-0.00396303
0.00742129
0.000708778
-0.0152422
0.0104274
0.00177406
-0.0181681
0.00900354
0.000637899
-0.0176007
0.00597867
0.00166646
-0.0135487
0.00358842
-0.00148512
-0.000393179
-0.000599413
0.016125
-0.00149961
-0.000999868
0.0144204
-0.000668177
-0.000871023
0.0106671
0.00045178
-0.00117828
0.00766194
-0.0021137
-0.00163135
0.00881631
-0.000603522
-0.000732301
0.00394526
0.000404354
0.00501944
-0.000247623
-0.000562591
0.0170416
-0.000542339
-0.000890193
0.0161441
-0.00117843
-0.00143628
0.0153444
-0.00214305
-0.0019356
0.0159925
-0.00380465
-0.00199459
0.0161263
-0.00280909
-0.0034004
0.0154742
-0.00295757
0.0136959
0.00130679
-0.00149571
0.00844739
0.00080102
-0.00044653
0.00910817
-0.00169393
6.53228e-05
0.0101103
-0.00487792
-5.37403e-05
0.0116626
-0.00720203
0.000353203
0.0102931
-0.00461951
-0.000780935
0.00186423
-0.00121342
-0.00239074
0.000619654
-0.00158265
0.00181735
-0.00278721
0.000491815
-0.00187623
-0.00455015
0.000521722
0.000413941
-0.00107415
-0.000740824
-0.00462344
0.00310146
-0.000523921
-0.00981459
0.00342908
5.66376e-05
-0.0115264
0.000538353
-0.0109881
-0.00143642
-0.00417093
-0.0025211
-0.0166985
4.57577e-05
-0.0100813
0.000206019
-0.00749071
-9.88897e-05
-0.00531358
-0.00044691
-0.00433825
-0.00391449
0.00146488
-0.00126811
-0.0131249
0.000321408
0.00113937
-0.0177449
0.000576991
0.000423704
-0.0120531
0.00208628
-0.00116963
-0.00795542
0.00269978
-0.00145682
-0.00355181
0.000836755
0.000212915
0.000522737
-0.000169633
0.00440412
-0.00211023
0.00038713
0.00261832
0.00471047
-0.000447406
-0.00897803
0.00988768
0.00112083
-0.02094
0.0107293
0.000944261
-0.0209025
0.0100194
-0.000676264
-0.0175056
0.00593556
0.0022127
-0.0113197
0.00314185
0.00135287
0.000155391
-0.000677663
0.0172317
-0.000542085
-0.00111051
0.0158977
0.000267586
-0.00100093
0.0120133
-0.000391796
-0.00158526
0.0109739
-0.00183167
-0.00181208
0.011548
0.000365444
-0.000245824
0.00441845
0.00154611
0.00713946
-3.28936e-05
-0.00128353
0.0176501
-0.000648722
-0.00154818
0.0170739
-0.000375379
-0.00226155
0.0161743
-0.00156001
-0.00161802
0.0170294
-0.00401498
-0.000536466
0.0172093
-0.00381036
-0.00140134
0.0162973
-0.00210358
0.0134186
0.00073396
-0.00190586
0.00844919
-0.000458802
-0.0020618
0.0110685
-0.00225875
-0.00155677
0.0114673
-0.00336988
-0.000847351
0.0121872
-0.00322973
-0.000483353
0.0101924
-0.00189799
-0.00141342
0.000590428
-0.00348275
-0.00290106
0.000205993
-0.00167776
0.00158773
-1.07453e-05
-0.000372145
-0.00316866
0.003261
0.000282369
-0.00438925
0.00996642
-0.000460241
-0.0114653
0.0118941
0.000156642
-0.012258
0.0090443
0.000897813
-0.0109018
0.00125311
-0.00666323
-0.000220698
-0.00557135
-0.00162351
-0.0156609
0.00210143
-0.0134322
0.00275217
-0.00853527
0.00252007
-0.00490548
0.00166333
-0.00263896
-0.00108857
0.00103297
-0.000422765
-0.0137499
-0.000334461
0.000860872
-0.0172698
4.0936e-06
-0.000240433
-0.0121425
0.00235538
-0.00241099
-0.0079733
0.00191476
-0.000849805
-0.00233956
0.000269877
0.000203447
0.0019202
8.58652e-07
0.00466434
-0.00158839
-0.000349059
0.00437661
0.00571703
-0.0014083
-0.0138099
0.00944665
-0.00093193
-0.0237894
0.00979061
-0.00107116
-0.0224245
0.0083017
-0.00101269
-0.0157513
0.00361861
0.00154956
-0.00781772
0.00181303
0.00339029
0.001012
-0.000960134
0.0167528
0.00100371
-0.00108534
0.0155773
0.000784031
-0.00105332
0.012346
0.000278318
-0.00155358
0.012019
0.000127576
-0.000966258
0.0117492
0.00042526
0.000298997
0.00555698
0.00185216
0.00768788
0.000272217
-0.00105818
0.0173467
-8.76744e-05
-0.000972817
0.0171527
0.00101014
-0.00167206
0.0154852
0.000623351
-0.000221769
0.0158842
-0.00209961
0.00215083
0.0167265
-0.00370667
0.00196714
0.0161647
-0.000878216
0.0123202
0.000561095
-0.00169633
0.00836351
-0.000303343
-0.00161327
0.0128001
-0.000815583
-0.00184834
0.012378
-0.00054235
-0.000902029
0.0127496
-0.000219595
0.000610588
0.0114334
-8.42327e-05
-0.00138844
0.00380894
-0.00411272
0.000302789
0.00137025
-0.0016622
0.000375098
0.0049964
-0.00194786
-0.00614343
0.0130762
0.0011772
-0.0151104
0.0159388
0.00201639
-0.0169065
0.0144208
0.00231852
-0.0122568
0.0103666
0.00120373
-0.00932656
0.00122172
-0.00151837
0.00162343
-0.0088748
-0.000634526
-0.01533
0.00148942
-0.0145494
0.0035369
-0.00855701
0.00460122
-0.0036696
0.00275036
0.000376329
0.00282324
-0.000101917
-0.000349554
-0.0133072
-0.00312328
0.00142788
-0.0156463
-0.0020918
-0.00178415
-0.0114053
0.000533422
-0.00371326
-0.00693086
-0.000439773
-0.000944288
-0.000503268
-0.000910314
-0.000308461
0.00261386
-0.000431469
0.00410839
0.00042866
-0.00236081
0.00618886
0.00646367
-0.00268697
-0.0155719
0.00930802
-0.00254881
-0.0256894
0.00798049
-0.00213323
-0.0225175
0.0046873
-0.00191478
-0.0114724
0.000823659
-9.62646e-05
-0.0041642
0.000338048
0.00355013
0.000734321
-0.000277458
0.0138282
0.00054411
-0.000148005
0.0131466
0.00095573
0.000216668
0.00909826
0.00187205
-0.000570927
0.00947326
0.00154805
-0.000845064
0.0109338
0.000159209
-0.000287339
0.00715718
0.00145645
0.00675648
0.000424886
-3.14403e-05
0.0162819
0.000210034
0.000216471
0.0166533
0.00127145
-0.000514107
0.0147619
0.00224673
-0.000522784
0.0145137
1.01439e-05
0.00246654
0.0154584
-0.00253494
0.00229117
0.0160067
-0.000251946
0.011294
0.000435148
-0.000612727
0.00841822