/*--------------------------------*- C++ -*----------------------------------*\
  =========                 |
  \\      /  F ield         | OpenFOAM: The Open Source CFD Toolbox
   \\    /   O peration     | Website:  https://openfoam.org
    \\  /    A nd           | Version:  6
     \\/     M anipulation  |
\*---------------------------------------------------------------------------*/
FoamFile
{
    version     2.0;
    format      ascii;
    class       volScalarField;
    location    "0.0175";
    object      T;
}
// * * * * * * * * * * * * * * * * * * * * * * * * * * * * * * * * * * * * * //

dimensions      [0 0 0 1 0 0 0];

internalField   nonuniform List<scalar> 
3773
(
292.596
292.922
293.304
293.053
292.802
293.114
292.572
293.656
294.375
294.908
294.571
294.195
294.631
293.56
305.777
307.154
306.875
306.866
306.916
306.813
305.854
308.639
308.918
309
308.98
308.962
309.031
308.657
305.804
306.057
306.844
306.793
306.942
306.82
305.914
293.702
294.103
294.687
294.284
294.263
294.883
293.683
292.666
292.935
293.207
292.876
292.879
293.338
292.67
290.139
290.76
291.032
290.807
290.584
290.818
290.145
269.927
275.11
275.31
274.322
272.934
273.747
270.291
314.018
313.281
313.492
313.684
313.391
312.819
314.121
326.231
326.627
326.957
327.018
326.987
326.738
326.643
314.375
314.433
313.412
313.427
313.586
313.298
314.466
270.404
271.64
273.917
272.485
273.563
274.498
270.591
290.134
290.625
290.842
290.531
290.631
290.985
290.141
289.357
289.673
289.877
289.668
289.492
289.756
289.394
263.134
268.913
268.722
267.594
265.382
265.997
263.204
312.067
311.142
311.735
312.895
312.178
309.942
311.58
327.873
327.326
327.907
328.55
328.498
327.126
327.716
311.87
310.906
310.834
312.51
312.336
310.698
311.614
263.728
265.972
266.467
264.815
266.57
267.004
263.724
289.457
289.738
289.866
289.581
289.612
289.988
289.495
285.919
285.474
285.366
285.218
285.166
285.698
286.021
256.772
262.67
262.557
261.881
259.114
259.401
256.473
312.403
311.02
310.984
311.921
312.586
310.181
311.596
328.023
327.721
328.032
328.548
328.233
327.398
327.825
312.176
309.793
312.926
314.722
313.144
309.834
311.608
257.3
259.977
260.034
258.938
260.639
260.252
257.167
286.39
286.101
286.014
285.793
285.556
286.205
286.542
268.034
265.955
264.786
264.055
264.068
265.777
268.14
252.831
256.686
256.365
256.758
255.123
255.222
252.321
313.335
311.145
311.072
312.337
311.685
310.198
312.592
328.193
327.723
328.09
328.137
327.809
327.384
328.104
312.974
310.454
312.672
313.478
313.506
310.535
312.679
253.246
255.588
255.744
255.216
256.777
255.5
253.105
269.785
267.846
266.536
265.953
265.132
267.448
270.499
238.674
238.103
236.677
235.876
235.3
236.198
238.462
248.814
251.759
251.405
252.343
251.375
251.291
248.153
314.568
311.371
311.935
311.561
311.017
310.845
313.624
328.748
328.126
328.135
328.226
327.808
328.344
328.702
314.029
311.588
311.633
311.898
311.933
312.096
313.852
248.895
250.213
251.489
251.393
252.373
250.899
248.768
239.745
238.341
236.8
235.581
237.01
237.527
240.238
216.241
215.97
215.609
216.31
215.795
215.748
216.157
242.203
243.188
241.169
243.04
242.985
243.148
242.145
310.299
310.381
308.229
309.372
307.813
309.862
308.229
338.495
340.141
340.002
339.89
340.574
338.409
340.704
310.177
315.169
310.014
307.985
317.672
310.436
308.476
242.484
231.748
243.05
241.912
234.257
243.017
242.363
216.567
215.795
215.975
214.979
215.986
216.134
216.595
352.924
353.604
351.393
351.03
351.523
351.788
350.874
350.931
349.81
348.412
348.504
349.059
349.251
348.653
346.303
346.048
345.651
345.9
346.171
346.391
345.977
334.636
334.822
334.652
334.641
335.559
336.57
337.19
347.141
346.968
346.98
347.452
347.944
348.153
348.524
352.959
353.903
353.196
352.218
351.631
351.484
352.259
353.537
355.552
355.963
355.487
353.818
352.701
352.915
350.813
352.094
350.05
349.964
351.39
351.582
350.25
350.036
347.229
343.725
344.852
348.009
348.465
347.867
345.002
343.568
343.226
343.467
344.242
345.152
344.984
333.665
333.155
333.131
333.543
334.566
335.677
336.747
346.064
345.269
345.123
345.137
345.513
345.477
346.45
351.005
350.678
349.782
348.134
347.257
347.263
349.551
352.824
355.042
356.902
355.36
353.732
351.93
351.233
349.949
349.085
348.255
348.659
351.134
351.083
348.45
348.704
345.805
336.763
340.29
347.468
348.108
346.539
342.894
340.372
338.482
340.118
342.965
343.437
343.707
332.571
331.532
331.996
331.958
333.535
334.798
335.882
343.504
341.026
341.029
340.612
340.988
342.258
343.308
346.495
344.595
344.958
342.853
339.547
342.462
347.831
350.42
352.51
352.38
350.072
349.764
349.833
350.003
351.303
348.411
348.418
348.295
350.645
350.722
348.111
346.392
344.216
334.218
336.924
346.637
347.951
346.577
338.365
334.862
335.309
337.343
340.363
340.649
340.666
331.419
329.676
330.234
330.671
330.282
331.734
332.248
340.656
337.682
337.463
336.9
336.555
338.04
341.336
343.718
341.095
339.955
338.522
337.129
341.586
347.552
349.14
354.288
349.397
347.823
348.151
348.91
349.748
352.463
348.425
349.52
348.468
349.13
350.762
349.337
344.377
342.741
337.149
340.598
345.235
346.674
346.999
334.534
332.213
332.781
334.997
337.576
337.186
336.327
328.864
328.016
328.479
329.157
328.706
329.908
330.36
337.6
334.253
333.164
332.574
332.074
332.588
335.464
342.963
340.856
337.744
335.92
336.703
341.859
346.971
347.705
351.779
347.343
346.747
347.676
348.734
349.735
350.793
348.765
349.329
348.878
348.28
349.326
349.969
341.762
341.874
340.853
343.89
344.627
345.095
346.921
333.732
329.294
329.977
332.546
333.861
332.27
331.947
326.386
324.641
326.272
327.928
327.556
326.261
327.296
336.48
332.307
331.427
330.814
330.773
330.204
332.253
342.598
338.756
337.978
335.387
337.267
343.017
346.64
349.095
349.333
346.595
346.275
347.384
348.964
350.241
347.384
349.002
349.96
348.863
348.096
348.84
349.74
344.593
345.214
340.083
341.335
343.574
344.859
346.978
334.332
328.487
327.321
328.048
327.172
322.687
327.324
324.384
322.546
325.14
327.561
327.06
324.211
321.175
333.422
330.04
329.583
329.271
328.606
327.548
328.272
343.432
339.413
340.868
335.345
337.6
345.822
349.673
352.798
347.781
346.246
346.51
347.602
350.648
351.748
346.123
352.883
354.774
351.682
349.931
350.257
350.954
350.73
346.868
340.995
341.523
343.902
347.484
349.376
331.149
325.383
324.32
326.012
327.193
323.791
343.171
321.202
321.798
324.975
327.4
326.125
321.952
318.86
326.073
324.268
326.946
327.084
324.164
322.939
323.278
341.672
347.374
343.359
343.096
342.949
348.759
352.339
354.36
350.433
350.592
353.366
353.146
352.766
353.655
344.405
351.109
354.15
351.112
349.403
349.803
350.694
340.155
335.034
338.423
340.968
343.32
346.925
348.294
324.63
322.264
323.319
326.245
326.5
333.525
346.443
318.104
320.601
325.096
327.144
324.396
319.959
319.468
323.945
321.221
324.828
323.77
322.42
326.407
335.159
341.522
340.517
333.576
337.514
343.584
345.914
349.275
351.571
351.396
353.419
354.692
353.755
352.248
352.014
345.059
349.813
353.961
350.475
349.274
349.589
350.086
339.159
336.423
338.712
342.232
343.372
346.232
347.966
319.424
319.458
323.394
326.525
326.013
338.127
347.171
316.569
319.826
324.976
326.696
323.05
321.428
323.689
326.747
321.376
323.399
323.675
327.255
344.121
351.637
343.578
341.399
336.362
342.403
343.988
344.888
347.64
351.501
351.929
357.468
355.34
353.915
352.095
351.096
345.28
349.162
352.914
349.562
349.462
349.384
349.88
335.114
336.109
340.204
344.759
343.735
345.364
347.778
317.594
317.486
322.558
325.995
325.865
338.713
347.369
315.937
319.213
324.748
326.511
322.07
322.326
329.658
337.866
320.668
323.307
323.708
327.298
341.786
351.533
345.727
344.053
344.404
345.524
343.943
344.514
347.343
353.779
351.65
354.94
354.397
352.732
352.103
351.023
345.554
349.135
350.759
348.858
349.346
349.467
349.549
323.639
336.447
344.689
346.053
342.756
344.277
347.405
316.601
316.428
321.66
325.923
325.984
336.682
347.356
314.687
317.977
324.811
326.463
322.137
323.837
332.337
341.368
319.468
321.033
322.094
325.654
334.172
351.157
347.868
345.899
348.199
346.828
341.92
343.998
347.942
354.168
351.363
350.636
353.192
352.543
353.22
351.247
345.797
350.446
350.745
350.081
347.482
349.099
349.199
320.427
340.555
348.959
349.462
341.271
342.729
347.185
316.065
314.903
320.034
325.087
325.328
330.048
345.219
314.894
316.677
323.429
325.74
322.596
323.223
335.673
337.178
319.145
320.124
320.551
323.759
329.248
347.883
347.598
349.312
349.275
346.346
338.123
342.657
349.892
354.648
351.359
350.715
353.216
352.932
354.038
351.334
337.854
354.051
351.182
351.935
351.199
350.894
350.94
335.845
347.701
353.884
352.119
341.574
340.922
345.24
323.431
339.586
346.179
343.386
333.339
331.775
338.296
319.311
319.486
324.383
328.757
325.09
324.417
333.658
337.928
336.054
346.488
344.02
335.583
330.098
335.479
346.926
353.697
353.708
349.697
349
346.231
350.155
352.531
355.875
350.581
344.833
353.435
353.755
353.331
346.723
352.274
352.395
350.077
348.6
348.937
349.713
349.963
345.762
336.333
339.947
342.939
344.931
348.202
334.023
328.278
327.042
327.563
325.383
322.693
329.23
324.199
322.72
325.263
327.315
326.987
323.67
321.069
332.894
329.641
329.234
328.996
328.288
327.3
327.977
338.239
346.772
340.696
336.144
338.381
348.153
351.852
353.062
348.933
347.804
349.938
350.528
352.639
353.111
346.612
352.669
352.726
350.533
348.896
349.226
350.62
350.723
346.267
337.084
340.616
343.385
345.695
348.935
333.875
328.146
326.893
327.187
323.565
322.6
335.351
324.1
322.686
325.243
327.259
326.955
323.48
320.924
332.69
329.44
329.012
328.852
328.199
327.064
327.617
339.824
346.971
341.793
337.621
339.628
348.551
352.202
353.821
349.25
348.171
350.478
351.027
352.739
353.274
346.56
353.01
353.059
350.785
348.988
349.349
350.786
350.859
346.447
337.52
340.882
343.599
345.992
349.116
333.773
328.051
326.662
326.79
322.57
322.479
338.834
323.963
322.609
325.204
327.165
326.88
323.382
320.819
332.241
329.093
328.801
328.676
328.041
326.89
327.443
342.322
347.035
342.124
337.998
340.069
348.666
352.347
353.729
349.476
348.399
350.848
351.333
352.807
353.301
346.609
353.627
353.323
350.906
349.028
349.498
350.829
351.144
346.318
337.95
341.11
343.796
346.403
349.213
333.555
327.938
326.456
326.097
322.067
322.484
340.112
323.9
322.567
325.167
327.119
326.812
323.316
320.61
331.914
328.91
328.674
328.543
327.919
326.735
326.988
343.234
346.999
341.869
338.063
340.267
348.607
352.311
353.653
350.02
348.589
351.115
351.444
352.812
353.282
346.89
354.309
353.883
351.269
349.074
349.657
350.661
351.195
346.312
338.766
341.2
344.052
346.747
349.368
333.4
327.597
326.255
325.765
321.718
322.469
339.96
323.803
322.521
325.131
327.103
326.759
323.255
320.469
331.661
328.525
328.393
328.481
327.793
326.619
326.836
342.445
346.992
341.565
338.891
340.322
348.483
352.287
353.623
350.38
348.688
351.637
351.589
352.861
353.274
346.904
354.561
354.496
351.801
349.394
349.937
350.213
351.177
346.424
339.902
341.716
344.403
347.241
349.405
333.038
327.313
326.072
325.188
321.634
322.318
339.987
323.732
322.477
325.114
327.1
326.741
323.16
320.234
331.096
328.231
328.255
328.375
327.581
326.222
326.573
341.367
347.08
341.567
340.945
341.059
348.463
352.159
353.707
350.665
349.509
352.611
352.582
353.241
353.307
346.561
354.547
354.686
351.976
349.648
350.117
350.276
351.189
346.817
340.424
341.968
344.667
347.491
349.477
332.729
326.701
325.849
325.172
328.02
321.833
342.519
323.508
322.378
325.08
327.107
326.737
322.95
320.148
330.455
327.584
327.864
328.296
327.531
326.024
325.907
340.549
347.232
342.305
341.857
341.748
348.873
352.333
354.196
350.683
350.011
352.975
352.888
353.315
353.542
335.023
357.524
341.961
329.34
325.867
323.326
322.016
344.399
351.031
359.491
348.565
346.582
346.317
345.218
334.356
346.501
348.487
346.668
343.662
331.88
335.499
320.314
319.654
324.869
328.763
325.891
324.564
332.245
339.199
347.535
347.702
346.862
346.818
331.249
333.988
347.951
348.739
356.336
350.266
349.912
347.833
344.973
320.926
326.627
351.1
342.778
333.432
326.452
323.305
359.13
348.912
345.905
339.025
335.365
334.059
333.073
349.866
356.821
351.517
349.486
347.607
346.081
344.816
339.011
347.35
348.403
347.933
346.119
336.154
335.476
320.651
319.823
325.218
328.814
326.276
324.535
331.471
340.254
347.397
348.045
348.168
347.76
338.693
334.8
346.298
348.069
354.671
352.304
352.05
349.212
347.502
329.744
336.558
345.66
357.533
346.224
336.611
333.317
361.054
350.399
351.316
348.412
346.088
345.905
348.275
353.63
356.083
353.767
351.607
348.933
347.977
347.011
342.101
347.844
347.853
347.862
346.048
340.321
336.824
321.457
320.359
325.979
328.938
326.684
324.603
329.784
343.982
346.022
346.541
347.672
347.43
343.509
339.477
349.883
350.591
354.864
356.716
354.149
354.186
352.025
339.595
340.212
346.162
356.094
355.981
350.901
348.181
359.441
353.422
356.732
355.969
355.237
355.178
356.458
359.84
358.013
356.687
355.368
353.72
353.07
353.056
341.469
348.891
351.569
351.341
347.653
343.643
341.236
321.579
321.007
326.525
329.205
327.372
324.819
329.035
346.277
346.661
347.533
348.573
347.334
343.527
342.396
353.008
353.423
356.193
358.8
355.696
355.093
354.654
350.269
349.528
350.693
358.014
358.474
356.97
354.456
357.332
355.443
357.063
356.46
356.096
356.033
355.423
361.169
359.075
358.358
356.21
355.209
354.817
354.688
343.48
351.498
355.005
353.149
350.459
346.785
343.228
321.958
322.557
327.629
329.744
328.028
325.338
327.054
347.395
350.031
350.732
349.965
348.478
345.345
342.566
354.76
354.968
356.809
359.113
358.07
355.604
354.425
351.43
350.926
352.377
358.561
360.302
358.589
355.11
357.23
357.734
357.061
355.542
354.975
355.061
354.74
361.077
360.807
359.811
357.468
358.19
357.921
357.368
349.8
355.478
357.155
357.063
354.459
348.332
345.751
324.39
330.279
330.082
331.379
329.199
326.385
326.813
351.681
353.404
352.983
351.767
349.395
346.001
344.435
356.424
356.985
358.663
359.569
358.77
355.857
355.382
350.325
352.13
354.865
358.603
359.883
356.5
355.139
357.329
358.57
357.404
353.945
352.828
351.48
350.475
361.459
362.084
360.561
359.73
357.536
356.59
355.98
358.279
360.463
360.659
359.712
355.882
351.261
344.84
336.449
345.756
340.557
339.327
333.438
330.998
327.909
353.878
355.58
356.32
355.832
353.001
350.253
344.721
354.455
355.369
359.091
360.08
358.67
355.169
354.018
345.873
347.543
354.492
358.29
358.247
352.189
351.329
320.538
320.115
319.126
319.062
321.98
329.022
338.318
342.846
342.424
341.719
340.686
340.475
341.038
345.175
335.639
350.958
359.055
358.52
357.465
356.641
356.438
333.461
336.827
347.659
352.491
355.279
355.202
354.861
334.395
336.598
358.406
359.238
359.562
360.325
360.702
344.398
344.349
344.561
345.285
349.334
351.092
354.278
323.878
324.87
324.672
327.404
332.482
338.383
347.702
333.272
331.445
330.168
329.398
329.785
333.673
338.935
343.856
343.117
342.48
341.591
341.314
342.098
344.2
335.432
339.288
353.305
357.841
356.784
356.074
355.833
333.257
334.524
337.957
344.576
349.294
351.115
351.065
334.515
335.017
337.803
353.08
359.662
360.432
360.76
347.011
346.912
346.866
347.355
349.331
352.446
355.049
333.027
334.151
333.182
334.821
336.134
339.91
344.163
352.056
352.078
350.594
349.094
345.707
345.146
340.622
347.051
346.824
347.121
346.768
346.218
346.225
346.822
335.503
335.732
337.945
345.193
354.828
355.581
354.469
332.409
332.569
333.119
333.929
337.393
340.391
342.802
336.047
335.473
335.626
337.996
351.08
360.332
361.154
351.27
351.187
351.153
351.522
352.078
354.559
356.13
350.615
352.04
351.942
349.027
348.189
345.583
343.242
356.831
357.038
357.043
356.914
356.741
356.281
347.48
353.668
354.309
355.114
355.657
355.596
356.041
356.779
339.285
337.539
336.814
337.292
340.467
345.094
353.7
332.404
332.356
332.339
332.029
332.035
332.085
333.627
340.454
339.187
337.383
337.373
338.52
345.599
357.976
355.025
354.937
355.123
355.178
355.137
355.317
356.9
355.839
357.227
358.088
358.979
359.651
355.602
343.176
355.877
356.026
356.339
357.044
357.261
356.937
355.4
356.09
356.955
358.323
359.113
359.986
360.211
360.248
342.961
342.27
341.553
340.043
339.435
339.708
341.979
331.286
331.596
331.78
331.652
331.256
330.968
330.221
342.558
342.349
341.835
340.264
339.135
339.59
343.114
355.77
356.235
356.494
356.995
357.662
358.02
357.576
355.933
357.262
358.098
359.376
359.993
362.005
350.319
355.401
355.655
356.114
356.602
356.439
356.666
356.933
358.236
358.903
359.626
360.008
360.259
359.995
359.717
342.051
341.816
341.478
341.332
341.039
340.003
340.127
327.748
328.634
328.689
328.688
328.324
327.677
326.993
342.465
342.21
342.044
341.695
340.916
339.52
339.75
355.756
355.643
355.649
355.757
356.022
356.213
356.566
356.358
357.696
358.589
359.937
361.102
362.123
352.77
351.044
351.279
351.813
352.513
352.802
354.497
356.589
355.934
355.867
355.899
355.919
355.439
354.923
354.112
343.069
340.854
340.517
339.307
338.583
338.024
335.477
327.845
327.786
327.443
326.858
325.505
323.936
319.911
342.724
340.808
340.132
339.834
339.225
338.619
336.235
353.767
353.54
353.474
353.166
352.994
353.083
354.208
352.708
354.488
355.965
357.137
359.939
360.344
352.748
339.161
334.081
327.322
323.732
323.763
324.756
328.045
348.955
346.833
344.906
343.279
342.642
342.553
343.119
359.358
355.644
345.075
343.067
339.462
336.404
335.066
348.789
348.627
347.826
347.986
345.823
338.912
324.745
356.478
356.398
356.453
356.765
356.683
353.526
341.447
346.486
344.325
341.37
341.147
341.996
342.955
343.472
342.48
332.857
325.117
319.114
317.519
318.363
319.654
343.37
340.873
335.015
334.056
333.733
337.384
340.054
347.966
346.039
344.369
343.412
343.374
343.959
344.952
358.356
353.964
346.906
346.873
344.444
340.853
339.222
348.206
347.553
346.869
346.37
341.962
333.305
324.513
355.104
355.223
355.397
355.807
355.782
351.618
342.165
347.668
345.649
343.795
343.245
343.272
344.086
344.262
341.549
336.459
330.617
329.217
328.105
328.597
328.713
347.994
349.016
348.505
349.724
350.701
353.319
353.568
350.801
349.637
349.32
349.409
349.791
350.913
351.122
357.309
350.705
347.365
346.576
344.481
343.692
342.561
347.049
345.164
344.379
342.078
336.755
329.736
324.089
355.31
355.429
355.758
355.928
355.812
351.415
345.302
352.438
351.05
350.145
350.009
350.107
349.85
349.745
339.51
340.108
340.92
341.177
340.663
340.99
340.21
350.409
355.777
358.561
359.142
358.605
359.058
358.115
358.474
357.35
357.473
357.743
358.067
358.377
358.491
356.492
349.556
347.701
345.761
344.165
343.297
342.06
341.645
339.365
337.914
334.366
329.994
326.342
323.595
355.414
355.817
356.002
355.654
354.16
349.95
347.015
354.07
353.398
353.732
353.682
353.92
353.852
353.735
340.489
349.945
350.837
350.393
349.598
349.61
350.047
357.674
361.629
359.604
359.73
359.468
359.727
359.805
361.322
360.884
360.296
360.076
360.514
360.29
360.38
352.765
351.598
351.773
350.968
349.185
347.273
345.142
333.432
332.034
330.209
329.288
327.488
325.246
324.379
353.636
353.559
353.391
352.951
351.543
348.949
348.212
353.546
353.017
353.945
355.774
355.972
355.873
355.67
347.388
351.322
351.002
351.22
351.753
351.859
351.409
359.328
361.473
357.888
356.391
356.219
357.025
357.126
359.786
359.82
359.52
359.478
359.371
359.781
360.584
352.895
352.282
352.929
352.138
351.795
351.647
351.803
327.559
327.248
326.584
325.761
325.072
324.932
324.621
348.313
347.779
347.783
347.555
347.423
347.634
348.162
352.375
352.923
354.171
354.719
355.211
355.466
355.685
351.434
351.547
350.412
350.314
350.218
349.818
349.825
359.027
359.608
356.982
354.485
353.715
354.571
355.543
357.081
358.006
358.027
357.801
357.878
358.295
359.006
350.75
352.935
353.255
353.139
352.916
353.145
354.669
325.616
327.706
328.552
328.799
330.208
330.753
333.854
341.923
345.33
346.376
347.259
349.587
351.074
351.913
350.433
352.03
352.501
352.775
352.843
352.89
353.096
351.635
350.54
347.737
346.807
345.624
345.14
345.277
365.911
366.318
365.737
363.399
356.031
352.509
346.764
364.313
361.088
360.94
360.485
357.184
355.069
352.299
359.726
358.535
358.596
359.423
359.709
359.971
359.924
351.673
350.947
349.101
348.04
347.53
347.507
348.519
360.23
357.462
357.106
356.865
356.551
356.407
356.548
365.582
358.471
358.612
356.922
355.545
352.492
350.683
364.618
361.713
363.232
360.969
358.704
354.752
348.752
365.57
362.734
363.173
358.217
353.248
350.674
346.548
365.148
355.759
354.903
353.973
351.796
350.867
349.061
359.596
357.44
357.158
356.748
356.775
357.39
358
351.427
350.661
348.844
347.719
347.252
347.4
348.016
356.698
355.553
354.989
354.327
354.299
354.357
354.695
356.408
353.645
351.896
352.459
352.276
351.136
350.161
361.189
359.285
359.886
358.54
357.019
351.869
348.033
356.673
355.796
354.767
351.112
351.227
350.265
347.341
352.189
351.773
351.845
350.639
350.645
350.677
350.824
356.153
354.661
354.227
355.073
355.407
356.628
357.414
351.333
351.123
349.249
348.046
347.518
347.466
347.628
354.175
353.74
352.8
353.382
353.95
354.474
354.902
348.886
346.551
348.615
352.129
354.95
354.721
354.163
356.486
356.334
355.789
354.141
352.834
346.222
339.41
355.408
352.168
351.214
347.439
350.307
347.669
346.515
347.752
350.156
351.439
350.398
352.852
354.262
357.326
354.854
354.037
353.398
353.209
354.36
355.773
357.492
350.899
350.875
348.589
346.577
345.129
344.378
344.064
352.732
352.433
352.465
353.384
354.4
354.934
355.349
346.114
343.667
351.457
358.825
358.717
357.489
357.003
356.213
350.95
352.971
346.63
347.37
341.722
338.175
352.792
345.692
347.692
337.777
346.518
345.965
345.802
345.274
351.217
351.507
347.097
354.326
359.451
361.277
351.472
351.803
351.913
352.834
355.215
356.473
356.369
349.943
348.734
344.797
342.764
339.944
338.266
336.995
350.579
349.478
351.686
353.484
355.206
355.337
354.594
341.866
340.903
358.64
360.551
358.163
357.397
355.272
352.412
343.614
348.292
340.957
343.997
336.585
335.59
346.875
337.763
341.415
331.445
340.642
342.235
341.788
341.202
351.247
349.128
345.415
360.813
360.827
360.824
349.108
350.516
349.602
349.975
353.05
353.455
352.088
348.106
347.558
343.05
339.256
334.235
329.885
328.229
348.287
348.189
351.01
351.567
352.376
351.683
348.403
338.591
339.099
361.178
359.325
355.867
353.306
352.546
342.813
336.801
340.934
336.974
338.94
334.212
337.222
340.955
331.265
336.913
327.967
336.621
333.201
336.05
338.073
348.314
346.433
343.792
362.195
359.133
358.651
347.957
347.105
347.429
348.073
349.39
347.636
347.927
346.457
341.083
332.494
328.465
324.415
322.919
322.668
347.38
345.481
348.078
347.364
345.255
340.762
340.506
335.818
336.193
361.594
358.558
355.09
352.543
351.217
338.891
330.206
338.719
333.017
334.878
330.406
335.557
332.866
317.342
328.901
323.865
319.17
325.972
331.698
326.952
329.913
333.461
331.92
338.432
340.441
332.383
337.695
337.433
334.721
337.742
338.637
337.998
331.635
326.987
327.246
329.085
328.117
327.179
325.721
321.069
338.695
338.23
339.604
340.435
337.979
339.642
329.009
324.552
331.869
341.966
339.434
338.662
326.694
339.321
334.54
326.071
332.519
321.004
330.781
322.568
328.509
305.789
303.937
298.14
300.897
297.891
298.678
303.324
318.25
315.97
318.069
319.025
319.803
330.99
335.169
334.151
333.052
331.015
331.342
330.684
330.558
328.209
321.747
322.468
322.528
324.329
324.671
324.163
322.001
331.466
330.734
327.939
328.356
329.008
331.128
329.447
315.357
321.669
329.598
331.79
326.43
316.656
320.767
297.962
297.264
298.753
303.144
305.199
308.402
307.295
290.683
289.961
289.517
291.006
289.569
289.781
289.93
309.099
311.053
311.565
312.721
313.534
314.914
315.165
324.383
323.788
324.465
325.855
328.544
326.719
323.681
312.131
313.533
314.542
317.677
319.451
320.554
318.997
329.008
328.589
326.549
326.78
323.669
326.371
325.393
311.905
311.55
311.749
312.672
312.12
310.354
313.027
291.157
291.501
291.004
290.839
291.998
292.347
291.988
281.002
280.3
280.394
282.678
282.32
280.458
281.821
305.718
304.186
307.778
306.101
306.263
306.366
306.331
317.534
317.571
317.266
318.965
320.22
321.111
315.63
309.785
311.17
311.778
314.211
315.219
316.278
314.572
322.648
324.188
323.501
324.898
320.084
323.994
321.093
305.265
305.282
305.332
305.212
305.194
305.009
305.136
282.212
283.217
283.191
283.314
281.927
281.644
281.74
279.417
278.704
278.795
279.3
279.263
278.921
279.505
303.502
301.344
303.298
303.832
303.79
303.412
303.746
314.653
316.194
314.171
315.769
316.704
318.896
313.58
305.077
306.521
306.615
308.392
309.261
310.176
308.307
320.096
320.292
319.461
320.057
316.217
319.306
315.634
303.409
303.34
303.298
303.388
303.397
303.324
303.34
280.211
280.139
280.061
280.174
280.228
280.076
280.068
280.068
279.318
279.345
280.094
280.112
279.508
280.137
303.091
302.215
303.033
303.255
303.181
303.031
303.151
314.407
317.067
313.761
315.163
316.999
318.867
314.474
303.071
304.548
304.589
306.239
307.242
308.136
306.414
320.186
320.353
319.407
319.491
316.761
319.194
315.584
303.126
303.065
302.985
303.026
303.031
302.957
303.02
280.496
280.548
280.537
280.587
280.603
280.596
280.618
292.011
292.489
292.481
292.006
292.002
292.357
291.998
305.234
305.269
305.381
305.316
305.306
305.367
305.324
307.959
310.151
306.067
307.397
310.106
311.582
308.213
287.738
289.349
289.386
291.219
292.74
293.109
291.998
314.474
314.269
313.092
311.877
311.01
312.12
309.369
305.196
305.162
305.139
305.195
305.232
305.17
305.222
292.12
291.999
292.096
292.01
292.013
292.023
292.034
345.875
350.758
355.849
358.823
364.51
367.243
367.815
347.2
349.657
352.973
354.248
357.882
359.129
359.405
356.426
356.167
356.393
357.293
358.036
358.417
358.578
353.964
353.204
353.359
354.011
355.194
356.831
357.35
360.941
360.873
360.64
360.602
360.552
360.705
362.019
357.772
359.108
360.266
360.751
361.048
360.318
363.74
351.84
357.347
360.869
362.595
363.941
361.842
363.06
343.922
350.492
356.35
358.307
360.406
363.52
363.704
346.773
348.009
349.705
350.337
352.098
354.447
352.745
355.428
354.762
354.69
355.497
355.841
356.484
356.113
350.33
349.871
350.105
351.118
352.663
354.912
356.822
360.579
360.252
359.521
359.237
359.224
359.299
359.285
356.381
358.195
358.59
358.476
358.046
355.967
355.676
346.779
355.531
355.305
361.886
363.234
358.418
359.017
342.392
342.69
351.438
353.697
354.924
359.199
356.579
348.229
348.294
348.612
346.416
345.207
346.087
346.283
353.894
353.482
352.974
352.833
352.661
353.13
353.472
343.528
343.906
344.726
346.484
349.223
352.138
354.891
360.803
360.554
359.694
358.704
357.809
356.438
355.972
356.983
358.685
359.303
358.946
357.81
354.107
350.787
339.983
349.894
351.328
353.715
359.757
353.716
356.363
341.221
339.259
346.627
348.448
348.171
354.164
350.835
358.065
356.112
353.453
346.181
342.238
341.259
341.412
354.495
352.941
351.139
350.216
350.493
350.578
350.537
336.376
337.103
338.919
340.893
345.237
350.242
354.152
360.3
360.425
359.271
357.047
356.072
354.869
353.369
357.098
358.539
360.439
360.332
359.935
356.157
347.246
330.341
341.025
346.588
345.399
355.84
347.802
353.208
341.083
333.865
341.222
344.944
339.057
342.993
341.43
360.971
361.598
360.299
349.647
338.435
336.022
338.415
347.646
352.423
353.161
349.928
347.261
346.631
349.25
330.883
331.383
332.463
334.644
336.959
342.117
350.708
350.842
357.667
359.221
356.99
355.434
353.208
351.339
357.331
357.776
359.896
357.409
360.564
357.69
341.467
323.053
331.855
338.958
336.998
350.119
340.864
345.634
344.851
334.647
338.174
336.8
335.47
336.187
335.225
359.098
361.847
363.034
353.218
337.375
334.285
335.077
340.644
343.825
349.034
347.727
345.692
344.966
346.55
326.58
327.289
329.662
333.182
335.695
340.304
347.024
340.357
344.815
353.297
354.093
353.747
351.465
347.867
356.554
356.559
359.232
355.991
358.728
359.366
338.838
323.518
328.98
332.383
334.845
343.904
338.843
342.608
345.379
335.019
332.516
331.53
330.809
332.149
332.282
356.496
359.303
361.537
352.516
333.84
330.032
330.949
333.446
334.072
339.665
343.871
342.263
340.822
344.883
316.558
317.003
318.976
323.824
327.651
331.659
342.913
334.844
335.365
341.344
348.241
349.198
347.397
346.105
354.541
354.952
358.198
348.842
355.389
356.982
335.386
325.268
328.583
329.774
329.606
342.121
337.044
337.195
333.141
324.909
326.574
324.916
327.448
326.906
319.386
338.758
339.702
335.399
331.203
329.184
326.872
320.243
326.706
331.368
333.354
335.272
335.651
332.587
330.679
314.273
318.732
321.174
324.702
325.62
322.679
320.884
328.023
331.687
332.367
335.237
339.093
340.823
334.189
331.667
328.058
329.797
337.423
333.724
353.72
329.36
325.002
327.152
325.68
323.286
339.952
334.378
332.938
302.369
300.419
295.439
293.656
295.491
299.509
305.045
334.347
324.102
321.447
316.897
315.272
313.034
313.534
324.736
327.233
327.872
327.556
328.124
327.678
327.892
315.583
317.037
317.522
317.942
317.212
315.91
314.787
329.534
330.457
328.329
325.543
324.424
329.406
331.367
319.748
317.077
316.308
334.284
336.419
334.78
320.131
307.85
305.366
306.962
307.494
310.46
298.435
304.079
289.1
287.876
288.31
287.45
288.709
287.925
288.573
312.684
312.192
312.956
311.38
311.412
308.551
307.74
319.907
321.389
321.451
323.758
324.969
322.406
322.197
312.787
314.164
313.376
311.713
309.833
306.889
304.928
327.927
327.958
324.512
322.141
323.043
325.28
326.085
310.277
309.219
311.792
312.436
311.432
311.321
310.466
293.407
291.915
291.908
291.385
291.056
291.428
291.234
279.708
279.282
280.771
279.3
281.248
279.417
279.512
305.683
304.39
306.06
304.151
305.535
304.891
305.649
316.873
316.72
317.744
318.613
320.962
318.641
318.21
309.856
310.643
310.222
308.997
307.322
304.152
302.162
324.584
322.261
321.243
320.125
321.022
322.676
323.214
306.953
305.633
306.187
306.445
305.555
305.27
305.038
282.666
282.734
282.665
284.002
284.316
284.374
284.55
278.239
277.898
278.156
277.865
278.342
277.877
277.797
303.919
301.899
304.158
302.102
304.068
302.037
301.883
315.148
315.639
315.7
317.482
317.943
317.796
317.306
305.28
305.622
305.764
304.428
303.415
300.601
298.399
320.96
320.22
317.087
315.513
317.787
319.092
319.98
304.048
302.606
303.849
304.106
303.73
303.395
303.364
280.645
280.281
280.549
280.617
280.595
280.651
280.821
279.498
278.756
279.413
278.727
279.42
278.6
278.384
303.469
302.42
303.635
302.59
303.625
302.546
302.5
315.139
316.444
315.549
317.943
317.833
318.463
318.043
303.659
303.624
303.794
302.68
301.643
298.806
296.605
320.734
320.758
316.949
315.092
317.273
318.61
319.671
303.532
302.595
303.299
303.454
303.18