/*--------------------------------*- C++ -*----------------------------------*\
  =========                 |
  \\      /  F ield         | OpenFOAM: The Open Source CFD Toolbox
   \\    /   O peration     | Website:  https://openfoam.org
    \\  /    A nd           | Version:  6
     \\/     M anipulation  |
\*---------------------------------------------------------------------------*/
FoamFile
{
    version     2.0;
    format      ascii;
    class       volVectorField;
    location    "0.0175";
    object      U;
}
// * * * * * * * * * * * * * * * * * * * * * * * * * * * * * * * * * * * * * //

dimensions      [0 1 -1 0 0 0 0];

internalField   nonuniform List<vector> 
3773
(
(43.252 0.00106034 0.618102)
(43.083 -0.0137069 0.621884)
(43.2564 -0.000772217 0.626766)
(43.1616 0.022887 0.621446)
(43.0718 0.0111728 0.619704)
(43.1772 0.00729654 0.629486)
(43.1926 0.00500328 0.623366)
(11.7043 0.0359092 -0.107587)
(11.6706 -0.0351423 -0.098667)
(11.7394 -0.0278637 -0.0909688)
(11.7015 -0.00848322 -0.0925311)
(11.6657 0.00151498 -0.0905342)
(11.7114 0.0149586 -0.078875)
(11.6761 -0.038001 -0.0861847)
(4.6946 0.0249625 0.046063)
(4.68623 0.00102583 0.0444674)
(4.69848 -0.0109328 0.0544908)
(4.69821 0.00574225 0.0536623)
(4.69407 0.00611796 0.0529)
(4.6941 -0.00365593 0.058214)
(4.68883 -0.0160726 0.05189)
(-1.14761e-05 0.0040221 0.0574065)
(-1.45722e-05 0.00187022 0.0585682)
(-1.88187e-05 0.00608612 0.0554378)
(-2.37706e-05 -0.00574991 0.0544959)
(-1.84816e-05 -0.0108282 0.0537928)
(-1.30075e-05 -0.00565127 0.0497267)
(-9.80294e-06 -0.00751703 0.052807)
(-4.69426 0.0217255 0.0485694)
(-4.67747 0.000800493 0.0466518)
(-4.69809 -0.0086646 0.0521106)
(-4.70079 0.00621168 0.0528536)
(-4.69428 0.00383604 0.050874)
(-4.69185 -0.0073533 0.0542138)
(-4.68877 -0.0160573 0.0476024)
(-11.6888 0.0398654 -0.114217)
(-11.6748 -0.0306728 -0.104035)
(-11.7075 -0.0170993 -0.0953774)
(-11.6776 0.00985034 -0.0955878)
(-11.6548 0.0258352 -0.0942573)
(-11.73 0.0397968 -0.080066)
(-11.6854 -0.0290029 -0.0864588)
(-43.208 0.00872867 0.614212)
(-43.0961 -0.00586507 0.619016)
(-43.1786 -0.00257856 0.622682)
(-43.1 0.00533203 0.620311)
(-43.0447 -0.0102232 0.6186)
(-43.224 0.000274768 0.634479)
(-43.208 0.00407479 0.629583)
(41.3369 -0.00547983 1.02729)
(41.0716 -0.0186878 1.00802)
(41.1749 -1.8939e-05 1.02059)
(41.1464 0.0314345 1.01556)
(41.1304 0.0192075 1.01822)
(41.169 0.0146441 1.02121)
(41.2866 0.0118264 1.02345)
(8.94196 0.0149369 -0.278746)
(9.05431 -0.0506983 -0.270064)
(9.06437 -0.0370022 -0.265154)
(9.03061 -0.00203709 -0.271754)
(8.98428 0.0185306 -0.275987)
(9.01291 0.0353156 -0.259504)
(8.95335 -0.0160372 -0.263598)
(3.84907 0.0382822 -0.0656783)
(3.83737 -0.00827956 -0.0662009)
(3.85199 -0.0248356 -0.0446151)
(3.84808 0.00865371 -0.0472249)
(3.83917 0.0226607 -0.0507134)
(3.84843 0.0133723 -0.036965)
(3.84743 -0.0231131 -0.0500742)
(-1.09392e-05 0.0100182 0.00475799)
(-1.30454e-05 0.00766945 0.00447903)
(-1.28901e-05 0.00969736 0.00229153)
(-1.70868e-05 -0.00892069 0.00265246)
(-1.71201e-05 -0.0198717 0.000334647)
(-1.22304e-05 -0.0139166 -0.0053476)
(-1.0278e-05 -0.0133369 -0.00199184)
(-3.85284 0.0339105 -0.0679598)
(-3.83096 -0.0138913 -0.0692468)
(-3.84405 -0.023079 -0.0520998)
(-3.84559 0.0115702 -0.0514037)
(-3.83927 0.0226983 -0.0543399)
(-3.84511 0.0126921 -0.0427286)
(-3.85123 -0.0210352 -0.0557861)
(-8.95603 0.0260959 -0.288635)
(-8.93891 -0.0448302 -0.271185)
(-9.0187 -0.0291324 -0.278166)
(-8.96919 0.010741 -0.279921)
(-9.00347 0.0395374 -0.27912)
(-9.03639 0.0598044 -0.2536)
(-8.96181 -0.00992269 -0.25751)
(-41.271 0.00533641 1.01888)
(-41.1712 -0.00968746 1.02977)
(-41.1409 -0.00660553 1.01644)
(-41.163 0.00409954 1.01426)
(-41.0899 -0.0121556 1.01537)
(-41.1635 0.00139434 1.02494)
(-41.266 0.00911228 1.02639)
(40.6187 -0.0304957 1.62628)
(40.2799 -0.00409508 1.6178)
(40.3516 0.0123576 1.61793)
(40.3255 0.0308934 1.60705)
(40.34 0.012559 1.6033)
(40.3788 0.00137396 1.61477)
(40.56 0.0338359 1.61044)
(8.7774 -0.00152252 -0.135889)
(8.89339 -0.0277121 -0.166663)
(8.88597 -0.0260266 -0.167151)
(8.85232 -0.00753204 -0.175231)
(8.78815 0.0136042 -0.160099)
(8.80925 0.0231348 -0.150375)
(8.77924 0.00190772 -0.15689)
(3.78719 0.0339995 -0.0191675)
(3.75556 -0.00979762 -0.0334639)
(3.7654 -0.0238604 -0.0165405)
(3.77824 0.00628985 -0.0228395)
(3.76929 0.0248222 -0.026208)
(3.74382 0.0178039 -0.0196202)
(3.78176 -0.0234032 -0.0323908)
(-1.29376e-05 0.0113004 0.0208241)
(-1.34253e-05 0.00615991 0.0172696)
(-9.65219e-06 0.00755306 0.016829)
(-1.46296e-05 -0.00871437 0.0177676)
(-2.19982e-05 -0.0203616 0.0155526)
(-1.65473e-05 -0.0121699 0.0142938)
(-1.38493e-05 -0.0139528 0.0161805)
(-3.78551 0.0314928 -0.024833)
(-3.75223 -0.014731 -0.0329887)
(-3.75346 -0.0229998 -0.0197765)
(-3.77342 0.00984172 -0.0204908)
(-3.77083 0.0246771 -0.0298938)
(-3.75274 0.0155959 -0.0243942)
(-3.78217 -0.0215471 -0.0340048)
(-8.79371 0.00441034 -0.144164)
(-8.80851 -0.0279551 -0.148688)
(-8.82138 -0.0217572 -0.158045)
(-8.76996 0.00275077 -0.153423)
(-8.82174 0.0330289 -0.174462)
(-8.83948 0.0410782 -0.146464)
(-8.79489 0.00183057 -0.149484)
(-40.5369 -0.0177874 1.62287)
(-40.3907 0.00379174 1.62333)
(-40.3491 0.00256927 1.61546)
(-40.3363 -0.00319447 1.6117)
(-40.2853 -0.0298986 1.60529)
(-40.3725 -0.0193052 1.6265)
(-40.5432 0.026686 1.62665)
(39.678 -0.0525541 1.46974)
(39.2242 0.0158677 1.49847)
(39.2336 0.0218586 1.49485)
(39.1941 0.0277505 1.47361)
(39.2249 0.00470961 1.46916)
(39.3104 -0.0164922 1.48166)
(39.6312 0.0537431 1.45574)
(8.53216 -0.00193355 -0.220488)
(8.66433 -0.0122351 -0.243886)
(8.65962 -0.0263129 -0.236412)
(8.63576 -0.0173136 -0.248593)
(8.54977 0.00948672 -0.23216)
(8.56043 0.0191354 -0.224048)
(8.52417 0.00835538 -0.233589)
(3.78878 0.0309076 -0.00786892)
(3.75111 -0.00877732 -0.0236076)
(3.75075 -0.0227131 -0.00347535)
(3.7617 0.00408162 -0.0101479)
(3.76959 0.0258917 -0.0113278)
(3.74088 0.0163917 -0.00845869)
(3.7793 -0.0241127 -0.0181287)
(-1.66021e-05 0.0123736 0.036436)
(-1.7411e-05 0.00710693 0.0320375)
(-1.43519e-05 0.00734432 0.0332742)
(-2.07101e-05 -0.0089683 0.0319546)
(-3.06818e-05 -0.0199976 0.0314142)
(-2.04379e-05 -0.0125681 0.0328065)
(-1.84224e-05 -0.0148448 0.034216)
(-3.78626 0.0289037 -0.0118353)
(-3.73627 -0.0120792 -0.0214053)
(-3.77388 -0.0198058 -0.00415288)
(-3.79523 0.00778369 -0.00900061)
(-3.7762 0.0258642 -0.0156305)
(-3.73706 0.01612 -0.0123693)
(-3.77943 -0.022785 -0.0197652)
(-8.54856 -0.00261074 -0.231146)
(-8.57979 -0.0219627 -0.228479)
(-8.57851 -0.0224694 -0.230197)
(-8.54428 4.77525e-05 -0.234673)
(-8.59342 0.0332815 -0.243355)
(-8.58738 0.0352198 -0.220376)
(-8.54482 0.00668489 -0.227158)
(-39.6526 -0.0413518 1.46302)
(-39.4085 0.0220653 1.48997)
(-39.3118 0.0103904 1.46857)
(-39.2731 -0.00661897 1.46659)
(-39.2107 -0.0390811 1.46833)
(-39.351 -0.0411879 1.49286)
(-39.6858 0.0430695 1.46901)
(35.6842 -0.073255 1.27613)
(35.0482 0.0304959 1.3189)
(34.8112 0.0309114 1.28905)
(34.657 0.0319652 1.27625)
(34.6754 0.0113462 1.26958)
(35.0032 -0.0189994 1.29023)
(35.6622 0.0738911 1.26664)
(8.39511 -0.0124253 -0.164744)
(8.4616 -0.00710384 -0.168456)
(8.44866 -0.0194754 -0.166744)
(8.45948 -0.0141723 -0.17556)
(8.40675 0.0108183 -0.170283)
(8.41246 0.0157478 -0.162476)
(8.37889 0.0174581 -0.171812)
(3.79954 0.0280999 0.00821029)
(3.75206 -0.00693596 -0.00664067)
(3.75086 -0.0198667 0.0140548)
(3.76593 0.00207861 0.00602828)
(3.75806 0.0272205 0.00473188)
(3.74036 0.014711 0.00762123)
(3.79071 -0.0246837 0.00131325)
(-2.17567e-05 0.0114759 0.0534599)
(-2.651e-05 0.00675008 0.0476579)
(-2.00073e-05 0.00619801 0.0476853)
(-2.84982e-05 -0.00853324 0.0449935)
(-4.10689e-05 -0.0173925 0.0464442)
(-2.52293e-05 -0.0121932 0.0495923)
(-2.33882e-05 -0.0134613 0.0510272)
(-3.79538 0.026524 0.00638304)
(-3.74371 -0.0102648 -0.00384362)
(-3.77015 -0.0188532 0.0136224)
(-3.77977 0.00571679 0.00588205)
(-3.78001 0.0258482 0.000483131)
(-3.74466 0.014418 0.0052938)
(-3.79184 -0.0242528 0.000240569)
(-8.40861 -0.0131848 -0.17709)
(-8.42633 -0.0164432 -0.175628)
(-8.42835 -0.0217448 -0.167857)
(-8.41006 -0.00284341 -0.172034)
(-8.45866 0.0276583 -0.181515)
(-8.42175 0.0269758 -0.156912)
(-8.4046 0.0153282 -0.1687)
(-35.9559 -0.0605658 1.27863)
(-35.4521 0.0280168 1.31057)
(-35.1084 0.00677548 1.27877)
(-34.9971 -0.0127447 1.26836)
(-34.8462 -0.0415209 1.28239)
(-35.2883 -0.0523886 1.30798)
(-36.1063 0.0574367 1.29341)
(29.8878 -0.085657 0.782672)
(29.3754 0.043467 0.824785)
(29.1382 0.0397261 0.80039)
(29.0115 0.0343647 0.783005)
(28.9383 0.0171221 0.76748)
(29.1065 -0.0174277 0.788021)
(29.839 0.0911294 0.768161)
(8.2222 -0.0183025 -0.138835)
(8.25447 -0.00422045 -0.134977)
(8.24055 -0.0126161 -0.122468)
(8.27035 -0.0107393 -0.13339)
(8.23922 0.0084621 -0.130504)
(8.23867 0.0113546 -0.121751)
(8.19968 0.0211413 -0.132401)
(3.81371 0.0246447 0.0448839)
(3.75428 -0.00473159 0.0328317)
(3.76069 -0.0168361 0.049071)
(3.75615 -0.000342596 0.0437823)
(3.74962 0.0249877 0.044902)
(3.7477 0.0132851 0.0447952)
(3.80231 -0.0253758 0.0409381)
(-2.68428e-05 0.00818783 0.0682941)
(-3.91622e-05 0.00416975 0.0658113)
(-2.37899e-05 0.00590345 0.0625462)
(-3.75565e-05 -0.00871213 0.0605648)
(-4.96492e-05 -0.0181094 0.0618662)
(-2.90653e-05 -0.0131736 0.0629622)
(-2.72335e-05 -0.0112705 0.0667797)
(-3.80731 0.0234734 0.0428093)
(-3.75692 -0.0077976 0.0301128)
(-3.75714 -0.0161087 0.0497014)
(-3.76033 0.00159784 0.0457271)
(-3.76076 0.0239484 0.0394234)
(-3.76287 0.0127458 0.0437477)
(-3.80516 -0.0246939 0.042326)
(-8.22588 -0.0209366 -0.147573)
(-8.20594 -0.0100218 -0.144869)
(-8.24472 -0.0166911 -0.130225)
(-8.24127 -0.00365999 -0.129458)
(-8.27242 0.0256159 -0.146779)
(-8.2265 0.0184016 -0.119157)
(-8.22278 0.0196937 -0.132613)
(-30.0733 -0.077677 0.784401)
(-29.4879 0.0329531 0.834583)
(-29.1847 0.00492396 0.779977)
(-29.0156 -0.0174034 0.77968)
(-29.1962 -0.0438051 0.799316)
(-29.3111 -0.0621573 0.801862)
(-30.1652 0.0684538 0.794932)
(25.7332 -0.0950369 0.461607)
(25.7012 0.0473211 0.481411)
(25.6586 0.0442202 0.473007)
(25.7423 0.0364924 0.468426)
(25.681 0.0214691 0.457029)
(25.6749 -0.00802305 0.468214)
(25.723 0.104526 0.455041)
(7.91321 -0.0312929 0.00158333)
(7.94547 -0.000617157 0.0114148)
(7.87952 -0.00534629 0.0270509)
(7.94072 -0.00384143 0.0209937)
(7.93886 0.0144302 0.0199213)
(7.94413 0.0167061 0.0281144)
(7.9113 0.0337064 0.0167597)
(3.7412 0.0303839 0.00567819)
(3.74216 -0.00417766 -0.00819075)
(3.71611 -0.0187686 0.00875085)
(3.72987 0.000801772 0.00623899)
(3.7111 0.0373073 0.0061808)
(3.73583 0.0196392 0.00805721)
(3.71627 -0.034656 0.00386292)
(-3.114e-05 0.011676 -0.00832124)
(-5.79391e-05 0.00374634 -0.00876133)
(-2.28662e-05 0.00513092 -0.0130399)
(-4.95893e-05 -0.0118601 -0.0143061)
(-5.82426e-05 -0.02355 -0.0123108)
(-3.30091e-05 -0.0162199 -0.0136874)
(-3.05285e-05 -0.0169934 -0.00908163)
(-3.73981 0.0267034 2.26815e-05)
(-3.8 -0.011083 -0.0142926)
(-3.73772 -0.0189836 0.00743878)
(-3.71324 0.000692563 0.00404128)
(-3.83007 0.0361947 0.00153657)
(-3.74287 0.0216912 0.00777109)
(-3.71936 -0.0326863 0.00552919)
(-7.92243 -0.0344368 -0.000705643)
(-7.57166 -0.00881456 0.0428077)
(-7.94109 -0.0131182 0.0184123)
(-7.90393 -0.00767524 0.0253466)
(-7.65375 0.0187503 0.0385173)
(-7.93996 0.0161299 0.0212015)
(-7.91851 0.030809 0.011286)
(-25.7719 -0.0838404 0.466952)
(-25.6795 0.0263845 0.506262)
(-25.7025 -0.00605626 0.463609)
(-25.5841 -0.0136095 0.468043)
(-25.7027 -0.0517093 0.489745)
(-25.7205 -0.072595 0.468198)
(-25.7752 0.0844564 0.465668)
(41.0597 -18.227 -28.4916)
(40.8951 0.0591707 -63.5347)
(40.8161 14.2699 -54.9799)
(41.0034 22.5702 -48.9212)
(41.1535 27.8232 -40.3621)
(41.1937 29.7433 -29.4375)
(41.0512 26.2074 -4.17458)
(11.1252 -14.6415 -11.7226)
(11.0464 0.150636 -28.4822)
(11.0255 4.59336 -30.3848)
(11.0485 7.0197 -26.7389)
(11.0966 13.0093 -26.0925)
(11.1261 16.631 -20.7371)
(11.0923 18.952 -4.5235)
(4.03168 -10.4611 0.0946128)
(4.02123 -4.4189 -11.2354)
(4.01368 -2.23976 -13.1193)
(4.0169 0.321396 -11.671)
(4.02681 3.71613 -10.5033)
(4.03398 4.85267 -10.2211)
(4.02035 7.21379 -3.21284)
(0.00222385 -6.79157 3.52478)
(-0.00516935 1.39768 1.19649)
(-0.0127653 0.374253 1.1668)
(-0.0155885 -0.555014 1.22248)
(-0.014543 -0.952236 1.12475)
(-0.0118213 -0.292643 0.943485)
(-0.0125352 4.09219 2.2004)
(-4.03585 -7.75897 3.23128)
(-4.05715 -7.28576 -3.72869)
(-4.06097 -10.8509 -5.76607)
(-4.06207 -11.1463 -7.14151)
(-4.05968 -10.0718 -7.68151)
(-4.05002 -4.60259 -6.20457)
(-4.04785 2.16073 -2.30476)
(-11.2205 -25.8112 0.731015)
(-11.2917 -35.2598 -14.9769)
(-11.255 -34.9786 -21.9519)
(-11.185 -26.0652 -28.6031)
(-11.1472 -20.1394 -28.4761)
(-11.1387 -10.1737 -29.2182)
(-11.1641 -2.39063 -29.131)
(-41.4222 -26.8349 5.54814)
(-41.6964 -39.3987 -23.0301)
(-41.5971 -27.1684 -40.6574)
(-41.3764 -15.7877 -45.802)
(-41.1751 -8.93675 -40.775)
(-41.1164 -4.06436 -41.1966)
(-41.1789 1.61291 -33.2625)
(41.0264 -5.21491 3.84531)
(40.9845 8.38309 -94.7375)
(40.8808 12.5119 -69.2386)
(41.0096 16.1183 -53.8161)
(41.315 14.8113 -38.838)
(41.3489 7.67094 -10.1103)
(41.1804 21.5109 17.7065)
(11.1885 -11.8316 11.5526)
(11.0694 6.65167 -19.0346)
(10.9956 -1.44085 -7.93923)
(11.0148 -5.2812 -12.4844)
(11.1297 -1.73026 -21.3781)
(11.183 -4.25667 -6.14283)
(11.1413 13.9628 16.8269)
(4.05783 -9.06065 11.1444)
(4.04083 -4.57091 9.72735)
(4.03048 -7.20883 7.77886)
(4.02734 -6.97385 6.29516)
(4.03515 -6.03431 4.05417)
(4.05333 -3.11011 5.47042)
(4.04157 3.70248 11.0736)
(-0.00862564 -5.31232 12.4601)
(-0.0127119 2.04545 10.5412)
(-0.0200168 0.696439 10.394)
(-0.0227573 -0.645837 10.1334)
(-0.0229537 -1.43409 10.1072)
(-0.019833 -1.49377 9.67762)
(-0.0194507 3.41399 11.324)
(-4.08824 -6.14076 16.7872)
(-4.10018 -0.889998 12.2068)
(-4.10409 -4.38626 10.0588)
(-4.08905 -5.47072 8.44832)
(-4.08147 -6.47995 6.95528)
(-4.07165 -3.7869 6.43206)
(-4.0731 2.8799 7.08757)
(-11.2657 -17.7293 22.8779)
(-11.2915 -18.2542 11.4381)
(-11.2442 -16.4614 -12.2777)
(-11.1423 -6.9003 -22.2183)
(-11.0956 -7.25804 -27.1076)
(-11.0799 -6.821 -28.5377)
(-11.142 1.23819 -31.0154)
(-41.4837 -20.0102 27.4627)
(-41.7562 -17.0268 2.43207)
(-41.7955 4.74797 -65.2171)
(-41.4739 8.19992 -69.9093)
(-41.1953 11.7605 -61.5433)
(-41.0464 7.71741 -55.2791)
(-40.9831 5.26681 -44.1364)
(40.9748 19.24 -46.9758)
(40.7198 -3.27468 -108.892)
(40.982 7.38012 -73.5021)
(40.8068 7.03903 -59.3231)
(41.4013 5.77203 -43.5241)
(41.3653 -3.23846 -15.1944)
(41.0821 9.97919 29.4926)
(11.2058 -6.12932 17.6308)
(11.1024 5.9029 -22.1746)
(10.8498 -2.05886 -3.26768)
(10.916 -10.2845 -17.8204)
(11.1642 -6.48388 -32.2749)
(11.2065 -8.51744 -16.4471)
(11.144 2.94827 5.47095)
(4.05909 -9.29021 20.9263)
(4.03264 -7.46972 15.561)
(3.99892 -12.9783 13.5639)
(4.01072 -14.4532 9.52724)
(4.03927 -11.4155 1.50785)
(4.04217 -6.76889 1.02569)
(4.03911 -0.936174 8.19471)
(-0.0177091 -4.84777 20.1288)
(-0.0190009 1.62137 19.0342)
(-0.0220263 -0.23091 17.8843)
(-0.0216613 -0.928473 18.123)
(-0.026732 -2.17204 17.1658)
(-0.0293306 -1.59892 17.1635)
(-0.0301003 1.80828 18.2443)
(-4.10288 -4.41752 26.1951)
(-4.07912 2.3297 21.0783)
(-4.08007 2.19501 18.3329)
(-4.06601 1.78636 18.2707)
(-4.06345 0.0264042 16.5588)
(-4.07151 -2.0758 17.649)
(-4.07456 4.07297 16.9654)
(-11.1838 -8.88748 34.3503)
(-11.1348 -3.98822 9.59241)
(-11.1472 -2.39403 -13.2062)
(-11.043 0.0917692 -18.4948)
(-10.902 -2.92962 -24.6702)
(-10.9648 -5.62677 -27.2166)
(-11.1141 3.59631 -32.4719)
(-41.2407 -14.5239 40.708)
(-41.4604 -0.12464 -11.7113)
(-41.2868 16.2954 -87.8584)
(-40.9391 13.0057 -83.461)
(-40.8225 14.6817 -71.8336)
(-40.7503 11.0428 -62.3797)
(-40.8001 8.8712 -47.4939)
(41.3264 11.3468 -71.5817)
(40.5254 -7.7131 -113.57)
(41.167 6.52692 -75.742)
(40.966 4.40646 -59.897)
(41.3833 2.0129 -45.8324)
(41.3242 -7.03552 -13.9062)
(41.0008 1.71193 17.2354)
(11.1798 -6.61776 19.0223)
(11.114 1.47083 -10.5594)
(10.7895 0.273256 5.72984)
(10.8472 -5.84991 -11.4946)
(11.162 0.362182 -39.2307)
(11.1983 -5.46389 -27.6674)
(11.1493 1.11712 -15.1439)
(4.03014 -10.2316 28.4894)
(3.9862 -8.4474 23.8339)
(3.97059 -14.2983 17.5179)
(3.98383 -13.7742 10.5177)
(4.01817 -9.92705 -1.77845)
(4.01152 -6.95762 -6.9808)
(4.0117 -0.158519 -4.76995)
(-0.0119846 -4.37403 27.2115)
(-0.0141959 0.660158 24.6383)
(-0.0149731 -1.12175 24.2172)
(-0.0133541 0.0121384 24.5122)
(-0.0161679 -2.37811 23.9835)
(-0.0215572 -2.79062 22.1737)
(-0.0265731 1.73537 20.9477)
(-4.07316 -2.05602 27.9824)
(-4.03941 3.3264 21.9959)
(-4.03472 5.5336 20.3255)
(-4.01739 6.52903 20.8197)
(-4.00827 5.62506 20.0955)
(-4.02283 2.02595 22.7945)
(-4.06452 3.84968 22.5257)
(-11.1059 -6.47332 32.6313)
(-11.0462 3.78864 -3.93422)
(-10.9992 3.66912 -13.7846)
(-10.9324 1.43561 -13.45)
(-10.8681 -2.1716 -17.7455)
(-10.9692 -5.27619 -26.2854)
(-11.1542 4.00842 -34.1526)
(-41.0915 -13.1896 36.9908)
(-41.7623 12.1843 -81.2591)
(-41.132 19.1539 -95.2068)
(-40.8351 18.194 -86.7303)
(-40.6799 18.6872 -73.3357)
(-40.9112 13.6491 -63.4577)
(-40.9667 10.2884 -47.7135)
(41.6086 16.4835 -82.4916)
(40.7601 -8.83621 -114.722)
(41.1229 12.0772 -87.3119)
(41.2079 4.68036 -60.7559)
(41.1847 2.34518 -51.5475)
(41.3346 -1.01011 -32.0224)
(41.1862 -0.960795 -8.97094)
(11.1439 -5.34009 23.8316)
(11.089 -0.101314 -6.53237)
(10.8942 1.64908 -1.53097)
(10.9724 -1.44821 -24.6233)
(11.124 3.9213 -43.6241)
(11.1561 2.2034 -36.6144)
(11.1595 2.59163 -20.7187)
(4.00561 -9.55072 33.8447)
(3.96847 -7.91664 25.3621)
(3.96229 -11.6123 19.312)
(3.97681 -9.83676 10.1842)
(4.00245 -7.0931 -1.05815)
(3.98358 -5.44446 -5.53484)
(3.9662 1.24586 -3.71874)
(0.00539365 -3.97654 31.532)
(0.00148408 2.02799 29.6565)
(0.00237409 -0.846696 26.0953)
(0.00360445 0.53931 25.9003)
(0.000943653 -1.0412 26.1335)
(-0.00590266 -2.67226 26.4771)
(-0.0146905 2.49408 25.5547)
(-4.01673 -0.152952 26.4523)
(-3.97949 4.30745 21.2277)
(-3.96568 6.72973 19.5613)
(-3.95335 7.3513 20.5408)
(-3.94945 7.49104 20.6308)
(-3.95129 4.23653 23.7123)
(-4.00137 5.01037 25.521)
(-11.062 -1.97177 25.7237)
(-11.0239 8.47329 -7.6295)
(-10.9335 6.09904 -14.1987)
(-10.8824 0.383391 -12.9031)
(-10.8997 -3.37918 -17.3148)
(-11.0431 -3.64753 -28.8688)
(-11.1833 3.13327 -33.6)
(-40.9295 -5.63679 28.8811)
(-41.4602 16.876 -101.718)
(-40.6652 20.2708 -97.7715)
(-40.9685 21.7876 -84.8255)
(-40.899 19.7486 -73.0588)
(-41.2464 13.5364 -62.8468)
(-41.1262 8.60837 -47.9233)
(41.1902 30.7343 -92.639)
(40.8119 -5.617 -117.381)
(40.8019 17.3529 -94.0486)
(41.2381 10.5956 -66.8934)
(41.1419 2.79663 -54.6791)
(41.1034 7.9376 -38.906)
(41.2828 3.79949 -17.1369)
(11.072 -0.534724 18.9938)
(11.0697 3.23119 -0.0920347)
(11.0275 3.21552 -23.3995)
(11.1088 -0.144743 -46.8846)
(11.1316 4.18984 -50.9303)
(11.1111 4.48065 -44.5293)
(11.1628 6.61232 -23.3433)
(3.98771 -6.35845 37.7221)
(3.9465 -3.55998 26.8645)
(3.95918 -5.35052 17.224)
(3.97731 -4.59064 10.5596)
(3.98148 -4.1783 4.23223)
(3.94631 -4.59072 0.274601)
(3.92677 0.626145 -1.82099)
(0.0181932 -3.4954 36.6418)
(0.0179315 1.88668 31.5377)
(0.0224972 0.583224 29.6883)
(0.0202077 0.502465 28.6451)
(0.0105865 -0.247167 28.3548)
(0.00323506 -1.82233 28.6507)
(-0.00339208 2.48208 28.6445)
(-3.97829 0.578019 25.1177)
(-3.93142 4.5151 21.5819)
(-3.92628 6.60619 19.9416)
(-3.92048 7.2312 20.7701)
(-3.93134 7.29909 22.9288)
(-3.92492 3.68372 24.759)
(-3.95571 4.31884 26.0393)
(-11.0018 5.04857 9.24776)
(-10.913 10.164 -6.50309)
(-10.9405 6.33277 -16.1335)
(-10.8756 -4.16178 -14.6057)
(-10.9313 -7.45026 -22.6053)
(-11.132 -4.55567 -29.8405)
(-11.1791 2.20228 -32.6127)
(-40.8945 1.16334 -9.34264)
(-40.7322 21.4467 -110.978)
(-40.6284 22.853 -98.5243)
(-41.1008 21.0016 -79.9373)
(-41.2015 15.9317 -72.7712)
(-41.3614 6.01498 -59.9675)
(-41.3358 4.63179 -48.1249)
(40.5839 33.1351 -99.7964)
(40.4171 -5.41907 -121.119)
(40.7743 19.9736 -94.2486)
(41.1391 20.8708 -67.4161)
(41.0567 8.254 -55.1279)
(41.0021 10.1532 -40.7026)
(41.2759 11.8655 -16.7147)
(11.1781 3.27982 -27.719)
(11.1382 2.08997 -25.5007)
(10.9972 6.56207 -26.9777)
(11.0416 6.07881 -47.7549)
(11.0817 6.3112 -53.764)
(11.0764 5.49466 -48.1395)
(11.156 10.571 -23.9637)
(4.00699 -5.57602 35.9477)
(3.94615 -0.602293 26.3564)
(3.93732 -3.00337 17.7907)
(3.93481 -4.78904 11.5762)
(3.9141 -5.12347 5.77721)
(3.84339 -4.796 3.07232)
(3.87916 0.662412 -3.71485)
(0.0223785 -4.14905 37.8831)
(0.0270783 1.755 36.9004)
(0.0284215 -0.0773836 30.5645)
(0.0204865 -0.525153 28.3573)
(0.0103882 -0.451094 27.9009)
(0.00763472 -1.87724 28.7146)
(0.00457141 2.27863 28.399)
(-3.92455 0.125404 22.149)
(-3.88876 4.44291 20.9946)
(-3.89856 4.611 19.2549)
(-3.90823 4.70607 20.0207)
(-3.92348 5.01993 22.7152)
(-3.91021 0.793659 24.2408)
(-3.91116 3.49739 23.9775)
(-11.0147 -1.98278 -13.9789)
(-10.9044 5.53716 -23.1722)
(-11.0168 4.74733 -20.7602)
(-10.8708 -4.47822 -19.2864)
(-10.9453 -9.23496 -24.3969)
(-11.2056 -5.97793 -32.3562)
(-11.2858 2.72695 -39.2377)
(-41.1231 -16.53 -46.011)
(-40.2077 14.0567 -125.066)
(-40.7542 15.4866 -90.527)
(-40.9612 10.2908 -68.8907)
(-41.0907 2.75619 -60.39)
(-41.4753 -2.10561 -51.4562)
(-41.6193 4.71034 -45.458)
(40.8594 54.526 -86.1697)
(41.3906 -14.5979 -119.458)
(41.8408 4.77176 -80.3862)
(41.5611 18.0213 -49.1601)
(41.1371 9.27788 -27.2261)
(41.3197 10.9326 -15.2327)
(41.5356 13.6217 15.917)
(11.326 20.5206 -12.3948)
(11.117 -9.44102 -24.2126)
(11.0186 8.24529 -28.2027)
(11.0737 19.6887 -48.1242)
(11.1391 21.6123 -49.819)
(11.2205 12.9927 -49.0207)
(11.2811 11.4521 -15.1784)
(3.95292 -3.07184 35.1742)
(3.86511 0.921836 29.145)
(3.8663 -4.47524 19.28)
(3.89726 -3.72447 9.40745)
(3.92014 -0.386296 4.95936)
(3.85597 -3.68854 -0.957453)
(4.08337 8.04194 -2.51873)
(0.029413 -2.54619 34.2233)
(0.0312113 0.684028 32.4393)
(0.0277962 -2.33484 28.8497)
(0.0268328 -2.89533 29.5315)
(0.0342163 -3.63651 28.3835)
(0.0224591 -4.59118 27.221)
(0.021335 0.770281 26.1147)
(-3.83127 -0.508807 17.9768)
(-3.82417 3.95543 17.8041)
(-3.85786 0.266646 18.148)
(-3.86853 -0.172015 20.3792)
(-3.83948 -3.17427 21.0381)
(-3.83348 -6.56318 20.4066)
(-3.83688 0.911156 17.7761)
(-10.9614 -7.86686 6.52975)
(-11.1957 -1.49289 -17.9518)
(-11.0704 -9.3239 -10.2534)
(-11.0674 -7.14593 -13.3024)
(-11.1186 -6.5794 -22.2824)
(-11.3445 2.83787 -42.1539)
(-11.4313 10.5675 -42.6566)
(-41.4005 -5.67355 -29.2883)
(-41.198 -15.337 -123.833)
(-41.2527 -4.62575 -53.7774)
(-41.7921 1.44869 -45.5678)
(-41.8137 -3.966 -37.2572)
(-41.6057 -5.19099 -35.4606)
(-41.6851 5.73161 -23.8696)
(40.5424 54.5489 -99.1959)
(41.1343 -15.7898 -139.251)
(41.9044 4.38263 -88.4273)
(41.5574 12.7997 -56.0169)
(41.0511 10.3935 -35.6802)
(41.3357 8.38132 -19.2367)
(41.5762 11.8509 20.5639)
(11.051 1.86346 16.4403)
(10.8525 -8.93426 4.06401)
(10.9754 13.97 -33.8241)
(11.0352 22.0189 -52.9799)
(11.015 25.8178 -57.452)
(11.1612 20.2527 -49.2144)
(11.2577 12.4302 -13.5256)
(3.91201 -2.90138 36.778)
(3.87429 0.585134 31.3952)
(3.885 -3.89108 23.2767)
(3.90769 0.433557 14.1634)
(3.9135 -1.47184 15.4777)
(3.98397 -4.4922 8.19595)
(4.13392 8.38611 6.33845)
(0.0359166 -2.31143 34.8194)
(0.0398478 0.943943 33.1377)
(0.0405256 -2.03848 30.4395)
(0.0392014 -2.71116 31.2972)
(0.0427379 -4.75549 31.2875)
(0.0404288 -6.28953 30.0404)
(0.0407262 0.0501556 28.3794)
(-3.81468 -1.10113 18.8987)
(-3.78853 3.69457 19.4214)
(-3.83068 -0.426756 20.6634)
(-3.82536 -6.92112 24.3811)
(-3.80128 -11.1546 25.0492)
(-3.84797 -10.4495 11.7834)
(-3.93999 0.232434 -0.408187)
(-10.9605 -4.1572 9.41514)
(-10.9387 -0.302167 1.31287)
(-10.7488 -10.9727 7.62537)
(-10.9041 -12.1036 -0.941283)
(-11.0994 3.35652 -25.1161)
(-11.1675 15.1358 -37.6672)
(-11.2902 14.1971 -41.6617)
(-41.1267 -4.69661 -22.6869)
(-40.6238 -23.807 -130.895)
(-41.6359 -3.10647 -63.3819)
(-41.8724 7.07988 -52.8123)
(-41.8117 -2.54082 -40.9303)
(-41.5261 -3.80558 -37.8431)
(-41.5692 7.13655 -35.0696)
(40.4219 59.2032 -104.649)
(41.0801 -29.7576 -145.967)
(41.9706 4.46991 -94.9933)
(41.3565 17.6873 -64.0625)
(41.2354 16.2186 -34.6623)
(41.4746 6.89688 -4.22295)
(41.5652 9.71861 27.6002)
(10.9984 -0.126206 6.9811)
(10.9172 -7.76614 -22.5749)
(11.0149 24.9712 -66.3539)
(11.0713 25.5082 -69.5728)
(11.0563 26.0797 -61.1218)
(11.2412 21.9818 -44.9264)
(11.2942 13.746 -3.29983)
(3.84043 -1.94935 38.8623)
(3.85186 1.19783 35.1075)
(3.90091 -1.00839 24.1584)
(3.9277 -0.461323 19.6626)
(3.91416 -4.2792 24.5506)
(4.05799 -1.95258 8.98184)
(4.16543 10.5363 13.8888)
(0.03235 -1.73754 36.5729)
(0.0404752 1.10965 34.677)
(0.0438543 -0.762882 33.4388)
(0.0397285 -2.46032 35.1401)
(0.0324948 -6.06908 34.3063)
(0.0317038 -7.40054 32.1126)
(0.0487487 0.878745 28.1579)
(-3.85449 -2.74172 19.9551)
(-3.78775 3.13045 22.5141)
(-3.81303 -2.69212 25.069)
(-3.81364 -6.16657 28.1135)
(-3.84573 -9.17188 20.4122)
(-4.04051 -3.40739 -9.35306)
(-4.0946 9.7809 -15.4196)
(-11.037 -3.41841 5.54381)
(-10.9749 -0.140279 -8.53996)
(-10.8448 -0.743352 -0.171649)
(-11.0353 12.8826 -25.5244)
(-11.0019 30.461 -36.9592)
(-10.9753 28.5334 -36.1781)
(-11.1373 25.0713 -26.4929)
(-41.1641 14.0966 -39.0993)
(-40.9148 -26.2506 -133.832)
(-42.1582 1.17239 -96.5649)
(-42.023 24.6712 -61.9279)
(-41.6668 18.8885 -36.2599)
(-41.4792 11.1056 -18.7239)
(-41.5151 14.5536 -16.2468)
(40.3123 55.7135 -110.725)
(40.9699 -33.5307 -151.817)
(41.9625 -1.72651 -115.372)
(41.3437 19.2376 -71.0819)
(41.5148 14.0782 -29.5256)
(41.4855 1.9862 2.88512)
(41.5098 11.7471 36.8989)
(10.8513 0.47849 7.85356)
(10.9142 -7.36897 -41.3429)
(11.0784 28.7489 -79.5382)
(11.1979 21.7399 -76.3771)
(11.1937 23.8874 -61.2103)
(11.2577 16.6199 -36.904)
(11.3292 10.7125 7.76319)
(3.80199 0.00118248 39.4278)
(3.81032 2.81187 36.6204)
(3.88302 0.846277 29.6478)
(3.9237 0.908571 29.5725)
(3.92593 -3.14729 27.9604)
(4.08384 -0.0769894 10.4948)
(4.18247 10.235 19.9383)
(0.0340562 -1.1861 37.4154)
(0.0321665 1.63172 36.9991)
(0.0316095 0.663481 35.0193)
(0.0245277 1.22594 37.1128)
(0.0174871 -3.67041 37.589)
(0.0229811 -6.13686 36.0258)
(0.0421042 1.54991 28.9281)
(-3.97536 -5.68641 19.9587)
(-3.78215 4.63964 27.6358)
(-3.83157 -0.846556 26.5522)
(-3.84086 -2.50206 27.5474)
(-3.88802 -6.05158 25.0867)
(-4.04686 -1.37929 5.24027)
(-4.12491 20.8761 -2.44386)
(-11.0873 3.32574 3.64193)
(-11.0509 -2.14224 -17.2283)
(-11.1335 25.4984 -32.7743)
(-11.1487 36.5414 -49.64)
(-11.0468 37.5592 -43.151)
(-11.0734 31.9848 -36.9465)
(-11.1644 29.2938 -14.8366)
(-41.3377 45.6624 -53.0563)
(-41.3276 -27.9781 -128.065)
(-42.0205 -7.79147 -130.59)
(-42.1036 29.0009 -74.0918)
(-41.5067 30.071 -35.6313)
(-41.5645 21.146 -13.5016)
(-41.5372 19.0327 11.2985)
(40.1492 47.4529 -107.322)
(40.9781 -39.9728 -151.166)
(41.7229 -29.9299 -121.537)
(41.5296 16.0054 -72.3193)
(41.5369 2.40465 -17.6217)
(41.4029 -7.42067 23.4353)
(41.3486 6.34238 39.2212)
(10.4757 2.55571 18.9448)
(10.9099 -0.418187 -58.084)
(11.2104 31.8628 -85.8734)
(11.264 14.9791 -78.445)
(11.1653 17.8671 -47.4588)
(11.228 8.70874 -19.3675)
(11.3347 6.81937 12.5506)
(3.79268 -0.296636 37.4284)
(3.78743 2.46916 34.3099)
(3.85792 1.1261 27.8291)
(3.90676 2.38515 27.7022)
(3.92167 0.320207 27.3748)
(4.05953 -0.251059 14.695)
(4.18021 9.45165 19.4895)
(0.0275635 -0.824542 36.6839)
(0.0197486 1.39706 36.6788)
(0.00988306 1.40776 34.1876)
(-0.00336617 3.01104 34.6725)
(-0.00562849 -0.238228 36.3628)
(0.00482054 -4.61673 35.4768)
(0.0171435 2.51736 28.4529)
(-4.01132 -6.4394 20.9319)
(-3.76296 5.58117 29.2772)
(-3.81686 3.81664 27.629)
(-3.88772 1.71126 28.4115)
(-3.95579 -1.30867 28.3403)
(-4.02894 -1.57257 14.6718)
(-4.1941 22.1918 5.88013)
(-11.0999 11.6353 2.41513)
(-11.0741 -4.82671 -27.3517)
(-11.2354 35.886 -76.0422)
(-11.2868 24.4035 -72.1167)
(-11.1889 30.0025 -47.1196)
(-11.2313 24.5398 -35.3468)
(-11.2973 24.899 -4.13816)
(-40.9961 33.4982 -76.3212)
(-41.186 -48.8347 -126.31)
(-41.6656 -31.7064 -138.626)
(-42.1612 17.6232 -92.0187)
(-41.876 29.8063 -40.7085)
(-41.9648 13.2728 0.792226)
(-41.6778 17.0602 23.0713)
(40.4888 46.017 -106.082)
(40.6116 -40.7754 -138.875)
(41.1834 -72.2041 -112.298)
(41.6037 3.09911 -64.5534)
(41.2341 -0.327254 -2.65869)
(41.2314 -10.6514 20.5765)
(41.2003 4.04906 35.4043)
(10.4138 -6.05467 24.6848)
(10.9573 13.6264 -63.2494)
(11.1624 40.391 -95.8449)
(11.3523 4.58127 -78.1082)
(11.1071 15.9089 -29.8136)
(11.1487 5.18924 -7.45023)
(11.2892 2.44188 12.5702)
(3.80176 -0.205782 36.256)
(3.75934 -1.52702 31.9388)
(3.79867 2.22176 21.9944)
(3.8762 10.9644 25.0274)
(3.89488 10.9998 29.3331)
(3.94814 7.70902 24.0416)
(4.13286 9.77715 20.6407)
(0.013564 -0.786841 38.642)
(0.0102911 0.939445 38.8517)
(-0.00437085 1.8658 35.631)
(-0.0233429 7.22278 35.2647)
(-0.0162886 5.62271 36.6561)
(-0.00408956 -0.761367 37.5848)
(0.00403225 5.31676 30.4824)
(-3.97961 -7.20315 27.6285)
(-3.73665 1.38382 31.459)
(-3.78275 3.1914 27.3141)
(-3.88343 12.1301 27.0095)
(-3.94636 11.7095 29.7941)
(-3.98062 6.49477 24.6001)
(-4.18643 16.916 12.6622)
(-11.1381 3.41445 2.97767)
(-11.1494 -6.01957 -43.3693)
(-11.1805 17.5076 -92.6231)
(-11.3706 -28.3919 -71.3658)
(-11.1819 10.0018 -23.8856)
(-11.2551 6.00321 -17.9023)
(-11.4378 19.5607 0.507044)
(-41.127 3.33337 -75.3268)
(-40.6492 -67.3324 -116.365)
(-40.6282 -76.6764 -123.313)
(-41.9412 -45.6505 -111.055)
(-42.1899 6.2766 -40.2593)
(-42.0783 -5.99534 15.0091)
(-41.5945 9.21302 33.6622)
(39.8795 155.96 -136.227)
(39.2405 19.7315 -108.109)
(39.9826 -133.337 -65.9367)
(41.2892 -71.7583 -36.5318)
(41.5032 -54.3077 -8.60457)
(41.4773 -46.5497 4.32778)
(41.5007 -39.3855 8.3614)
(10.9715 19.3245 -3.43019)
(10.5999 76.2043 -74.2016)
(10.7263 53.3555 -92.2292)
(11.2585 -27.3968 -71.5133)
(11.0938 15.9816 -25.7854)
(11.0615 4.59605 -6.59665)
(11.1983 6.19439 16.2657)
(3.87311 -10.7492 16.1668)
(3.90645 -18.166 -27.9144)
(3.89193 -7.08636 -43.0233)
(4.02004 7.82905 -32.5222)
(3.97069 20.938 10.0221)
(3.94928 18.8528 15.279)
(4.01878 13.0651 29.7159)
(-0.00511933 -0.793895 51.7364)
(-0.00579047 -1.69025 38.1983)
(-0.00627012 -0.404823 38.3432)
(-0.00774811 6.29858 32.4878)
(-0.00572837 12.9667 34.7905)
(-0.00485699 5.48387 34.1447)
(-0.00442699 5.68643 45.9448)
(-3.97077 -10.5652 34.6547)
(-3.90952 -12.1519 -6.11683)
(-3.98943 -4.66257 -35.0737)
(-4.03164 -0.50353 -33.3645)
(-3.98863 20.8561 -2.6353)