/*--------------------------------*- C++ -*----------------------------------*\
  =========                 |
  \\      /  F ield         | OpenFOAM: The Open Source CFD Toolbox
   \\    /   O peration     | Website:  https://openfoam.org
    \\  /    A nd           | Version:  6
     \\/     M anipulation  |
\*---------------------------------------------------------------------------*/
FoamFile
{
    version     2.0;
    format      ascii;
    class       volScalarField;
    location    "5";
    object      p;
}
// * * * * * * * * * * * * * * * * * * * * * * * * * * * * * * * * * * * * * //

dimensions      [1 -1 -2 0 0 0 0];

internalField   nonuniform List<scalar> 
297
(
120008
120008
120008
198912
198912
198912
120019
120019
120019
120008
120008
120008
198912
198912
198912
120019
120019
120019
120008
120008
120008
198912
198912
198912
120019
120019
120019
97377.8
97393
97384.6
161027
161061
161122
97374.4
97389.8
97382.2
97332
97291.4
97291
160652
160775
160739
97324.1
97280.7
97281.2
97210
97225
96937.6
158623
159873
158674
97202.8
97212
96926.1
96262.3
96632.2
96401.7
159781
159456
159565
96280.8
96658.2
96435.9
96777.6
96867.5
96712.7
160613
160365
160466
96787.6
96869.8
96751.9
96940.7
97101.2
96862.5
160686
160600
160538
96950.6
97096.1
96877.6
95254.7
97312.9
96003.7
152788
158375
155352
95274.2
97326.3
96004.8
94998.4
97278.3
95837.2
152221
158304
154830
95021.1
97293.9
95840
94993.3
97201.7
95718.4
152782
158407
154891
95017.4
97218.5
95723.8
97384.3
97500.7
97371.3
160713
160727
160799
97365.4
97522.6
97401.5
97461.1
97559.6
97469.2
160735
160808
160905
97478.6
97573.6
97478.2
97488.8
97551.7
97499.5
160757
160858
160958
97514.9
97568.1
97510.1
97362.2
97251.2
97104.8
160749
160701
160535
97661.3
97590.1
97798.4
97280.1
97070.6
96770.3
160726
160686
160482
97420
97325.7
97484.4
97274.9
97028.1
96664.7
160772
160661
160352
97364.4
97261.2
97227.4
97773.9
97546.5
97621.5
160496
160657
160687
97103.5
97244.7
97342.6
97431.3
97261.8
97377.4
160444
160637
160642
96765.2
97062.6
97278.1
97163.5
97202.7
97315.2
160317
160615
160663
96645.8
97009.6
97269.3
99145.3
98824.7
98311.9
160517
160403
160353
99286.7
98545
97518.1
98752.6
98381.1
97898
160032
159828
159994
98342.2
97443.7
96793
98185.9
97794.2
97404.9
159264
159066
159349
97214.5
96550.8
96201.8
95642.2
95624.4
95590.5
154980
154891
154725
92863.6
92800.8
92699.7
89866.5
89914.9
89957.4
146777
146759
146696
88710.9
88667.1
88576.2
83837.5
83836.9
83836.6
134628
134576
134501
86236.4
86394.7
86605.2
97526.2
98558.8
99299.6
160402
160453
160565
98299.3
98786.6
99090.1
96794.4
97448.5
98352.6
160060
159894
160096
97918.6
98371.1
98722
96199.2
96550.1
97233.3
159415
159151
159352
97456.1
97821.2
98187.3
92768.4
92869.3
92939.8
154849
155034
155129
95721.8
95750.8
95765.4
88715
88800.1
88842.5
146890
146959
146977
90107.6
90066.5
90019.9
86735.1
86519.5
86358.4
134678
134753
134802
83979.9
83980
83980.3
)
;

boundaryField
{
    fuel
    {
        type            zeroGradient;
    }
    primary_air
    {
        type            zeroGradient;
    }
    Secondary_air_RHS
    {
        type            zeroGradient;
    }
    Secondary_air_LHS
    {
        type            zeroGradient;
    }
    outlet
    {
        type            totalPressure;
        rho             rho;
        psi             none;
        gamma           1;
        p0              uniform 100000;
        value           nonuniform List<scalar> 
18
(
99992.3
100000
86478.5
93237.6
100000
86352.9
87812.2
100000
86311.8
86154.2
100000
87641.3
86195.8
100000
93208
86231.5
100000
99992.5
)
;
    }
    stove_body
    {
        type            zeroGradient;
    }
    frontAndBack
    {
        type            empty;
    }
}


// ************************************************************************* //
