/*--------------------------------*- C++ -*----------------------------------*\
  =========                 |
  \\      /  F ield         | OpenFOAM: The Open Source CFD Toolbox
   \\    /   O peration     | Website:  https://openfoam.org
    \\  /    A nd           | Version:  6
     \\/     M anipulation  |
\*---------------------------------------------------------------------------*/
FoamFile
{
    version     2.0;
    format      ascii;
    class       surfaceScalarField;
    location    "5";
    object      phi;
}
// * * * * * * * * * * * * * * * * * * * * * * * * * * * * * * * * * * * * * //

dimensions      [1 0 -1 0 0 0 0];

internalField   nonuniform List<scalar> 
675
(
9.96053e-06
-4.36682e-05
0.000160789
4.04801e-06
-4.4947e-05
0.000177941
-4.21426e-05
0.000173272
-1.9642e-05
7.61548e-05
0.000110452
-3.44728e-05
2.33698e-05
0.000157147
2.3757e-05
0.000110261
3.24261e-05
0.000170822
5.3595e-06
0.00017753
0.00015621
1.99032e-06
-6.34694e-05
0.000222267
-1.22192e-07
-5.76821e-05
0.000237734
-6.45722e-05
0.00023772
-7.35345e-05
0.000118743
1.77319e-06
-5.90782e-05
3.85089e-05
4.64908e-05
4.40948e-05
-5.74909e-05
2.5971e-05
0.000263594
7.55061e-06
0.000234458
0.000207854
-6.517e-07
9.58391e-05
1.64269e-05
9.35722e-05
0.000127067
-1.73424e-05
-9.51893e-05
8.97827e-06
-9.74443e-05
-0.000131992
4.13127e-05
5.12316e-05
0.00757346
0.00558644
-0.00993901
0.00887199
0.00578561
-0.00387123
0.00883057
0.00324506
0.00148052
-0.00556584
0.0149991
-0.00422851
-0.0056983
0.0225106
-0.00874162
0.0186511
0.00763916
-0.00998554
0.00893831
-0.00378221
0.00340891
0.0156483
0.00679801
-0.0323965
0.0121465
0.00286681
-0.00323786
0.00861944
0.00677878
0.00586522
-0.00669058
0.0225899
0.00890696
-0.002662
0.0249853
-0.00838889
0.0445754
0.0158769
-0.0325702
0.0122501
-0.00282265
0.00727309
-0.00673201
0.0236884
-0.0493672
-0.00536947
0.0110641
-0.0156613
0.017277
-0.0158719
-0.0472403
-0.0235704
0.117092
0.041543
-0.0107259
-0.0420237
-0.0169597
0.120343
-0.00669609
-0.0494926
-0.00523742
-0.0150195
-0.0149313
-0.0169624
-0.0140009
-0.0299115
0.0609064
0.00624869
-0.00017966
-0.0418286
0.0188112
-0.00958162
-0.0162817
0.0321159
0.0180663
0.0136693
0.0406003
-0.0863306
-0.00450599
-0.000211225
-0.0299452
0.0525702
0.0098695
0.0635723
-0.0875362
-0.0173429
-0.0298944
0.0609633
0.00563688
-0.0413452
0.0181707
-0.0158064
0.0313123
0.00412131
-0.0101371
-0.0239065
-0.000159663
-0.00859245
-0.0289696
-0.00647694
-0.00996873
0.015502
0.0101004
0.00487425
-0.012038
0.00774849
-0.0187632
0.00718504
0.0378585
0.00500875
-0.0247832
-0.000203837
-0.0283764
-0.0088323
-0.00511561
-0.00120748
-0.0175999
-0.0151404
-0.000432387
-0.0184947
-0.00916117
-0.0160451
0.00980003
0.000931663
-0.00708292
7.70589e-05
-7.0707e-05
-0.00939435
0.00902055
0.0197881
-0.00571288
-0.0181423
-0.0148628
-0.0193042
-0.0146727
-0.000906195
-0.00251054
-0.0522152
-0.00133403
-0.000609264
-0.0146246
-0.00200641
-0.021515
-0.00320033
0.00250474
0.105226
0.00265254
0.00063255
-0.0491193
0.00196868
0.108802
-0.000927962
-0.0523194
-0.00135994
-0.0139565
-0.0206392
-0.00115418
-0.000700319
-0.0566083
-0.000294957
-2.55316e-05
-0.0154584
-0.00100742
-0.0271067
-0.00149043
0.000696027
0.0953069
0.00230422
4.97162e-05
-0.0529899
0.000977507
0.0989372
-0.00118082
-0.0566857
-0.000315328
-0.0147728
-0.0262822
-0.00192088
-2.88946e-05
-5.71272e-05
0.001489
-0.00134394
-0.00111472
1.34325e-05
0.00145807
-0.00150439
0.00132746
-0.00195344
-6.03708e-05
0.00545385
-0.00302844
-0.0044866
-0.0155366
-0.00610379
-0.000943087
-0.00598542
-0.00293378
-0.00273855
-0.0162992
-0.0025027
0.00221413
-0.00800565
-0.0018164
-0.00294
0.00159417
-0.0114976
0.00346927
0.0118841
-0.00144739
0.00555589
-0.00484875
-0.0166387
-0.00585474
-0.0062979
-0.00229908
-0.014773
0.00382095
0.0012071
0.0020719
-0.0115847
-0.00591583
0.00155074
0.00218989
0.000299026
0.00263638
-0.0115869
-0.00145996
-0.00211236
-0.00581224
0.00258916
-0.00376922
-0.00130158
-0.00634217
0.000401373
0.00481392
0.00319931
0.0024044
0.00268427
-0.0120483
-0.00704776
0.00185456
0.00194558
-0.0108851
0.000439948
0.00354941
-0.0019154
-0.00089825
0.00351412
0.00239321
-0.000660735
-0.00379764
-0.00319492
0.0047342
-0.00394698
-0.00268396
-0.00183843
0.00508165
-0.00185453
0.00134213
-0.00268083
-0.00257285
-0.0170791
-0.000975842
0.00176791
-0.0169635
-0.00178645
0.00168625
-0.0015948
0.00185855
-0.0172186
-0.00608807
0.00251203
0.00115094
-0.00819068
0.000110355
0.000209747
-0.00172556
0.0023008
-0.010352
-0.0141174
0.00185669
-0.0150953
0.00108743
-0.00218562
-0.0146357
-0.0117703
-0.000846054
0.00282182
-0.0117546
-0.000930878
0.00260764
-0.0013147
0.00287348
-0.011465
0.0036713
0.00158627
-0.00175903
0.0008371
-0.000198124
0.0023118
-0.00132017
0.00742666
-0.00428968
-0.0102658
0.00282005
-0.0102023
0.000825412
-0.00368665
-0.0100224
0.00170237
0.000460394
0.00407908
0.000236099
-0.00131648
0.00827563
0.00429743
-0.000518028
0.0076897
-0.000846322
-0.000897165
0.0146969
-0.000270628
-0.000292649
-0.00487706
0.0156487
0.0016836
-0.00219873
-0.0151345
0.0146676
-0.000139067
0.00112043
-0.00259313
0.00172539
0.00833899
0.00165166
0.00234709
-0.010656
0.00673875
0.00188572
-0.000424786
0.000980713
0.00134939
0.0171246
0.00183969
-0.0173133
0.0172984
0.00171214
0.00163673
0.010747
0.00129588
-0.00374616
-0.0104963
0.0108581
0.000101876
0.000907815
-0.00173373
0.00273367
-0.00071807
0.00118953
0.0077768
-0.00460664
-0.0035275
0.000687608
0.00179406
0.000529705
-0.00185117
0.0118876
0.00260702
-0.0114661
0.0121965
0.00208908
0.00231939
0.000140096
0.000993913
-0.00488072
3.63942e-05
0.00101203
0.000855761
-0.00708482
0.00126598
0.0145876
-0.0040971
-0.00018148
-0.000360249
-0.00520809
0.00908033
-0.00330123
0.00656089
0.00311362
-0.00967689
0.0116734
0.00287388
-0.0079885
0.00184213
-0.00530493
0.0092377
-0.00169834
-0.00442894
0.0111109
-0.000122617
0.00112034
-0.000821062
0.00311582
0.0116539
-0.013354
0.0181089
-0.0065792
-2.67082e-05
0.005053
0.00206397
-0.016796
0.00801878
0.0019671
-0.0129233
0.0017055
-0.00948931
0.00788818
-0.00138535
-0.00887076
0.00681744
1.39946e-05
0.0041415
-0.000733228
0.00776328
0.00862338
-0.0233641
0.0129596
-0.0109028
0.000732494
0.00629296
0.00469365
-0.0277846
0.00633032
0.00285309
-0.0158153
0.00203067
-0.0100714
0.00215021
-0.00432601
-0.00200371
-0.00672608
0.000288607
0.0155799
0.00115338
0.0165001
0.00944355
-0.0371346
0.00235342
-0.00352506
0.0133188
-0.0102973
0.0170444
-0.0345305
-0.00694625
0.0139923
-0.0331574
0.0154833
-0.0324996
-0.00329767
-0.00280941
0.0211465
-0.00510381
0.00272404
0.0286513
0.00113996
0.0257372
0.00629337
-0.0462366
0.0169961
-0.011504
0.0314547
-0.00108404
0.00758935
-0.0410373
-0.000480066
0.00709055
-0.0408532
0.0076619
-0.0406429
0.00451209
-0.00194578
0.0261659
0.00942915
-0.00272609
0.0335457
0.000879204
0.0419445
-0.00294417
-0.0452404
0.00256253
-0.0197391
0.0348939
-0.000161283
0.0147525
-0.00015452
0.0147044
0.0147108
-9.2321e-05
-0.0228949
0.00161372
-0.0221486
-0.0212245
-0.0153207
-0.0163379
-0.0180683
0.000777825
6.24325e-05
-0.011625
8.42446e-05
-0.00654577
0.00165829
-0.0133024
-0.010842
-0.00182278
0.00309693
-0.00906595
-0.00282381
0.00113672
-0.0030572
-0.00435091
-0.0113322
-0.00513215
-0.00635798
-0.00779345
-0.00941734
-0.0129951
0.000659492
0.000910894
-0.00864518
-7.3499e-05
-0.0108385
0.00134206
-0.0232957
-0.00651333
-0.00169261
0.00767805
-0.00783378
-0.00192868
0.00431549
-0.00203206
-0.00881532
-0.00774942
-0.00909718
-0.00490006
-0.0125728
-0.0163506
-0.00276639
-0.00121476
0.013167
-0.009504
-0.000391293
-0.00372065
0.00427284
-0.0370733
0.00746786
-0.00189232
0.0155876
-0.0017711
-0.00274564
0.015911
-0.00461423
-0.00170867
-0.00600726
-0.00985936
-0.00604903
-0.0152772
-0.0270144
-0.0167689
-0.00120438
0.0311308
-0.0064301
-0.00298922
-0.0110919
0.002655
-0.0461506
0.00481592
-0.0154833
0.0250598
0.0033285
-0.0139874
0.0284083
-0.0171271
0.0213955
0.00702576
-0.0323599
0.0103531
-0.0325847
-0.0337819
-0.00259561
-0.000699332
0.0344263
0.00296632
0.00287318
-0.0195282
0.00180644
-0.0449668
-0.00988947
-0.00755932
0.0418073
-0.00456642
-0.00733822
0.0332942
-0.00786159
0.0264779
0.000460093
-0.0403896
0.00099813
-0.0404671
-0.0406519
0.0160853
0.0210465
0.0152244
0.0221173
0.0227617
-0.00177768
-0.0145576
0.000137383
-0.0147989
-0.0148922
0.000148843
0.000181316
)
;

boundaryField
{
    fuel
    {
        type            calculated;
        value           nonuniform List<scalar> 
36
(
0.000127081
0.000210637
0.000127094
0.000127081
0.000210637
0.000127094
0.000127081
0.000210637
0.000127094
-0.000127081
-0.000210636
-0.000127094
-0.000127081
-0.000210636
-0.000127094
-0.000127081
-0.000210637
-0.000127094
0
0
0
0
0
0
0
0
0
0
0
0
0
0
0
0
0
0
)
;
    }
    primary_air
    {
        type            calculated;
        value           nonuniform List<scalar> 9(-0.00320216 -0.00529519 -0.00320205 -0.00320266 -0.00529632 -0.00320256 -0.00320239 -0.00529833 -0.00320231);
    }
    Secondary_air_RHS
    {
        type            calculated;
        value           nonuniform List<scalar> 9(0.00631396 0.0102172 0.00631403 0.00630301 0.0101828 0.00630319 0.00629519 0.0101868 0.00629555);
    }
    Secondary_air_LHS
    {
        type            calculated;
        value           nonuniform List<scalar> 9(0.0062647 0.0100486 0.00626598 0.00624784 0.0100113 0.00624934 0.0062475 0.0100481 0.00624909);
    }
    outlet
    {
        type            calculated;
        value           nonuniform List<scalar> 
18
(
-0.00270395
0.0791901
-0.0550977
-0.0407843
0.0682956
-0.0553003
-0.0525044
0.0642642
-0.0553645
-0.055628
0.0639064
-0.052814
-0.0555636
0.0686927
-0.0408704
-0.0555074
0.079494
-0.00266937
)
;
    }
    stove_body
    {
        type            calculated;
        value           uniform 0;
    }
    frontAndBack
    {
        type            empty;
        value           nonuniform 0();
    }
}


// ************************************************************************* //
