/*--------------------------------*- C++ -*----------------------------------*\
  =========                 |
  \\      /  F ield         | OpenFOAM: The Open Source CFD Toolbox
   \\    /   O peration     | Website:  https://openfoam.org
    \\  /    A nd           | Version:  6
     \\/     M anipulation  |
\*---------------------------------------------------------------------------*/
FoamFile
{
    version     2.0;
    format      ascii;
    class       volScalarField;
    location    "5";
    object      T;
}
// * * * * * * * * * * * * * * * * * * * * * * * * * * * * * * * * * * * * * //

dimensions      [0 0 0 1 0 0 0];

internalField   nonuniform List<scalar> 
297
(
291.799
291.795
291.802
293.01
293.011
293.016
291.795
291.798
291.805
291.834
291.842
291.96
293.258
293.404
294.177
291.846
291.833
291.931
292.072
292.09
292.49
301.329
299.662
295.799
292.061
292.05
292.364
409.86
400.218
358.31
354.293
352.968
336.458
409.821
400.488
358.299
446.507
448.164
411.324
397.84
369.883
355.947
446.299
449.857
410.998
446.532
455.771
587.641
428.017
450.49
434.976
446.27
469.64
599.42
400.91
383.75
456.455
495.037
483.408
522.097
399.379
386.755
464.733
369.684
382.307
439.218
494.927
461.174
522.214
366.106
386.374
458.658
319.351
361.283
400.529
398
411.413
522.1
315.184
353.04
409.047
444.843
404.798
639.819
451.438
479.482
476.301
443.324
418.256
664.731
426.678
381.778
526.43
470.958
479.392
486.246
425.234
389.131
540.003
412.222
380.201
497.637
491.88
479.479
518.721
410.773
387.218
508.657
308.29
322.372
328.463
340.115
419.457
508.772
304.965
329.368
336.089
305.294
313.724
318.386
323.055
376.422
503.328
303.33
321.078
326.716
300.14
313.399
318.617
326.222
356.423
416.02
312.583
321.652
322.074
301.95
302.258
302.177
301.663
304.637
304.597
301.71
302.902
302.951
318.827
308.177
303.37
445.883
427.007
315.052
319.668
302.918
303.057
318.517
311.93
318.019
403.881
394.404
370.832
318.383
303.094
302.758
303.051
302.999
303.312
304.302
305.075
305.113
300.18
300.596
300.824
303.067
302.947
304.946
304.988
318.781
319.065
301.69
302.51
303.313
302.875
303.156
304.394
313.88
318.199
323.315
304.545
303.982
304.827
303.939
303.828
303.344
304.034
304.282
304.152
299.703
300.797
300.043
303.787
303.611
303.202
304.367
304.516
304.31
299.82
301.696
301.537
303.336
303.219
302.752
304.401
305.688
308.385
299.342
301.964
304.179
302.976
302.658
302.014
305.451
304.909
305.541
298.98
299.66
299.985
298.888
298.97
298.301
304.152
303.224
302.747
295.193
294.672
295.767
292.064
292.044
291.435
293.12
290.317
286.942
291.135
290.728
299.27
302.114
302.621
302.17
304.584
304.741
304.798
303.208
303.582
303.751
302.557
302.317
300.932
304.669
305.004
305.045
303.185
303.56
303.6
315.726
302.386
300.281
335.74
314.074
305.019
302.654
303.112
303.207
304.005
300.797
296.729
319.17
312.457
305.611
302.105
302.631
302.853
301.641
296.154
293.926
311.034
305.358
304.169
296.164
298.873
298.856
304.653
292.268
291.444
292.325
292.467
293.132
291.33
292.017
292.066
)
;

boundaryField
{
    fuel
    {
        type            fixedValue;
        value           uniform 293;
    }
    primary_air
    {
        type            fixedValue;
        value           uniform 293;
    }
    Secondary_air_RHS
    {
        type            fixedValue;
        value           uniform 293;
    }
    Secondary_air_LHS
    {
        type            fixedValue;
        value           uniform 293;
    }
    outlet
    {
        type            inletOutlet;
        inletValue      uniform 293;
        value           nonuniform List<scalar> 
    }
    stove_body
    {
        type            fixedValue;
        value           uniform 293;
    }
    frontAndBack
    {
        type            empty;
    }
}


// ************************************************************************* //
