/*--------------------------------*- C++ -*----------------------------------*\
  =========                 |
  \\      /  F ield         | OpenFOAM: The Open Source CFD Toolbox
   \\    /   O peration     | Website:  https://openfoam.org
    \\  /    A nd           | Version:  6
     \\/     M anipulation  |
\*---------------------------------------------------------------------------*/
FoamFile
{
    version     2.0;
    format      ascii;
    class       volScalarField;
    location    "1";
    object      O2;
}
// * * * * * * * * * * * * * * * * * * * * * * * * * * * * * * * * * * * * * //

dimensions      [0 0 0 0 0 0 0];

internalField   nonuniform List<scalar> 
297
(
0
0
0
0
0
0
0
0
0
0
0
0
0
0
0
0
0
0
0
0
0
0
0
0
0
0
0
0.030884
0.0792286
0.0488997
0.0689727
0.0962982
0.0800413
0.0308436
0.0791013
0.0493976
0
0.0119436
0
0.0187053
0.0637552
0.0304076
0
0.0119011
0
0
0.010421
0
0.0142773
0.0150195
0.0210114
0
0.0103676
0
0.00210338
0.00623027
0.00210517
0
0.00083299
0
0.00209631
0.00619482
0.00208949
0
4.06985e-08
0
0
0
0
0
4.03712e-08
0
4.61544e-14
1.59767e-13
0
0
2.64184e-13
0
1.95275e-14
1.5902e-13
0
0
0.0104212
0
0
0.000853784
0
0
0.0103649
0
0
0.0103671
0
0
0.00083331
0
0
0.0103339
0
0
0.0103093
0
0
0.000833417
0
0
0.0102525
0
1.00867e-18
5.25692e-18
0
0
4.31297e-18
0
3.08654e-19
5.16378e-18
0
1.37197e-22
1.06221e-21
8.32163e-24
1.35919e-23
1.05174e-21
1.04096e-23
4.55629e-23
1.01134e-21
2.08367e-23
6.26398e-23
1.03224e-21
6.47207e-23
1.35252e-23
5.55823e-22
1.04339e-23
5.26118e-23
9.72756e-22
5.86631e-23
1.97299e-29
1.53381e-33
2.68314e-37
0
4.59219e-32
1.14695e-36
0
5.95203e-34
3.27807e-37
1.77114e-28
3.53649e-32
2.27837e-36
1.10404e-28
3.83786e-32
9.45305e-37
2.84402e-28
3.72775e-32
2.10112e-36
4.285e-27
1.82226e-31
3.99581e-36
3.09507e-28
1.46121e-32
8.74831e-37
3.8945e-27
1.66281e-31
3.66773e-36
1.58622e-33
1.50985e-28
1.29422e-23
2.82836e-34
1.62747e-29
0
9.91706e-34
4.67994e-29
3.98571e-24
3.89209e-36
1.06458e-31
3.22352e-27
3.36753e-35
1.05273e-30
1.31247e-28
3.73581e-36
7.48471e-32
1.16046e-27
4.57043e-36
1.84512e-31
4.24965e-27
6.27042e-36
4.4626e-32
3.92823e-28
5.86864e-36
2.43987e-31
3.56651e-27
6.53084e-47
2.41101e-42
4.7904e-38
1.01616e-46
8.44603e-43
8.17642e-39
1.0838e-46
1.52997e-42
3.01723e-38
4.38126e-49
7.01517e-45
1.44241e-40
2.13593e-48
1.23449e-44
5.17271e-40
1.76787e-48
6.55658e-45
1.64156e-40
5.74915e-49
2.10893e-45
8.0533e-41
1.73031e-48
3.06164e-45
1.3206e-40
2.0509e-48
2.34631e-45
1.13406e-40
8.67287e-49
5.40206e-48
2.9536e-46
1.64877e-48
1.86495e-46
1.926e-45
1.99453e-48
1.84207e-47
6.71234e-46
1.60943e-52
1.58003e-51
1.04995e-50
1.87258e-47
1.85023e-46
1.22409e-45
1.38151e-52
2.05433e-51
9.58118e-51
5.05492e-53
4.95174e-52
2.93721e-51
9.00199e-48
8.66696e-47
5.26246e-46
5.05361e-53
4.95121e-52
2.93758e-51
2.5468e-41
3.65683e-45
1.81365e-48
3.65058e-41
2.20201e-45
2.45864e-48
4.93356e-41
2.56396e-45
2.32098e-48
1.00853e-40
5.63013e-45
1.66267e-48
2.98582e-41
1.68382e-45
1.84239e-48
9.54681e-41
4.87869e-45
2.01501e-48
8.0956e-41
2.10588e-45
1.45509e-48
2.405e-41
7.57482e-46
1.7279e-48
7.13724e-41
1.46536e-45
1.88695e-48
4.29403e-46
7.71634e-48
1.26542e-48
6.99645e-46
7.992e-47
1.67387e-48
4.20197e-46
1.71905e-47
1.85739e-48
3.17566e-51
6.83536e-52
3.57822e-53
4.45075e-46
7.90075e-47
5.40719e-48
3.73588e-51
5.94009e-52
4.22455e-53
1.06404e-51
2.09006e-52
1.49685e-53
1.90989e-46
3.68322e-47
2.63683e-48
1.0642e-51
2.09204e-52
1.47828e-53
)
;

boundaryField
{
    fuel
    {
        type            fixedValue;
        value           uniform 0;
    }
    primary_air
    {
        type            fixedValue;
        value           uniform 0.23;
    }
    Secondary_air_RHS
    {
        type            fixedValue;
        value           uniform 0.23;
    }
    Secondary_air_LHS
    {
        type            fixedValue;
        value           uniform 0.23;
    }
    outlet
    {
        type            inletOutlet;
        inletValue      uniform 0;
        value           nonuniform List<scalar> 
18
(
0
1.90989e-46
0
0
3.68322e-47
0
0
2.63683e-48
0
0
9.00199e-48
0
0
8.66696e-47
0
0
5.26246e-46
0
)
;
    }
    stove_body
    {
        type            fixedValue;
        value           uniform 0;
    }
    frontAndBack
    {
        type            empty;
    }
}


// ************************************************************************* //
