/*--------------------------------*- C++ -*----------------------------------*\
  =========                 |
  \\      /  F ield         | OpenFOAM: The Open Source CFD Toolbox
   \\    /   O peration     | Website:  https://openfoam.org
    \\  /    A nd           | Version:  6
     \\/     M anipulation  |
\*---------------------------------------------------------------------------*/
FoamFile
{
    version     2.0;
    format      ascii;
    class       volScalarField;
    location    "1";
    object      p;
}
// * * * * * * * * * * * * * * * * * * * * * * * * * * * * * * * * * * * * * //

dimensions      [1 -1 -2 0 0 0 0];

internalField   nonuniform List<scalar> 
297
(
120788
120789
120788
201042
201041
201042
120788
120788
120788
120788
120788
120788
201042
201041
201042
120788
120788
120788
120788
120788
120788
201042
201042
201042
120788
120788
120788
96791.8
96808.9
96795.7
160689
160756
160754
96789.6
96810
96796
97112
96589.1
96941.8
160565
160975
160529
97123
96588.1
96935.6
93500.9
93593
93872.9
150317
155978
150790
93526.5
93574
93889.6
90203.2
93421.5
89778.8
154041
153680
153474
90199.8
93405.3
89782.9
95808.3
96194.2
95644.5
159733
159231
159810
95817.3
96188.8
95650.1
95774.3
96205.7
95698.5
159133
159838
159472
95775.7
96199.2
95703.9
70137.1
91419.9
71069.3
115325
148640
115593
70051.6
91365.4
71127.2
68657.1
91269.9
69513.2
111397
148034
111517
68575.6
91207.4
69567
70983.3
91410.3
71656.5
114297
148372
114234
70919.9
91341.5
71693.5
96556.7
96720.7
96537.4
160222
160483
160263
96553.4
96710.4
96536.4
96681.1
96721.8
96658.7
160545
160620
160545
96677.1
96710.8
96656.4
96683.8
96710.4
96662.9
160695
160688
160676
96679.4
96699.5
96660
96815.4
97049.3
97621.2
160488
160617
160883
96813.3
97046.4
97615
96683
96754.2
97146.6
160538
160548
160628
96681.5
96752.8
97143.4
96560.3
96420.2
96337.5
160665
160579
160467
96559.2
96420.6
96338.4
97627.1
97064.8
96833.4
160912
160644
160504
97622.3
97062.2
96830.9
97160.7
96775.2
96704.2
160660
160579
160562
97158
96773.6
96702.2
96365.2
96446.9
96583.9
160501
160611
160693
96365.3
96446.3
96582
98874
98642.1
98226.4
161941
161749
161365
98857
98628.7
98217.4
98556.4
98282.9
97833.9
161570
161378
161011
98542.7
98272.8
97827.6
98152.1
97866.3
97335.7
161094
160860
160592
98141.3
97858.7
97331.6
96172
96076.7
95905.2
158862
158746
158637
96173.4
96078.6
95907.4
90189.8
90229.9
90284.1
149056
149054
149052
90195.4
90234.9
90288.9
82781.9
82783
82785.5
132653
132649
132637
82785.2
82786.3
82788.7
98231.1
98654.4
98890.6
161345
161736
161931
98220.5
98638.9
98871.4
97831.9
98288.5
98566.6
160983
161357
161554
97824.3
98276.9
98551.3
97323.9
97863.3
98153.8
160556
160829
161068
97319.2
97854.7
98142
95868
96041.6
96138.2
158567
158677
158796
95870.3
96043.2
96139.4
90219.4
90164.9
90124
148943
148946
148947
90225.5
90171
90130.7
82717.2
82714.8
82713.6
132534
132546
132551
82720.9
82718.4
82717.3
)
;

boundaryField
{
    fuel
    {
        type            zeroGradient;
    }
    primary_air
    {
        type            zeroGradient;
    }
    Secondary_air_RHS
    {
        type            zeroGradient;
    }
    Secondary_air_LHS
    {
        type            zeroGradient;
    }
    outlet
    {
        type            totalPressure;
        rho             rho;
        psi             none;
        gamma           1;
        p0              uniform 100000;
        value           nonuniform List<scalar> 
18
(
86327.2
100000
86332.2
86279.2
100000
86284.3
86264.6
100000
86270.2
86333
100000
86337.8
86347.1
100000
86351.4
86394.7
100000
86398.9
)
;
    }
    stove_body
    {
        type            zeroGradient;
    }
    frontAndBack
    {
        type            empty;
    }
}


// ************************************************************************* //
