/*--------------------------------*- C++ -*----------------------------------*\
  =========                 |
  \\      /  F ield         | OpenFOAM: The Open Source CFD Toolbox
   \\    /   O peration     | Website:  https://openfoam.org
    \\  /    A nd           | Version:  6
     \\/     M anipulation  |
\*---------------------------------------------------------------------------*/
FoamFile
{
    version     2.0;
    format      ascii;
    class       surfaceScalarField;
    location    "1";
    object      phi;
}
// * * * * * * * * * * * * * * * * * * * * * * * * * * * * * * * * * * * * * //

dimensions      [1 0 -1 0 0 0 0];

internalField   nonuniform List<scalar> 
675
(
-7.56669e-06
-6.06406e-06
0.000141748
7.53995e-06
-4.79633e-05
0.000160858
-6.05432e-06
0.000141711
1.62315e-05
6.02837e-06
0.000185093
-1.61786e-05
4.80316e-05
0.00014932
6.02167e-06
0.000185164
-7.81979e-06
0.000141743
7.80206e-06
0.00016092
0.000141719
-3.9943e-06
-1.70206e-05
0.000163019
3.96193e-06
-5.68565e-05
0.000209672
-1.6949e-05
0.000162878
2.88205e-05
1.69562e-05
0.000122694
-2.86742e-05
5.69685e-05
9.3284e-05
1.69071e-05
0.000123033
-4.25157e-06
0.000162971
4.23468e-06
0.000209886
0.00016288
2.87941e-06
3.23397e-05
-2.9398e-06
8.72336e-05
3.21488e-05
-2.77283e-05
-3.23219e-05
2.77178e-05
-8.72712e-05
-3.21675e-05
2.60425e-06
-2.65865e-06
0.012515
0.0112091
-0.0205248
-0.00219641
0.0122001
0.00567579
0.0127953
-0.0117876
0.00863608
-0.0111334
0.0189603
-0.00325172
-0.0122138
0.0415525
-0.0128835
0.0276831
0.0126104
-0.0205415
-0.00194451
0.0055519
-0.0116254
0.0372397
0.0272885
-0.0850996
-0.0348642
-0.0129723
0.0906837
0.0272308
-0.0739425
0.016003
-0.0275166
0.0579047
-0.0189469
0.0129714
0.0507205
-0.0270518
0.0631621
0.0367819
-0.0849823
-0.0351589
0.09038
-0.0739805
0.0064504
0.0629571
-0.154504
-0.00654327
0.00218975
0.101486
0.0656176
-0.146111
-0.114975
-0.0629398
0.298459
0.112833
-0.0022021
-0.172709
-0.0656434
0.30695
0.00671229
-0.154594
-0.00620717
0.101839
-0.145776
-0.0637613
-0.0708672
-0.0503909
0.184803
0.0613718
0.0139472
-0.0545211
-0.0844376
-0.0722705
-0.0439695
0.177434
0.00923985
0.0709084
0.0901783
-0.241122
0.00514356
-0.0138168
-0.171012
0.203595
0.072235
0.112284
-0.251615
-0.0637848
-0.0502616
0.184781
0.0610983
-0.054552
-0.0843117
-0.0440738
0.177223
0.00575714
-0.0259524
-0.0301396
-0.0203626
0.0111185
-0.0395356
-0.0388291
-0.0254575
0.05826
0.0259412
-0.0200233
-0.043478
-0.0110811
-0.047385
0.0387999
-0.00885184
0.00591919
-0.0300713
-0.0202929
-0.0394908
-0.0254049
-0.00940794
0.00361574
-0.0243353
-0.0226213
-0.000482275
-0.0258045
-0.0231348
-0.0249413
0.0277175
-0.00356438
-0.0405847
0.0196987
0.000550395
-0.0404061
0.0230452
-0.0353482
-0.00934717
-0.0243038
-0.022517
-0.0257703
-0.0248917
-0.00221866
-0.0015214
-0.164587
0.00223632
0.000392881
0.0966802
-0.00138603
-0.156497
-0.00679125
0.00153058
0.279453
0.00730279
-0.00038426
-0.185885
0.00137947
0.288689
-0.00222955
-0.164651
0.00221153
0.0968883
-0.156215
-0.00213046
-0.000580552
-0.175403
0.00208972
-0.00056764
0.0931026
-0.00046145
-0.167644
-0.00305877
0.000587384
0.259376
0.00346359
0.000566063
-0.193651
0.000457246
0.269242
-0.00214836
-0.175441
0.00207418
0.093132
-0.167402
-0.00498719
0.000406356
0.0048476
-0.0010884
0.000523324
-0.0034834
-0.000401035
0.00385764
0.00108722
-0.000523834
-0.0050481
0.00483963
0.00909671
-0.00199743
-0.0107203
-0.0207224
-0.00868415
-0.00144035
-0.00658026
-0.00230925
-0.0104465
-0.0208792
0.00883373
0.00200245
-0.0266742
-0.0267429
-0.0116485
0.00144919
-0.0227886
0.00230884
-0.024953
-0.0266591
0.00907232
-0.0107359
-0.020644
-0.0086369
-0.00660463
-0.010442
-0.0207852
0.00502691
0.000198242
-0.00164703
-0.0143087
-0.0060819
0.00167513
0.00285865
-9.37694e-05
-0.00197668
-0.0144688
0.00526484
-0.000177312
-0.0121647
-0.0193961
-0.00524932
-0.00166447
-0.00890712
9.95197e-05
-0.0108781
-0.0195137
0.00502041
-0.00166815
-0.0142717
-0.00605219
0.0028126
-0.0019832
-0.0144193
-0.000202737
0.00160444
-0.00305978
0.000220338
0.00243783
0.00144157
-0.00320901
0.00147664
-0.00158795
-0.0104452
-0.00252938
-0.00242937
-0.00142979
-0.0105313
-0.000181493
-0.00308067
0.000211955
-0.00320869
-0.0189829
-0.000569267
-0.00133216
-0.0196045
0.00222448
-0.00160774
0.0026995
-0.0068244
-0.0154827
-0.0257216
0.000570152
-0.00207597
-0.0226552
-0.002216
0.0013769
-0.00268883
0.00311584
-0.0203776
-0.0188895
-0.00132867
-0.0195065
-0.00160083
-0.00680435
-0.015391
-0.0144384
-0.000649437
-0.000716514
-0.0145845
0.00149282
-0.00295596
0.000240915
-0.00762103
-0.0140284
-0.0215947
0.0006504
-0.00129505
-0.0179125
-0.00148738
0.000675194
-0.000236806
0.00395337
-0.0182717
-0.0143895
-0.000711164
-0.0145379
-0.00294172
-0.00760324
-0.0139759
-0.00403445
0.000105762
-0.00661561
-0.00037623
-0.00205038
-0.0121858
-0.0116182
-0.000102709
-0.0116928
0.000373566
0.00204879
-0.0118375
-0.00402571
-0.00659578
-0.0121503
0.0194318
0.00268063
-0.00677187
-0.0153403
0.0188293
0.00222086
-0.0016201
-0.000541932
-0.00135454
0.0224917
-0.00267112
0.00306025
-0.0201992
0.0255516
-0.00221252
0.00137397
0.000544039
-0.0022773
0.019352
-0.00676071
-0.0152625
0.0187499
-0.00161173
-0.00135261
0.0144732
0.000239697
-0.00755863
-0.013926
0.0143264
0.00149836
-0.00297353
-0.000597567
-0.000742756
0.0177783
-0.000232128
0.00388757
-0.0181328
0.0214801
-0.00149149
0.000662482
0.000605969
-0.00139681
0.0144356
-0.00754858
-0.0138799
0.0142894
-0.00295842
-0.00073144
0.00657698
-0.00203401
-0.0121014
0.00393877
-0.00033723
0.000132588
0.0115953
0.00203472
-0.0117756
0.0115823
0.000338686
-0.000127105
0.00656279
-0.0120766
0.00394167
0.00671323
0.00222669
-0.00893835
0.0103634
0.00198323
-0.0056319
0.00229857
-0.00727445
0.00944522
-0.00221289
-0.00500534
0.0152606
-0.00197112
-0.00186045
-0.00228622
-0.00035306
0.00665857
-0.00887073
0.010294
-0.00560585
-0.00725425
0.00500593
0.00192659
-0.0158696
0.00929637
0.001797
-0.0117182
0.00125843
-0.0131617
0.00709484
-0.00191587
-0.00825751
0.013399
-0.00178889
-0.00457832
-0.00124807
-0.00257977
0.00497392
-0.01576
0.00925857
-0.0116787
-0.0131233
0.00605016
0.00412108
-0.02604
0.00658638
0.00206183
-0.0143154
0.000887348
-0.0195635
0.00774645
-0.00410175
-0.00778122
0.0123941
-0.00206168
-0.00510234
-0.000885618
-0.000187784
0.00600767
-0.0258692
0.00656391
-0.0142965
-0.0195214
-0.00731173
0.0131385
-0.0318657
-0.00123659
0.0110648
-0.0314542
0.0107928
-0.0315911
0.00176407
-0.0131386
0.0167276
-0.00234208
-0.0111023
0.0211669
-0.0108155
0.0190742
-0.00722818
-0.0317782
-0.00120072
-0.0314247
-0.031536
0.000169995
0.00558461
-0.0376208
0.0007202
0.00567181
-0.0376767
0.00630174
-0.0371731
-0.00297559
-0.00562506
0.0309141
-0.00194822
-0.0057122
0.0315254
-0.00633669
0.029766
0.000192398
-0.037596
0.000715988
-0.0376608
-0.0371569
-0.000103976
0.017674
-0.000266227
0.0176539
0.0176513
-0.000447654
-0.0176857
0.000205832
-0.0176653
-0.0176625
-9.89457e-05
-0.000263981
-0.0104531
0.00231006
-0.00733759
-0.00677176
0.00199128
-0.00566822
0.0022467
-0.00901645
-0.0154036
-0.00229683
-0.000367078
-0.00954341
-0.00197867
-0.00189249
-0.00223203
-0.00506447
-0.0103782
-0.00730886
-0.0067142
-0.00564149
-0.00894496
-0.00936251
0.00126474
-0.0132668
-0.00504668
0.00181169
-0.0117943
0.00194388
-0.0160054
-0.0135235
-0.00125814
-0.00259233
-0.0071637
-0.0018038
-0.00463628
-0.00193251
-0.00835133
-0.0093236
-0.0132188
-0.00501292
-0.0117551
-0.0158895
-0.00663084
0.000885969
-0.0197066
-0.00609799
0.00207985
-0.0144061
0.00415082
-0.0262535
-0.0125171
-0.000886418
-0.000139421
-0.00782285
-0.00207918
-0.00517096
-0.00412928
-0.0078937
-0.00660707
-0.0196481
-0.0060531
-0.0143878
-0.0260713
0.00124394
0.0108149
-0.0317645
0.00736737
0.0110997
-0.0316282
0.0132022
-0.0320873
0.0023728
-0.0108371
0.0191348
-0.00176387
-0.0111352
0.0211954
-0.0131984
0.0167377
0.00121454
-0.031698
0.00728758
-0.0315944
-0.0319806
-0.000712256
0.00628266
-0.0373352
-0.000149149
0.00564771
-0.0378394
0.00555517
-0.037792
0.00202892
-0.00632534
0.0297155
0.00308638
-0.0056968
0.0314841
-0.00560642
0.0309874
-0.00070849
-0.0373149
-0.000180132
-0.0378197
-0.0377673
0.000267015
0.0176027
0.000104896
0.0176056
0.017619
-0.000239859
-0.0176153
0.000367859
-0.0176183
-0.017632
0.000266171
0.000102435
)
;

boundaryField
{
    fuel
    {
        type            calculated;
        value           nonuniform List<scalar> 
36
(
0.000127907
0.000212892
0.000127908
0.000127908
0.000212892
0.000127907
0.000127907
0.000212892
0.000127908
-0.000127907
-0.000212892
-0.000127908
-0.000127908
-0.000212891
-0.000127907
-0.000127907
-0.000212892
-0.000127908
0
0
0
0
0
0
0
0
0
0
0
0
0
0
0
0
0
0
)
;
    }
    primary_air
    {
        type            calculated;
        value           nonuniform List<scalar> 9(-0.0031829 -0.00528407 -0.00318282 -0.00318346 -0.00528628 -0.00318349 -0.00318302 -0.00528622 -0.00318303);
    }
    Secondary_air_RHS
    {
        type            calculated;
        value           nonuniform List<scalar> 9(0.0140222 0.022807 0.0140336 0.0137152 0.0220026 0.0137258 0.0141381 0.0225388 0.0141454);
    }
    Secondary_air_LHS
    {
        type            calculated;
        value           nonuniform List<scalar> 9(0.0138383 0.022754 0.0138214 0.0135463 0.021979 0.0135302 0.0140053 0.0225512 0.0139927);
    }
    outlet
    {
        type            calculated;
        value           nonuniform List<scalar> 
18
(
-0.0552051
0.0651734
-0.0551966
-0.055283
0.0661004
-0.0552745
-0.0553062
0.0666062
-0.0552971
-0.0551908
0.0667214
-0.0551827
-0.0551684
0.0661902
-0.0551611
-0.0550906
0.0652856
-0.0550835
)
;
    }
    stove_body
    {
        type            calculated;
        value           uniform 0;
    }
    frontAndBack
    {
        type            empty;
        value           nonuniform 0();
    }
}


// ************************************************************************* //
