/*--------------------------------*- C++ -*----------------------------------*\
  =========                 |
  \\      /  F ield         | OpenFOAM: The Open Source CFD Toolbox
   \\    /   O peration     | Website:  https://openfoam.org
    \\  /    A nd           | Version:  6
     \\/     M anipulation  |
\*---------------------------------------------------------------------------*/
FoamFile
{
    version     2.0;
    format      ascii;
    class       surfaceScalarField;
    location    "1.5";
    object      phi;
}
// * * * * * * * * * * * * * * * * * * * * * * * * * * * * * * * * * * * * * //

dimensions      [1 0 -1 0 0 0 0];

internalField   nonuniform List<scalar> 
675
(
1.38445e-06
-0.000214785
0.000332334
-1.09192e-06
-0.000218504
0.000339866
-0.000213845
0.000331692
5.79829e-06
0.000214785
-0.000241258
-9.48973e-06
0.000218503
-0.000227714
0.000213845
-0.000242925
1.38351e-06
0.00033235
-1.0917e-06
0.000339889
0.000331715
1.42308e-06
1.40268e-05
0.000316878
-8.70366e-07
1.86752e-05
0.000323438
1.47805e-05
0.000316044
-3.26887e-06
-1.40274e-05
-0.000209723
2.30114e-06
-1.86757e-05
-0.000196202
-1.4781e-05
-0.000210871
1.42349e-06
0.000316891
-8.69884e-07
0.000323453
0.000316058
1.74075e-07
0.00019771
1.27318e-06
0.000203297
0.000198332
-8.06165e-06
-0.000197714
8.00463e-06
-0.0002033
-0.000198337
1.75651e-07
1.27457e-06
-0.00586357
0.00589595
0.00317455
0.00610946
0.00312265
-0.0118876
0.00596546
0.00335185
0.00175313
-0.00596922
0.0153544
-0.00174115
-0.00312406
0.0149835
-0.00589266
0.0153609
-0.00609367
0.00333122
0.00587722
-0.0118874
0.00319171
-0.00144984
0.00813754
-0.00351224
0.000312089
0.00288672
-0.0165362
0.00860966
-0.00494652
-0.000636823
-0.00860037
0.0327309
0.000607286
-0.00288838
0.0195144
-0.0081483
0.032725
-0.000352182
-0.00491557
0.00140848
-0.0165363
-0.00354844
0.00697865
0.0123505
-0.0228413
0.0008292
0.00528905
-0.0156539
0.0151924
-0.019311
-0.0319657
-0.0151942
0.0922366
0.0319507
-0.0053027
-0.0338112
-0.0123438
0.0922132
-0.000837267
-0.0192708
-0.00698871
-0.0157115
-0.022881
-0.00120965
-0.00649404
-0.0199273
0.0276287
0.00519448
0.00759004
-0.0263576
0.0123713
-0.00551508
-0.0132516
0.0239621
0.0190885
0.00550814
0.0402869
-0.0713781
-0.0190692
-0.00758398
0.00428836
0.0490405
0.00650544
0.0402751
-0.0713589
-0.00519187
-0.0132291
0.0239258
0.00121825
-0.0263654
0.0123605
-0.0199415
0.0276636
0.00238264
-0.00475592
-0.0175541
0.000257784
-0.00162919
-0.0226001
-0.00185323
-0.0111337
0.00857894
0.00184899
0.0250995
-0.00856956
0.00162703
0.0181829
0.00476132
0.0250973
-0.000251813
-0.0111325
-0.00238212
-0.0226089
-0.0175605
-0.00283275
-0.000325545
-0.0143992
-0.00729081
-0.00125312
-0.0168895
-0.00295949
-0.0154625
-0.0101508
0.00295648
0.031961
0.0101407
0.00125393
-0.00461607
0.000326089
0.0319598
0.00728973
-0.0154713
0.00282822
-0.0168939
-0.0144002
0.000839444
-0.00271795
-0.024159
-0.000164334
-0.00181426
-0.0128318
-0.0017853
-0.0208849
-0.0027731
0.00179284
0.0853609
0.0027736
0.0018836
-0.0430543
0.00271077
0.0853462
0.000167211
-0.0208411
-0.000832382
-0.0128307
-0.0242007
0.000370981
-0.0014402
-0.0262847
0.000140763
-0.0012687
-0.0113321
-0.00111623
-0.0228223
-0.00138791
0.00112065
0.0790564
0.0013893
0.00131548
-0.0484124
0.001436
0.0790447
-0.000135969
-0.0227789
-0.000362787
-0.0112879
-0.0263245
0.00031907
-0.00217028
0.000144149
0.00121625
-0.00191045
-0.00154362
0.00190701
0.00154464
-0.0012464
0.0021734
-0.000140136
-0.000316579
0.00256197
-0.00251075
-0.00392393
-0.0105273
-0.00586412
-0.00108118
-0.00738356
-0.00381786
-0.00501967
-0.0124907
-0.00154293
0.00381642
0.0162802
0.010895
0.00154321
0.00108011
-0.00986445
0.00251032
0.0162777
0.0108976
0.00586448
-0.00502552
-0.0124942
-0.00256275
-0.00738649
-0.00392492
-0.0105256
0.00296878
0.000440501
0.000894837
-0.00822904
-0.0046137
0.00124236
-0.00104509
-0.000211192
0.000437338
-0.0098618
-0.000847004
0.00020984
0.00487783
0.0124785
0.000848163
-0.00124391
-0.00907455
-0.000441211
0.00487561
0.0124805
0.00461409
0.000434627
-0.00986456
-0.00296952
-0.00104658
0.000894496
-0.00822768
0.00120543
0.00211123
-0.00242292
-0.00243063
0.00258917
0.00182796
-0.00382373
0.00194892
-0.00182894
0.00686762
-0.001947
-0.0025907
-0.00211295
0.00686969
0.00243148
-0.00382577
-0.00120552
-0.00242136
-0.0120181
-0.00167967
0.00120526
-0.0123816
-0.000869305
0.00123069
-0.00101016
0.0013609
-0.0127342
0.00689751
0.00124035
0.00107986
0.00640264
0.000718782
-0.0010935
0.000947287
0.000627941
0.00381675
-0.0103922
0.00110843
-0.0107967
0.00112448
0.00134643
-0.0111951
-0.00952896
-0.00195173
0.00282212
-0.00968833
-0.000608578
0.0019962
-0.000303075
0.000776864
-0.0088031
0.0111388
0.00134412
-0.000874427
0.0104252
0.000500079
-0.00148887
0.000523505
0.00256845
0.00765748
-0.00822619
0.00245265
-0.00846871
0.00186854
0.00145782
-0.00805578
-0.00129315
0.000289639
-0.000148752
0.000849669
0.00082062
-0.00019399
0.00680427
-0.000519523
0.00703448
-0.000869737
-0.000531949
0.010955
-0.000486683
0.000513456
0.00143998
0.0107995
-0.000947859
0.00134641
-0.0111973
0.0103953
-0.000719471
0.00112459
-0.00124045
0.00110896
-0.00639971
0.00100949
0.000628607
0.00381508
-0.00689375
0.000868754
-0.00109315
0.00168013
0.0010807
0.0123796
0.00136123
-0.012731
0.0120182
0.00123055
0.00120457
0.00847122
-0.000524358
0.00145821
-0.00805761
0.00822884
-0.000500863
0.00186885
-0.00134358
0.0024527
-0.0104248
0.000301992
0.00257006
0.00765855
-0.0111371
0.000607628
-0.00148835
0.00195211
-0.00087339
0.00968546
0.000776817
-0.00879845
0.00952898
0.00199535
0.00282164
-0.000511185
0.000532037
0.00143845
0.00048908
0.0008695
0.000519233
-0.00703448
-0.000819227
0.0109574
-0.00680334
-0.000849105
-0.000289657
0.00014617
-0.000187753
0.00129325
0.00694297
0.000283705
-0.00722597
0.0114039
-0.00125332
-0.003207
-2.59456e-05
0.000233337
0.00429048
-0.000277189
-0.00372892
-0.000744904
0.00103821
0.0027448
-2.27438e-06
0.0030478
0.00780441
-0.0080807
0.0127851
-0.00394193
5.2331e-05
0.00496594
0.000266758
-0.0124597
0.00814024
-0.000602867
-0.00577748
0.0004059
-8.9027e-05
0.00327502
-0.000324541
-0.00641173
-0.0039522
0.000619396
0.00875103
-0.00046936
0.00763078
0.00534213
-0.0137489
0.00851921
-0.00649897
-0.000695632
0.00501687
0.00232074
-0.0198018
0.00409397
-0.000847976
-0.00400656
-0.000399398
0.00584346
0.000712665
-0.00258747
-0.00221592
-0.00682616
0.00133107
0.0141121
-2.74861e-05
0.0113914
0.00488504
-0.0212264
0.00539866
-0.00568182
0.00448817
0.0045174
0.00665249
-0.0309857
0.00540217
0.00315494
-0.00804585
0.00240975
0.00883652
0.0112194
-0.00750935
0.000734519
0.012874
-0.00347353
0.0190956
-0.00331143
0.0299977
0.00327757
-0.0320343
0.00604417
-0.0119236
0.00721841
-0.012397
0.0105184
-0.0290846
-0.0115503
0.00712942
-0.0160223
0.00662514
-0.00933925
-7.84412e-05
-0.0102838
0.0215973
-0.00343136
-0.00656434
0.0361226
-0.00629093
0.0394618
-0.0128036
-0.0294824
-0.012449
-0.0188382
-0.011517
-0.00864579
0.0223198
-0.00647846
0.0214927
0.0230297
-0.00767921
-0.0217302
-0.00774436
-0.0206232
-0.0218469
-0.00762477
-0.0063575
-0.0127888
2.77348e-06
5.1069e-05
-0.00780657
-0.00103804
-0.00394468
0.000278871
-0.0080864
0.000745647
2.63371e-05
0.00304696
-0.00429116
0.00125399
0.00274419
-0.000282859
-0.00372993
-0.0114022
0.000233522
-0.00694187
-0.00320642
-0.00722473
-0.00852454
0.000470289
-0.000698609
-0.00534634
-0.000618711
-0.00650439
0.000327465
-0.0137565
0.00395154
-0.000405645
0.00762827
-0.00327735
0.000603278
0.00875061
-0.000266887
-0.00641319
-0.00813882
-8.88857e-05
-0.00496532
-0.00577677
-0.0124595
-0.00540449
2.86168e-05
0.00448297
-0.0048899
-0.00132986
-0.00568816
0.0025879
-0.0212275
0.00682315
0.000399686
0.0113887
-0.000714835
0.000848108
0.0141105
-0.00232131
-0.00221874
-0.00409316
0.00584398
-0.00501697
-0.00400581
-0.0198028
-0.00605261
0.00332094
0.00722736
-0.00330144
0.00348255
-0.0119131
0.00751656
-0.0320208
-0.0128753
-0.00240645
0.029994
-0.0112196
-0.00315252
0.0190915
-0.00665065
0.000730518
-0.00540391
0.00883025
-0.00451832
-0.00805219
-0.0309912
0.012467
0.00626925
-0.011523
0.0128441
0.00654112
-0.0188429
0.0102711
-0.0294881
0.00343084
-0.00662943
0.0394616
7.42547e-05
-0.00713275
0.0361223
-0.0105204
0.0215962
0.011552
-0.00933795
0.0123989
-0.016021
-0.0290811
0.00635789
0.0218446
0.00762764
0.0206206
0.0217352
0.00774
-0.0230267
0.0076712
-0.0214897
-0.0223167
0.0064781
0.00864473
)
;

boundaryField
{
    fuel
    {
        type            calculated;
        value           nonuniform List<scalar> 
36
(
0.00011893
0.000193864
0.00011893
0.00011893
0.000193863
0.00011893
0.00011893
0.000193864
0.00011893
-0.000118931
-0.000193863
-0.000118931
-0.000118931
-0.000193862
-0.000118931
-0.000118931
-0.000193863
-0.000118931
0
0
0
0
0
0
0
0
0
0
0
0
0
0
0
0
0
0
)
;
    }
    primary_air
    {
        type            calculated;
        value           nonuniform List<scalar> 9(-0.00320712 -0.00524324 -0.00320745 -0.00320795 -0.00524267 -0.00320795 -0.00320744 -0.00524322 -0.00320711);
    }
    Secondary_air_RHS
    {
        type            calculated;
        value           nonuniform List<scalar> 9(0.00319587 0.00514242 0.00319738 0.00319472 0.00513555 0.00319639 0.0031945 0.00514202 0.00319593);
    }
    Secondary_air_LHS
    {
        type            calculated;
        value           nonuniform List<scalar> 9(0.0031974 0.00514237 0.00319589 0.00319643 0.0051355 0.00319474 0.00319598 0.00514198 0.00319451);
    }
    outlet
    {
        type            calculated;
        value           nonuniform List<scalar> 
18
(
-0.0397221
0.0765934
-0.0388451
-0.0407297
0.0783019
-0.0396799
-0.0435921
0.0733203
-0.0427558
-0.0427572
0.0733222
-0.0435872
-0.0396813
0.0783014
-0.0407286
-0.0388466
0.0765927
-0.0397214
)
;
    }
    stove_body
    {
        type            calculated;
        value           uniform 0;
    }
    frontAndBack
    {
        type            empty;
        value           nonuniform 0();
    }
}


// ************************************************************************* //
