/*--------------------------------*- C++ -*----------------------------------*\
  =========                 |
  \\      /  F ield         | OpenFOAM: The Open Source CFD Toolbox
   \\    /   O peration     | Website:  https://openfoam.org
    \\  /    A nd           | Version:  6
     \\/     M anipulation  |
\*---------------------------------------------------------------------------*/
FoamFile
{
    version     2.0;
    format      ascii;
    class       volScalarField;
    location    "1.5";
    object      T;
}
// * * * * * * * * * * * * * * * * * * * * * * * * * * * * * * * * * * * * * //

dimensions      [0 0 0 1 0 0 0];

internalField   nonuniform List<scalar> 
297
(
293.065
292.62
293.031
301.511
300.535
301.463
293.065
292.62
293.031
293.154
292.685
293.12
312.947
310.765
312.747
293.154
292.685
293.12
296.687
295.883
296.642
314.343
312.189
314.163
296.687
295.883
296.642
293.284
295.86
293.316
294.907
295.954
294.899
293.314
295.858
293.284
297.167
297.601
298.034
297.605
296.964
297.615
298.03
297.599
297.172
299.978
297.615
300.907
300.124
300.924
300.126
300.91
297.611
299.982
296.549
295.775
296.854
303.186
302.68
303.19
296.852
295.774
296.551
295.625
295.615
296.416
303.169
303.127
303.173
296.414
295.614
295.628
295.033
295.387
295.714
302.97
302.399
302.972
295.715
295.388
295.035
300.42
297.041
301.399
301.138
301.957
301.138
301.404
297.033
300.422
299.372
296.544
299.551
301.429
301.984
301.429
299.987
296.541
299.064
298.749
295.922
299.115
302.366
302.051
302.358
299.114
295.917
298.75
295.209
295.349
295.544
302.711
299.626
302.711
295.546
295.351
295.208
294.615
294.875
294.902
302.46
299.629
302.459
294.905
294.877
294.615
294.659
294.766
294.821
300.777
299.784
300.775
294.824
294.768
294.658
294.851
294.056
293.743
302.697
302.716
302.716
294.573
293.845
293.549
295.06
294.081
293.766
302.357
302.013
302.114
294.758
293.876
293.605
294.81
294.16
293.902
300.593
300.065
300.09
294.644
293.977
293.769
293.553
293.85
294.577
302.717
302.718
302.698
293.738
294.053
294.851
293.607
293.881
294.762
302.116
302.015
302.359
293.762
294.08
295.061
293.773
293.981
294.647
300.092
300.068
300.596
293.899
294.159
294.812
293.466
293.783
293.287
298.097
298.792
302.724
293.959
294.133
293.569
293.232
293.666
293.387
298.129
299.82
302.326
293.743
294.044
293.705
292.686
293.676
294.022
298.108
300.162
300.944
293.159
294.063
293.788
292.442
293.157
292.068
298.215
298.35
298.348
292.918
293.257
291.875
291.455
292.691
292.954
297.941
296.425
295.824
291.76
292.672
293.031
287.931
287.306
287.282
285.034
282.622
283.263
288.101
287.503
287.493
293.576
294.141
293.961
302.724
298.793
298.097
293.284
293.782
293.466
293.71
294.045
293.742
302.326
299.821
298.129
293.386
293.665
293.23
293.793
294.067
293.253
300.944
300.162
298.107
294.02
293.672
292.672
291.885
293.265
292.97
298.352
298.354
298.217
292.069
293.158
292.434
293.011
292.655
291.685
295.819
296.42
297.938
292.957
292.693
291.467
287.493
287.503
288.1
283.267
282.626
285.038
287.285
287.309
287.933
)
;

boundaryField
{
    fuel
    {
        type            fixedValue;
        value           uniform 293;
    }
    primary_air
    {
        type            fixedValue;
        value           uniform 293;
    }
    Secondary_air_RHS
    {
        type            fixedValue;
        value           uniform 293;
    }
    Secondary_air_LHS
    {
        type            fixedValue;
        value           uniform 293;
    }
    outlet
    {
        type            inletOutlet;
        inletValue      uniform 293;
        value           nonuniform List<scalar> 
18
(
293
283.267
293
293
282.626
293
293
285.038
293
293
285.034
293
293
282.621
293
293
283.263
293
)
;
    }
    stove_body
    {
        type            fixedValue;
        value           uniform 293;
    }
    frontAndBack
    {
        type            empty;
    }
}


// ************************************************************************* //
