/*--------------------------------*- C++ -*----------------------------------*\
  =========                 |
  \\      /  F ield         | OpenFOAM: The Open Source CFD Toolbox
   \\    /   O peration     | Website:  https://openfoam.org
    \\  /    A nd           | Version:  6
     \\/     M anipulation  |
\*---------------------------------------------------------------------------*/
FoamFile
{
    version     2.0;
    format      ascii;
    class       surfaceScalarField;
    location    "1.5";
    object      phi;
}
// * * * * * * * * * * * * * * * * * * * * * * * * * * * * * * * * * * * * * //

dimensions      [1 0 -1 0 0 0 0];

internalField   nonuniform List<scalar> 
675
(
1.08066e-05
-3.48898e-05
0.000142534
-1.08718e-05
5.74106e-06
0.000134388
-3.4855e-05
0.00014243
-1.78744e-05
3.48824e-05
0.000144269
1.80701e-05
-5.74421e-06
0.000171732
3.48503e-05
0.000144531
1.08094e-05
0.000142523
-1.08692e-05
0.000134385
0.000142428
6.65326e-06
-5.79359e-05
0.000194159
-6.77696e-06
5.12095e-06
0.000143033
-5.76806e-05
0.000193673
-2.99503e-05
5.79053e-05
5.77289e-05
3.02031e-05
-5.12405e-06
0.000121206
5.76799e-05
5.87236e-05
6.661e-06
0.00019411
-6.77259e-06
0.000143031
0.000193675
3.7112e-06
7.27174e-05
-4.77368e-06
3.37406e-05
7.11621e-05
5.36724e-06
-7.26342e-05
-3.37035e-06
-3.37438e-05
-7.11926e-05
3.74499e-06
-4.74567e-06
0.00327965
0.00389896
-0.00397206
-0.00298837
0.00521191
0.00425781
0.00374225
-0.00352377
0.00538788
-0.003898
0.00773722
-0.00523777
-0.0052123
0.026367
-0.00373483
0.00756974
0.00329604
-0.00398751
-0.00296557
0.00425091
-0.00349364
0.00873628
0.00834324
-0.021053
-0.00824957
-0.00483501
0.0260771
0.00798176
-0.0197563
0.0028126
-0.00836372
0.021629
-0.0035682
0.00483201
0.0230759
-0.00794654
0.0199278
0.00871267
-0.0210654
-0.00824884
0.0260429
-0.0196902
0.000387296
0.0176234
-0.0390648
-0.000676569
-0.00713921
0.0342787
0.0174959
-0.0379297
-0.0431937
-0.0176258
0.100069
0.0432836
0.00713655
-0.0776833
-0.0174614
0.0981663
0.000418644
-0.039111
-0.000649334
0.0342458
-0.037802
-0.024477
-0.0223037
-0.0184764
0.0652557
0.0241185
0.00878831
-0.0316174
-0.0257682
-0.0231373
-0.0173742
0.0646286
-0.00226697
0.0223151
0.0177976
-0.060151
0.00432872
-0.00878227
-0.0904223
0.101392
0.0231134
0.0179165
-0.0598399
-0.0244962
-0.0184716
0.0652812
0.0240677
-0.0316068
-0.0257415
-0.017327
0.0645065
0.00541705
-0.00774411
-0.0161529
-0.00898484
0.0117752
-0.0289967
-0.0109544
-0.0154084
0.0179595
0.00773017
-0.0156389
-0.0109364
-0.0117826
-0.0379741
0.0109391
-0.0149162
0.00541227
-0.0161584
-0.00900022
-0.0289846
-0.0153921
-0.00119326
0.00262538
-0.0176036
-0.0129401
0.000215561
-0.0174817
-0.0102539
-0.0181096
0.0184157
-0.0026333
-0.0287922
0.00953289
-0.000215429
-0.0286662
0.0102515
-0.0259053
-0.00121803
-0.0175974
-0.0129535
-0.0174833
-0.0181066
-0.00162287
-0.000416321
-0.0472985
0.00152945
-0.000123449
0.0312497
-0.000326909
-0.0463838
-0.00285033
0.000417712
0.085263
0.00316989
0.000123744
-0.0839512
0.000328949
0.083964
-0.00162731
-0.0473357
0.00152281
0.0312193
-0.0462601
-0.00150418
0.000207787
-0.0562673
0.00146487
-0.000523017
0.0288036
0.000311223
-0.0555069
-0.00314637
-0.000206768
0.0721675
0.00323471
0.000523251
-0.0913789
-0.000306444
0.0713201
-0.00150625
-0.0562982
0.00146036
0.0287759
-0.0553823
-0.00215635
0.000615932
0.00210479
-0.00122582
0.000705557
-0.00370151
-0.000615038
0.00386018
0.00122557
-0.000705228
-0.00215843
0.00210142
0.00615627
-0.000738492
-0.00890646
-0.0141182
-0.00551934
-0.000693147
-0.00511596
-0.00081463
-0.0086425
-0.014175
0.00621629
0.000738229
-0.0175676
-0.0189142
-0.00824763
0.000692487
-0.0155887
0.00081482
-0.0168399
-0.0189453
0.00615527
-0.00890368
-0.0141133
-0.00552269
-0.00511521
-0.0086378
-0.0141784
0.00272885
0.000226195
-0.00218612
-0.00967875
-0.0033208
0.000485667
0.000445215
0.000140914
-0.00245296
-0.00965473
0.00441923
-0.000226046
-0.00713186
-0.0144001
-0.00426966
-0.000486835
-0.00592765
-0.000142042
-0.00632591
-0.0145035
0.00273184
-0.00218533
-0.00967849
-0.00331989
0.00044774
-0.0024455
-0.00965583
0.000311458
0.000176051
-0.00267722
-6.34855e-06
0.000760369
0.000234031
-0.00269711
0.00169158
-0.000176021
-0.00846986
-0.00271472
-0.000760812
-0.000235088
-0.00857436
0.000309178
-0.00267294
-5.58756e-06
-0.00268788
-0.0129203
-5.95741e-05
-0.00119675
-0.0132517
0.00159995
-0.00126915
0.00195052
-0.00480988
-0.0103918
-0.0179287
6.03595e-05
-0.0011373
-0.0159366
-0.00160007
0.0012086
-0.00195262
0.00198255
-0.014014
-0.012922
-0.00119706
-0.0132514
-0.00127089
-0.00482289
-0.0103805
-0.0100967
-9.64636e-05
-0.000659736
-0.0101906
0.00104042
-0.00221639
0.000463631
-0.00540621
-0.0100577
-0.0155131
9.71181e-05
-0.000322016
-0.013133
-0.00103962
0.000909255
-0.000459433
0.00285693
-0.0130823
-0.0100995
-0.00065715
-0.0101956
-0.00221469
-0.00542268
-0.0100549
-0.00323279
-0.000125487
-0.00489308
-0.000556828
-0.00114678
-0.00915312
-0.00914904
0.000126581
-0.00935381
0.000557765
0.00114812
-0.00878977
-0.00321923
-0.00487645
-0.00915134
0.0131658
0.00191511
-0.00470303
-0.0103772
0.0128431
0.0015832
-0.00126099
-5.69018e-05
-0.00121968
0.0158437
-0.00191574
0.00191415
-0.0139255
0.017809
-0.00158339
0.0012021
5.69279e-05
-0.00121806
0.0131597
-0.00470452
-0.0103701
0.0128371
-0.00126145
-0.00122048
0.0101152
0.000480597
-0.00530985
-0.00998892
0.0100567
0.00103251
-0.00223572
-9.40993e-05
-0.000748771
0.0130711
-0.000479038
0.00280974
-0.0130052
0.0154379
-0.00103254
0.000900982
9.43326e-05
-0.000367663
0.0101151
-0.00531028
-0.00998829
0.0100568
-0.00223635
-0.000748658
0.00498951
-0.00112886
-0.00917134
0.00329702
-0.000544004
-0.000129754
0.00928323
0.00112902
-0.00872943
0.00909635
0.000544301
0.000130021
0.00498462
-0.00916662
0.00329199
0.00444659
0.00171109
-0.00615639
0.00708024
0.00162084
-0.00425367
0.00166748
-0.00496365
0.00633489
-0.0017108
-0.00291183
0.0102384
-0.00162059
-0.00066127
-0.00166737
-0.00035132
0.00444231
-0.00615203
0.00707392
-0.00425142
-0.00496287
0.00364674
0.00149427
-0.0112962
0.00692012
0.00146783
-0.00899406
0.00114388
-0.00917584
0.00468459
-0.00149436
-0.00460607
0.00934038
-0.00146696
-0.00238082
-0.00114207
-0.00172881
0.00364602
-0.0112915
0.0069193
-0.00899104
-0.00917358
0.00474629
0.00294792
-0.0189895
0.00528812
0.00169109
-0.0112262
0.000936826
-0.0139957
0.00520017
-0.00294931
-0.00390697
0.00873328
-0.00168389
-0.00253693
-0.000931395
0.000145126
0.00474407
-0.0189841
0.00528963
-0.0112199
-0.0139819
-0.00591591
0.0116504
-0.0247188
-0.00202014
0.0102226
-0.0253414
0.00946084
-0.025475
0.00139804
-0.0116541
0.0180134
-0.000493837
-0.0102294
0.0198223
-0.00946922
0.0185967
-0.00591508
-0.0247157
-0.00202279
-0.0253358
-0.0254698
0.000584098
0.00638202
-0.0316745
0.000990132
0.00636021
-0.032099
0.006912
-0.0313887
-0.0010974
-0.0063855
0.0318985
-0.00100454
-0.00636293
0.0324718
-0.00691472
0.0314378
0.000582887
-0.031674
0.000989246
-0.0320968
-0.0313876
3.69737e-05
0.0191464
-0.000271948
0.0190627
0.0191404
-0.00028846
-0.0191472
-1.70071e-05
-0.0190637
-0.0191412
3.6229e-05
-0.00027186
-0.00704854
0.00169408
-0.00503701
-0.00444302
0.00164491
-0.00425052
0.00172655
-0.00616948
-0.0103068
-0.0016951
-0.000316164
-0.00640978
-0.00164535
-0.000604997
-0.00172656
-0.00295456
-0.00703199
-0.00504344
-0.00443564
-0.00424208
-0.00616251
-0.00693601
0.00112575
-0.0092841
-0.00363424
0.00148011
-0.0090322
0.00151857
-0.011322
-0.00939554
-0.00112115
-0.00175407
-0.0047383
-0.00148067
-0.00229954
-0.00151968
-0.0046524
-0.0069272
-0.00929195
-0.00362682
-0.00902319
-0.011309
-0.00531053
0.000875055
-0.0140013
-0.0047427
0.00163649
-0.011236
0.00302366
-0.0190879
-0.00876258
-0.000876671
-2.73946e-05
-0.00527602
-0.0016411
-0.00250637
-0.00302941
-0.00387293
-0.00530217
-0.0140174
-0.00474503
-0.0112211
-0.0190833
0.0019602
0.009524
-0.0254824
0.00588403
0.0102661
-0.0254236
0.0116395
-0.0248427
0.000536433
-0.00952788
0.0185045
-0.00125588
-0.0102687
0.0198372
-0.0116342
0.0181601
0.00193145
-0.0254749
0.00587268
-0.0254304
-0.0248466
-0.000946768
0.00690791
-0.0314455
-0.000550889
0.00635268
-0.0321736
0.00637289
-0.0317664
0.000936612
-0.00690682
0.0313858
0.00101683
-0.00635178
0.0324648
-0.00637274
0.0319267
-0.000939351
-0.0314443
-0.00054847
-0.0321739
-0.0317667
0.000287181
0.0191271
-2.34863e-05
0.0190495
0.0191273
-2.23799e-05
-0.0191276
0.000244435
-0.0190498
-0.0191277
0.000288218
-2.28848e-05
)
;

boundaryField
{
    fuel
    {
        type            calculated;
        value           nonuniform List<scalar> 
36
(
0.00011812
0.000196824
0.00011812
0.00011812
0.000196824
0.00011812
0.00011812
0.000196824
0.00011812
-0.00011812
-0.000196824
-0.00011812
-0.00011812
-0.000196824
-0.00011812
-0.00011812
-0.000196824
-0.00011812
0
0
0
0
0
0
0
0
0
0
0
0
0
0
0
0
0
0
)
;
    }
    primary_air
    {
        type            calculated;
        value           nonuniform List<scalar> 9(-0.00320925 -0.00533677 -0.00320927 -0.00320579 -0.00533462 -0.00320579 -0.0032089 -0.00533682 -0.00320888);
    }
    Secondary_air_RHS
    {
        type            calculated;
        value           nonuniform List<scalar> 9(0.0103104 0.0167161 0.0103097 0.0102766 0.0164962 0.010276 0.0105208 0.016751 0.0105204);
    }
    Secondary_air_LHS
    {
        type            calculated;
        value           nonuniform List<scalar> 9(0.0102729 0.0168225 0.0102696 0.0102651 0.0166563 0.0102619 0.0105287 0.0169489 0.0105263);
    }
    outlet
    {
        type            calculated;
        value           nonuniform List<scalar> 
18
(
-0.0508555
0.0696679
-0.0508555
-0.0509082
0.0703023
-0.0509082
-0.0509132
0.0704311
-0.0509131
-0.0508541
0.0704869
-0.0508535
-0.0508487
0.070333
-0.0508482
-0.0507967
0.0697085
-0.0507961
)
;
    }
    stove_body
    {
        type            calculated;
        value           uniform 0;
    }
    frontAndBack
    {
        type            empty;
        value           nonuniform 0();
    }
}


// ************************************************************************* //
