/*--------------------------------*- C++ -*----------------------------------*\
  =========                 |
  \\      /  F ield         | OpenFOAM: The Open Source CFD Toolbox
   \\    /   O peration     | Website:  https://openfoam.org
    \\  /    A nd           | Version:  6
     \\/     M anipulation  |
\*---------------------------------------------------------------------------*/
FoamFile
{
    version     2.0;
    format      ascii;
    class       volScalarField;
    location    "1.5";
    object      T;
}
// * * * * * * * * * * * * * * * * * * * * * * * * * * * * * * * * * * * * * //

dimensions      [0 0 0 1 0 0 0];

internalField   nonuniform List<scalar> 
297
(
292.874
292.872
292.874
292.886
292.958
292.887
292.874
292.872
292.874
292.871
292.873
292.873
293.112
293.619
293.124
292.871
292.873
292.873
291.885
292.513
291.955
322.848
366.024
324.562
291.891
292.513
291.955
1988.63
1078.07
2000.71
809.531
476.953
800.226
1991.33
1078.86
2003.96
3197.74
2692.08
3382.59
2718.55
1226.78
2835.66
3197.68
2698.22
3400.33
3199.88
2434.67
3385.49
2176.58
1087.02
2255.45
3199.84
2439.54
3403.27
1936.65
1382.21
2036.01
3397.33
1035.27
3439.5
1937.26
1384.05
2037.25
901.444
549.674
1088.89
2030.19
969.226
2092.73
900.628
549.745
1088.73
301.601
301.732
301.673
301.798
301.601
301.854
301.665
301.732
301.701
3105.96
2377.62
3284.58
2451.4
1033.91
2537.5
3099.65
2382.42
3308.02
2571.25
2363.39
2512.43
2645.88
1033.49
2935.95
2571.67
2368.12
2523.48
2206.57
2331.05
2315.33
3389.65
1034.32
3502.56
2207.17
2335.63
2324.96
301.39
301.977
301.419
301.685
301.972
301.708
301.454
301.966
301.47
301.755
301.899
301.826
301.86
302.011
301.904
301.777
301.91
301.837
301.858
301.825
301.914
302.076
302.053
302.118
301.877
301.838
301.907
301.333
301.38
301.501
301.593
301.617
301.709
301.374
301.423
301.544
301.767
301.684
301.717
301.825
301.829
301.888
301.782
301.699
301.733
301.982
301.916
301.801
302.115
302.102
302.101
301.979
301.915
301.799
301.466
301.338
301.298
301.719
301.631
301.6
301.52
301.405
301.36
301.694
301.66
301.75
301.872
301.813
301.807
301.71
301.676
301.767
301.758
301.878
301.942
302.074
302.077
302.093
301.77
301.89
301.957
301.81
301.798
301.603
302.065
302.006
301.847
301.887
301.869
301.651
301.797
301.796
301.64
302.18
302.109
301.993
301.848
301.826
301.658
301.701
301.651
301.589
302.245
302.154
302.127
301.763
301.673
301.605
301.602
301.515
301.489
302.41
302.115
302.25
301.649
301.517
301.494
298.769
298.659
298.824
300.023
299.923
301.1
298.763
298.659
298.802
292.041
292.054
292.089
288.772
288.816
289.07
292.041
292.054
292.089
301.625
301.832
301.829
301.844
301.995
302.059
301.677
301.901
301.916
301.657
301.81
301.795
302.015
302.13
302.206
301.681
301.852
301.875
301.633
301.675
301.726
302.16
302.187
302.281
301.631
301.693
301.792
301.529
301.552
301.63
302.299
302.158
302.475
301.524
301.551
301.684
298.832
298.693
298.781
301.014
300.029
300.084
298.837
298.668
298.793
292.106
292.072
292.059
289.178
288.873
288.841
292.106
292.072
292.059
)
;

boundaryField
{
    fuel
    {
        type            fixedValue;
        value           uniform 293;
    }
    primary_air
    {
        type            fixedValue;
        value           uniform 293;
    }
    Secondary_air_RHS
    {
        type            fixedValue;
        value           uniform 293;
    }
    Secondary_air_LHS
    {
        type            fixedValue;
        value           uniform 293;
    }
    outlet
    {
        type            inletOutlet;
        inletValue      uniform 293;
        value           nonuniform List<scalar> 
18
(
293
289.178
293
293
288.873
293
293
288.841
293
293
288.772
293
293
288.816
293
293
289.07
293
)
;
    }
    stove_body
    {
        type            fixedValue;
        value           uniform 293;
    }
    frontAndBack
    {
        type            empty;
    }
}


// ************************************************************************* //
