/*--------------------------------*- C++ -*----------------------------------*\
  =========                 |
  \\      /  F ield         | OpenFOAM: The Open Source CFD Toolbox
   \\    /   O peration     | Website:  https://openfoam.org
    \\  /    A nd           | Version:  6
     \\/     M anipulation  |
\*---------------------------------------------------------------------------*/
FoamFile
{
    version     2.0;
    format      ascii;
    class       volScalarField;
    location    "2";
    object      O2;
}
// * * * * * * * * * * * * * * * * * * * * * * * * * * * * * * * * * * * * * //

dimensions      [0 0 0 0 0 0 0];

internalField   nonuniform List<scalar> 
297
(
0
0
0
0
0
0
0
0
0
0
0
0
0
0
0
0
0
0
0
0
0
0
0
0
0
0
0
0.0859763
0.152381
0.0858119
0.18898
0.209068
0.183459
0.0852311
0.152222
0.0863676
0
0.0287825
0
0.0364261
0.148213
0.0351921
0
0.0286647
0
0
0.0303132
0
0.0236791
0.0365714
0.0234691
0
0.0302241
0
0.00476186
0.0130424
0.00464008
0
0.0017813
0
0.0048575
0.0129842
0.00472836
1.57285e-07
1.78429e-07
2.88042e-07
3.34059e-07
1.21759e-07
8.38626e-07
1.59582e-07
1.78175e-07
2.89764e-07
1.83353e-12
4.39807e-12
4.58745e-12
4.61549e-12
3.06649e-12
1.07858e-11
1.86436e-12
4.40219e-12
4.60448e-12
0
0.0302212
0
0
0.00178173
0
0
0.0301319
0
0
0.0299851
0
0
0.00178139
0
0
0.0298961
0
0
0.0291159
0
0
0.00178133
0
0
0.0290289
0
3.46498e-17
2.29319e-16
1.1497e-16
7.59729e-17
6.53493e-17
1.77524e-16
4.85266e-17
2.10444e-16
1.21667e-16
4.00598e-21
6.51806e-20
1.85479e-20
4.98536e-21
1.39747e-20
8.08101e-21
4.05388e-21
5.76325e-20
1.93112e-20
5.2253e-24
3.74124e-20
7.9996e-21
9.44877e-25
9.63305e-22
1.00888e-22
4.77799e-24
3.09463e-20
6.53751e-21
1.72786e-21
4.41125e-26
5.40379e-31
1.95989e-21
2.32982e-26
2.9736e-31
1.8363e-21
4.70863e-26
5.7934e-31
2.85259e-25
1.65644e-29
8.42879e-34
1.79229e-25
8.74391e-28
2.99604e-32
2.9462e-25
1.86185e-29
8.85179e-34
7.40878e-25
4.25172e-29
1.29484e-33
2.3387e-27
3.93654e-29
2.61881e-33
6.05834e-25
3.52851e-29
1.10886e-33
8.52201e-32
7.01923e-27
5.22917e-22
1.12219e-31
9.1755e-27
8.43899e-22
2.45085e-31
9.97826e-27
7.34103e-22
1.14048e-34
2.08292e-30
6.25101e-26
1.15241e-32
3.48895e-28
9.58235e-26
1.8947e-34
4.31587e-30
1.19313e-25
1.8387e-34
1.13861e-30
4.69153e-28
2.10879e-33
1.58425e-29
4.44805e-29
1.99263e-34
1.72067e-30
4.46082e-28
4.51042e-45
1.68901e-40
3.00889e-36
3.20131e-44
2.25083e-40
2.40066e-36
4.09014e-44
5.06494e-40
8.69377e-36
1.74547e-47
2.36274e-43
4.97845e-39
3.55322e-46
5.064e-42
1.90203e-37
9.86386e-47
2.66532e-43
7.29661e-39
2.29192e-47
8.57758e-44
3.48066e-39
1.28196e-46
1.18733e-42
4.52603e-38
8.93731e-47
9.36669e-44
4.07615e-39
3.79648e-47
2.46153e-46
1.30153e-44
7.56519e-47
2.55719e-44
4.41241e-43
8.72158e-47
7.5647e-46
2.60533e-44
1.39852e-50
2.09898e-49
2.05453e-48
1.73767e-45
2.67024e-44
2.70422e-43
1.35823e-50
3.10863e-49
2.02025e-48
2.85657e-51
4.33216e-50
3.95777e-49
8.40017e-46
1.24937e-44
1.16179e-43
4.82661e-51
7.39293e-50
6.68108e-49
1.02482e-35
5.92865e-40
4.76353e-44
6.33441e-36
2.49868e-40
4.69624e-44
2.05306e-35
6.60073e-40
5.38791e-44
3.50987e-38
1.75821e-42
3.16536e-46
4.89711e-37
1.30257e-41
1.31851e-45
3.62935e-38
1.17477e-42
7.77808e-46
2.86854e-38
8.61162e-43
3.06747e-46
5.80156e-38
1.65842e-42
6.77341e-46
2.34427e-38
5.42436e-43
7.40196e-46
1.07053e-43
1.9995e-45
3.12115e-46
7.58642e-43
4.74827e-44
5.97773e-46
1.4965e-43
6.38173e-45
7.27762e-46
2.58925e-48
3.8151e-49
1.93407e-50
4.65793e-43
4.81127e-44
3.39435e-45
3.64899e-48
3.77599e-49
2.74123e-50
6.80389e-49
7.79805e-50
5.55978e-51
1.99735e-43
2.25109e-44
1.63426e-45
1.14816e-48
1.32966e-49
9.38759e-51
)
;

boundaryField
{
    fuel
    {
        type            fixedValue;
        value           uniform 0;
    }
    primary_air
    {
        type            fixedValue;
        value           uniform 0.23;
    }
    Secondary_air_RHS
    {
        type            fixedValue;
        value           uniform 0.23;
    }
    Secondary_air_LHS
    {
        type            fixedValue;
        value           uniform 0.23;
    }
    outlet
    {
        type            inletOutlet;
        inletValue      uniform 0;
        value           nonuniform List<scalar> 
18
(
0
1.99735e-43
0
0
2.25109e-44
0
0
1.63426e-45
0
0
8.40017e-46
0
0
1.24937e-44
0
0
1.16179e-43
0
)
;
    }
    stove_body
    {
        type            fixedValue;
        value           uniform 0;
    }
    frontAndBack
    {
        type            empty;
    }
}


// ************************************************************************* //
