/*--------------------------------*- C++ -*----------------------------------*\
  =========                 |
  \\      /  F ield         | OpenFOAM: The Open Source CFD Toolbox
   \\    /   O peration     | Website:  https://openfoam.org
    \\  /    A nd           | Version:  6
     \\/     M anipulation  |
\*---------------------------------------------------------------------------*/
FoamFile
{
    version     2.0;
    format      ascii;
    class       volScalarField;
    location    "2";
    object      O2;
}
// * * * * * * * * * * * * * * * * * * * * * * * * * * * * * * * * * * * * * //

dimensions      [0 0 0 0 0 0 0];

internalField   nonuniform List<scalar> 
297
(
0
0
0
0
0
0
0
0
0
0
0
0
0
0
0
0
0
0
0
0
0
0
0
0
0
0
0
0.0559184
0.0703127
0.138773
0.149505
0.158546
0.200706
0.0550981
0.0696963
0.139587
0
8.36058e-06
0.0201177
0.0649634
0.116181
0.101219
0
8.25438e-06
0.0204471
0
0
0
0.04321
0.0274658
0.0728709
0
0
0
0
0
0
0
0
0
5.22765e-05
1.223e-09
0
0
0
0
0
0
0
0
0
0
0
0
0
0
0
0
0
0
0
0
0
0
0.00291834
6.82671e-07
0.0315357
0
0
0
0
0
0
0
0
0.00957148
0
0
0
0
0
0
0
0
0
0
0
0
5.5907e-14
0
0
9.63198e-13
0
0
4.08134e-14
0
0
7.44144e-18
2.35464e-17
1.54119e-17
0
0
0
4.91043e-18
6.47308e-17
3.65938e-16
5.15148e-18
2.68359e-17
3.09121e-17
0
0
0
1.01836e-17
1.80653e-17
8.80427e-18
0
7.21025e-23
1.21778e-24
0
0
3.35627e-23
0
0
3.39224e-27
0
0
0
0
0
0
0
0
0
2.0089e-21
8.16645e-22
0
0
0
0
0
4.02174e-24
0
4.18907e-25
8.50012e-22
1.0262e-18
2.96706e-21
9.42922e-20
1.19722e-17
1.88475e-20
2.08601e-20
4.88735e-19
2.87348e-24
1.21484e-22
2.59782e-19
2.32976e-19
3.31525e-18
2.86876e-18
4.82111e-20
1.22807e-19
3.24106e-19
9.9573e-24
1.31213e-22
1.34229e-19
7.85939e-19
1.00324e-18
1.20255e-19
9.56601e-19
1.39848e-18
1.98758e-18
1.00489e-25
1.51217e-25
2.76315e-25
5.16679e-21
4.16998e-21
4.64223e-21
9.52607e-21
2.16119e-20
2.17444e-20
1.43395e-25
4.7566e-25
9.91162e-25
7.01669e-21
5.21733e-21
5.5732e-21
1.46868e-20
3.19848e-20
3.16603e-20
1.52086e-25
6.78366e-25
2.13684e-24
7.48151e-21
1.07905e-19
3.78957e-19
1.84603e-20
3.86372e-20
7.08184e-19
1.87164e-25
8.50421e-25
1.55985e-24
1.58984e-20
9.03611e-20
1.94467e-19
2.05857e-20
8.17857e-20
3.80652e-19
1.2636e-25
4.51906e-25
1.15224e-24
1.24716e-20
5.26982e-20
1.32848e-19
2.45649e-20
9.10947e-20
3.35095e-19
6.8943e-26
1.91388e-25
5.58548e-25
1.24326e-20
5.27623e-20
1.55835e-19
2.02134e-20
8.9721e-20
3.12893e-19
5.98007e-27
6.09145e-27
7.4797e-27
2.1269e-27
1.76472e-27
2.48759e-27
2.17445e-30
2.35424e-32
4.27406e-32
2.0304e-27
2.06169e-27
7.64885e-27
0
2.01955e-27
2.82364e-27
0
0
2.39573e-32
0
0
7.67847e-27
0
0
2.89893e-27
0
0
1.73063e-32
1.13113e-25
1.43394e-26
7.72142e-27
0
0
4.21403e-30
0
0
1.24614e-32
1.10329e-25
3.07749e-26
7.73993e-27
0
0
2.60929e-28
1.23468e-31
5.42031e-32
1.72916e-32
1.05865e-25
3.05145e-26
6.92532e-27
2.54398e-26
9.53746e-27
2.70086e-27
1.43156e-31
5.34836e-32
1.49771e-32
)
;

boundaryField
{
    fuel
    {
        type            fixedValue;
        value           uniform 0;
    }
    primary_air
    {
        type            fixedValue;
        value           uniform 0.23;
    }
    Secondary_air_RHS
    {
        type            fixedValue;
        value           uniform 0.23;
    }
    Secondary_air_LHS
    {
        type            fixedValue;
        value           uniform 0.23;
    }
    outlet
    {
        type            inletOutlet;
        inletValue      uniform 0;
        value           nonuniform List<scalar> 
18
(
0
2.54398e-26
0
0
9.53746e-27
0
0
2.70086e-27
0
0
1.24326e-20
0
0
5.27623e-20
0
0
1.55835e-19
0
)
;
    }
    stove_body
    {
        type            fixedValue;
        value           uniform 0;
    }
    frontAndBack
    {
        type            empty;
    }
}


// ************************************************************************* //
