/*--------------------------------*- C++ -*----------------------------------*\
  =========                 |
  \\      /  F ield         | OpenFOAM: The Open Source CFD Toolbox
   \\    /   O peration     | Website:  https://openfoam.org
    \\  /    A nd           | Version:  6
     \\/     M anipulation  |
\*---------------------------------------------------------------------------*/
FoamFile
{
    version     2.0;
    format      ascii;
    class       volScalarField;
    location    "2";
    object      p;
}
// * * * * * * * * * * * * * * * * * * * * * * * * * * * * * * * * * * * * * //

dimensions      [1 -1 -2 0 0 0 0];

internalField   nonuniform List<scalar> 
297
(
120386
120386
120386
199543
199543
199543
120386
120386
120386
120386
120386
120386
199543
199543
199543
120386
120386
120386
120386
120385
120386
199543
199543
199543
120386
120385
120386
97395.2
97411.1
97404.4
161060
161096
161159
97398.4
97413.2
97404.5
97358.4
97313.3
97309.4
160703
160822
160778
97355.3
97307.8
97305.8
97237.9
97253
96964.8
158674
159923
158725
97220.7
97239.2
96956.8
96286.3
96651.6
96422.2
159809
159489
159598
96306.5
96675.2
96456.1
96801.1
96888.5
96733.7
160648
160397
160500
96801.2
96886.4
96776.4
96959.9
97113.7
96883.7
160718
160629
160571
96967.8
97115.3
96905
95278.4
97337.9
96042.6
152795
158402
155397
95313
97342.3
96031
95022.5
97303.2
95875.9
152226
158329
154873
95063.7
97309.1
95865.5
95017.9
97226.4
95754.3
152789
158431
154930
95062
97233.4
95748
97398.1
97521.6
97385.5
160744
160765
160838
97378
97537.3
97426.5
97472.4
97581.9
97480
160762
160849
160946
97490.1
97588.7
97501.3
97499.9
97574.8
97510.3
160778
160901
160998
97527
97584.8
97532.8
97379.8
97273.6
97122
160786
160729
160551
97681
97598
97790.9
97295
97089
96784.5
160764
160715
160497
97439.9
97338.3
97482.8
97287.6
97042.8
96676.6
160812
160696
160371
97385
97280
97242.7
97782.9
97554.7
97628
160528
160688
160716
97119.4
97259.4
97357
97442.9
97270.7
97384.8
160477
160669
160670
96779.9
97076.3
97291.9
97173.8
97210.9
97322.9
160350
160646
160690
96660.7
97024.1
97283.9
99156
98831.5
98317.2
160552
160435
160384
99311.9
98567.8
97537.3
98762.7
98387.8
97905.7
160064
159859
160026
98366.8
97465.7
96811.4
98197.3
97803.6
97415.2
159296
159096
159382
97237.6
96573.8
96221.4
95658.8
95643.3
95610.8
155007
154917
154752
92881.6
92819.9
92719.8
89861.8
89910.6
89953.7
146766
146744
146684
88704.2
88658.8
88567.2
83842.7
83841.8
83841
134661
134611
134533
86233.9
86391.3
86600
97532.1
98555.2
99289.6
160410
160463
160574
98290.5
98786.4
99095.2
96797.2
97447.3
98350.9
160062
159897
160103
97911.3
98367.2
98727
96202.7
96550.9
97235.1
159421
159156
159364
97459.7
97820.2
98192.3
92779.5
92879.8
92949.2
154884
155068
155162
95727.6
95755.4
95769.4
88736
88820.6
88861.9
146960
147028
147046
90138.6
90097.8
90051
86757.4
86541.5
86382.1
134756
134830
134880
84024.1
84024
84024.1
)
;

boundaryField
{
    fuel
    {
        type            zeroGradient;
    }
    primary_air
    {
        type            zeroGradient;
    }
    Secondary_air_RHS
    {
        type            zeroGradient;
    }
    Secondary_air_LHS
    {
        type            zeroGradient;
    }
    outlet
    {
        type            totalPressure;
        rho             rho;
        psi             none;
        gamma           1;
        p0              uniform 100000;
        value           nonuniform List<scalar> 
18
(
99993
100000
86458.6
93265.3
100000
86397.3
87777.2
100000
86354.8
86162.2
100000
87640.6
86202.9
100000
93203.4
86238
100000
99992.5
)
;
    }
    stove_body
    {
        type            zeroGradient;
    }
    frontAndBack
    {
        type            empty;
    }
}


// ************************************************************************* //
