/*--------------------------------*- C++ -*----------------------------------*\
  =========                 |
  \\      /  F ield         | OpenFOAM: The Open Source CFD Toolbox
   \\    /   O peration     | Website:  https://openfoam.org
    \\  /    A nd           | Version:  6
     \\/     M anipulation  |
\*---------------------------------------------------------------------------*/
FoamFile
{
    version     2.0;
    format      ascii;
    class       surfaceScalarField;
    location    "2";
    object      phi;
}
// * * * * * * * * * * * * * * * * * * * * * * * * * * * * * * * * * * * * * //

dimensions      [1 0 -1 0 0 0 0];

internalField   nonuniform List<scalar> 
675
(
-1.69082e-06
-3.731e-05
0.000166524
6.83274e-07
-3.74361e-05
0.000162588
-3.71077e-05
0.000165315
-2.23225e-06
3.73776e-05
0.000138918
3.73793e-06
3.75017e-05
0.000130468
3.70978e-05
0.000140908
-1.48113e-06
0.000166383
5.03763e-07
0.000163044
0.000165126
1.45829e-06
-5.22012e-05
0.000217314
-2.06554e-06
-6.22433e-05
0.000228392
-5.12093e-05
0.000214508
2.33826e-05
5.24161e-05
1.09867e-05
-1.7162e-05
6.18198e-05
4.69654e-05
5.14283e-05
2.1175e-05
1.65418e-06
0.000217192
-2.25029e-06
0.000228805
0.000214353
-2.1143e-06
9.1992e-05
-1.05243e-06
9.99053e-05
8.60176e-05
-1.6551e-05
-9.18432e-05
1.83558e-05
-0.000100337
-8.58704e-05
-2.08756e-06
-1.04579e-06
0.00759412
0.00550373
-0.00988419
0.00888377
0.00573065
-0.0038101
0.00876769
0.0033123
0.00152511
-0.00560231
0.0148805
-0.00420643
-0.00570185
0.0224655
-0.00877802
0.0186442
0.00774983
-0.0101349
0.00909074
-0.00383294
0.00352662
0.015575
0.00669886
-0.0321678
0.0120414
0.00277003
-0.00305745
0.00853452
0.00683607
0.00574372
-0.0066645
0.0224867
0.00885068
-0.00259309
0.0247135
-0.00838844
0.0444071
0.0158411
-0.0326078
0.0121817
-0.00275924
0.00731261
-0.00666231
0.0235645
-0.0490781
-0.0052771
0.0108996
-0.0153941
0.017038
-0.0155037
-0.0470347
-0.0234039
0.116559
0.0414403
-0.010522
-0.0423275
-0.0167346
0.119599
-0.00673956
-0.04931
-0.00517339
-0.014798
-0.0145941
-0.0169895
-0.0139073
-0.0297257
0.0606381
0.0062162
-0.000134802
-0.0416545
0.0185749
-0.0094101
-0.016188
0.0318206
0.0180604
0.0135169
0.0403134
-0.0857952
-0.00434113
-0.000185606
-0.0303031
0.0527921
0.0098099
0.0632626
-0.0868244
-0.0173913
-0.0297831
0.0608985
0.00553434
-0.0410755
0.0179728
-0.0156372
0.0309887
0.00398975
-0.010001
-0.023735
-0.000264379
-0.00844937
-0.0288944
-0.00646258
-0.00997166
0.0155667
0.00998114
0.00477032
-0.0118113
0.00768909
-0.019048
0.00720255
0.0378023
0.00490891
-0.0246905
-0.000343914
-0.0281251
-0.00877052
-0.00529802
-0.000982113
-0.017449
-0.0152599
-0.00044114
-0.0184545
-0.00923575
-0.0159369
0.0100953
0.000789763
-0.00698384
1.37707e-05
-3.99971e-06
-0.00939392
0.00896589
0.0196118
-0.00583462
-0.01805
-0.0148352
-0.0191872
-0.0146615
-0.00092401
-0.00248746
-0.0519367
-0.00134802
-0.000589684
-0.0143828
-0.00200095
-0.0211698
-0.00316258
0.00248976
0.104693
0.00263943
0.000629796
-0.0493472
0.00196727
0.108053
-0.000936938
-0.0521883
-0.00135534
-0.0137594
-0.0203007
-0.00116356
-0.000692096
-0.0563338
-0.000303846
-6.64088e-06
-0.0152372
-0.000991516
-0.026789
-0.00147877
0.000697865
0.094766
0.002305
5.1812e-05
-0.0531879
0.000974859
0.0982093
-0.0011838
-0.0565839
-0.000317353
-0.0145846
-0.0259493
-0.00192934
-1.83474e-05
-6.37752e-05
0.00147077
-0.00133066
-0.00110212
6.16183e-07
0.0014538
-0.00147812
0.00132098
-0.001963
-6.2798e-05
0.00540506
-0.0030035
-0.00438352
-0.0154739
-0.0061201
-0.000899563
-0.00604004
-0.00293481
-0.0028144
-0.0163523
-0.00255799
0.0022429
-0.00788967
-0.00178889
-0.00293978
0.00157586
-0.0114992
0.00345786
0.0116153
-0.00134714
0.00561176
-0.00478514
-0.0166361
-0.00572897
-0.00627809
-0.00226825
-0.0146841
0.00383305
0.00120628
0.00210575
-0.0115332
-0.00585084
0.00158943
0.00204219
0.000260507
0.00257595
-0.0115022
-0.00148847
-0.002095
-0.00570138
0.00259646
-0.00373512
-0.00127547
-0.00638833
0.000397896
0.00450867
0.00323046
0.00259336
0.00264889
-0.0121185
-0.00680297
0.00182696
0.00199262
-0.0106827
0.000595096
0.00348522
-0.00197407
-0.000934788
0.00355374
0.00237433
-0.000738354
-0.00381103
-0.00317901
0.00477844
-0.00395544
-0.00268127
-0.0018217
0.00475441
-0.00189198
0.0013798
-0.00274856
-0.00257393
-0.0171473
-0.000968933
0.00176574
-0.0170148
-0.00178684
0.00165511
-0.00159679
0.00183967
-0.017258
-0.00588414
0.00246521
0.00109295
-0.00815333
6.84734e-05
0.00040536
-0.00170772
0.00239944
-0.0104467
-0.0140328
0.00181389
-0.0150518
0.00108555
-0.00209295
-0.0146681
-0.0117316
-0.000861478
0.0028589
-0.0117707
-0.00106222
0.00275589
-0.00134644
0.00290748
-0.0114928
0.00353448
0.00163216
-0.00172742
0.000527353
-0.000110235
0.00249447
-0.0013311
0.00740519
-0.00445937
-0.0101263
0.00287949
-0.0100983
0.000945828
-0.00346771
-0.0100549
0.00161368
0.000503327
0.00405899
0.000307482
-0.0013007
0.00826824
0.004056
-0.000528071
0.0077629
-0.000898782
-0.000932015
0.0147708
-0.000226174
-0.000181641
-0.00458186
0.0156544
0.00168218
-0.00223335
-0.0151049
0.0146474
-0.000134356
0.0011404
-0.00258034
0.00175278
0.00835082
0.00165039
0.00235208
-0.0106731
0.00675014
0.00189117
-0.000424913
0.000988146
0.00139202
0.0171509
0.00184048
-0.0173439
0.01731
0.0017298
0.0016622
0.0106973
0.00129603
-0.00384236
-0.0103862
0.0108116
8.60599e-05
0.00093912
-0.00173854
0.00276913
-0.000711268
0.00116132
0.00780051
-0.00460388
-0.00352493
0.000656839
0.00181727
0.000526567
-0.00180017
0.0119189
0.0025695
-0.01149
0.0122397
0.00206161
0.0023071
9.4996e-05
0.000987342
-0.00492669
3.68185e-05
0.000996833
0.000832546
-0.00712314
0.00128138
0.014626
-0.00415131
-0.000153885
-0.000334555
-0.00525291
0.00909857
-0.00335023
0.00657159
0.00311182
-0.00968627
0.0116908
0.00287228
-0.0079942
0.00184006
-0.00525629
0.00924734
-0.0017063
-0.00443246
0.0111269
-0.000130709
0.00112013
-0.000825493
0.00311642
0.0116646
-0.0133734
0.0181295
-0.00659837
-4.2682e-05
0.00507813
0.00205959
-0.0168263
0.00801787
0.00196145
-0.0128976
0.00170495
-0.00933138
0.00791182
-0.00139264
-0.00889501
0.00681424
5.37036e-06
0.00417064
-0.00073637
0.00776529
0.0086348
-0.0234025
0.0129785
-0.010939
0.00070688
0.0062677
0.0046963
-0.0277921
0.00623517
0.00283952
-0.015706
0.00202375
-0.0100479
0.00213617
-0.00433418
-0.00200295
-0.00677237
0.000279997
0.0156362
0.00115187
0.0164891
0.0094365
-0.0371743
0.0023429
-0.00356711
0.0132973
-0.0103352
0.0170472
-0.0344939
-0.00690216
0.014018
-0.0331465
0.0155426
-0.0324819
-0.00345888
-0.00282313
0.0213309
-0.00519903
0.00266597
0.0287326
0.00108618
0.0257493
0.00623999
-0.0462309
0.0170373
-0.0116902
0.0314265
-0.00106372
0.00761882
-0.0410131
-0.000486517
0.00714389
-0.0408273
0.00769673
-0.0406239
0.00456425
-0.00190588
0.0263664
0.00941219
-0.00272294
0.033599
0.000876371
0.0419621
-0.00285966
-0.0452353
0.00255762
-0.0197872
0.0349046
-0.000161888
0.0147198
-0.000150714
0.0146668
0.0146769
-0.000152532
-0.0228301
0.0016536
-0.0221034
-0.0211817
-0.0152941
-0.0163491
-0.0180936
0.000785288
5.10266e-05
-0.0116286
9.47601e-05
-0.00655793
0.00167495
-0.0133021
-0.0109986
-0.00180873
0.00314588
-0.00915328
-0.00282029
0.00107257
-0.00306748
-0.00440706
-0.0114914
-0.00498615
-0.00637734
-0.00793491
-0.00944492
-0.0130258
0.000669664
0.000914625
-0.00867008
-6.34753e-05
-0.0108498
0.00135424
-0.0233284
-0.00661132
-0.00168606
0.00765872
-0.0078905
-0.00192395
0.00421783
-0.00203386
-0.00890632
-0.0078095
-0.00891555
-0.00495697
-0.0127111
-0.0164365
-0.00279899
-0.00120662
0.0131925
-0.00952088
-0.000385099
-0.00374409
0.00428019
-0.0371364
0.00746403
-0.00185716
0.0156264
-0.00182987
-0.002709
0.0158447
-0.00462512
-0.00182887
-0.00587029
-0.00948726
-0.00608608
-0.0152049
-0.0271489
-0.0166485
-0.00126613
0.0311082
-0.00623967
-0.00306828
-0.0110842
0.00269782
-0.0460331
0.00476767
-0.0154686
0.0250829
0.00313612
-0.0139581
0.0283778
-0.0171033
0.0211126
0.00707518
-0.0320254
0.0104537
-0.0325364
-0.0337947
-0.0025171
-0.000862388
0.03449
0.00311231
0.00274578
-0.019461
0.00195849
-0.0448802
-0.00976143
-0.00768792
0.0416717
-0.00475526
-0.00732938
0.0334435
-0.0078441
0.0261754
0.000539112
-0.0402434
0.00106405
-0.0403842
-0.0405693
0.0160916
0.0210293
0.0152273
0.0221077
0.0229093
-0.00170905
-0.0147156
8.24549e-05
-0.014818
-0.0149033
0.000164174
0.000183888
)
;

boundaryField
{
    fuel
    {
        type            calculated;
        value           nonuniform List<scalar> 
36
(
0.000127481
0.000211304
0.000127481
0.000127481
0.000211304
0.000127481
0.000127481
0.000211304
0.000127481
-0.000127481
-0.000211304
-0.000127481
-0.000127481
-0.000211304
-0.000127481
-0.000127481
-0.000211304
-0.000127481
0
0
0
0
0
0
0
0
0
0
0
0
0
0
0
0
0
0
)
;
    }
    primary_air
    {
        type            calculated;
        value           nonuniform List<scalar> 9(-0.00320274 -0.00529628 -0.00320284 -0.00320326 -0.00529746 -0.00320333 -0.00320304 -0.00529955 -0.00320304);
    }
    Secondary_air_RHS
    {
        type            calculated;
        value           nonuniform List<scalar> 9(0.00631652 0.0102201 0.00631575 0.00630555 0.0101856 0.00630487 0.00629755 0.0101894 0.00629714);
    }
    Secondary_air_LHS
    {
        type            calculated;
        value           nonuniform List<scalar> 9(0.00626626 0.010049 0.00626853 0.00624943 0.0100116 0.00625214 0.00624913 0.0100486 0.00625203);
    }
    outlet
    {
        type            calculated;
        value           nonuniform List<scalar> 
18
(
-0.00263001
0.0791227
-0.055124
-0.0407052
0.0685725
-0.0552227
-0.0525631
0.0640719
-0.0552894
-0.0556124
0.0640715
-0.0528142
-0.0555496
0.0687015
-0.0408798
-0.0554943
0.0795009
-0.00266818
)
;
    }
    stove_body
    {
        type            calculated;
        value           uniform 0;
    }
    frontAndBack
    {
        type            empty;
        value           nonuniform 0();
    }
}


// ************************************************************************* //
