/*--------------------------------*- C++ -*----------------------------------*\
  =========                 |
  \\      /  F ield         | OpenFOAM: The Open Source CFD Toolbox
   \\    /   O peration     | Website:  https://openfoam.org
    \\  /    A nd           | Version:  6
     \\/     M anipulation  |
\*---------------------------------------------------------------------------*/
FoamFile
{
    version     2.0;
    format      ascii;
    class       volScalarField;
    location    "2";
    object      T;
}
// * * * * * * * * * * * * * * * * * * * * * * * * * * * * * * * * * * * * * //

dimensions      [0 0 0 1 0 0 0];

internalField   nonuniform List<scalar> 
297
(
291.784
291.776
291.785
292.979
292.978
292.98
291.784
291.776
291.785
291.836
291.828
291.851
293.353
293.226
293.415
291.82
291.827
291.837
292.009
291.907
292.049
326.2
300.748
331.985
292.008
291.907
292.045
413.211
403.283
360.55
356.742
354.997
338.074
412.973
403.513
360.357
451.15
453.301
414.527
400.284
371.96
357.847
450.275
453.978
413.738
451.114
463.511
598.435
432.241
455.531
439.677
450.703
477.342
611.569
403.767
385.858
461.694
501.276
488.224
529.794
402.172
390.719
471.476
371.409
384.429
444.601
501.097
464.747
529.89
367.46
390.406
465.432
319.341
363.422
405.028
395.912
413.248
529.98
315.481
357.338
413.555
449.071
408.537
654.599
456.258
484.288
482.296
447.591
423.884
682.991
430.298
383.959
534.907
476.443
484.203
492.622
428.85
393.189
550.71
415.397
382.291
504.657
498.12
484.298
526.391
413.93
391.185
517.586
308.568
322.604
327.316
342.301
423.186
517.085
305.264
331.038
338.27
305.055
314.236
319.668
324.059
378.213
512.236
303.355
323.272
329.892
305.304
314.214
320.056
327.198
357.407
418.318
312.71
323.43
324.172
301.253
301.247
300.86
301.774
304.602
304.47
301.58
302.841
302.881
319.549
307.022
301.853
458.218
424.585
308.602
321.831
302.769
302.872
319.853
311.867
316.69
405.608
392.424
366.485
320.875
303.103
302.519
303.069
303.015
303.334
304.317
305.113
305.158
300.219
300.656
300.9
303.101
302.979
305.028
305.01
319.164
319.562
301.724
302.468
303.324
302.901
303.098
305.272
314.118
319.087
323.469
304.877
304.373
305.195
303.956
303.845
303.362
304.049
304.294
304.164
299.753
300.841
300.087
303.811
303.635
303.221
304.38
304.526
304.32
299.87
301.737
301.577
303.359
303.24
302.771
304.412
305.786
308.708
299.392
302.002
304.466
303
302.678
302.039
305.471
305.179
305.703
299.025
299.681
300.131
298.895
298.97
298.303
303.564
302.674
302.772
295.211
294.719
295.891
292.08
292.056
291.448
292.805
290.429
287.003
291.152
290.775
299.413
300.7
301.426
301.238
304.358
304.493
304.394
303.154
303.538
303.741
301.585
301.697
300.69
304.438
304.731
304.66
303.034
303.514
303.571
314.3
301.822
299.912
333.608
313.262
304.679
302.446
303.059
303.176
303.369
300.927
298.426
317.78
311.589
305.947
301.759
302.554
302.82
301.006
296.029
295.499
310.336
304.943
304.36
297.565
298.852
298.844
304.125
292.104
291.431
291.887
292.193
293.183
291.349
292.01
292.078
)
;

boundaryField
{
    fuel
    {
        type            fixedValue;
        value           uniform 293;
    }
    primary_air
    {
        type            fixedValue;
        value           uniform 293;
    }
    Secondary_air_RHS
    {
        type            fixedValue;
        value           uniform 293;
    }
    Secondary_air_LHS
    {
        type            fixedValue;
        value           uniform 293;
    }
    outlet
    {
        type            inletOutlet;
        inletValue      uniform 293;
        value           nonuniform List<scalar> 
18
(
293
291.887
293
293
292.194
293
293
293.183
293
293
292.812
293
293
290.414
293
293
287.005
293
)
;
    }
    stove_body
    {
        type            fixedValue;
        value           uniform 293;
    }
    frontAndBack
    {
        type            empty;
    }
}


// ************************************************************************* //
