/*--------------------------------*- C++ -*----------------------------------*\
  =========                 |
  \\      /  F ield         | OpenFOAM: The Open Source CFD Toolbox
   \\    /   O peration     | Website:  https://openfoam.org
    \\  /    A nd           | Version:  6
     \\/     M anipulation  |
\*---------------------------------------------------------------------------*/
FoamFile
{
    version     2.0;
    format      ascii;
    class       volVectorField;
    location    "2";
    object      U;
}
// * * * * * * * * * * * * * * * * * * * * * * * * * * * * * * * * * * * * * //

dimensions      [0 1 -1 0 0 0 0];

internalField   nonuniform List<vector> 
297
(
(68.7281 -0.0277142 0.240761)
(68.7261 -0.00212355 0.262108)
(68.7282 0.0256911 0.238164)
(7.33809e-07 0.0355164 0.31552)
(7.23027e-07 0.0027541 0.329167)
(7.0627e-07 -0.0335128 0.312481)
(-68.728 -0.0262992 0.240386)
(-68.7261 -0.00204204 0.262903)
(-68.7282 0.0243155 0.23775)
(68.7347 -0.0120746 0.276054)
(68.7289 -0.000146655 0.278942)
(68.7388 0.0102511 0.273694)
(7.66345e-07 0.156591 -0.0613732)
(7.42278e-07 0.0146375 -0.0861958)
(7.35286e-07 -0.149346 -0.0198177)
(-68.7309 -0.011939 0.275871)
(-68.7287 -0.000100337 0.280793)
(-68.7353 0.0100651 0.273486)
(68.78 -0.0845062 0.554299)
(68.7511 -0.00611218 0.55323)
(68.7906 0.0744901 0.554537)
(6.8898e-07 -0.112179 0.346456)
(6.93777e-07 0.0231487 0.384635)
(6.64946e-07 0.0386788 0.298995)
(-68.7797 -0.0871931 0.554837)
(-68.7512 -0.00593241 0.55303)
(-68.7897 0.0770945 0.554859)
(63.7904 7.11692 -7.80969)
(62.1565 6.6068 -3.9504)
(55.1877 3.50924 3.07495)
(0.000413578 1.95299 4.21369)
(0.000270022 -0.316268 4.05666)
(7.03877e-06 0.416763 6.30463)
(-63.7587 7.14534 -7.87738)
(-62.1934 6.78731 -3.8283)
(-55.1513 3.56258 3.44745)
(69.9638 11.4649 -14.615)
(70.3145 10.2282 -10.4079)
(64.2566 11.1449 11.2733)
(-0.000449259 11.3131 38.3233)
(-0.000736994 1.42305 29.2833)
(-0.000468784 0.288189 35.9841)
(-69.8295 11.4426 -15.304)
(-70.4203 10.4652 -10.8573)
(-64.1315 11.3086 11.055)
(69.0354 8.87352 -19.5847)
(71.6488 -11.5952 -2.78026)
(91.9001 -16.2113 34.8527)
(-0.00273261 -8.4334 54.237)
(-0.00225654 -4.52255 12.4951)
(-0.00128613 10.5703 57.1059)
(-68.9818 8.56595 -20.3747)
(-73.7931 -11.9685 -3.09347)
(-93.9202 -15.9107 37.4102)
(62.6824 -0.822075 -53.6836)
(59.5837 -6.01725 -30.5824)
(71.3942 -0.155436 -38.2359)
(0.00366673 0.61181 -1.66406)
(0.00423083 8.61731 -38.1851)
(0.00650736 -5.2387 32.3196)
(-62.4363 -0.978671 -53.6072)
(-60.3237 -6.59991 -30.651)
(-72.8348 0.00862365 -37.7966)
(57.9094 20.6139 -38.8537)
(59.5236 -4.97522 -38.6388)
(69.4267 -9.5664 -22.3159)
(1.88876e-05 -1.65878 -11.5065)
(-0.000367305 3.63172 -17.6914)
(0.00824004 -8.11004 23.7949)
(-57.2854 20.6833 -38.681)
(-60.4786 -5.16441 -38.7116)
(-72.593 -6.96994 -21.813)
(49.7729 21.9631 -30.5886)
(56.3868 -15.4688 -30.0317)
(62.9239 -24.4318 -24.1355)
(0.00114466 1.25391 -3.97206)
(0.000245369 2.85107 -21.7696)
(0.00409649 -4.79994 22.4886)
(-49.1647 21.7693 -30.3266)
(-55.4533 -16.8762 -29.1541)
(-64.2432 -21.5303 -24.1831)
(58.2258 11.5328 -64.7042)
(59.5894 -19.5896 -16.2198)
(93.0643 -42.4636 -30.3949)
(0.00601564 -6.27176 75.1875)
(0.00070733 -3.13955 -40.1535)
(-0.00215336 1.29721 76.4691)
(-57.936 11.2515 -64.7529)
(-61.7337 -20.4964 -16.0755)
(-97.1958 -44.2998 -30.0626)
(58.3148 6.60735 -67.8669)
(57.1807 -13.6441 -15.1776)
(75.5781 -15.505 -41.6383)
(0.0062304 -4.60657 84.028)
(0.000989952 0.91462 -41.8316)
(-0.00184033 1.62744 83.4398)
(-57.9481 6.38153 -67.8658)
(-58.4885 -14.428 -14.9198)
(-77.8872 -15.7723 -41.6094)
(59.9266 3.04572 -64.3551)
(58.5325 -10.8559 -20.1703)
(67.9269 -8.83408 -40.0994)
(0.00653479 -2.87684 83.3181)
(0.00122523 3.07029 -40.5544)
(-0.00108408 -5.32244 90.297)
(-59.8523 2.88949 -64.4109)
(-59.8998 -11.4136 -19.8538)
(-69.7441 -8.8739 -39.8739)
(47.086 37.9361 -8.11318)
(49.4718 -0.675346 -9.64171)
(50.0867 -40.186 -9.03492)
(-0.00249753 -3.84941 -4.84437)
(0.00241016 -8.59405 -5.80797)
(0.00767742 -2.48791 16.0295)
(-46.7249 40.2227 -9.92172)
(-50.6353 -5.42241 -10.7395)
(-51.5967 -36.9063 -7.19627)
(47.0767 29.7216 -0.590025)
(48.5061 -4.87037 -1.88755)
(49.4491 -29.9867 3.0352)
(0.00208071 0.00185862 -3.33693)
(0.000934455 -7.77925 -5.21131)
(0.00395029 -0.600837 7.67106)
(-46.9141 28.3189 3.81168)
(-49.863 -14.858 -2.48607)
(-50.9107 -29.6569 -0.262841)
(47.3786 2.23693 2.61751)
(48.7727 -1.75187 0.244378)
(49.7275 2.38082 -1.65601)
(0.00321915 -8.15854 -1.57783)
(0.00129801 -6.64011 -1.03571)
(0.00343805 2.4974 -0.6859)
(-48.476 -7.62186 -2.49394)
(-50.0962 -9.36705 1.76613)
(-50.2812 -4.98963 3.67144)
(46.0902 -45.4387 -4.68074)
(45.9065 -50.378 -8.50808)
(45.7275 -53.6483 -9.51838)
(0.033089 -2.21029 -1.55658)
(0.0360472 -13.017 -3.02806)
(0.0735544 -18.3693 -3.40683)
(-45.177 -39.5177 -3.21857)
(-46.4224 -45.3888 -7.97711)
(-46.7916 -41.5844 -14.4164)
(49.0684 -32.5809 7.51536)
(47.3353 -34.798 7.08732)
(46.4776 -41.2387 5.0675)
(0.0240256 7.6397 1.50732)
(0.0385709 17.2815 4.75691)
(0.0781059 -7.33513 10.2755)
(-48.8843 -30.7159 4.084)
(-46.833 -34.5332 -1.29665)
(-46.9379 -26.5089 -9.74005)
(49.6705 1.91268 8.75853)
(48.5481 7.60884 9.86171)
(48.8042 18.5281 11.9167)
(0.0144057 9.20959 -1.64661)
(0.0339673 18.6639 1.29796)
(0.0747732 25.7649 5.09201)
(-49.7549 -8.91383 12.7777)
(-47.1523 1.01899 13.5259)
(-47.0048 -14.1975 -15.3489)
(46.8163 42.6289 -14.4809)
(46.4433 47.0483 -7.79897)
(45.3907 41.475 -2.79019)
(-0.07283 18.8881 -3.07416)
(-0.0328433 12.5913 -4.01713)
(-0.0301419 5.03183 0.457703)
(-45.565 53.7611 -9.6241)
(-45.7393 50.3361 -8.59844)
(-45.9969 45.8113 -5.03027)
(46.9807 27.4419 -11.0841)
(46.8299 35.9238 -1.89854)
(46.2876 31.8376 3.21648)
(-0.0733133 8.13415 9.80667)
(-0.0225934 -15.0468 1.88091)
(-0.0107738 -4.4991 -1.5509)
(-46.5216 41.5113 5.33259)
(-46.7022 35.4316 7.60723)
(-46.6019 33.2546 8.16799)
(47.0756 15.4858 -16.425)
(47.1676 -2.11364 14.6686)
(47.3677 8.56622 12.3318)
(-0.0582412 -22.2706 5.28663)
(-0.021685 -13.1047 1.30596)
(-0.00457447 -8.3948 -0.202171)
(-47.0148 -19.9975 9.27445)
(-47.2826 -11.093 5.35402)
(-47.2247 -6.4983 3.75708)
(46.5368 7.52245 -24.8924)
(46.6126 20.7113 -22.8625)
(46.5845 32.5489 -17.6545)
(0.0170265 12.9876 -9.60888)
(-0.0289338 14.7997 -6.47049)
(-0.0853013 20.6766 -2.99468)
(-45.0228 24.2667 -31.837)
(-44.7556 31.18 -23.5676)
(-46.1253 51.4917 -17.8458)
(46.2062 5.38517 -37.0002)
(46.2576 13.8596 -32.1829)
(46.6865 22.3103 -24.4593)
(-0.0431341 7.2565 -8.51214)
(-0.101919 11.0195 2.85532)
(-0.120414 15.509 12.1732)
(-45.4778 6.0077 -55.1036)
(-45.5649 21.9938 -30.2343)
(-46.7988 39.5323 -4.9094)
(47.492 -0.798639 -49.0323)
(46.9732 7.85922 -44.4541)
(47.2787 9.04603 -33.3971)
(-0.10552 4.45811 -18.285)
(-0.135439 -5.9071 16.343)
(-0.129874 -17.907 19.2846)
(-47.2983 3.4578 -71.603)
(-45.873 20.671 -21.7961)
(-46.0075 -15.2676 22.2343)
(46.5338 -4.00279 -77.7717)
(46.2521 -6.5124 -71.4991)
(46.2223 -3.74559 -72.4198)
(-0.32024 -2.71279 34.5876)
(-0.324879 -0.434059 48.3113)
(-0.333519 -10.7832 44.1172)
(-47.0111 -8.7258 -103.794)
(-46.7812 11.3354 13.7286)
(-46.9413 -2.93477 68.6516)
(45.7182 1.02221 -137.818)
(45.6745 0.46567 -137.043)
(45.5643 0.700638 -136.642)
(-0.140321 0.946273 72.2369)
(-0.150753 3.57506 78.1897)
(-0.166894 -1.68358 75.9394)
(-45.6683 2.69902 -138.35)
(-45.6923 -5.47483 -76.6617)
(-45.6329 1.64495 111.797)
(43.8188 -0.163429 -167.131)
(43.7986 -0.0536978 -166.846)
(43.6922 -0.102248 -166.6)
(0.298491 -1.21561 162.848)
(0.314992 0.602131 173.505)
(0.335882 -0.883098 199.091)
(-43.0106 -5.51588 -156.613)
(-42.7805 -7.58134 -112.619)
(-43.8218 -3.65206 -3.6099)
(46.222 -51.4182 -17.6093)
(44.8533 -31.2154 -23.5468)
(45.256 -24.4129 -31.8343)
(0.0830125 -20.3028 -2.94846)
(0.0253915 -14.6305 -6.34464)
(-0.0212762 -12.9929 -9.50473)
(-46.5731 -31.7551 -17.4093)
(-46.588 -19.9768 -22.8845)
(-46.529 -7.4777 -23.9431)
(46.8041 -39.8284 -4.84988)
(45.5693 -21.8619 -30.1836)
(45.6121 -6.26414 -55.0748)
(0.122609 -15.1639 12.4954)
(0.101676 -10.8929 2.49179)
(0.041028 -7.28169 -8.60805)
(-46.6681 -21.8906 -22.6685)
(-46.2651 -13.2954 -31.6996)
(-46.1991 -5.15597 -36.1386)
(47.4579 12.9622 23.4497)
(45.8382 -20.6576 -21.8601)
(47.3842 -3.55455 -71.3854)
(0.147514 20.7519 19.6421)
(0.143163 7.28685 17.3916)
(0.105319 -4.65215 -18.011)
(-47.1702 -8.65053 -30.407)
(-46.9123 -7.68705 -42.5336)
(-47.4597 0.791725 -47.4261)
(47.4539 1.81461 69.1295)
(46.9787 -10.2316 15.9612)
(46.928 8.82583 -102.949)
(0.353219 11.5865 44.4736)
(0.337448 0.359423 48.5785)
(0.3254 1.98766 34.7316)
(-46.1657 3.54612 -71.1898)
(-46.2246 6.38726 -70.065)
(-46.4965 3.86879 -76.1018)
(46.4202 -2.35396 112.096)
(45.9051 5.81078 -75.4702)
(45.7262 -2.63943 -137.321)
(0.172674 1.7666 76.2909)
(0.154604 -3.65615 77.6494)
(0.144212 -1.36729 71.1515)
(-45.4469 -0.594481 -135.083)
(-45.6641 -0.509319 -135.455)
(-45.7145 -0.864707 -136.253)
(44.5009 3.19547 -3.49992)
(42.9746 7.59439 -112.069)
(43.0554 5.54109 -155.624)
(-0.337725 0.785046 201.474)
(-0.312339 -0.57537 174.213)
(-0.29416 1.10292 163.035)
(-43.6599 0.0857047 -165.048)
(-43.7797 0.079185 -165.48)
(-43.8066 0.137086 -165.779)
)
;

boundaryField
{
    fuel
    {
        type            fixedValue;
        value           uniform (0 0 0.25);
    }
    primary_air
    {
        type            fixedValue;
        value           uniform (0 0 2.5);
    }
    Secondary_air_RHS
    {
        type            fixedValue;
        value           uniform (0 50 0);
    }
    Secondary_air_LHS
    {
        type            fixedValue;
        value           uniform (0 -50 0);
    }
    outlet
    {
        type            pressureInletOutletVelocity;
        value           nonuniform List<vector> 
18
(
(0 0 -3.49992)
(-0.337725 0.785046 201.474)
(0 0 -165.048)
(0 0 -112.069)
(-0.312339 -0.57537 174.213)
(0 0 -165.48)
(0 0 -155.624)
(-0.29416 1.10292 163.035)
(0 0 -165.779)
(0 0 -167.131)
(0.298491 -1.21561 162.848)
(0 0 -156.613)
(0 0 -166.846)
(0.314992 0.602131 173.505)
(0 0 -112.619)
(0 0 -166.6)
(0.335882 -0.883098 199.091)
(0 0 -3.6099)
)
;
    }
    stove_body
    {
        type            noSlip;
    }
    frontAndBack
    {
        type            empty;
    }
}


// ************************************************************************* //
