/*--------------------------------*- C++ -*----------------------------------*\
  =========                 |
  \\      /  F ield         | OpenFOAM: The Open Source CFD Toolbox
   \\    /   O peration     | Website:  https://openfoam.org
    \\  /    A nd           | Version:  6
     \\/     M anipulation  |
\*---------------------------------------------------------------------------*/
FoamFile
{
    version     2.0;
    format      ascii;
    class       volScalarField;
    location    "2";
    object      p;
}
// * * * * * * * * * * * * * * * * * * * * * * * * * * * * * * * * * * * * * //

dimensions      [1 -1 -2 0 0 0 0];

internalField   nonuniform List<scalar> 
297
(
121034
121032
121033
201667
201665
201665
121032
121032
121035
121036
121033
121035
201668
201664
201667
121034
121033
121037
121036
121031
121036
201669
201662
201667
121035
121031
121038
97207.8
97151.2
97229.3
161612
161569
161620
97209.4
97152.1
97230.6
97309.6
96605.5
97335.1
160882
161033
160951
97321.1
96606.2
97329.5
94084.3
93889.6
94238.6
151947
157021
152238
94087
93889.4
94239
91590.2
94394.7
91333
156225
155684
156210
91581.8
94393.3
91339
96292.3
96505.4
96191.3
160617
159876
160580
96292.2
96505.3
96192.8
96359.1
96728.1
96335.3
160500
161069
160563
96358.8
96727.1
96335.9
74142.6
91617.5
74514.2
122024
152728
121464
74071.1
91615.7
74521.5
74047.5
91503.6
74274.3
120374
152764
119505
73971.9
91501.9
74281
76317.6
91813
76442.8
122704
153825
121623
76250.2
91811
76447.3
96935.1
97063.4
96931.9
161346
161638
161322
96934.2
97062.6
96931.6
97041.7
97064.9
97030.6
161581
161716
161551
97040.7
97064.4
97030.3
97048.6
97061.1
97040.8
161695
161732
161661
97047.8
97060.6
97040.4
97159.1
97344.5
97757
161505
161634
161878
97158.2
97343
97753.8
97075.2
97137.5
97398.6
161522
161554
161666
97074.7
97136.7
97396.8
96996.2
96890.5
96781.7
161608
161549
161522
96995.9
96890.4
96781.9
97756.3
97345.2
97161.1
161888
161649
161525
97754.2
97344
97160
97398.6
97137.6
97076.7
161677
161569
161545
97397.5
97136.9
97075.7
96784.1
96891.8
96998.4
161534
161565
161632
96783.9
96891.5
96997.7
98629.3
98470.6
98180.5
162650
162506
162237
98620.1
98463.4
98176.1
98401.5
98203
97876.2
162356
162232
161972
98394.1
98197.7
97873.4
98125.6
97910.2
97511.5
161984
161847
161652
98120
97906.6
97510
96662.4
96587.2
96444.4
160234
160160
160059
96663.6
96588.5
96446
91051
91077.9
91125.5
151015
151016
151016
91053.6
91080.1
91127.5
83567.2
83567.5
83569.8
134757
134758
134749
83568.8
83569
83571.3
98182.5
98473.4
98632.7
162231
162503
162648
98176.9
98465.3
98622.7
97877.3
98204.6
98403.6
161965
162228
162352
97873.4
98198.5
98395.6
97511.1
97910.3
98126.1
161644
161841
161978
97508.8
97906
98120
96438.2
96581.2
96656.5
160048
160149
160223
96440
96582.7
96657.8
91113.1
91065.5
91038.6
150996
150996
150994
91115.7
91068.2
91041.7
83554.7
83552.4
83552.1
134726
134734
134733
83556.5
83554.2
83554
)
;

boundaryField
{
    fuel
    {
        type            zeroGradient;
    }
    primary_air
    {
        type            zeroGradient;
    }
    Secondary_air_RHS
    {
        type            zeroGradient;
    }
    Secondary_air_LHS
    {
        type            zeroGradient;
    }
    outlet
    {
        type            totalPressure;
        rho             rho;
        psi             none;
        gamma           1;
        p0              uniform 100000;
        value           nonuniform List<scalar> 
18
(
87318.6
100000
87320.8
87287.1
100000
87289.4
87277.9
100000
87280.4
87291.7
100000
87293.8
87300.9
100000
87302.7
87332.4
100000
87334.2
)
;
    }
    stove_body
    {
        type            zeroGradient;
    }
    frontAndBack
    {
        type            empty;
    }
}


// ************************************************************************* //
