/*--------------------------------*- C++ -*----------------------------------*\
  =========                 |
  \\      /  F ield         | OpenFOAM: The Open Source CFD Toolbox
   \\    /   O peration     | Website:  https://openfoam.org
    \\  /    A nd           | Version:  6
     \\/     M anipulation  |
\*---------------------------------------------------------------------------*/
FoamFile
{
    version     2.0;
    format      ascii;
    class       surfaceScalarField;
    location    "2";
    object      phi;
}
// * * * * * * * * * * * * * * * * * * * * * * * * * * * * * * * * * * * * * //

dimensions      [1 0 -1 0 0 0 0];

internalField   nonuniform List<scalar> 
675
(
1.66038e-06
-2.14169e-05
0.00015603
-2.37347e-06
-1.85583e-05
0.000160077
-2.14781e-05
0.000155758
-4.22795e-06
2.10776e-05
0.000165258
3.61348e-06
1.9622e-05
0.000169482
2.14857e-05
0.0001653
2.37334e-06
0.000155858
-1.04483e-06
0.000160272
0.000155764
2.10732e-06
-4.3485e-05
0.000208839
-2.85183e-06
-2.84511e-05
0.000197698
-4.328e-05
0.000207858
-5.53841e-06
4.29774e-05
7.58023e-05
5.02747e-06
2.94355e-05
8.56053e-05
4.33202e-05
7.62961e-05
2.88231e-06
0.000208231
-1.56401e-06
0.000198176
0.000208001
-1.41993e-06
8.19502e-05
1.9241e-07
6.08923e-05
8.07319e-05
1.08886e-05
-8.16404e-05
-1.1181e-05
-6.10916e-05
-8.08959e-05
-3.69983e-07
1.57365e-06
0.0037994
0.00474754
-0.00536004
-0.00383411
0.00661507
0.00420518
0.00474065
-0.00537572
0.00479536
-0.00470841
0.00999133
-0.00564977
-0.00662871
0.0290047
-0.00480605
0.00922369
0.00391374
-0.00543494
-0.00371324
0.00418509
-0.00532091
0.0125265
0.0104272
-0.0283141
-0.0127132
-0.003905
0.0333516
0.00974201
-0.0278315
0.00414488
-0.0105002
0.0267857
-0.00369615
0.00387997
0.0290674
-0.00969311
0.0249638
0.0124274
-0.0283632
-0.0127817
0.0332759
-0.0277954
-0.000498386
0.0214581
-0.0492753
0.000254587
-0.00818309
0.0407904
0.0209564
-0.0485354
-0.0527835
-0.0214588
0.122491
0.0531715
0.00819978
-0.0932773
-0.0209263
0.120021
-0.000428366
-0.0493948
0.000324607
0.0407312
-0.0483988
-0.0300689
-0.0269641
-0.0234918
0.0805267
0.0293448
0.00863632
-0.0370041
-0.0310488
-0.02833
-0.0228204
0.0804961
-0.00149135
0.0270063
0.0220446
-0.0745275
0.00391302
-0.00861829
-0.108855
0.120714
0.0283053
0.0210253
-0.0737531
-0.030138
-0.0234113
0.0805574
0.0292708
-0.037036
-0.030994
-0.0228002
0.0803774
0.00658856
-0.00955367
-0.0205346
-0.0107457
0.0138104
-0.0334896
-0.0130284
-0.020532
0.0221949
0.00955609
-0.0192551
-0.0149291
-0.013795
-0.0441191
0.0129958
-0.0199324
0.00665601
-0.020519
-0.010707
-0.0334776
-0.0205061
0.00140131
-0.000138405
-0.0217968
-0.0117173
0.000903096
-0.0212655
-0.0100104
-0.0222261
0.0150292
0.000161264
-0.0345921
0.00779955
-0.000854209
-0.0351417
0.00994844
-0.0321201
0.00140963
-0.0217679
-0.0116543
-0.0212588
-0.0221979
-0.00179795
-0.000514261
-0.0591537
0.00168193
-0.000145962
0.0374567
-0.000411714
-0.0586936
-0.00328274
0.000520682
0.104676
0.00357252
0.000146654
-0.100425
0.000412691
0.102796
-0.00180479
-0.0592482
0.00167257
0.0374004
-0.0585666
-0.00180797
0.00027271
-0.0697932
0.00173532
-0.000586014
0.0345006
0.00039346
-0.069564
-0.00380165
-0.000251844
0.0892129
0.00385502
0.000586188
-0.109251
-0.000387609
0.0877869
-0.00181003
-0.0698523
0.00172826
0.0344497
-0.0694393
-0.00244864
0.000633478
0.0023991
-0.00139644
0.00076224
-0.00423063
-0.000625443
0.00444011
0.00139653
-0.000762067
-0.00245766
0.00239372
0.00776904
-0.000943584
-0.0109534
-0.0176671
-0.00672167
-0.000941348
-0.00583171
-0.000864471
-0.0103977
-0.0176848
0.007894
0.000946314
-0.0205274
-0.0238469
-0.0105373
0.000945606
-0.0185978
0.000863638
-0.0203361
-0.024053
0.00775873
-0.0109577
-0.0176208
-0.00668719
-0.0058655
-0.0103916
-0.0176294
0.00283839
3.97212e-05
-0.00249783
-0.0113315
-0.003421
-8.17216e-05
0.000510494
0.000158595
-0.00270901
-0.0112684
0.00582079
-2.74976e-05
-0.00801662
-0.0182611
-0.00589982
9.13371e-05
-0.00705033
-0.000157093
-0.00740627
-0.0185175
0.00284596
-0.00251212
-0.0113171
-0.00340129
0.000474747
-0.00270615
-0.0112439
0.000185013
-0.000177623
-0.00250317
0.000607292
8.96411e-05
0.000125159
-0.00222727
0.00260858
0.000205006
-0.0110032
-0.00427335
-7.80272e-05
-0.000120994
-0.0114374
0.000200312
-0.00250537
0.000598455
-0.00222944
-0.0161929
-1.87118e-05
-0.00147264
-0.0165613
0.00200249
-0.00163351
0.00246054
-0.00606573
-0.0129556
-0.022747
1.89482e-05
-0.00134318
-0.0202303
-0.00199828
0.00148478
-0.00245468
0.00237292
-0.0176879
-0.0161401
-0.00146996
-0.0165079
-0.00162988
-0.00605732
-0.0129049
-0.0120604
-3.49264e-05
-0.00064523
-0.0121124
0.00135337
-0.00293436
0.000608599
-0.00672146
-0.0120648
-0.0196015
3.56501e-05
-0.000329272
-0.0165216
-0.00135062
0.00110993
-0.000604768
0.00335883
-0.0162938
-0.0120353
-0.000642559
-0.0120877
-0.00292756
-0.00671306
-0.0120364
-0.00285076
-2.14681e-05
-0.00522715
-0.000557507
-0.00129877
-0.0106495
-0.0118104
2.26563e-05
-0.0118143
0.000557088
0.00129836
-0.0110524
-0.00284912
-0.0052193
-0.0106337
0.0165491
0.00244499
-0.00605418
-0.0129399
0.0161693
0.00197402
-0.00159451
-4.63949e-05
-0.00145171
0.020149
-0.00244122
0.00237033
-0.0176342
0.0225986
-0.00197058
0.00149397
4.73863e-05
-0.00134288
0.016504
-0.00605535
-0.0128897
0.016124
-0.00159083
-0.00144957
0.0121258
0.000594641
-0.00672043
-0.0120542
0.0120993
0.00130997
-0.00287831
-8.87839e-05
-0.000595413
0.016444
-0.000589322
0.00335338
-0.0162444
0.0194409
-0.00130745
0.00111316
9.16591e-05
-0.00034426
0.0121108
-0.00672393
-0.0120315
0.012086
-0.00287392
-0.000589242
0.00524163
-0.00131384
-0.0106482
0.00298486
-0.000621958
-0.000114069
0.0117128
0.001314
-0.0109886
0.01158
0.000622274
0.000117635
0.00522931
-0.0106391
0.00297726
0.00561537
0.00213988
-0.00775453
0.0086929
0.00202708
-0.00510394
0.00212319
-0.00636974
0.00806336
-0.00213158
-0.00379176
0.0129754
-0.002019
-0.000866061
-0.00211597
-0.000419975
0.00558165
-0.00771242
0.00864427
-0.00508088
-0.00636091
0.00434297
0.00180368
-0.0139004
0.00812058
0.00176119
-0.0106421
0.00134568
-0.0116486
0.00596483
-0.00179705
-0.0061557
0.0114883
-0.00175591
-0.00287236
-0.00133841
-0.00249235
0.00432278
-0.0138314
0.00809563
-0.0106089
-0.0116348
0.00533851
0.00352722
-0.0227654
0.00579645
0.00191282
-0.0130123
0.00110384
-0.0176039
0.00652145
-0.0035153
-0.00563466
0.0105366
-0.00191054
-0.0030643
-0.00110459
-0.000736425
0.00530907
-0.022655
0.00578128
-0.0129911
-0.0175969
-0.0063538
0.0123165
-0.0287278
-0.00121059
0.0106444
-0.0287996
0.0103227
-0.0291373
0.0013473
-0.0123189
0.0176497
-0.0013523
-0.010669
0.0209447
-0.0103448
0.0185745
-0.00630029
-0.0286736
-0.00117687
-0.0287835
-0.0291189
0.000446106
0.00580052
-0.0349744
0.000987132
0.00589012
-0.0352307
0.0066106
-0.0347606
-0.00198067
-0.0058245
0.0312534
-0.00138713
-0.00591029
0.0321492
-0.00662789
0.0304239
0.00046288
-0.0349608
0.000992817
-0.0352235
-0.0347537
-4.67524e-06
0.018392
-0.000194264
0.0183045
0.0183352
-0.000482366
-0.0183983
0.00021327
-0.0183101
-0.0183407
-1.12378e-06
-0.000192474
-0.00869984
0.00213107
-0.0063869
-0.00562521
0.00203321
-0.00510791
0.00214489
-0.00777042
-0.0130033
-0.00212282
-0.000431206
-0.00808582
-0.0020246
-0.000860747
-0.00213561
-0.00380685
-0.00865548
-0.00637225
-0.00559131
-0.00508887
-0.00772734
-0.00812389
0.00134727
-0.0116752
-0.00434802
0.00176852
-0.0106524
0.00180918
-0.013928
-0.0115168
-0.00134146
-0.00251981
-0.00597862
-0.00176284
-0.00286857
-0.00180164
-0.00617594
-0.00810013
-0.01165
-0.00432684
-0.0106251
-0.013856
-0.00579186
0.00111624
-0.0176491
-0.00534669
0.00191688
-0.0130146
0.00353392
-0.0228088
-0.0105477
-0.00111492
-0.000793792
-0.00653717
-0.00191446
-0.00304902
-0.00352089
-0.00565977
-0.00578041
-0.0176184
-0.00531935
-0.0130009
-0.0226966
0.00119615
0.0103349
-0.0291802
0.00636556
0.0106506
-0.0288316
0.012327
-0.0287693
0.00132591
-0.0103548
0.0185679
-0.00135067
-0.0106751
0.0209487
-0.0123304
0.0176443
0.00117701
-0.0291484
0.00631389
-0.0288113
-0.0287113
-0.000991529
0.0066033
-0.0347918
-0.000444122
0.00588258
-0.0352619
0.00579482
-0.0350083
0.0013884
-0.00662592
0.0304071
0.00198174
-0.005908
0.0321419
-0.00582286
0.0312416
-0.000992448
-0.0347823
-0.000459125
-0.0352527
-0.0349934
0.000194846
0.0183281
6.38257e-06
0.018297
0.0183845
-0.000214303
-0.018335
0.00048393
-0.0183039
-0.018392
0.000193601
3.37291e-06
)
;

boundaryField
{
    fuel
    {
        type            calculated;
        value           nonuniform List<scalar> 
36
(
0.000128171
0.000213555
0.000128169
0.000128165
0.000213549
0.000128165
0.00012817
0.000213553
0.000128172
-0.000128168
-0.000213554
-0.000128166
-0.000128166
-0.000213552
-0.000128166
-0.000128167
-0.000213552
-0.000128169
0
0
0
0
0
0
0
0
0
0
0
0
0
0
0
0
0
0
)
;
    }
    primary_air
    {
        type            calculated;
        value           nonuniform List<scalar> 9(-0.00319657 -0.00531444 -0.00319663 -0.00319471 -0.00531302 -0.00319474 -0.00319728 -0.0053147 -0.00319732);
    }
    Secondary_air_RHS
    {
        type            calculated;
        value           nonuniform List<scalar> 9(0.0122516 0.0199711 0.0122528 0.0122122 0.019649 0.0122133 0.0125687 0.0199972 0.0125694);
    }
    Secondary_air_LHS
    {
        type            calculated;
        value           nonuniform List<scalar> 9(0.0121905 0.0200632 0.0121787 0.0121749 0.0197918 0.0121624 0.0125481 0.020175 0.012537);
    }
    outlet
    {
        type            calculated;
        value           nonuniform List<scalar> 
18
(
-0.0533148
0.067284
-0.0533109
-0.0533704
0.0680434
-0.0533664
-0.0533865
0.0685016
-0.053382
-0.0533617
0.0685253
-0.053358
-0.0533456
0.0680672
-0.0533423
-0.05329
0.0673124
-0.0532869
)
;
    }
    stove_body
    {
        type            calculated;
        value           uniform 0;
    }
    frontAndBack
    {
        type            empty;
        value           nonuniform 0();
    }
}


// ************************************************************************* //
