/*--------------------------------*- C++ -*----------------------------------*\
  =========                 |
  \\      /  F ield         | OpenFOAM: The Open Source CFD Toolbox
   \\    /   O peration     | Website:  https://openfoam.org
    \\  /    A nd           | Version:  6
     \\/     M anipulation  |
\*---------------------------------------------------------------------------*/
FoamFile
{
    version     2.0;
    format      ascii;
    class       volScalarField;
    location    "2";
    object      Qdot;
}
// * * * * * * * * * * * * * * * * * * * * * * * * * * * * * * * * * * * * * //

dimensions      [1 -1 -3 0 0 0 0];

internalField   nonuniform List<scalar> 
297
(
0
-0.00019726
0
0
-0.00039452
0
0
-0.000327341
-0.00019726
-0.000130081
0
-0.00019726
-0.000260161
0
-0.000260161
-0.000327341
0
-0.000130081
4.74832e-10
0
0
7.59732e-09
0
0
-6.50404e-05
-0.000130081
0
4.74832e-10
0
4.74832e-10
0
0
1.62014e-09
4.74832e-10
0
4.74832e-10
0
0
0
0
9.49665e-10
0
0
0
4.74832e-10
0
0
0
9.49665e-10
-3.48991e-11
0
0
0
0
4.74832e-10
9.45302e-10
4.73742e-10
0
1.89933e-09
0
0
-4.36239e-12
0
0
0
0
0
-1.3313e-16
9.49665e-10
-1.3313e-16
0
9.49665e-10
0
3.79866e-09
0
0
0
0
-4.06279e-21
0
-8.12559e-21
0
0
0
0
0
0
0
0
0
0
4.74832e-10
0
0
0
4.74832e-10
0
4.74832e-10
0
0
4.74832e-10
4.74832e-10
0
1.89933e-09
4.74832e-10
4.74832e-10
0
0
0
0
0
0
0
0
-6.19933e-26
3.79866e-09
0
0
0
0
0
7.59732e-09
0
3.79866e-09
-1.21081e-28
0
-7.39018e-33
0
0
0
0
-2.36486e-31
3.79866e-09
0
-1.51351e-29
3.79866e-09
-5.77358e-35
-8.80978e-40
0
-5.77358e-35
0
0
-5.77358e-35
0
0
0
0
0
-1.80424e-36
0
-4.61886e-34
-2.81913e-38
0
0
0
-1.72066e-42
0
0
0
-9.23773e-34
-5.63826e-38
0
0
3.79866e-09
0
0
0
-1.89189e-30
-4.40489e-40
-1.44339e-35
0
0
-3.52391e-39
0
-2.75306e-41
-9.02122e-37
-2.30943e-34
0
-7.04783e-39
0
0
3.79866e-09
0
7.59732e-09
0
-1.12765e-37
0
0
0
-6.25973e-54
0
0
0
0
-6.72133e-45
-5.00778e-53
-8.20475e-49
0
-2.44521e-56
0
0
0
-1.28199e-50
0
0
0
-1.31276e-47
0
3.79866e-09
0
0
-3.20498e-51
0
3.79866e-09
0
-6.5638e-48
0
-3.91233e-55
3.79866e-09
-1.95616e-55
0
0
3.79866e-09
3.79866e-09
-5.00778e-53
-2.3879e-59
0
0
3.79866e-09
0
0
0
0
-3.05651e-57
0
-4.77579e-59
0
3.79866e-09
-2.50389e-53
3.79866e-09
3.79866e-09
0
3.79866e-09
0
0
3.79866e-09
-1.34427e-44
0
0
3.79866e-09
0
0
0
0
-3.91233e-55
7.59732e-09
-5.12797e-50
7.59732e-09
0
0
0
0
0
-3.91233e-55
0
0
0
0
0
0
3.79866e-09
0
-3.91233e-55
-1.60249e-51
0
-1.56493e-54
-2.00311e-52
-1.25195e-53
3.79866e-09
3.79866e-09
-7.64127e-58
0
3.79866e-09
-1.00156e-52
0
0
0
3.79866e-09
-7.64127e-58
0
0
3.79866e-09
-5.00778e-53
3.79866e-09
0
0
-1.19395e-59
)
;

boundaryField
{
    fuel
    {
        type            calculated;
        value           uniform 0;
    }
    primary_air
    {
        type            calculated;
        value           uniform 0;
    }
    Secondary_air_RHS
    {
        type            calculated;
        value           uniform 0;
    }
    Secondary_air_LHS
    {
        type            calculated;
        value           uniform 0;
    }
    outlet
    {
        type            calculated;
        value           uniform 0;
    }
    stove_body
    {
        type            calculated;
        value           uniform 0;
    }
    frontAndBack
    {
        type            empty;
    }
}


// ************************************************************************* //
