/*--------------------------------*- C++ -*----------------------------------*\
  =========                 |
  \\      /  F ield         | OpenFOAM: The Open Source CFD Toolbox
   \\    /   O peration     | Website:  https://openfoam.org
    \\  /    A nd           | Version:  6
     \\/     M anipulation  |
\*---------------------------------------------------------------------------*/
FoamFile
{
    version     2.0;
    format      ascii;
    class       volVectorField;
    location    "2";
    object      U;
}
// * * * * * * * * * * * * * * * * * * * * * * * * * * * * * * * * * * * * * //

dimensions      [0 1 -1 0 0 0 0];

internalField   nonuniform List<vector> 
297
(
(13.7567 3.33517e-05 0.272347)
(13.7577 -0.00173306 0.276196)
(13.7568 -0.0017671 0.27201)
(-3.81172e-05 0.000452582 0.252224)
(3.90929e-06 -0.000898079 0.254727)
(4.46079e-05 -0.00134205 0.252064)
(-13.7569 0.00177092 0.272166)
(-13.7576 0.00323916 0.276476)
(-13.7566 0.00146862 0.272008)
(13.7564 0.000240285 0.303567)
(13.7575 -0.00176617 0.297413)
(13.7564 -0.00209552 0.302953)
(-3.97714e-05 0.0063291 0.090162)
(1.50565e-06 -0.000694071 0.135204)
(4.57918e-05 -0.00690081 0.0915918)
(-13.7565 0.00211255 0.303183)
(-13.7574 0.00321878 0.298005)
(-13.7562 0.00111608 0.303009)
(12.7793 -0.0189938 0.445066)
(13.7473 -0.00330514 0.465556)
(12.8785 0.0163261 0.445934)
(-3.29814e-05 -0.0501441 0.213674)
(6.27427e-07 0.000106673 0.163072)
(3.77188e-05 0.048835 0.212655)
(-12.8512 -0.0166571 0.445846)
(-13.7473 0.00287614 0.46612)
(-12.8533 0.0195466 0.445528)
(49.0557 5.29384 16.5932)
(32.0148 -0.308689 22.932)
(50.9033 -3.63913 15.1465)
(7.66966e-05 1.66578 18.145)
(3.53101e-05 -0.371403 10.8735)
(7.39474e-05 -2.11926 17.3839)
(-49.2698 5.31381 16.1183)
(-32.0892 0.127077 23.0597)
(-50.9247 -3.4818 15.4709)
(70.6937 -0.663379 35.4225)
(64.991 -3.44548 110.245)
(73.3857 6.28731 33.6658)
(0.0016491 36.6655 188.601)
(5.1131e-05 -0.523431 133.044)
(-0.000844694 -31.2206 190.393)
(-70.7111 -0.621916 35.4443)
(-65.1513 -4.47931 109.993)
(-73.6565 6.71995 33.6335)
(69.1018 -42.5981 -51.0867)
(57.9749 0.7953 153.231)
(71.6872 45.5445 -50.8084)
(0.000319273 -50.9 252.272)
(-1.39619e-05 1.29218 -22.5476)
(5.24654e-05 50.8212 257.873)
(-69.1227 -43.5758 -51.2191)
(-58.0783 1.91253 153.482)
(-71.9468 44.9508 -50.9036)
(45.2568 -49.5138 -212.181)
(33.8886 -3.41892 -25.6836)
(46.8884 53.9814 -212.955)
(-0.00151975 -55.7854 -19.7576)
(-8.34001e-05 1.71636 -116.487)
(0.00109777 58.5562 -27.0431)
(-45.2993 -49.5741 -212.488)
(-33.9114 -3.64728 -25.8762)
(-46.8983 53.9176 -213.144)
(21.857 50.9394 -125.266)
(14.1759 -7.57866 -87.8664)
(24.1957 -44.1976 -128.224)
(-4.7123e-06 13.248 -112.588)
(-9.95529e-06 6.05092 -98.5649)
(0.000158722 -10.6912 -115.538)
(-21.8719 50.8827 -125.423)
(-14.1827 -7.44216 -87.906)
(-24.1881 -44.2258 -128.153)
(9.42562 30.1716 -25.491)
(9.43183 -6.71702 -19.5455)
(9.42896 -28.1049 -25.7881)
(-5.94466e-06 25.4379 -23.6387)
(-2.21165e-05 6.48256 -24.8677)
(1.41802e-05 -21.9254 -22.4627)
(-9.43497 30.1071 -25.4778)
(-9.43668 -6.65872 -19.5502)
(-9.43641 -28.0707 -25.7823)
(60.7326 -34.2677 -486.248)
(56.5714 -4.46413 199.54)
(62.1221 40.5131 -486.418)
(-0.01197 -50.338 374.389)
(-9.98e-05 4.50068 -144.34)
(0.00125687 52.3061 387.943)
(-60.613 -34.9563 -486.621)
(-56.6707 -4.51897 199.615)
(-62.4679 40.2797 -487.835)
(55.7682 -40.3622 -391.318)
(51.1229 -4.68167 195.178)
(53.4328 45.6383 -389.663)
(-0.0136104 -52.1256 421.198)
(-9.43878e-05 4.15641 -145.781)
(0.00131734 53.2419 440.551)
(-55.799 -40.6507 -392.43)
(-51.2131 -4.81932 195.249)
(-53.5791 45.49 -390.439)
(50.2249 -39.1288 -343.779)
(51.5049 -4.60647 179.902)
(51.5421 44.6043 -342.58)
(-0.0137709 -52.3667 467.643)
(-0.000125724 3.49485 -137.411)
(0.000930343 57.2519 484.334)
(-50.2882 -39.4901 -344.526)
(-51.5937 -4.89248 179.942)
(-51.6976 44.4618 -343.159)
(9.37165 46.1347 -13.0244)
(9.42096 2.86565 -12.6381)
(9.36982 -46.095 -13.0886)
(-2.00703e-05 36.8028 -13.5943)
(-1.85147e-05 -4.24911 -13.5493)
(-5.37105e-06 -37.3568 -12.935)
(-9.38115 46.0629 -13.0188)
(-9.42413 2.92476 -12.6436)
(-9.38122 -46.0041 -13.0839)
(9.43192 22.5398 -5.12513)
(9.44793 -2.52596 -2.30707)
(9.42935 -21.4145 -5.08688)
(-2.13307e-05 25.8092 -5.53116)
(-1.12498e-05 -0.121974 -6.9038)
(-7.13967e-06 -26.3088 -5.49858)
(-9.43516 22.5315 -5.15697)
(-9.45282 -2.45055 -2.33834)
(-9.43644 -21.386 -5.09272)
(9.45122 -2.13993 -5.38072)
(9.44975 0.532832 1.14547)
(9.44516 4.03728 -5.01557)
(-1.73624e-05 14.2348 -3.18208)
(-1.04414e-05 -3.07335 -3.28024)
(-8.90281e-06 -15.3402 -2.64301)
(-9.45278 -1.95914 -5.34484)
(-9.45453 0.503016 1.06475)
(-9.44967 4.01227 -5.02007)
(9.35953 -49.9008 -5.70944)
(9.39513 -44.7032 -8.26468)
(9.37878 -38.4829 -11.2196)
(-1.92229e-05 -40.4335 -4.62133)
(-3.20653e-05 -37.4165 -4.55457)
(-6.81569e-05 -31.7963 -4.94024)
(-9.37148 -49.8085 -5.68935)
(-9.4075 -44.6076 -8.2407)
(-9.39166 -38.3934 -11.1966)
(9.40636 -36.0339 -2.94246)
(9.42472 -37.3742 -9.32398)
(9.37636 -32.8132 -17.7008)
(-1.23664e-05 -33.5004 0.200721)
(-1.72983e-05 -33.1482 1.53027)
(-3.88323e-05 -27.8431 2.42464)
(-9.41442 -35.9898 -2.9529)
(-9.43311 -37.3231 -9.3245)
(-9.38548 -32.7697 -17.6981)
(9.45206 -3.35399 -3.81032)
(9.44597 -18.0585 -16.6931)
(9.39844 -27.6668 -25.2289)
(-7.68987e-06 -19.9186 2.62625)
(-1.91206e-06 -20.7553 3.48232)
(4.38038e-06 -21.1635 3.36633)
(-9.45698 -3.36796 -3.78912)
(-9.4514 -18.0397 -16.6622)
(-9.40466 -27.637 -25.198)
(9.38087 38.4269 -11.2168)
(9.39647 44.6709 -8.2545)
(9.3611 49.8303 -5.68057)
(-4.53361e-05 31.6764 -4.93928)
(-2.55547e-05 37.277 -4.52848)
(-2.54545e-05 40.1919 -4.62474)
(-9.39164 38.3329 -11.1907)
(-9.40761 44.5801 -8.22548)
(-9.37157 49.7564 -5.65432)
(9.38136 32.8037 -17.717)
(9.42943 37.4243 -9.29527)
(9.41054 36.1132 -2.92546)
(-2.4248e-05 27.7091 2.41766)
(-1.64356e-05 32.9946 1.54698)
(-2.12745e-05 33.2252 0.238778)
(-9.38547 32.7537 -17.7328)
(-9.43318 37.3834 -9.30687)
(-9.41412 36.0812 -2.94793)
(9.4028 27.7032 -25.2186)
(9.44983 18.1096 -16.4605)
(9.45562 4.01918 -3.47539)
(-2.80844e-06 21.0089 3.41117)
(-6.77178e-06 20.5313 3.54644)
(-1.65353e-05 19.484 2.68523)
(-9.40457 27.6718 -25.2108)
(-9.45145 18.0708 -16.4295)
(-9.45717 3.98919 -3.41366)
(9.35021 11.9765 -19.5538)
(9.35329 17.7221 -13.8191)
(9.36699 27.5267 -15.9945)
(-0.000201082 10.2079 -9.83655)
(-0.000158472 15.8618 -5.24606)
(-9.73187e-05 23.4793 -6.13857)
(-9.37029 11.9385 -19.4764)
(-9.37034 17.6734 -13.7504)
(-9.37917 27.4387 -15.9459)
(9.35836 5.1637 -29.3665)
(9.3715 15.5758 -21.9169)
(9.36589 27.4276 -26.9645)
(-0.000159788 7.63247 -7.23528)
(-0.000113988 12.5503 -2.32108)
(-6.15505e-05 21.5295 -2.19557)
(-9.37586 5.17322 -29.2603)
(-9.38107 15.5477 -21.8473)
(-9.37142 27.3967 -26.936)
(9.40115 4.20406 -35.9839)
(9.37828 17.5981 -32.8628)
(9.37947 16.3362 -40.7829)
(-0.000122184 6.11307 -11.9687)
(-7.9663e-05 13.906 -7.02293)
(-3.44023e-05 16.4757 -1.38637)
(-9.41835 4.21239 -35.8688)
(-9.38355 17.6001 -32.8002)
(-9.38159 16.311 -40.7627)
(9.39758 -4.35353 -57.4239)
(9.40329 -3.45731 -54.7535)
(9.4095 -10.273 -59.511)
(2.50573e-05 -5.01724 10.6751)
(3.07901e-05 2.86268 19.0788)
(3.57665e-05 -9.52815 16.1418)
(-9.41069 -4.29885 -57.315)
(-9.40302 -3.42329 -54.7518)
(-9.41046 -10.279 -59.4819)
(9.28219 1.82818 -123.717)
(9.27856 -1.08769 -125.05)
(9.27665 4.81667 -123.834)
(6.02718e-05 -1.79132 62.6765)
(4.98129e-05 0.921893 65.5557)
(4.72415e-05 -2.01296 60.5174)
(-9.28201 1.80575 -123.66)
(-9.27837 -1.08199 -125.024)
(-9.27649 4.82381 -123.805)
(8.88162 -0.0116195 -159.126)
(8.88256 -0.0410878 -159.06)
(8.88366 -0.0568924 -158.834)
(3.89044e-05 -0.579571 176.721)
(3.77612e-05 0.418678 175.584)
(3.71118e-05 -0.567863 173.803)
(-8.8815 -0.0107045 -159.111)
(-8.88245 -0.039816 -159.046)
(-8.88355 -0.056422 -158.821)
(9.36458 -27.5434 -16.0197)
(9.35291 -17.749 -13.8234)
(9.34912 -11.9857 -19.5842)
(-0.000121958 -23.528 -6.16818)
(-0.000176676 -15.923 -5.24785)
(-0.000217909 -10.1853 -9.86853)
(-9.37927 -27.4614 -15.979)
(-9.3705 -17.7028 -13.7687)
(-9.37041 -11.9524 -19.5115)
(9.36057 -27.4529 -26.9859)
(9.36786 -15.5796 -21.9319)
(9.35496 -5.16158 -29.4231)
(-8.59914e-05 -21.5609 -2.21549)
(-0.000132002 -12.6263 -2.3235)
(-0.000174237 -7.61956 -7.27534)
(-9.37144 -27.4196 -26.9578)
(-9.3815 -15.5504 -21.888)
(-9.37616 -5.17209 -29.3195)
(9.37457 -16.3226 -40.8802)
(9.37622 -17.6198 -32.8921)
(9.40105 -4.20604 -36.0634)
(-4.98442e-05 -16.4342 -1.4781)
(-9.37282e-05 -14.0059 -7.00334)
(-0.000132882 -6.10919 -12.0071)
(-9.38183 -16.3114 -40.8236)
(-9.38341 -17.607 -32.849)
(-9.41865 -4.2128 -35.9491)
(9.40434 10.2843 -59.6357)
(9.40254 3.44443 -54.8397)
(9.39777 4.35714 -57.5528)
(3.9959e-05 9.57278 16.0736)
(3.4372e-05 -2.89837 19.0332)
(2.797e-05 5.03883 10.6054)
(-9.41088 10.2895 -59.5785)
(-9.40347 3.42224 -54.8319)
(-9.41116 4.30793 -57.4347)
(9.2769 -4.82647 -123.944)
(9.27882 1.09484 -125.159)
(9.28241 -1.8331 -123.846)
(6.05089e-05 2.04317 60.5278)
(6.1941e-05 -0.943642 65.5766)
(7.14993e-05 1.80386 62.6792)
(-9.2767 -4.82808 -123.907)
(-9.27859 1.08734 -125.127)
(-9.2822 -1.81074 -123.784)
(8.88377 0.0571105 -158.933)
(8.88269 0.041616 -159.159)
(8.88174 0.0120452 -159.225)
(4.56151e-05 0.576357 173.763)
(4.60523e-05 -0.425049 175.541)
(4.69623e-05 0.584108 176.673)
(-8.88364 0.0567523 -158.917)
(-8.88255 0.0406225 -159.143)
(-8.88161 0.0112606 -159.207)
)
;

boundaryField
{
    fuel
    {
        type            fixedValue;
        value           uniform (0 0 0.25);
    }
    primary_air
    {
        type            fixedValue;
        value           uniform (0 0 2.5);
    }
    Secondary_air_RHS
    {
        type            fixedValue;
        value           uniform (0 125 0);
    }
    Secondary_air_LHS
    {
        type            fixedValue;
        value           uniform (0 -125 0);
    }
    outlet
    {
        type            pressureInletOutletVelocity;
        value           nonuniform List<vector> 
18
(
(0 0 -158.933)
(4.56151e-05 0.576357 173.763)
(0 0 -158.917)
(0 0 -159.159)
(4.60523e-05 -0.425049 175.541)
(0 0 -159.143)
(0 0 -159.225)
(4.69623e-05 0.584108 176.673)
(0 0 -159.207)
(0 0 -159.126)
(3.89044e-05 -0.579571 176.721)
(0 0 -159.111)
(0 0 -159.06)
(3.77612e-05 0.418678 175.584)
(0 0 -159.046)
(0 0 -158.834)
(3.71118e-05 -0.567863 173.803)
(0 0 -158.821)
)
;
    }
    stove_body
    {
        type            noSlip;
    }
    frontAndBack
    {
        type            empty;
    }
}


// ************************************************************************* //
