/*--------------------------------*- C++ -*----------------------------------*\
  =========                 |
  \\      /  F ield         | OpenFOAM: The Open Source CFD Toolbox
   \\    /   O peration     | Website:  https://openfoam.org
    \\  /    A nd           | Version:  6
     \\/     M anipulation  |
\*---------------------------------------------------------------------------*/
FoamFile
{
    version     2.0;
    format      ascii;
    class       volScalarField;
    location    "2";
    object      p;
}
// * * * * * * * * * * * * * * * * * * * * * * * * * * * * * * * * * * * * * //

dimensions      [1 -1 -2 0 0 0 0];

internalField   nonuniform List<scalar> 
297
(
121225
121225
121225
200793
200790
200789
121225
121225
121225
121225
121225
121225
200793
200789
200788
121225
121225
121225
121226
121225
121225
200792
200786
200784
121226
121225
121225
97054.1
97074.8
97065.4
160597
160598
160604
96930.5
96946.5
96942.3
97093.6
97095.8
97079.6
160324
160441
160367
96957.3
96988.3
97000.7
96971.2
97086.6
96948.3
158446
159611
158439
96882.6
97009.4
96914.2
96303.5
96521.1
96339.5
159550
159343
159540
96281.1
96427.1
96172
96575
96738.3
96591.4
160338
160101
160316
96570.2
96623.4
96483.8
96654.2
96918.1
96663.1
160370
160361
160297
96698.7
96830.4
96589
95641.6
97038.2
95669.7
153863
158763
153959
95550.1
96887.4
95647
95441.7
96997.2
95467.8
153320
158793
153399
95350.9
96850.1
95457.7
95361.8
96935.3
95377.5
153698
158919
153772
95273.3
96796.1
95385.4
97286.3
97393.6
97257.8
160383
160363
160275
97079.3
97166.8
96993.7
97405.4
97462.6
97362.3
160402
160392
160347
97173.1
97220.6
97085.9
97455.4
97452.9
97402.9
160402
160425
160391
97198.2
97212.1
97115.7
97602.4
97762.4
98351.2
160047
160028
159946
96946.5
96872
96771.4
97300.2
97284.7
97702.8
160088
159964
159776
96894.4
96669.3
96405.8
97194.5
97038.1
96991.2
160123
159921
159652
96896.7
96626.9
96303.2
98435.3
97875.6
97699.2
160161
160202
160196
96878.5
96950.6
97012.6
97813.8
97405.8
97401.9
159957
160162
160222
96555.4
96803.9
96987.9
97149.6
97180.5
97316.5
159822
160084
160223
96455
96766.3
96995.1
98786.7
98980.3
98885.7
159919
159922
160009
98826.4
98184.8
97259.6
98449.3
98553.4
98347
159596
159586
159705
97975.5
97192.2
96593.8
98077.2
98106.9
97759.9
159068
159154
159232
96980.3
96361.2
96050.3
95771.3
95694.8
95659.7
155492
155454
155265
93221.7
93135.1
93065.2
90996.1
90931.8
90932.5
148176
148151
148100
89658.1
89633
89578.4
85178.2
85162.1
85146.3
136254
136158
136073
87674.7
87838.5
88027.9
98826.2
98928.4
98759.2
159845
159801
159806
97186.6
98175.2
98863.3
98259.1
98498.8
98429.3
159567
159467
159499
96490
97141.4
97978.8
97667.7
98052.3
98049
159118
159066
158997
95952.7
96305.4
96959.7
95600.9
95628.7
95687.9
155029
155245
155289
92933.6
93007.8
93086.7
90773.7
90769.5
90837.5
147769
147825
147850
89362.6
89424.6
89451.8
84919.2
84936.1
84952.4
135734
135824
135920
87817.5
87627
87463.9
)
;

boundaryField
{
    fuel
    {
        type            zeroGradient;
    }
    primary_air
    {
        type            zeroGradient;
    }
    Secondary_air_RHS
    {
        type            zeroGradient;
    }
    Secondary_air_LHS
    {
        type            zeroGradient;
    }
    outlet
    {
        type            totalPressure;
        rho             rho;
        psi             none;
        gamma           1;
        p0              uniform 100000;
        value           nonuniform List<scalar> 
18
(
87178.5
100000
99992.2
86975.6
100000
93750.5
87224
100000
88527.4
87424.2
100000
88703
87202.4
100000
93763.3
87371.3
100000
99990.1
)
;
    }
    stove_body
    {
        type            zeroGradient;
    }
    frontAndBack
    {
        type            empty;
    }
}


// ************************************************************************* //
