/*--------------------------------*- C++ -*----------------------------------*\
  =========                 |
  \\      /  F ield         | OpenFOAM: The Open Source CFD Toolbox
   \\    /   O peration     | Website:  https://openfoam.org
    \\  /    A nd           | Version:  6
     \\/     M anipulation  |
\*---------------------------------------------------------------------------*/
FoamFile
{
    version     2.0;
    format      ascii;
    class       surfaceScalarField;
    location    "2";
    object      phi;
}
// * * * * * * * * * * * * * * * * * * * * * * * * * * * * * * * * * * * * * //

dimensions      [1 0 -1 0 0 0 0];

internalField   nonuniform List<scalar> 
675
(
1.01624e-06
-3.02002e-05
0.000157182
1.18279e-06
-3.01528e-05
0.000159526
-2.97861e-05
0.000161483
-1.57411e-06
3.02414e-05
0.000148727
-1.99613e-05
3.01947e-05
0.000168678
2.98285e-05
0.000133844
1.00521e-06
0.000157215
1.00173e-06
0.000159737
0.000161367
2.81575e-06
-3.93323e-05
0.000193155
-1.12333e-07
-3.78224e-05
0.000201265
-4.76803e-05
0.000210991
2.07509e-05
3.93032e-05
4.43876e-05
-4.20003e-05
3.76731e-05
0.000154994
4.78406e-05
-1.8384e-06
2.63703e-06
0.000193314
-1.00027e-07
0.00020114
0.000211072
-7.79191e-07
6.48668e-05
2.34347e-05
4.95507e-05
0.000107912
-4.86727e-05
-6.50366e-05
-5.27941e-06
-4.9675e-05
-0.00010777
-7.8893e-07
2.31862e-05
-0.000572749
0.00763737
-0.00319444
0.00511618
0.0069694
-0.0087884
0.00802187
0.00113704
-0.000956019
-0.00570814
0.0187705
-0.000191134
-0.00509436
0.0157036
-0.00660182
0.0187108
0.000435002
-0.00230369
0.00239572
-0.00315346
-0.000232873
0.00500198
0.00990893
-0.0178671
-0.000897514
0.00928931
-0.011935
0.01076
-0.0103363
0.00140338
-0.00718621
0.0338374
0.000530242
-0.00581997
0.0310228
-0.00910764
0.0384539
0.00873378
-0.0179837
0.00339434
-0.0034323
-0.00574237
-0.00206094
0.0250445
-0.0405432
-0.00328137
0.01377
-0.024284
0.0249711
-0.0383319
-0.045576
-0.0241013
0.127874
0.0435569
-0.014747
-0.030498
-0.0251287
0.131451
-0.00199701
-0.0398164
-0.00288629
-0.0170711
-0.0334043
-0.00717909
-0.0147479
-0.0284668
0.0506624
0.00594103
0.00375506
-0.0439974
0.0276326
-0.0146631
-0.0280158
0.0489165
0.0108139
0.0161501
0.0575178
-0.100128
-0.00995791
-0.00313247
-0.0132994
0.0399657
0.0134717
0.0655367
-0.104458
-0.00555586
-0.0281065
0.0500669
0.00970778
-0.0390739
0.0211645
-0.0207078
0.0443168
-0.00153186
-0.00718063
-0.0193642
-0.00193122
-0.0100456
-0.033675
-0.0090656
-0.0204404
0.0177306
0.00915118
0.0226899
-0.0172099
0.00776156
0.00335517
0.00866172
0.0299953
0.00238637
-0.0211927
-0.000549114
-0.0281788
-0.0123935
0.00644705
-0.0063094
-0.0190599
-0.00352806
-0.00274236
-0.020864
-0.00511419
-0.018413
0.00165653
0.00266372
0.011277
0.00658774
0.00230905
-0.00724892
0.00819111
0.0225813
-0.00313964
-0.0152603
-0.0114226
-0.0172404
-0.0154406
-1.75347e-05
-0.00229464
-0.0434573
-0.000140769
-0.000784464
-0.0233526
-0.00226616
-0.0414324
-0.0034879
0.00227056
0.118303
0.00345261
0.000260176
-0.0385547
0.001921
0.122223
1.23474e-05
-0.0427796
2.39265e-05
-0.0168053
-0.0366832
-0.000398615
-0.00102925
-0.0472442
0.000328146
0.000153166
-0.0242056
-0.000941257
-0.0453764
-0.0017296
0.00101201
0.109534
0.00158348
-0.00027099
-0.041517
0.000831165
0.113576
-0.000374131
-0.0466036
0.000421082
-0.0178509
-0.0406471
-0.000378464
-0.00141252
0.000285899
0.00278919
-0.00138063
-0.00193203
0.00144808
0.0017788
-0.0025446
0.00104255
-0.000292463
0.000499105
0.00508917
-0.00362627
-0.00587756
-0.014513
-0.00527154
-0.00186848
-0.00851252
-0.00340453
-0.0049644
-0.0151589
-0.00179177
0.00192527
0.000293609
0.00702176
-1.12984e-05
0.000672714
-0.0118456
0.00234951
0.0115725
0.00504215
0.00492826
-0.00424919
-0.0139645
-0.00605686
-0.00545889
-0.00382134
-0.0152358
0.00615891
0.000807523
-6.49917e-05
-0.012643
-0.00449125
0.0009911
0.00128133
0.000378554
0.00248961
-0.0122064
0.000758059
-0.0016037
-0.002984
0.00468041
-0.00154061
-0.00181484
-0.00705564
-0.000938258
0.00369217
0.00738458
0.00415048
0.00168121
-0.0115747
-0.00616472
0.00317398
0.00151928
-0.0123298
-0.00101016
0.003688
-0.00261189
-0.00337739
0.00379129
0.00297672
-0.00374679
-0.00238572
-0.00305267
0.00583694
-0.00260732
-0.00339168
-0.00259956
0.00634616
-5.54208e-06
-0.00124628
-8.52924e-05
-0.00104656
-0.0146452
-0.00235879
0.00188526
-0.015777
0.000738166
0.000434568
0.00281996
-0.00703785
-0.0115171
-0.00156834
0.000821639
0.00333442
-0.00327155
0.00213639
0.000204036
0.00188705
0.00223583
-0.00467092
-0.0162951
0.00191736
-0.0163412
0.00222698
0.00242723
-0.0168333
-0.0118501
-0.00155308
0.00311574
-0.0128215
0.00109902
0.000346198
9.80924e-06
-0.00970881
-0.0101214
0.00718562
0.000840365
0.00105378
0.00603424
1.13148e-05
0.00235558
0.000383723
0.007317
0.000490344
-0.0124208
0.00288259
-0.0121494
0.00200633
0.00226688
-0.0115609
-0.00110756
0.00051591
-0.00179716
0.00107408
-0.00154836
-0.00991897
0.00806013
-0.000276007
0.0115139
-0.000121544
0.00111638
0.0160674
0.00160586
0.0035401
0.00696862
0.015001
0.002684
-0.00678781
-0.010846
0.0140676
0.00025301
0.000734391
-0.00243048
0.00204159
-0.00102588
0.00160575
0.00474763
-0.00276573
-0.00466078
0.00163994
0.00217822
0.000445348
-0.000597373
0.015443
0.00241638
-0.016194
0.015048
0.0020867
0.0015779
0.0125637
6.13597e-05
-0.00941737
-0.00994931
0.0117413
0.00142897
0.000179399
-0.0012962
0.00249134
-0.00374802
0.000919425
0.00731563
0.00022224
-0.00305275
0.000407447
0.00241224
0.000435251
-0.00079522
0.0117559
0.00276887
-0.0111316
0.0121021
0.00220116
0.00258773
0.00163078
-0.00138429
-0.0096203
0.000815109
0.00104544
0.000746994
-0.00997754
0.000888901
0.0149305
-0.0062294
-0.000393192
-0.000542581
-0.00271286
0.00642924
-0.000850067
-0.0040947
0.00256517
0.0015628
0.00376931
0.00271951
-0.0105497
0.00247123
-0.00951248
0.000551775
-0.0014927
0.00343432
0.00124332
0.000216465
0.0017391
-0.000714667
0.00159034
0.0109624
-0.0124034
0.0171528
-0.00592314
0.000293975
-0.00187912
0.00197263
0.00149798
0.00536063
0.00226778
-0.0200329
0.00164609
-0.0157172
0.00158157
-0.00119326
0.00494633
0.00199102
0.000343029
0.00318082
-0.000650356
0.00601981
0.00805036
-0.0215974
0.012456
-0.00994472
0.00101327
-0.00355606
0.00131984
0.00376047
0.00808335
0.0053571
-0.0370046
0.00201344
-0.0192365
-0.00352114
-0.00362239
0.0133418
-0.00787599
0.00078044
0.0120381
0.0012223
0.0137966
0.00903138
-0.0341935
0.00365646
-0.00376274
0.0123654
0.0162109
0.011191
-0.0234678
-0.00176373
0.0157555
-0.0346289
0.015011
-0.0358575
-0.00739307
-0.00150348
0.0330712
-0.00664933
0.00465578
0.0220494
0.00279578
0.01901
0.00930282
-0.0447587
0.0141017
-0.00366484
0.0295091
0.00782447
0.00673806
-0.037788
0.00502858
0.00740217
-0.0389927
0.00766938
-0.0382539
0.0126212
-0.00393939
0.0309308
0.0138005
-0.00340895
0.0315181
0.000784973
0.0394258
-0.00402151
-0.0443883
0.00240328
-0.0132244
0.0329712
0.000890608
0.0149568
-9.58796e-05
0.0160056
0.0153782
0.00514878
-0.023965
0.00519045
-0.0230667
-0.0218695
-0.0173907
-0.014199
-0.00411025
0.00249272
-0.00986676
0.00406628
0.00284689
-0.0109907
0.0027138
0.00138829
-0.00243143
-0.000692778
0.00087524
-0.00133992
0.000230273
0.00145645
-0.00155465
0.00285914
-0.0176805
0.000191461
-0.0112638
-0.00614919
-0.0127812
-0.00534041
0.00162763
-0.0162476
0.00187514
0.0020754
-0.0202546
0.00213472
0.001161
-0.00223406
-0.000647785
0.00580947
-0.0022529
0.000372389
0.00310871
-0.00122943
0.00390243
-0.0128029
0.000824255
-0.00827255
-0.0102697
-0.0222477
-0.0082068
0.00198034
-0.0199125
0.00377115
0.00522274
-0.037428
0.00139969
0.00356336
0.00920115
0.00129487
0.0132737
0.00431564
0.000790928
0.0123385
-0.00373536
0.0132882
-0.00335798
0.012482
-0.00921199
-0.00358647
-0.0351579
0.00138246
0.0153666
-0.0364505
-0.016456
0.0159608
-0.0353279
0.0112853
-0.0239477
0.00649068
0.00251955
0.0192942
0.00768654
0.00435309
0.0224245
-0.0014675
0.0333984
-0.0145963
0.0298265
-0.00894697
-0.0046387
-0.0453489
-0.00496177
0.00762546
-0.0389028
-0.00794995
0.0074092
-0.0395393
0.00666624
-0.0383541
-0.0138567
0.000932321
0.0396053
-0.0124573
-0.00339315
0.0315848
-0.00375683
0.0311114
-0.00217809
0.0331578
0.00410972
-0.0141153
-0.0447474
3.36797e-05
0.0151298
-0.000891676
0.0157888
0.0147415
-0.00522534
-0.0215035
-0.00516054
-0.0227612
-0.0238301
0.0145994
0.0172647
)
;

boundaryField
{
    fuel
    {
        type            calculated;
        value           nonuniform List<scalar> 
36
(
0.000128371
0.000212627
0.000128371
0.000128371
0.00021262
0.000128371
0.000128371
0.000212619
0.00012837
-0.000128371
-0.000212628
-0.000128371
-0.000128371
-0.000212625
-0.000128371
-0.000128371
-0.000212624
-0.00012837
0
0
0
0
0
0
0
0
0
0
0
0
0
0
0
0
0
0
)
;
    }
    primary_air
    {
        type            calculated;
        value           nonuniform List<scalar> 9(-0.00319152 -0.00528105 -0.00318745 -0.0031922 -0.0052811 -0.00318798 -0.00319189 -0.00528131 -0.00318784);
    }
    Secondary_air_RHS
    {
        type            calculated;
        value           nonuniform List<scalar> 9(0.00524331 0.00843796 0.00524207 0.00523224 0.00840728 0.0052317 0.00522728 0.00842771 0.00522774);
    }
    Secondary_air_LHS
    {
        type            calculated;
        value           nonuniform List<scalar> 9(0.00524177 0.00843267 0.00523675 0.0052308 0.00840292 0.00522583 0.00522643 0.00842365 0.00522158);
    }
    outlet
    {
        type            calculated;
        value           nonuniform List<scalar> 
18
(
-0.0539215
0.0813061
-0.0027796
-0.0542594
0.0699108
-0.0393665
-0.0538442
0.0643549
-0.0511321
-0.0534801
0.0645587
-0.0507872
-0.0538558
0.070402
-0.0393065
-0.0535706
0.0817011
-0.00291709
)
;
    }
    stove_body
    {
        type            calculated;
        value           uniform 0;
    }
    frontAndBack
    {
        type            empty;
        value           nonuniform 0();
    }
}


// ************************************************************************* //
