/*--------------------------------*- C++ -*----------------------------------*\
  =========                 |
  \\      /  F ield         | OpenFOAM: The Open Source CFD Toolbox
   \\    /   O peration     | Website:  https://openfoam.org
    \\  /    A nd           | Version:  6
     \\/     M anipulation  |
\*---------------------------------------------------------------------------*/
FoamFile
{
    version     2.0;
    format      ascii;
    class       volScalarField;
    location    "2";
    object      T;
}
// * * * * * * * * * * * * * * * * * * * * * * * * * * * * * * * * * * * * * //

dimensions      [0 0 0 1 0 0 0];

internalField   nonuniform List<scalar> 
297
(
291.054
291.046
291.057
293.07
293.068
293.074
291.055
291.046
291.057
291.127
291.068
291.182
293.56
293.321
293.859
291.125
291.07
291.165
291.542
291.271
291.554
338.962
299.12
311.867
291.453
291.255
291.545
326.219
328.248
311.308
300.806
310.5
297.781
321.847
322.104
310.207
358.07
340.461
359.706
333.352
323.11
330.131
357.439
350.394
358.67
358.107
331.179
361.649
339.401
339.872
338.466
358.064
333.059
366.169
339.018
326.813
339.973
360.025
355.697
361.052
338.205
327.202
342.239
333.091
326.64
333.959
360.044
360.507
360.997
329.756
326.839
339.85
324.751
313.156
323.233
359.972
335.659
356.43
313.018
311.568
326.144
359.045
326.481
361.228
347.715
353.047
349.397
358.335
327.929
367.003
351.479
325.578
349.805
352.666
352.965
351.579
350.72
327.353
353.313
345.222
325.5
346.492
357.743
353.215
358.758
344.455
327.26
349.368
313.726
311.142
314.299
353.807
317.796
355.942
310.117
308.188
308.771
303.281
306.19
308.836
309.298
317.509
351.956
303.006
304.344
304.793
304.893
308.211
308.71
308.959
314.165
326.825
303.176
304.586
305.198
306.027
302.416
302.88
344.133
304.682
304.387
301.377
300.086
299.523
308.81
303.712
304.141
349.377
344.132
332.126
304.511
301.617
301.448
308.313
306.411
305.858
330.105
330.962
331.389
304.977
303.717
307.529
302.115
301.7
307.026
311.943
346.019
350.733
299.156
304.167
304.859
302.655
302.252
303.404
316.131
321.01
308.438
300.816
301.748
302.772
302.874
303.035
303.444
312.44
310.243
308.311
303.092
302.285
303.1
302.702
302.588
302.071
302.922
304.249
303.69
298.967
299.452
298.674
303.025
302.248
301.742
303.17
304.171
304.236
298.653
300.274
300.081
303.175
301.878
300.953
303.428
306.934
309.965
297.969
300.984
302.844
301.345
300.819
300.235
301.309
305.842
306.683
297.384
301.38
299.052
298.184
297.971
297.03
300.439
302.959
303.379
292.266
295.445
296.976
291.615
291.426
290.709
291.205
288.515
286.068
290.492
290.181
298.776
302.211
302.62
302.907
304.028
304.28
303.567
299.389
300.144
299.779
301.918
302.402
303.264
305.906
304.362
303.773
300.642
300.941
299.177
301.395
302.081
303.391
325.093
314.51
305.509
307.636
301.996
298.357
300.601
301.14
301.785
314.092
312.208
303.56
302.532
303.517
297.764
296.307
298.039
297.825
310.412
303.468
302.413
300.399
296.018
292.531
290.737
291.471
291.617
288.689
290.602
292.195
302.299
291.321
290.727
)
;

boundaryField
{
    fuel
    {
        type            fixedValue;
        value           uniform 293;
    }
    primary_air
    {
        type            fixedValue;
        value           uniform 293;
    }
    Secondary_air_RHS
    {
        type            fixedValue;
        value           uniform 293;
    }
    Secondary_air_LHS
    {
        type            fixedValue;
        value           uniform 293;
    }
    outlet
    {
        type            inletOutlet;
        inletValue      uniform 293;
        value           nonuniform List<scalar> 
18
(
293
288.682
293
293
290.595
293
293
292.189
293
293
291.195
293
293
288.506
293
293
286.063
293
)
;
    }
    stove_body
    {
        type            fixedValue;
        value           uniform 293;
    }
    frontAndBack
    {
        type            empty;
    }
}


// ************************************************************************* //
