/*--------------------------------*- C++ -*----------------------------------*\
  =========                 |
  \\      /  F ield         | OpenFOAM: The Open Source CFD Toolbox
   \\    /   O peration     | Website:  https://openfoam.org
    \\  /    A nd           | Version:  6
     \\/     M anipulation  |
\*---------------------------------------------------------------------------*/
FoamFile
{
    version     2.0;
    format      ascii;
    class       volVectorField;
    location    "2";
    object      U;
}
// * * * * * * * * * * * * * * * * * * * * * * * * * * * * * * * * * * * * * //

dimensions      [0 1 -1 0 0 0 0];

internalField   nonuniform List<vector> 
297
(
(81.4455 -0.0292403 0.208273)
(81.4421 0.00113977 0.218449)
(81.4449 0.0336284 0.227144)
(1.11213e-05 0.0419406 0.312066)
(-1.99128e-06 -0.0340532 0.328246)
(-1.69607e-05 -0.0742399 0.334043)
(-81.4455 -0.0291002 0.209469)
(-81.4421 0.00083411 0.21919)
(-81.4449 0.0331131 0.227009)
(81.4614 -0.0054202 0.252216)
(81.4443 0.000893851 0.260124)
(81.471 0.0110702 0.258877)
(1.14562e-05 0.157528 0.171315)
(-3.09655e-06 -0.0344686 0.171715)
(-1.77744e-05 -0.19611 -0.117529)
(-81.461 -0.00756725 0.251872)
(-81.4448 0.000566828 0.260622)
(-81.4661 0.012401 0.258799)
(81.5868 -0.11504 0.564761)
(81.5123 0.0594907 0.56805)
(81.5749 0.147518 0.552332)
(9.76099e-06 -0.158159 -0.161947)
(-3.89229e-06 -0.365457 0.0992696)
(-1.55754e-05 0.675153 0.406596)
(-81.5618 -0.114258 0.564396)
(-81.5081 0.0593132 0.566557)
(-81.5724 0.14551 0.551614)
(59.5671 1.42318 0.448983)
(60.2829 1.08347 -4.56962)
(56.6687 2.25241 -2.88036)
(-0.0157496 -0.331904 5.39561)
(-0.0169721 -0.338614 3.59977)
(-0.0155236 1.07681 4.30337)
(-58.7221 2.63175 1.41402)
(-58.8432 0.859048 -1.02488)
(-56.3381 0.0697148 -1.59787)
(66.1392 6.65051 2.77782)
(62.9245 3.24693 -7.09894)
(66.4698 -9.54712 15.1254)
(-0.0195096 7.61664 36.2579)
(-0.0148444 0.757888 21.7149)
(-0.011149 -6.54023 37.5264)
(-66.0825 11.2013 2.37938)
(-64.7753 4.90858 1.03993)
(-66.3644 -2.90601 14.0201)
(65.2651 7.87774 -7.0168)
(60.7778 -0.459208 -18.0191)
(65.9211 -14.653 -4.82152)
(-0.013103 -3.9982 47.989)
(-0.0112726 -0.666634 12.0107)
(-0.00503099 3.3388 49.7004)
(-65.3148 13.8213 -5.75033)
(-61.2505 -5.40063 -5.38243)
(-66.7979 -8.40331 6.27803)
(62.1218 0.773641 -44.4887)
(60.0966 1.39249 -30.2485)
(62.2419 -4.92771 -42.9282)
(-0.00348387 -1.45526 7.66116)
(-0.0146566 0.581726 -7.80668)
(-0.0261277 0.524902 12.9136)
(-61.9312 5.09505 -43.8457)
(-60.2427 -1.94684 -25.4398)
(-62.9566 1.8022 -37.7299)
(61.7351 9.20353 -28.3643)
(59.888 1.24711 -34.5503)
(61.79 -15.0393 -27.8916)
(-0.000748348 1.48222 3.98365)
(-0.0179884 0.283048 2.56806)
(-0.0168499 -2.39833 10.3217)
(-61.0691 14.5451 -27.8798)
(-60.2134 -4.30673 -30.2734)
(-63.0574 -6.7955 -20.4135)
(60.1071 25.2096 -32.9759)
(57.5944 2.67915 -34.6095)
(59.7939 -26.2306 -32.6356)
(0.00695362 -0.923708 8.33568)
(-0.0128031 2.82347 -6.28259)
(-0.0114591 0.230394 12.3317)
(-58.0209 21.2476 -29.4106)
(-57.5017 -10.1861 -27.8346)
(-60.3444 -19.9124 -23.1411)
(58.4723 11.0187 -42.3367)
(57.1681 1.09828 -20.4898)
(59.1108 -16.9848 -40.1025)
(-0.0144655 -2.71361 63.6079)
(-0.0212086 -0.277279 -22.3038)
(-0.00361542 1.85855 65.6651)
(-58.573 16.7981 -41.6043)
(-58.5822 -2.58725 -14.5648)
(-60.5978 -11.421 -36.3624)
(56.0379 5.31493 -46.8202)
(58.6324 1.45217 -22.1896)
(56.1128 -10.276 -45.1439)
(-0.011983 -2.32474 69.9616)
(-0.0214051 -0.163303 -22.8766)
(-0.00131586 1.35775 72.2652)
(-56.1221 10.2043 -46.186)
(-59.2988 -2.70861 -16.1843)
(-57.1732 -4.35285 -40.5702)
(52.1754 3.65916 -46.4642)
(59.8203 1.2389 -24.2688)
(52.3792 -8.20748 -44.7585)
(-0.0111009 -1.87087 68.8545)
(-0.0221459 -0.00577313 -19.3139)
(0.00098571 0.826836 71.3824)
(-51.8941 8.29705 -45.7897)
(-60.1758 -2.31523 -18.8601)
(-55.3118 -2.19717 -40.4666)
(56.6757 37.6198 -8.20261)
(56.3418 0.613645 -9.69988)
(56.7224 -39.315 -7.81396)
(-0.0316441 -8.46501 6.03716)
(-0.0312892 -2.88245 -7.1537)
(-0.0404368 6.44798 10.7677)
(-56.5872 34.2222 -6.35588)
(-56.3099 -2.54207 -7.71992)
(-56.2202 -36.423 -7.82686)
(55.4087 33.9938 -3.26936)
(55.8678 4.61602 -5.70983)
(56.4453 -33.936 -2.30456)
(-0.0311603 0.463289 -3.30219)
(-0.0333573 -3.4013 -3.16872)
(-0.0421198 5.0585 7.19805)
(-55.7386 27.4273 1.04391)
(-55.9501 -5.62064 -1.34655)
(-56.0907 -29.2084 2.38248)
(56.0861 -5.41955 1.68591)
(56.7471 -4.00118 2.72175)
(56.7829 -10.0006 4.72784)
(-0.0345176 -8.32663 -1.44542)
(-0.0327806 -3.90769 -1.1724)
(-0.0408088 2.96355 -0.77902)
(-55.937 -4.68853 -2.07518)
(-56.2645 -3.37246 1.05721)
(-56.3562 10.0774 -3.00768)
(53.8747 -42.1608 -3.58251)
(54.7286 -46.0544 -10.8083)
(55.1734 -28.7285 -21.6442)
(-0.0975802 7.09764 7.46078)
(-0.118094 -5.58796 -7.35277)
(-0.207964 -7.52326 -11.0277)
(-54.7775 -42.7292 -3.2208)
(-54.01 -47.7715 -7.55783)
(-53.7672 -51.6127 -8.22361)
(55.4793 -35.142 3.31316)
(55.8507 -41.1955 -6.88699)
(54.7298 -24.3741 -23.2624)
(-0.0611525 15.9141 4.29615)
(-0.0912255 14.3576 5.04314)
(-0.1871 7.87552 10.7703)
(-55.5246 -33.0969 7.60132)
(-55.5561 -39.2401 6.8584)
(-55.4458 -41.8319 4.2242)
(56.5378 -11.2042 12.8038)
(56.5149 -3.08977 5.72512)
(54.8196 -21.8981 -31.891)
(-0.0428959 13.9234 0.443234)
(-0.0589921 17.6738 0.745026)
(-0.097413 29.873 7.47163)
(-56.1377 -1.19816 7.51144)
(-56.0457 4.59642 8.58939)
(-56.2918 16.7076 11.8717)
(55.0716 27.2694 -21.0992)
(54.4454 44.2226 -8.73029)
(53.8977 39.9958 -2.60154)
(-0.209397 3.36831 -3.62256)
(-0.138098 -9.80853 5.89703)
(-0.103618 -12.1853 4.70802)
(-53.9417 50.3608 -7.43088)
(-54.9369 43.9836 -5.33586)
(-55.5684 40.393 -2.48859)
(54.4792 24.0583 -22.3812)
(55.6269 39.732 -7.41472)
(54.5739 35.4469 2.82751)
(-0.172596 -4.81821 8.38512)
(-0.0834732 -6.49016 -0.216231)
(-0.055128 -9.03485 -4.28705)
(-55.0206 39.8516 4.90534)
(-55.3542 35.8138 6.4268)
(-55.3511 32.0508 6.83919)
(54.3772 21.3115 -30.5304)
(55.8079 1.67229 9.7997)
(55.6017 10.8155 11.6594)
(-0.092695 -25.5059 8.78758)
(-0.0555201 -13.7637 2.73565)
(-0.043235 -12.1147 0.639259)
(-55.5284 -14.324 11.5399)
(-55.8232 -4.0659 7.24271)
(-55.8021 1.84378 6.09585)
(54.6682 -9.30127 -11.5529)
(54.5832 1.85457 -31.3805)
(54.7197 19.344 -28.3823)
(0.0051981 2.58803 -4.33769)
(-0.104889 -3.84691 -9.01092)
(-0.213149 9.39206 -8.52645)
(-53.2576 23.3571 -29.2374)
(-52.7342 29.4629 -21.093)
(-54.428 48.5243 -15.3487)
(54.6873 -5.05263 9.74217)
(54.6693 8.29527 -39.3414)
(54.5838 18.3938 -38.1486)
(-0.0618036 1.6934 12.6367)
(-0.178846 -0.201626 7.8548)
(-0.230439 7.80527 9.69396)
(-53.767 6.61624 -52.3994)
(-53.7794 20.0183 -27.778)
(-55.2687 38.0626 -3.84934)
(54.4994 0.903385 6.1089)
(57.359 4.934 -48.084)
(55.7337 11.7904 -49.2038)
(-0.141804 -0.330629 9.33258)
(-0.226688 -11.0449 10.9988)
(-0.220018 -19.97 16.825)
(-56.0359 4.10949 -67.9018)
(-54.1801 19.5141 -20.9279)
(-54.3736 -6.17075 21.3)
(54.7307 6.09276 -12.7866)
(55.222 2.14684 -65.271)
(54.9498 -7.0282 -82.0125)
(-0.342578 1.08565 59.075)
(-0.348439 -1.37944 33.0404)
(-0.355003 -12.1938 31.6338)
(-55.5431 -8.39526 -97.4951)
(-55.9014 8.8749 18.6385)
(-55.5561 0.386042 61.6417)
(53.9031 0.917224 -124.751)
(53.9782 1.91705 -131.404)
(53.8031 6.4313 -127.98)
(-0.187763 3.11654 80.7276)
(-0.184049 4.59786 70.0735)
(-0.192516 0.748965 66.9067)
(-53.8459 2.027 -130.345)
(-54.4274 -5.06012 -35.6422)
(-54.3148 2.90018 105.537)
(51.7486 0.157633 -158.17)
(51.7934 0.243839 -159.762)
(51.5755 -0.915039 -158.55)
(0.361534 -0.035321 162.229)
(0.384282 1.80212 175.76)
(0.408648 0.611246 203.088)
(-50.8785 -6.58245 -148.83)
(-50.4696 -7.08318 -107.557)
(-51.6675 -2.2999 -4.15625)
(54.7349 -21.0265 -30.4354)
(54.7255 -2.33168 -33.2258)
(54.7292 9.36123 -13.084)
(-0.214723 -10.2889 -11.566)
(-0.099311 1.43019 -11.3041)
(0.0136863 -3.27247 -5.7078)
(-54.5188 -50.4001 -16.3677)
(-52.7432 -30.3648 -22.0842)
(-53.3204 -23.9601 -30.4943)
(54.6321 -19.2676 -39.0703)
(54.7138 -7.2161 -40.0566)
(54.7599 4.75545 10.5029)
(-0.234067 -8.08794 11.2924)
(-0.178337 -1.18968 8.99196)
(-0.0589782 -2.13921 11.9247)
(-55.392 -39.4287 -4.42199)
(-53.8322 -20.737 -28.6609)
(-53.8071 -6.603 -53.5583)
(55.7773 -12.4569 -51.5578)
(57.335 -3.09305 -48.8808)
(54.5749 -1.60899 4.31853)
(-0.231179 23.3432 15.8676)
(-0.232517 13.3868 10.9181)
(-0.141992 1.04777 7.92767)
(-55.1465 8.42265 21.8862)
(-54.3503 -20.1746 -21.1944)
(-56.1321 -3.86608 -69.1959)
(54.9919 7.93666 -83.2325)
(55.2726 -2.77257 -67.2183)
(54.792 -6.12073 -13.3977)
(-0.374296 13.3259 33.6972)
(-0.364523 1.35834 34.5374)
(-0.35251 -1.15724 60.0192)
(-56.1948 0.712599 63.211)
(-56.3084 -9.6699 20.6975)
(-55.6204 8.61412 -98.7817)
(53.6465 -6.6762 -130.473)
(53.9692 -1.94046 -133.133)
(53.7986 -0.855608 -126.476)
(-0.205683 -0.321173 68.731)
(-0.191301 -4.82302 70.9093)
(-0.196228 -3.17989 82.3711)
(-54.9336 -2.41234 107.952)
(-54.5295 5.2745 -42.2443)
(-53.8767 -2.15719 -131.705)
(51.5736 0.922914 -159.933)
(51.8015 -0.249343 -161.382)
(51.7382 -0.177099 -159.608)
(0.415722 -0.369543 203.979)
(0.390058 -1.95712 175.807)
(0.365909 0.0509906 162.296)
(-52.2427 2.76285 -3.69264)
(-50.6426 7.16214 -107.675)
(-50.9093 6.57583 -150.131)
)
;

boundaryField
{
    fuel
    {
        type            fixedValue;
        value           uniform (0 0 0.25);
    }
    primary_air
    {
        type            fixedValue;
        value           uniform (0 0 2.5);
    }
    Secondary_air_RHS
    {
        type            fixedValue;
        value           uniform (0 41.6667 0);
    }
    Secondary_air_LHS
    {
        type            fixedValue;
        value           uniform (0 -41.6667 0);
    }
    outlet
    {
        type            pressureInletOutletVelocity;
        value           nonuniform List<vector> 
18
(
(0 0 -159.933)
(0.415722 -0.369543 203.979)
(0 0 -3.69264)
(0 0 -161.382)
(0.390058 -1.95712 175.807)
(0 0 -107.675)
(0 0 -159.608)
(0.365909 0.0509906 162.296)
(0 0 -150.131)
(0 0 -158.17)
(0.361534 -0.035321 162.229)
(0 0 -148.83)
(0 0 -159.762)
(0.384282 1.80212 175.76)
(0 0 -107.557)
(0 0 -158.55)
(0.408648 0.611246 203.088)
(0 0 -4.15625)
)
;
    }
    stove_body
    {
        type            noSlip;
    }
    frontAndBack
    {
        type            empty;
    }
}


// ************************************************************************* //
