/*--------------------------------*- C++ -*----------------------------------*\
  =========                 |
  \\      /  F ield         | OpenFOAM: The Open Source CFD Toolbox
   \\    /   O peration     | Website:  https://openfoam.org
    \\  /    A nd           | Version:  6
     \\/     M anipulation  |
\*---------------------------------------------------------------------------*/
FoamFile
{
    version     2.0;
    format      ascii;
    class       volVectorField;
    location    "2.5";
    object      U;
}
// * * * * * * * * * * * * * * * * * * * * * * * * * * * * * * * * * * * * * //

dimensions      [0 1 -1 0 0 0 0];

internalField   nonuniform List<vector> 
297
(
(13.7487 0.00251168 0.270502)
(13.7496 0.012308 0.27172)
(13.7487 0.00979915 0.270352)
(3.16172e-05 0.00541846 0.251278)
(8.71363e-07 0.00129772 0.247957)
(-3.02032e-05 -0.0040992 0.251077)
(-13.7486 -0.00713045 0.270435)
(-13.7496 -0.006853 0.27168)
(-13.7487 0.000275761 0.27027)
(13.7484 0.00191019 0.295024)
(13.7494 0.0124325 0.286346)
(13.7484 0.0105067 0.295094)
(3.1929e-05 0.0110356 0.0849746)
(9.63153e-07 0.00186885 0.119872)
(-3.0361e-05 -0.00900557 0.0866662)
(-13.7483 -0.00778296 0.295042)
(-13.7494 -0.00681601 0.286246)
(-13.7484 0.000954672 0.29485)
(12.7914 -0.0153581 0.439671)
(13.7393 0.0120883 0.459989)
(12.8894 0.0270228 0.440745)
(2.59354e-05 -0.0335301 0.213259)
(9.36345e-07 0.0023934 0.169785)
(-2.45967e-05 0.035936 0.211646)
(-12.8623 -0.0248502 0.440512)
(-13.7392 -0.00758554 0.459906)
(-12.8649 0.017922 0.440304)
(49.0263 5.29248 16.5902)
(31.9958 -0.302974 22.9317)
(50.8734 -3.62777 15.1423)
(7.00389e-05 1.66674 18.1458)
(3.3987e-05 -0.371189 10.8744)
(7.73153e-05 -2.11958 17.3827)
(-49.2403 5.31364 16.1233)
(-32.0702 0.127349 23.0576)
(-50.8948 -3.47348 15.4654)
(70.6517 -0.666644 35.4053)
(64.9522 -3.44301 110.269)
(73.3421 6.30147 33.6597)
(0.00163353 36.6609 188.606)
(5.14726e-05 -0.531498 133.054)
(-0.000843699 -31.2037 190.381)
(-70.6691 -0.626685 35.4284)
(-65.1124 -4.46168 110.025)
(-73.6127 6.72506 33.6342)
(69.0613 -42.5845 -51.1039)
(57.9401 0.787313 153.24)
(71.6452 45.5432 -50.8115)
(0.000302277 -50.8957 252.274)
(-1.56316e-05 1.29002 -22.5501)
(5.72955e-05 50.8234 257.858)
(-69.0823 -43.5527 -51.2334)
(-58.0434 1.89749 153.494)
(-71.9047 44.9559 -50.9037)
(45.2298 -49.5098 -212.19)
(33.8686 -3.41996 -25.6989)
(46.8608 53.9814 -212.963)
(-0.00151015 -55.78 -19.7614)
(-8.32989e-05 1.71818 -116.49)
(0.0011023 58.5542 -27.0837)
(-45.2723 -49.5704 -212.492)
(-33.8914 -3.64722 -25.887)
(-46.8707 53.918 -213.151)
(21.844 50.945 -125.271)
(14.1675 -7.5764 -87.8703)
(24.1813 -44.195 -128.224)
(-3.03531e-06 13.2544 -112.592)
(-1.12264e-05 6.05556 -98.5656)
(0.000158174 -10.6934 -115.543)
(-21.8588 50.8888 -125.427)
(-14.1743 -7.44219 -87.9094)
(-24.1737 -44.2221 -128.153)
(9.42001 30.174 -25.4917)
(9.42623 -6.71943 -19.5467)
(9.42335 -28.1048 -25.7899)
(-6.95563e-06 25.4401 -23.6394)
(-2.22465e-05 6.48162 -24.8689)
(1.51359e-05 -21.9289 -22.4641)
(-9.42935 30.1094 -25.4785)
(-9.43108 -6.66024 -19.5511)
(-9.43081 -28.0706 -25.7842)
(60.6997 -34.265 -486.275)
(56.5384 -4.47566 199.535)
(62.0835 40.5133 -486.442)
(-0.0118132 -50.3345 374.389)
(-0.000100626 4.50055 -144.348)
(0.00126873 52.301 387.807)
(-60.5807 -34.9455 -486.639)
(-56.6376 -4.52638 199.615)
(-62.4292 40.2816 -487.856)
(55.7354 -40.3579 -391.335)
(51.0966 -4.69333 195.172)
(53.4107 45.6368 -389.682)
(-0.0134093 -52.1213 421.196)
(-9.6195e-05 4.15569 -145.79)
(0.00132841 53.2328 440.574)
(-55.7673 -40.6437 -392.422)
(-51.1868 -4.82608 195.247)
(-53.557 45.4897 -390.456)
(50.1948 -39.1257 -343.794)
(51.4783 -4.61926 179.893)
(51.5078 44.6046 -342.598)
(-0.0135382 -52.3631 467.627)
(-0.000123534 3.49534 -137.418)
(0.000955113 57.257 484.452)
(-50.2579 -39.4829 -344.526)
(-51.567 -4.8984 179.937)
(-51.6632 44.4632 -343.176)
(9.36611 46.1376 -13.0231)
(9.41537 2.86397 -12.6389)
(9.36429 -46.0971 -13.0906)
(-2.08992e-05 36.8072 -13.5922)
(-1.8316e-05 -4.25007 -13.5489)
(-3.86664e-06 -37.3603 -12.935)
(-9.3756 46.0657 -13.0173)
(-9.41854 2.92286 -12.6442)
(-9.37567 -46.0065 -13.086)
(9.42631 22.5385 -5.12448)
(9.44232 -2.52717 -2.30855)
(9.42377 -21.4112 -5.08849)
(-2.25804e-05 25.8143 -5.52926)
(-1.06911e-05 -0.122733 -6.90351)
(-5.43547e-06 -26.3131 -5.4985)
(-9.42955 22.5301 -5.1562)
(-9.4472 -2.45204 -2.33991)
(-9.43085 -21.3829 -5.09443)
(9.44559 -2.1358 -5.38095)
(9.44413 0.533124 1.14416)
(9.43957 4.03674 -5.01702)
(-1.8592e-05 14.2405 -3.18107)
(-1.07778e-05 -3.0749 -3.2801)
(-7.7119e-06 -15.3457 -2.64256)
(-9.44715 -1.95523 -5.34503)
(-9.44891 0.503315 1.06342)
(-9.44407 4.01135 -5.02174)
(9.35399 -49.9048 -5.70975)
(9.38954 -44.7093 -8.26489)
(9.37319 -38.4874 -11.2208)
(-1.89474e-05 -40.4356 -4.62122)
(-3.17468e-05 -37.4221 -4.55448)
(-6.83952e-05 -31.8029 -4.94059)
(-9.36593 -49.8125 -5.68969)
(-9.4019 -44.6136 -8.24085)
(-9.38606 -38.398 -11.1977)
(9.4008 -36.0373 -2.94218)
(9.41912 -37.3789 -9.32347)
(9.37079 -32.8184 -17.7048)
(-1.17519e-05 -33.5035 0.202134)
(-1.66948e-05 -33.1532 1.53154)
(-3.85812e-05 -27.8503 2.42364)
(-9.40885 -35.9934 -2.95258)
(-9.4275 -37.328 -9.32385)
(-9.3799 -32.7747 -17.7021)
(9.44646 -3.35381 -3.81083)
(9.44037 -18.0588 -16.6942)
(9.39288 -27.6706 -25.2342)
(-6.6906e-06 -19.9219 2.62624)
(-6.59081e-07 -20.7617 3.48195)
(5.39466e-06 -21.1718 3.36473)
(-9.45137 -3.36831 -3.78985)
(-9.44579 -18.0403 -16.6633)
(-9.3991 -27.6406 -25.2032)
(9.37528 38.4293 -11.2177)
(9.39087 44.6753 -8.25465)
(9.35555 49.8347 -5.68063)
(-4.51535e-05 31.6802 -4.93986)
(-2.57148e-05 37.2818 -4.52854)
(-2.61034e-05 40.1967 -4.62441)
(-9.38604 38.3351 -11.1918)
(-9.402 44.5846 -8.22578)
(-9.36602 49.7608 -5.6544)
(9.37577 32.8066 -17.7208)
(9.42382 37.4285 -9.29445)
(9.40496 36.1177 -2.92471)
(-2.40499e-05 27.7134 2.4165)
(-1.67301e-05 32.9994 1.54811)
(-2.21129e-05 33.2308 0.239922)
(-9.37988 32.7565 -17.7367)
(-9.42756 37.3874 -9.30622)
(-9.40853 36.0854 -2.9472)
(9.39724 27.7048 -25.2242)
(9.44422 18.1093 -16.4605)
(9.44999 4.02175 -3.47544)
(-2.60229e-06 21.0144 3.40958)
(-6.74622e-06 20.5376 3.54581)
(-1.70299e-05 19.4909 2.6852)
(-9.39901 27.6734 -25.2165)
(-9.44584 18.0702 -16.4294)
(-9.45154 3.99149 -3.41363)
(9.34465 11.9767 -19.5558)
(9.34772 17.7226 -13.8204)
(9.3614 27.5279 -15.9964)
(-0.000200132 10.2073 -9.83817)
(-0.000157656 15.8633 -5.24711)
(-9.67336e-05 23.4809 -6.13904)
(-9.3647 11.9386 -19.4786)
(-9.36476 17.674 -13.7518)
(-9.37358 27.4399 -15.9479)
(9.35279 5.16373 -29.3706)
(9.36593 15.5772 -21.9211)
(9.36031 27.4289 -26.9705)
(-0.000158925 7.6329 -7.23866)
(-0.00011317 12.5516 -2.32499)
(-6.10707e-05 21.5317 -2.19917)
(-9.37028 5.1732 -29.2647)
(-9.37549 15.5491 -21.8518)
(-9.36584 27.398 -26.9422)
(9.39554 4.20398 -35.9884)
(9.37271 17.6004 -32.8664)
(9.37391 16.3336 -40.7925)
(-0.000121486 6.11321 -11.9728)
(-7.9049e-05 13.9089 -7.02706)
(-3.39855e-05 16.4743 -1.39113)
(-9.41273 4.21229 -35.8736)
(-9.37797 17.6023 -32.8041)
(-9.37603 16.3082 -40.7727)
(9.392 -4.35383 -57.4289)
(9.39771 -3.45825 -54.7589)
(9.40392 -10.2718 -59.513)
(2.51905e-05 -5.0176 10.6705)
(3.0827e-05 2.86317 19.0737)
(3.57659e-05 -9.52851 16.1385)
(-9.40511 -4.29916 -57.32)
(-9.39744 -3.42426 -54.7572)
(-9.40488 -10.2778 -59.4839)
(9.27668 1.82821 -123.72)
(9.27305 -1.08751 -125.052)
(9.27115 4.81607 -123.837)
(6.02495e-05 -1.7913 62.674)
(4.98202e-05 0.921797 65.5523)
(4.7262e-05 -2.01291 60.5148)
(-9.27651 1.80578 -123.663)
(-9.27287 -1.0818 -125.027)
(-9.27099 4.82319 -123.808)
(8.87636 -0.0116054 -159.127)
(8.87731 -0.0410837 -159.061)
(8.8784 -0.0568678 -158.835)
(3.8866e-05 -0.579526 176.719)
(3.77199e-05 0.418642 175.583)
(3.70697e-05 -0.567796 173.802)
(-8.87625 -0.0106902 -159.112)
(-8.8772 -0.0398113 -159.048)
(-8.87829 -0.056397 -158.822)
(9.35901 -27.5471 -16.0216)
(9.34735 -17.7512 -13.8243)
(9.34357 -11.9871 -19.5858)
(-0.000122366 -23.5332 -6.16845)
(-0.000177321 -15.9284 -5.24827)
(-0.000218538 -10.1851 -9.87072)
(-9.37369 -27.4649 -15.981)
(-9.36492 -17.7049 -13.7697)
(-9.36485 -11.9538 -19.513)
(9.35499 -27.4574 -26.9909)
(9.36229 -15.5827 -21.9344)
(9.3494 -5.16264 -29.4259)
(-8.69648e-05 -21.5671 -2.21862)
(-0.000133149 -12.631 -2.32584)
(-0.000175408 -7.62047 -7.27808)
(-9.36586 -27.4238 -26.9629)
(-9.37593 -15.5534 -21.8904)
(-9.37059 -5.1731 -29.3221)
(9.369 -16.3221 -40.8893)
(9.37064 -17.624 -32.8942)
(9.39543 -4.20673 -36.0658)
(-5.10343e-05 -16.4363 -1.48253)
(-9.61261e-05 -14.0112 -7.00623)
(-0.000134972 -6.11034 -12.0091)
(-9.37626 -16.3109 -40.8324)
(-9.37783 -17.6111 -32.8511)
(-9.41303 -4.21335 -35.9513)
(9.39877 10.2831 -59.6374)
(9.39695 3.44531 -54.8447)
(9.39218 4.35717 -57.557)
(3.99804e-05 9.5728 16.0703)
(3.39584e-05 -2.8993 19.0286)
(2.89391e-05 5.03916 10.6017)
(-9.4053 10.2879 -59.5804)
(-9.39788 3.42295 -54.8371)
(-9.40557 4.30813 -57.4392)
(9.2714 -4.82583 -123.947)
(9.27332 1.09466 -125.161)
(9.27691 -1.83309 -123.849)
(6.05679e-05 2.04301 60.5245)
(6.18657e-05 -0.943673 65.5728)
(7.07678e-05 1.80389 62.6763)
(-9.2712 -4.82734 -123.91)
(-9.27309 1.08725 -125.13)
(-9.2767 -1.81074 -123.787)
(8.87852 0.0570979 -158.934)
(8.87743 0.0416364 -159.16)
(8.87649 0.0120438 -159.226)
(4.55122e-05 0.576285 173.761)
(4.59711e-05 -0.425027 175.539)
(4.69373e-05 0.584081 176.671)
(-8.87839 0.0567283 -158.918)
(-8.8773 0.0406248 -159.144)
(-8.87635 0.0112528 -159.208)
)
;

boundaryField
{
    fuel
    {
        type            fixedValue;
        value           uniform (0 0 0.25);
    }
    primary_air
    {
        type            fixedValue;
        value           uniform (0 0 2.5);
    }
    Secondary_air_RHS
    {
        type            fixedValue;
        value           uniform (0 125 0);
    }
    Secondary_air_LHS
    {
        type            fixedValue;
        value           uniform (0 -125 0);
    }
    outlet
    {
        type            pressureInletOutletVelocity;
        value           nonuniform List<vector> 
18
(
(0 0 -158.934)
(4.55122e-05 0.576285 173.761)
(0 0 -158.918)
(0 0 -159.16)
(4.59711e-05 -0.425027 175.539)
(0 0 -159.144)
(0 0 -159.226)
(4.69373e-05 0.584081 176.671)
(0 0 -159.208)
(0 0 -159.127)
(3.8866e-05 -0.579526 176.719)
(0 0 -159.112)
(0 0 -159.061)
(3.77199e-05 0.418642 175.583)
(0 0 -159.048)
(0 0 -158.835)
(3.70697e-05 -0.567796 173.802)
(0 0 -158.822)
)
;
    }
    stove_body
    {
        type            noSlip;
    }
    frontAndBack
    {
        type            empty;
    }
}


// ************************************************************************* //
