/*--------------------------------*- C++ -*----------------------------------*\
  =========                 |
  \\      /  F ield         | OpenFOAM: The Open Source CFD Toolbox
   \\    /   O peration     | Website:  https://openfoam.org
    \\  /    A nd           | Version:  6
     \\/     M anipulation  |
\*---------------------------------------------------------------------------*/
FoamFile
{
    version     2.0;
    format      ascii;
    class       volScalarField;
    location    "5";
    object      O2;
}
// * * * * * * * * * * * * * * * * * * * * * * * * * * * * * * * * * * * * * //

dimensions      [0 0 0 0 0 0 0];

internalField   nonuniform List<scalar> 
297
(
0
0
0
0
0
0
0
0
0
0
0
0
0
0
0
0
0
0
0
0
0
0
0
0
0
0
0
0.0425155
0.0536413
0.103563
0.0174339
0.0264534
0.0796056
0.0423401
0.0537117
0.105505
0
0.00580565
0.0582713
0
0.000305797
0.0464971
0
0.00527647
0.0556132
0
0.000666123
0.0412616
0
0.00024147
0.0415864
0
0.000898684
0.0380857
0
0
0
9.77825e-06
3.41477e-05
0
4.52363e-08
0
0
0
0
0
0
0
0
0
0
0
0
0
0
0
0
0
0
0
0
0
0.000238434
0.00666375
0
0.000242142
0.0230725
0
5.12695e-06
0.00360906
0
3.57325e-06
0
0
0.000242317
0.00169208
0
2.0497e-06
0
0
2.00289e-06
0
0
0.000241131
0
0
6.1349e-07
0
0
0
0
0
0
0
0
0
0
0
0
0
0
0
0
0
0
0
0
0
0
0
0
0
0
0
0
0
0
6.54467e-28
3.74982e-20
1.09619e-23
7.1933e-28
6.97795e-18
8.09745e-23
2.60144e-27
3.73465e-20
1.13748e-24
2.40352e-29
1.59029e-21
6.81178e-25
9.07408e-29
2.05616e-19
1.59758e-24
2.49026e-29
4.55639e-21
4.26631e-25
1.72238e-29
3.59508e-22
2.60785e-26
1.04735e-29
5.01313e-25
1.86889e-27
1.17732e-30
7.64733e-28
1.36174e-27
7.80308e-26
2.65346e-26
2.67012e-26
2.66176e-23
3.97991e-25
3.02945e-25
8.09697e-25
1.93851e-27
8.63479e-27
4.89509e-27
5.58568e-23
3.36486e-23
2.98367e-24
5.61473e-24
6.01628e-24
7.47803e-24
2.00566e-27
1.52672e-26
1.74491e-26
5.49023e-23
3.21633e-23
1.32483e-26
1.30368e-23
4.59762e-24
3.1474e-24
1.91321e-28
2.33569e-28
3.4476e-28
7.44771e-27
6.25373e-26
5.58241e-26
5.49094e-26
5.31971e-25
5.08064e-25
1.56441e-28
2.18487e-28
3.71118e-28
2.82544e-26
7.69907e-26
5.30398e-24
1.54856e-25
1.18208e-24
1.13081e-24
2.37532e-28
1.83717e-28
4.33649e-28
3.97528e-24
2.23579e-23
4.52426e-23
2.8194e-25
1.80033e-24
1.59216e-23
1.02009e-28
1.42568e-28
3.16487e-28
5.24672e-24
2.22942e-23
3.23183e-23
4.28049e-25
7.84781e-24
1.661e-23
2.33287e-29
7.80411e-29
2.87115e-28
3.46864e-24
1.15386e-23
2.58469e-23
4.28154e-25
2.55941e-24
1.56201e-23
5.46651e-30
1.89877e-29
6.15746e-29
1.58572e-24
5.49763e-24
1.6944e-23
3.9413e-25
3.90342e-24
1.49187e-23
5.04001e-32
6.16162e-36
1.96307e-36
5.89966e-32
1.70756e-35
1.28568e-35
2.58996e-31
3.44042e-35
2.92914e-35
8.61558e-34
3.22209e-38
1.54042e-37
2.65009e-33
2.12798e-37
8.21384e-36
4.8407e-34
2.56858e-38
4.92116e-36
4.34851e-34
7.21275e-39
4.77998e-39
4.0105e-34
2.2136e-38
4.75514e-36
2.40995e-35
5.04856e-40
1.38037e-39
2.68323e-39
1.59512e-40
4.10642e-40
4.33474e-39
1.32555e-39
2.17654e-36
1.23807e-40
7.28991e-41
1.89129e-40
7.57996e-43
7.02515e-42
1.62315e-41
4.00498e-38
4.05645e-37
1.84144e-36
7.56146e-43
5.41114e-42
1.99518e-41
1.09035e-43
9.51221e-43
3.63256e-42
3.04789e-38
2.55964e-37
9.8859e-37
1.94848e-43
1.74284e-42
6.6058e-42
)
;

boundaryField
{
    fuel
    {
        type            fixedValue;
        value           uniform 0;
    }
    primary_air
    {
        type            fixedValue;
        value           uniform 0.23;
    }
    Secondary_air_RHS
    {
        type            fixedValue;
        value           uniform 0.23;
    }
    Secondary_air_LHS
    {
        type            fixedValue;
        value           uniform 0.23;
    }
    outlet
    {
        type            inletOutlet;
        inletValue      uniform 0;
        value           nonuniform List<scalar> 
18
(
0
3.04789e-38
0
0
2.55964e-37
0
0
9.8859e-37
0
0
1.58572e-24
0
0
5.49763e-24
0
0
1.6944e-23
0
)
;
    }
    stove_body
    {
        type            fixedValue;
        value           uniform 0;
    }
    frontAndBack
    {
        type            empty;
    }
}


// ************************************************************************* //
