/*--------------------------------*- C++ -*----------------------------------*\
  =========                 |
  \\      /  F ield         | OpenFOAM: The Open Source CFD Toolbox
   \\    /   O peration     | Website:  https://openfoam.org
    \\  /    A nd           | Version:  6
     \\/     M anipulation  |
\*---------------------------------------------------------------------------*/
FoamFile
{
    version     2.0;
    format      ascii;
    class       volScalarField;
    location    "5";
    object      T;
}
// * * * * * * * * * * * * * * * * * * * * * * * * * * * * * * * * * * * * * //

dimensions      [0 0 0 1 0 0 0];

internalField   nonuniform List<scalar> 
297
(
292.868
292.868
292.868
293.033
293.033
293.033
292.868
292.868
292.868
292.875
292.875
292.875
293.062
293.062
293.064
292.875
292.875
292.875
292.917
292.915
292.919
292.629
292.761
292.908
292.917
292.915
292.919
976.282
918.958
764.557
1036.43
1008.64
856.184
960.322
919.768
762.13
1213.54
1161.16
889.939
1089.52
1099.91
927.128
1116.12
1081.03
893.575
1304.25
1269.64
1053.4
1079.31
1139.38
970.584
1108.72
1151.09
992.761
994.563
1281.23
1320.48
903.006
1174.32
1202.34
884.148
1233.35
1264.04
914.97
1290.57
1324.19
767.91
1127.18
1215.3
776.028
1215.45
1271.76
550.076
1222.65
1327.38
469.351
831.503
1047.76
485.573
1053.07
1269.06
1316.41
1283.43
1143.52
1049.96
1142.26
1035.83
1114.33
1228.76
1091.09
1185.34
1285
1223.21
1005.24
1144.56
1071.08
1028.88
1229.12
1167.56
1074.6
1283.67
1305.62
964.871
1144.64
1190.37
950.945
1229.61
1245.93
375.718
549.085
560.041
313.195
308.759
302.991
303.802
349.728
373.649
368.079
375.819
373.193
318.96
308.642
302.954
306.272
312.856
309.961
344.022
337.373
335.291
320.287
316.381
305.593
307.46
309.676
305.967
300.378
300.431
300.55
301.194
301.09
301.016
300.656
300.625
300.662
300.673
300.599
300.642
301.487
301.366
301.23
301.103
300.899
300.835
300.886
300.743
300.654
301.819
301.704
301.468
301.369
301.147
300.899
302.719
310.484
310.705
301.552
303.192
304.327
299.192
299.658
300.013
310.697
366.928
367.392
321.456
331.953
329.235
301.435
301.622
301.789
305.5
357.669
359.83
325.271
333.32
328.342
306.723
305.74
305.652
301.759
301.816
301.532
300.646
300.951
300.979
299.318
299.593
299.078
302.096
301.685
301.221
300.99
301.287
302.015
299.355
300.34
300.195
302.154
301.55
301.09
302.004
307.758
317.535
299.062
300.936
306.78
301.152
300.828
300.499
300.39
305.802
308.638
299.253
301.138
301.97
298.376
298.171
297.433
299.183
303.462
306.279
293.165
294.962
299.153
292.116
292.084
291.355
287.955
288.045
285.745
291.096
291.412
303.595
300.507
300.562
300.564
301.033
301.024
300.869
300.593
300.611
300.653
300.472
300.586
300.703
301.207
301.134
300.809
300.59
300.604
300.694
300.382
300.617
300.857
301.383
301.142
300.798
300.572
300.686
300.776
300.145
300.619
300.552
302.056
301.077
299.119
300.576
300.795
300.685
298.093
297.935
298.076
299.979
298.854
298.366
298.023
297.774
297.961
291.684
291.681
291.803
287.503
287.229
287.45
291.702
291.699
291.821
)
;

boundaryField
{
    fuel
    {
        type            fixedValue;
        value           uniform 293;
    }
    primary_air
    {
        type            fixedValue;
        value           uniform 293;
    }
    Secondary_air_RHS
    {
        type            fixedValue;
        value           uniform 293;
    }
    Secondary_air_LHS
    {
        type            fixedValue;
        value           uniform 293;
    }
    outlet
    {
        type            inletOutlet;
        inletValue      uniform 293;
        value           nonuniform List<scalar> 
18
(
293
287.507
293
293
287.233
293
293
287.455
293
293
287.96
293
293
288.048
293
293
285.748
293
)
;
    }
    stove_body
    {
        type            fixedValue;
        value           uniform 293;
    }
    frontAndBack
    {
        type            empty;
    }
}


// ************************************************************************* //
