/*--------------------------------*- C++ -*----------------------------------*\
  =========                 |
  \\      /  F ield         | OpenFOAM: The Open Source CFD Toolbox
   \\    /   O peration     | Website:  https://openfoam.org
    \\  /    A nd           | Version:  6
     \\/     M anipulation  |
\*---------------------------------------------------------------------------*/
FoamFile
{
    version     2.0;
    format      ascii;
    class       volVectorField;
    location    "5";
    object      U;
}
// * * * * * * * * * * * * * * * * * * * * * * * * * * * * * * * * * * * * * //

dimensions      [0 1 -1 0 0 0 0];

internalField   nonuniform List<vector> 
297
(
(20.4138 -0.00404435 0.276724)
(20.4147 0.00268357 0.27546)
(20.4147 0.00672706 0.274457)
(-2.43867e-08 0.00800194 0.265432)
(-6.46155e-09 -0.00315441 0.264045)
(7.4131e-09 -0.0109075 0.264217)
(-20.4138 -0.00404005 0.276726)
(-20.4147 0.00268989 0.27546)
(-20.4147 0.00672918 0.274457)
(20.4138 -0.00163364 0.292453)
(20.4147 0.00170464 0.291678)
(20.4147 0.00427374 0.290375)
(-2.4877e-08 0.0288334 -0.0232639)
(-6.98355e-09 -0.014784 -0.0112744)
(3.95142e-09 -0.0387534 -0.0134466)
(-20.4138 -0.00162881 0.292456)
(-20.4147 0.0017115 0.291679)
(-20.4147 0.00427582 0.290375)
(20.4184 -0.015299 0.489809)
(20.4183 0.00785554 0.489664)
(20.4186 0.0266211 0.48581)
(-1.9491e-08 0.0675855 0.333565)
(-6.09608e-09 -0.0258487 0.324101)
(5.67771e-10 0.0117467 0.32416)
(-20.4184 -0.0152926 0.489814)
(-20.4183 0.00786408 0.489665)
(-20.4186 0.0266236 0.485811)
(44.4792 24.0467 -31.2953)
(41.8329 37.5496 -15.4134)
(34.7416 48.954 24.2091)
(-0.0582498 5.63468 -87.9986)
(-0.0167643 36.4308 -54.1191)
(0.030917 51.0844 23.0778)
(-43.9039 24.3559 -31.6219)
(-41.9225 37.1866 -15.3885)
(-34.5579 47.8339 23.8391)
(56.0571 12.4532 -4.32817)
(53.1884 60.9297 69.7857)
(40.4584 30.3038 98.8773)
(0.277677 -26.5787 -148.691)
(0.138004 56.2762 -23.2257)
(-0.10978 35.9499 92.6835)
(-50.7715 14.3529 -10.3342)
(-49.1868 62.8531 59.6494)
(-41.005 33.5048 96.7891)
(58.8246 -34.3307 -31.6826)
(57.3253 41.2785 36.8519)
(48.765 92.039 214.445)
(-0.290182 -44.7554 -182.69)
(-0.197052 65.3304 33.277)
(0.215834 64.1636 129.454)
(-50.7791 -19.4177 -32.7208)
(-52.4299 44.5391 24.6242)
(-45.3516 85.3359 203.634)
(44.9717 -50.7096 -136.24)
(58.3679 -77.6052 -53.8825)
(59.7174 61.4161 124.69)
(0.190055 -23.5024 -285.951)
(-0.180384 -71.5292 -41.2646)
(-0.14239 41.0692 112.056)
(-39.6384 -49.3663 -135.874)
(-56.8086 -87.9142 -60.4257)
(-57.5061 55.6157 115.535)
(41.8873 -41.5172 -114.985)
(59.3485 -67.7986 -26.402)
(61.2339 17.4843 61.1496)
(-0.107991 -50.8034 -96.5763)
(0.0388473 -52.0965 -68.6319)
(0.180705 -4.96214 20.5959)
(-35.7685 -20.3676 -116.555)
(-55.8585 -66.3989 -41.0397)
(-58.2616 15.6708 51.3563)
(25.3603 -10.1357 -36.9587)
(56.1918 -39.695 -33.4574)
(61.1757 -7.01634 41.5375)
(0.0153104 -4.94678 -41.7859)
(-0.0152948 -33.5707 -32.784)
(-0.00372478 -23.7426 3.13963)
(-22.3485 8.22649 -34.6801)
(-48.544 -37.664 -37.5556)
(-58.5322 -8.03273 33.2275)
(52.9866 -79.2266 -181.427)
(55.5377 -59.1686 -72.2585)
(55.6871 72.9813 240.532)
(-0.206636 -62.6829 -315.64)
(-0.370484 30.7847 62.8364)
(-0.0423126 60.4215 175.368)
(-42.5887 -59.0234 -148.726)
(-54.7106 -69.9432 -60.3161)
(-54.4096 69.4826 235.576)
(48.4349 -73.5953 -159.365)
(54.4708 -65.4972 -78.1128)
(54.1115 73.456 250.368)
(-0.228597 -54.8763 -310.25)
(-0.365787 17.6204 58.0287)
(-0.05227 62.2481 190.245)
(-38.9844 -59.45 -146.316)
(-53.8191 -80.0717 -69.7213)
(-53.5514 69.8341 245.143)
(47.3637 -70.8538 -146.968)
(57.0044 -68.5422 -80.3697)
(53.4986 82.521 267.177)
(-0.266368 -55.92 -300.253)
(-0.35697 -10.9032 71.7794)
(-0.0604839 59.2248 219.93)
(-42.7066 -59.5021 -144.616)
(-56.0518 -88.8272 -71.0144)
(-51.6168 77.9937 260.928)
(17.2463 -0.434225 -12.0015)
(25.2888 -36.8088 -4.51514)
(25.7833 -34.1044 2.87589)
(0.0143157 -12.9133 -10.5278)
(0.00587148 -27.7475 -8.52442)
(-0.00212583 -29.1348 -6.98722)
(-13.9206 24.6719 -13.883)
(-16.1019 -36.1764 -4.67836)
(-17.2307 -36.1717 -2.03868)
(16.973 -25.8721 -2.32964)
(17.3236 -32.891 1.74666)
(17.1747 -31.2289 6.06756)
(0.0166208 -8.39057 -6.23903)
(0.0132792 -17.1143 -3.11385)
(-0.00502789 -19.4468 0.851819)
(-14.0827 1.39115 3.34648)
(-14.3938 -30.375 2.00269)
(-14.2884 -29.9178 2.5324)
(15.8875 -2.98511 -0.211514)
(15.5756 -15.9815 1.08974)
(15.4573 -15.2798 4.89906)
(0.0164421 -8.76228 -1.90881)
(0.0194449 -7.34485 -2.70966)
(0.00425087 -3.81013 -2.96527)
(-14.1544 -12.7414 0.436433)
(-14.2555 -13.3873 3.37575)
(-14.1098 -3.69546 3.28319)
(13.8352 -34.6901 -6.74796)
(13.8583 -31.1431 -9.57925)
(13.7994 -24.5239 -14.1575)
(-0.00167543 -28.431 -6.16616)
(-0.00319095 -25.5101 -7.24983)
(-0.00697628 -19.9837 -7.51764)
(-13.8562 -37.3901 -7.97904)
(-13.8792 -32.9474 -10.1784)
(-13.8222 -25.2838 -15.005)
(13.8855 -27.5899 1.1995)
(13.8864 -28.0581 -4.68901)
(13.787 -24.1189 -13.5445)
(0.00334486 -22.121 1.76454)
(0.00067077 -21.7222 1.8201)
(-0.00451446 -17.0596 1.72597)
(-13.8954 -28.5639 -0.391964)
(-13.9028 -30.2953 -5.92775)
(-13.8035 -24.2142 -14.3954)
(13.9142 -1.67043 -0.887172)
(13.9081 -14.3199 -14.2853)
(13.8052 -20.6844 -19.8622)
(0.00763446 -5.48931 0.214294)
(0.00461329 -8.2496 1.99346)
(-0.00149198 -10.9357 0.692309)
(-13.9197 0.729037 -2.80724)
(-13.9169 -14.2314 -14.1204)
(-13.8157 -20.9494 -20.6993)
(13.8941 22.7433 -12.2221)
(14.265 22.0447 -9.33548)
(14.2597 26.3346 -6.62639)
(-0.0301591 8.92168 -3.63764)
(-0.0166573 7.26609 -2.73025)
(-0.00414536 10.1865 -0.575834)
(-13.7351 45.3067 -10.6608)
(-13.7599 42.2649 -9.747)
(-13.7833 39.7068 -7.24686)
(14.268 12.692 -3.83866)
(16.8619 -12.3668 4.67839)
(16.9329 -20.8101 1.45254)
(-0.0358731 -5.25708 5.53036)
(-0.0215614 -12.0435 2.24132)
(-0.00378526 -9.41524 -2.93285)
(-13.9345 34.3777 4.03258)
(-13.942 28.0552 6.63224)
(-13.8909 26.5289 7.438)
(14.0434 10.1629 2.01849)
(16.4433 -2.83251 5.366)
(16.5793 5.63046 5.53866)
(-0.0354984 -20.9681 5.53581)
(-0.0218493 -10.2533 2.53633)
(-0.00385694 -7.13526 1.14079)
(-14.1544 -21.4048 4.50879)
(-14.1081 -16.3993 2.60421)
(-14.0617 -11.9386 2.24244)
(13.8064 -5.31415 -6.89834)
(13.7888 1.61395 -19.9429)
(13.793 7.07068 -17.5409)
(0.00949635 5.97979 -6.83634)
(-0.0121316 5.7435 -4.61155)
(-0.0312303 8.88475 -4.21294)
(-13.6174 19.8269 -29.5014)
(-13.6288 25.9012 -22.4657)
(-13.7663 43.3674 -17.2398)
(13.8293 -4.75427 2.17758)
(13.7913 1.43747 -29.7353)
(13.7919 2.95375 -22.5432)
(-0.000534944 0.79095 7.0995)
(-0.0267012 5.12195 6.97009)
(-0.0391826 6.00771 11.2446)
(-13.6659 5.34528 -45.3053)
(-13.7391 19.519 -26.2973)
(-13.8705 33.8666 -5.13773)
(13.8273 -2.25979 4.54909)
(13.8843 1.23742 -37.265)
(13.8277 0.23704 -26.9951)
(-0.0105986 -0.869129 5.70542)
(-0.0327361 -10.2997 17.0332)
(-0.0425678 -18.2378 17.5815)
(-13.8329 2.12963 -56.2061)
(-13.8118 17.6121 -17.8834)
(-14.0751 -20.501 17.4722)
(13.7549 1.81208 -16.5519)
(13.7607 1.32093 -56.0275)
(13.7243 -0.39346 -57.905)
(-0.0585404 0.0912514 51.9985)
(-0.0607954 -2.52517 33.46)
(-0.0647762 -7.28289 33.4216)
(-13.8678 -10.0851 -85.1906)
(-13.935 14.8012 34.3472)
(-13.9761 -6.70435 64.8042)
(13.6212 0.845655 -115.437)
(13.6195 1.66362 -120.122)
(13.5843 1.06371 -120.547)
(-0.0328722 1.84464 78.3133)
(-0.0329599 2.73811 64.3383)
(-0.0364711 0.338558 66.4095)
(-13.4719 2.64274 -123.167)
(-13.5894 -1.71409 -65.6965)
(-13.7692 -0.41665 102.634)
(13.1973 0.125458 -149.913)
(13.1931 0.199471 -150.151)
(13.157 0.0744048 -150.195)
(0.0653712 0.426722 180.925)
(0.0706097 0.427393 182.16)
(0.0751375 -0.200429 207.291)
(-12.9693 -2.96745 -141.735)
(-12.9839 -6.23324 -108.161)
(-13.5 -3.9573 -1.48892)
(13.8018 -14.3187 -23.2792)
(13.814 -3.14664 -20.7341)
(13.8175 4.98849 -8.26283)
(-0.00804344 -12.4494 -10.3282)
(-0.00740596 -3.77236 -9.37701)
(-0.0066704 3.99753 0.442261)
(-13.8295 -15.055 -24.2348)
(-13.8363 -2.84902 -21.2802)
(-13.8397 4.71975 -8.74541)
(13.7962 -16.775 -26.2565)
(13.813 -4.47471 -23.8829)
(13.8133 -0.525549 6.3737)
(-0.00553796 -12.3568 -6.77697)
(-0.00534849 -4.96696 -7.19054)
(-0.00527636 2.04211 11.6141)
(-13.8174 -17.146 -27.0301)
(-13.8279 -4.24779 -24.264)
(-13.8272 -1.00296 6.77845)
(13.8439 -11.4051 -33.0299)
(13.9349 -3.0381 -27.698)
(13.8025 -2.47987 -1.38627)
(-0.00262154 -6.92986 -8.00006)
(-0.00288375 -5.04805 -11.8727)
(-0.00331458 2.01566 15.6772)
(-13.855 -11.2345 -33.6201)
(-13.9491 -4.04459 -28.1374)
(-13.8084 -2.37555 -1.55931)
(13.8244 9.98934 -54.4504)
(13.8505 -1.99056 -37.6862)
(13.8189 -4.86181 -4.91705)
(0.00200565 11.7452 15.0959)
(0.00185065 -1.69338 25.1616)
(0.00180096 -2.05564 48.9928)
(-13.8387 10.1364 -54.648)
(-13.8545 -2.00488 -38.3487)
(-13.8208 -4.90253 -5.28797)
(13.6568 -6.09329 -106.883)
(13.6475 -0.574615 -111.4)
(13.6544 -0.305142 -105.169)
(-0.00198756 -0.576544 55.5152)
(-0.0021403 -1.94609 63.6686)
(-0.00221314 -1.68723 74.6159)
(-13.659 -6.18374 -107.308)
(-13.6458 -0.524349 -111.777)
(-13.6548 -0.281164 -105.571)
(13.1038 0.046342 -144.687)
(13.1038 -0.119827 -144.82)
(13.1111 -0.130514 -144.549)
(-0.000146311 -0.481162 185.123)
(-0.000127954 -1.29291 185.614)
(-0.000111916 -1.00182 181.625)
(-13.105 0.0476394 -144.788)
(-13.1049 -0.118486 -144.922)
(-13.1122 -0.12991 -144.647)
)
;

boundaryField
{
    fuel
    {
        type            fixedValue;
        value           uniform (0 0 0.25);
    }
    primary_air
    {
        type            fixedValue;
        value           uniform (0 0 2.5);
    }
    Secondary_air_RHS
    {
        type            fixedValue;
        value           uniform (0 52.7778 0);
    }
    Secondary_air_LHS
    {
        type            fixedValue;
        value           uniform (0 -52.7778 0);
    }
    outlet
    {
        type            pressureInletOutletVelocity;
        value           nonuniform List<vector> 
18
(
(0 0 -144.687)
(-0.000146311 -0.481162 185.123)
(0 0 -144.788)
(0 0 -144.82)
(-0.000127954 -1.29291 185.614)
(0 0 -144.922)
(0 0 -144.549)
(-0.000111916 -1.00182 181.625)
(0 0 -144.647)
(0 0 -149.913)
(0.0653712 0.426722 180.925)
(0 0 -141.735)
(0 0 -150.151)
(0.0706097 0.427393 182.16)
(0 0 -108.161)
(0 0 -150.195)
(0.0751375 -0.200429 207.291)
(0 0 -1.48892)
)
;
    }
    stove_body
    {
        type            noSlip;
    }
    frontAndBack
    {
        type            empty;
    }
}


// ************************************************************************* //
