/*--------------------------------*- C++ -*----------------------------------*\
  =========                 |
  \\      /  F ield         | OpenFOAM: The Open Source CFD Toolbox
   \\    /   O peration     | Website:  https://openfoam.org
    \\  /    A nd           | Version:  6
     \\/     M anipulation  |
\*---------------------------------------------------------------------------*/
FoamFile
{
    version     2.0;
    format      ascii;
    class       volScalarField;
    location    "1";
    object      p;
}
// * * * * * * * * * * * * * * * * * * * * * * * * * * * * * * * * * * * * * //

dimensions      [1 -1 -2 0 0 0 0];

internalField   nonuniform List<scalar> 
297
(
112789
112789
112789
183837
183837
183837
112789
112789
112789
112789
112789
112789
183837
183837
183837
112789
112789
112789
112789
112789
112789
183838
183838
183838
112789
112789
112789
97528
97553.4
97538
159450
159432
159449
97538.3
97553.5
97527.9
97475.7
97500.2
97497.8
159259
159276
159259
97497.4
97500.2
97476
97369.2
97495.8
97451.4
158214
158768
158216
97450.2
97496.4
97370
97384.1
97443.9
97342.9
159284
158989
159282
97343.6
97444.2
97383.9
97341.5
97385.2
97261.2
159215
159165
159213
97262.6
97385.8
97340.9
97275.4
97379.7
97151.3
158963
159036
158962
97152.6
97380.6
97275.2
97232.7
97587.9
97186.6
156388
158292
156390
97187
97590.4
97232.9
97202.8
97584.3
97151.6
156180
158355
156182
97152
97586.2
97202.9
97189.2
97569.7
97144.7
156376
158519
156378
97145.1
97568.8
97188.8
97600.2
97626.9
97549.2
158936
159034
158935
97548.5
97626.6
97598.2
97665.2
97675.5
97635.6
159051
159048
159050
97634.4
97674.9
97662.8
97688.4
97685.2
97677.8
159127
159077
159126
97676.4
97684.4
97685.7
97697.2
97641.2
97606.7
158538
158692
158906
97659.1
97599
97554.3
97641.2
97544
97460
158799
158799
158915
97626.1
97536
97443.8
97616.8
97517.9
97438.1
158917
158805
158728
97609.2
97516.1
97415.4
97557.3
97602.9
97663.2
158907
158692
158539
97603.1
97637.3
97693.9
97446.9
97540
97630.3
158915
158800
158800
97456.4
97540
97637.8
97418.3
97520.3
97613.5
158729
158806
158918
97434.9
97514
97613.4
98417.9
98171.7
97760.3
159073
159056
159031
98671.9
98380.3
97875.8
98119.4
97807.8
97528.9
158986
158949
158988
98348.3
97964.6
97597.8
97781.7
97503.6
97322.7
158767
158638
158603
97993.2
97619.1
97374.9
96589.9
96514
96494.6
157257
157157
157090
96723.7
96628
96612.7
95340.8
95381.2
95435.5
153234
153218
153219
95217.7
95266.7
95334.6
92442
92523.2
92587.2
141637
141659
141693
92058.1
92131.5
92195.6
97878.6
98382.5
98673.8
159031
159056
159073
97758.3
98170.5
98417
97600.2
97966.1
98348.9
158988
158949
158986
97527.1
97806.9
98119.3
97376.3
97619.4
97992
158602
158638
158766
97321.9
97504.2
97785.3
96607.6
96623.7
96720.2
157088
157156
157255
96500.8
96520.1
96597.2
95339.3
95270.6
95221.1
153221
153220
153237
95428.9
95374.5
95332.3
92193.6
92129.5
92056.1
141694
141659
141637
92588.7
92524.6
92443.3
)
;

boundaryField
{
    fuel
    {
        type            zeroGradient;
    }
    primary_air
    {
        type            zeroGradient;
    }
    Secondary_air_RHS
    {
        type            zeroGradient;
    }
    Secondary_air_LHS
    {
        type            zeroGradient;
    }
    outlet
    {
        type            totalPressure;
        rho             rho;
        psi             none;
        gamma           1;
        p0              uniform 100000;
        value           nonuniform List<scalar> 
18
(
93549.1
100000
93841.2
93168.6
100000
93537
92005.1
100000
92325.9
92325.9
100000
92004.7
93536.5
100000
93169.2
93840.7
100000
93549.8
)
;
    }
    stove_body
    {
        type            zeroGradient;
    }
    frontAndBack
    {
        type            empty;
    }
}


// ************************************************************************* //
