/*--------------------------------*- C++ -*----------------------------------*\
  =========                 |
  \\      /  F ield         | OpenFOAM: The Open Source CFD Toolbox
   \\    /   O peration     | Website:  https://openfoam.org
    \\  /    A nd           | Version:  6
     \\/     M anipulation  |
\*---------------------------------------------------------------------------*/
FoamFile
{
    version     2.0;
    format      ascii;
    class       surfaceScalarField;
    location    "1";
    object      phi;
}
// * * * * * * * * * * * * * * * * * * * * * * * * * * * * * * * * * * * * * //

dimensions      [1 0 -1 0 0 0 0];

internalField   nonuniform List<scalar> 
675
(
-1.35918e-07
-0.000211596
0.000331265
2.32086e-07
-0.000218607
0.000337803
-0.000211229
0.000331028
8.37835e-06
0.000211598
-0.000236754
-9.57289e-06
0.000218609
-0.000224393
0.000211232
-0.000237166
-1.33815e-07
0.000331284
2.35669e-07
0.000337821
0.000331046
-1.83481e-07
1.49129e-05
0.000316629
3.31934e-07
1.39547e-05
0.000323452
1.50443e-05
0.000316406
2.46225e-07
-1.49085e-05
-0.000207335
-3.80134e-07
-1.39498e-05
-0.000196017
-1.50382e-05
-0.000207672
-1.81158e-07
0.000316647
3.35813e-07
0.000323469
0.000316422
-2.8062e-06
0.000199977
3.17772e-06
0.000198017
0.000200117
-2.43201e-06
-0.000199991
2.52085e-06
-0.000198029
-0.00020013
-2.80327e-06
3.18209e-06
-0.00586313
0.00589415
0.00317741
0.0061101
0.00312174
-0.0118865
0.00596411
0.00335317
0.00175526
-0.00596828
0.0153524
-0.00174112
-0.00312344
0.0149849
-0.00589146
0.0153574
-0.00609353
0.00333403
0.00587837
-0.011887
0.0031937
-0.00145403
0.00813494
-0.00350373
0.000314137
0.00288342
-0.0165386
0.00860759
-0.00494119
-0.000637774
-0.00859835
0.0327236
0.000607501
-0.00288476
0.0195071
-0.00814558
0.0327165
-0.000354759
-0.00490934
0.00141216
-0.0165391
-0.00354032
0.00698027
0.0123493
-0.0228347
0.000830408
0.0052868
-0.0156527
0.0151929
-0.0193024
-0.0319619
-0.0151933
0.0922301
0.0319422
-0.00529975
-0.0338104
-0.0123425
0.0921966
-0.000841876
-0.0192628
-0.00699296
-0.015712
-0.0228756
-0.00120876
-0.00649272
-0.0199249
0.0276267
0.0051937
0.0075899
-0.0263537
0.0123706
-0.00551251
-0.0132438
0.0239543
0.0190851
0.0055057
0.040274
-0.07136
-0.019066
-0.00758513
0.00429286
0.0490346
0.00650197
0.0402657
-0.0713475
-0.00519231
-0.0132266
0.0239227
0.00121787
-0.0263634
0.0123611
-0.0199369
0.0276589
0.00238362
-0.00475504
-0.0175532
0.000258455
-0.0016295
-0.0225995
-0.0018532
-0.0111312
0.00857996
0.00184766
0.0250908
-0.0085646
0.00162662
0.0181803
0.00475852
0.0250916
-0.000248117
-0.0111329
-0.00237865
-0.0226097
-0.0175579
-0.0028322
-0.000324194
-0.0143953
-0.00729229
-0.00125411
-0.0168876
-0.00296225
-0.0154664
-0.0101456
0.0029581
0.0319584
0.0101481
0.00125252
-0.00461744
0.000323513
0.031954
0.00729606
-0.0154667
0.00283432
-0.0168899
-0.0143946
0.000839727
-0.00271826
-0.0241536
-0.00016487
-0.00181455
-0.0128295
-0.00178637
-0.020876
-0.00277291
0.00179306
0.0853446
0.00277231
0.001884
-0.0430531
0.00271176
0.0853272
0.000167485
-0.0208348
-0.000832879
-0.01283
-0.0241951
0.000371231
-0.00144031
-0.026281
0.000140308
-0.00126832
-0.0113296
-0.00111694
-0.0228135
-0.00138799
0.00112055
0.079032
0.00138823
0.0013153
-0.0484119
0.00143666
0.0790265
-0.000135771
-0.0227742
-0.00036326
-0.0112867
-0.026319
0.000318988
-0.00216964
0.00014397
0.0012183
-0.00191005
-0.00154335
0.00190613
0.00154333
-0.00124829
0.00217312
-0.000140186
-0.000316693
0.0025645
-0.00250972
-0.00392074
-0.0105285
-0.00586334
-0.00108057
-0.00738038
-0.00381724
-0.00502063
-0.0124945
-0.00154277
0.00381721
0.0162768
0.0108977
0.00154498
0.00108012
-0.00986561
0.00251048
0.0162727
0.0108981
0.00586271
-0.00502102
-0.0124917
-0.0025639
-0.00738175
-0.00392087
-0.0105254
0.00297198
0.00044073
0.000897849
-0.00823045
-0.00461191
0.00124363
-0.00104155
-0.000209567
0.000437204
-0.00986317
-0.000847109
0.000209571
0.0048753
0.0124798
0.000849858
-0.00124448
-0.00907426
-0.000439639
0.00487213
0.01248
0.00461143
0.000437017
-0.00986064
-0.00297096
-0.00104225
0.000898007
-0.00822745
0.00120981
0.00211211
-0.0024233
-0.00242388
0.00259059
0.00183016
-0.00382
0.00194774
-0.00182989
0.00686946
-0.00194428
-0.00259147
-0.00211227
0.00686974
0.00242406
-0.00381773
-0.00120799
-0.00242011
-0.0120224
-0.00167923
0.00120579
-0.0123859
-0.000868191
0.00123092
-0.00100896
0.0013607
-0.0127375
0.00689776
0.00124104
0.00107949
0.00640065
0.000719323
-0.001091
0.00094801
0.000632463
0.00381082
-0.0103928
0.0011088
-0.0107985
0.00112464
0.00134624
-0.0111976
-0.00953015
-0.00195064
0.00282176
-0.00969034
-0.00060946
0.00199961
-0.000305634
0.000782397
-0.00880635
0.0111392
0.00134566
-0.000876732
0.0104256
0.000500801
-0.00148832
0.000524139
0.00257075
0.0076571
-0.00822636
0.00245373
-0.00847004
0.00186879
0.00145733
-0.00805786
-0.00129108
0.000291222
-0.0001439
0.000851374
0.000822824
-0.000184232
0.00680239
-0.000518766
0.00703363
-0.000868752
-0.000530452
0.0109573
-0.00048483
0.000514958
0.00144101
0.0108
-0.000946998
0.00134648
-0.0111977
0.010396
-0.000718538
0.00112487
-0.00124013
0.0011094
-0.00639997
0.00100942
0.000632552
0.00381052
-0.00689684
0.000868661
-0.00109099
0.00168019
0.00108003
0.0123829
0.0013603
-0.0127357
0.0120185
0.0012305
0.00120527
0.00847144
-0.000523413
0.00145814
-0.00805743
0.00822956
-0.000500045
0.0018692
-0.00134369
0.00245373
-0.010426
0.000305341
0.00257109
0.0076579
-0.0111394
0.000609521
-0.0014879
0.00195186
-0.00087558
0.00968756
0.000780797
-0.00880502
0.00952657
0.00199861
0.00282154
-0.000513434
0.000531936
0.00144177
0.000487902
0.000869921
0.000519641
-0.00703507
-0.000821728
0.0109591
-0.00680345
-0.000850302
-0.00029039
0.000141432
-0.000184189
0.00128782
0.00694356
0.000284103
-0.00722679
0.0114043
-0.00125258
-0.00320741
-2.53954e-05
0.000233539
0.00429471
-0.000278112
-0.003733
-0.0007383
0.00103694
0.00274287
-3.06724e-06
0.00304913
0.00780937
-0.00808912
0.0127908
-0.00394581
5.04445e-05
0.00496645
0.000267221
-0.0124612
0.00814017
-0.000603029
-0.00577721
0.000406003
-8.84359e-05
0.00327679
-0.00032583
-0.00641735
-0.00394898
0.000618211
0.00874674
-0.000469543
0.00763294
0.00534777
-0.0137594
0.00852386
-0.00650444
-0.000701604
0.00501787
0.00232145
-0.0198054
0.00409221
-0.000847622
-0.00400399
-0.000399855
0.00584625
0.000713112
-0.00258729
-0.00222172
-0.00682787
0.00132929
0.0141105
-2.90883e-05
0.011393
0.00489058
-0.0212334
0.0054018
-0.00568583
0.00448629
0.0045116
0.0066498
-0.0309907
0.00539775
0.0031518
-0.00804751
0.00240545
0.0088371
0.0112198
-0.00751714
0.000728926
0.0128738
-0.00348284
0.0190953
-0.00331923
0.0299971
0.00329983
-0.0320267
0.00605114
-0.0119151
0.00722661
-0.0123964
0.010516
-0.0290815
-0.0115468
0.00712879
-0.0160244
0.00662525
-0.00933872
-7.98153e-05
-0.0102743
0.0215966
-0.00343429
-0.00654552
0.0361216
-0.00627445
0.039459
-0.0128477
-0.0294865
-0.0124671
-0.0188452
-0.0115216
-0.00864417
0.022315
-0.00647894
0.0214898
0.0230273
-0.00767559
-0.0217336
-0.0077428
-0.0206206
-0.0218454
-0.00762625
-0.00635889
-0.0127919
3.90295e-06
5.12574e-05
-0.0078099
-0.00103646
-0.00394435
0.000279153
-0.0080874
0.000738627
2.67003e-05
0.00304929
-0.00429493
0.00125378
0.00274337
-0.000282997
-0.00373265
-0.0114047
0.000233009
-0.00694369
-0.00320815
-0.00722799
-0.0085245
0.000470365
-0.000700067
-0.00534728
-0.000617463
-0.00650199
0.000325725
-0.0137553
0.00394871
-0.000404969
0.00763291
-0.00327746
0.000603918
0.00874821
-0.000267981
-0.00641632
-0.00814093
-8.98791e-05
-0.00496759
-0.0057795
-0.0124685
-0.00540134
2.97998e-05
0.00448814
-0.00488821
-0.00132867
-0.00568402
0.00258667
-0.0212329
0.00682572
0.000400923
0.0113933
-0.000714075
0.000848117
0.0141113
-0.00232255
-0.00222121
-0.00409366
0.0058445
-0.00502223
-0.00400606
-0.0198113
-0.00605468
0.00331895
0.0072304
-0.00330623
0.00348279
-0.0119105
0.00751718
-0.0320235
-0.0128767
-0.00240649
0.0299979
-0.0112221
-0.00315429
0.0190954
-0.00665331
0.000728671
-0.00540478
0.0088336
-0.00452538
-0.00805224
-0.0309942
0.0124683
0.00626954
-0.0115242
0.0128484
0.00654063
-0.0188473
0.010268
-0.0294892
0.0034365
-0.00663012
0.0394596
8.33115e-05
-0.00713257
0.0361215
-0.0105184
0.0215981
0.0115564
-0.0093362
0.0124178
-0.0160235
-0.0290784
0.00635857
0.0218437
0.00762595
0.0206193
0.0217297
0.00774313
-0.02303
0.00767625
-0.0214923
-0.0223205
0.00648014
0.00864495
)
;

boundaryField
{
    fuel
    {
        type            calculated;
        value           nonuniform List<scalar> 
36
(
0.000119437
0.000194674
0.000119437
0.000119437
0.000194674
0.000119437
0.000119437
0.000194674
0.000119437
-0.000119437
-0.000194673
-0.000119437
-0.000119437
-0.000194673
-0.000119437
-0.000119437
-0.000194672
-0.000119437
0
0
0
0
0
0
0
0
0
0
0
0
0
0
0
0
0
0
)
;
    }
    primary_air
    {
        type            calculated;
        value           nonuniform List<scalar> 9(-0.0032071 -0.00524333 -0.00320744 -0.00320794 -0.00524276 -0.00320794 -0.00320743 -0.00524331 -0.0032071);
    }
    Secondary_air_RHS
    {
        type            calculated;
        value           nonuniform List<scalar> 9(0.00319588 0.00514273 0.0031974 0.00319472 0.00513587 0.00319641 0.0031945 0.00514232 0.00319595);
    }
    Secondary_air_LHS
    {
        type            calculated;
        value           nonuniform List<scalar> 9(0.00319739 0.00514265 0.00319589 0.00319641 0.0051358 0.00319474 0.00319596 0.00514227 0.00319451);
    }
    outlet
    {
        type            calculated;
        value           nonuniform List<scalar> 
18
(
-0.0397253
0.0765912
-0.0388457
-0.0407324
0.0783013
-0.0396802
-0.0435907
0.0733262
-0.0427539
-0.0427549
0.0733246
-0.0435909
-0.0396822
0.0783024
-0.04073
-0.0388479
0.0765919
-0.0397228
)
;
    }
    stove_body
    {
        type            calculated;
        value           uniform 0;
    }
    frontAndBack
    {
        type            empty;
        value           nonuniform 0();
    }
}


// ************************************************************************* //
