/*--------------------------------*- C++ -*----------------------------------*\
  =========                 |
  \\      /  F ield         | OpenFOAM: The Open Source CFD Toolbox
   \\    /   O peration     | Website:  https://openfoam.org
    \\  /    A nd           | Version:  6
     \\/     M anipulation  |
\*---------------------------------------------------------------------------*/
FoamFile
{
    version     2.0;
    format      ascii;
    class       volScalarField;
    location    "1";
    object      Qdot;
}
// * * * * * * * * * * * * * * * * * * * * * * * * * * * * * * * * * * * * * //

dimensions      [1 -1 -3 0 0 0 0];

internalField   nonuniform List<scalar> 
297
(
0
3.1362e-05
-1.13732e-11
-9.09858e-11
1.88991e-05
1.88992e-05
1.88991e-05
3.1362e-05
3.1362e-05
1.24628e-05
0
0
1.5681e-05
9.44922e-06
9.44922e-06
1.24628e-05
1.88992e-05
1.88992e-05
1.88992e-05
1.88991e-05
1.88992e-05
1.5681e-05
1.56806e-05
9.44922e-06
2.51305e-05
-9.09858e-11
6.23132e-06
-3.37194e-10
-3.57256e-10
-3.63943e-10
-3.63943e-10
-3.10445e-10
5.34981e-11
0
0
-3.37194e-10
-3.57256e-10
0
-3.57256e-10
0
-3.37194e-10
-3.37194e-10
6.68726e-12
0
-3.57256e-10
0
0
-3.63943e-10
-3.37194e-10
-3.57256e-10
0
0
0
0
-3.63943e-10
-3.63943e-10
0
0
8.35908e-13
0
4.17954e-13
0
-3.63943e-10
4.17954e-13
-3.63943e-10
4.17954e-13
-7.26215e-10
1.67182e-12
0
4.17954e-13
0
-3.63943e-10
-3.63943e-10
2.08977e-13
4.17954e-13
0
0
-7.26215e-10
-3.63943e-10
0
-3.63734e-10
0
2.08977e-13
-3.63943e-10
1.33745e-11
-7.27887e-10
-3.63943e-10
0
0
0
0
0
0
-3.63943e-10
0
6.68726e-12
-3.63943e-10
4.17954e-13
-3.63943e-10
0
0
-3.63943e-10
1.67182e-12
0
-3.62272e-10
-3.63943e-10
-3.63943e-10
0
0
-3.63943e-10
-3.63734e-10
8.35908e-13
4.17954e-13
0
0
0
-3.63734e-10
0
0
-3.63943e-10
0
0
0
0
0
0
-3.63734e-10
-3.63943e-10
0
8.35908e-13
4.17954e-13
0
0
0
2.08977e-13
0
0
-3.63891e-10
0
-7.27887e-10
0
0
1.04488e-13
5.22442e-14
-3.63734e-10
-3.63943e-10
5.22442e-14
8.35908e-13
8.35908e-13
0
2.08977e-13
-3.63839e-10
-3.63943e-10
0
-3.63891e-10
-3.63943e-10
8.35908e-13
4.17954e-13
8.35908e-13
-3.63734e-10
-3.63943e-10
5.22442e-14
-3.63943e-10
0
0
8.35908e-13
0
-7.27051e-10
-3.63943e-10
-3.63943e-10
-3.63943e-10
0
-3.63943e-10
-3.63734e-10
-7.27887e-10
8.35908e-13
8.35908e-13
0
-3.63891e-10
-3.63734e-10
5.22442e-14
0
2.08977e-13
-7.27469e-10
0
0
0
5.22442e-14
0
3.26526e-15
0
0
0
-7.27887e-10
0
0
2.61221e-14
2.61221e-14
3.26526e-15
0
2.61221e-14
0
0
8.35908e-13
-3.63943e-10
0
-3.63943e-10
3.26526e-15
2.61221e-14
-3.63943e-10
-7.27883e-10
-7.27887e-10
0
0
0
5.22442e-14
-3.63943e-10
0
0
0
2.08977e-13
0
0
0
0
0
0
2.61221e-14
-3.6394e-10
-3.63734e-10
0
0
0
0
0
0
7.97184e-19
6.53053e-15
0
-3.63943e-10
9.9648e-20
0
7.97184e-19
0
2.61221e-14
8.16316e-16
-7.27887e-10
0
0
2.61221e-14
0
3.26526e-15
2.61221e-14
2.61221e-14
-3.63943e-10
8.35908e-13
4.17954e-13
3.26526e-15
0
-3.63943e-10
-3.63943e-10
0
5.22442e-14
-3.63943e-10
-7.27887e-10
-7.27887e-10
3.26526e-15
-3.63839e-10
2.61221e-14
-3.6394e-10
-3.63943e-10
3.26526e-15
8.16316e-16
-7.27469e-10
-7.27887e-10
-7.27887e-10
-3.63943e-10
0
-3.63943e-10
6.53053e-15
-3.63943e-10
8.16316e-16
0
-3.63943e-10
-3.6394e-10
0
1.30611e-14
-3.6394e-10
0
0
-3.63943e-10
0
-3.63943e-10
0
0
3.98592e-19
0
)
;

boundaryField
{
    fuel
    {
        type            calculated;
        value           uniform 0;
    }
    primary_air
    {
        type            calculated;
        value           uniform 0;
    }
    Secondary_air_RHS
    {
        type            calculated;
        value           uniform 0;
    }
    Secondary_air_LHS
    {
        type            calculated;
        value           uniform 0;
    }
    outlet
    {
        type            calculated;
        value           uniform 0;
    }
    stove_body
    {
        type            calculated;
        value           uniform 0;
    }
    frontAndBack
    {
        type            empty;
    }
}


// ************************************************************************* //
