/*--------------------------------*- C++ -*----------------------------------*\
  =========                 |
  \\      /  F ield         | OpenFOAM: The Open Source CFD Toolbox
   \\    /   O peration     | Website:  https://openfoam.org
    \\  /    A nd           | Version:  6
     \\/     M anipulation  |
\*---------------------------------------------------------------------------*/
FoamFile
{
    version     2.0;
    format      ascii;
    class       volScalarField;
    location    "2.5";
    object      O2;
}
// * * * * * * * * * * * * * * * * * * * * * * * * * * * * * * * * * * * * * //

dimensions      [0 0 0 0 0 0 0];

internalField   nonuniform List<scalar> 
297
(
0
0
0
0
0
0
0
0
0
0
0
0
0
0
0
0
0
0
0
0
0
0
0
0
0
0
0
0.101035
0.13836
0.212795
0.180755
0.203888
0.22634
0.104297
0.142616
0.215262
0
0.0323066
0.0404323
0.0160128
0.148356
0.192547
0
0.0415369
0.0522243
0
0.0289374
0
0.0148106
0.0256186
0.106482
0
0.0361286
0
0.00443598
0.0111964
0.00335617
0
0.00245891
0
0.00578668
0.0142813
0.00423112
9.11053e-07
3.20946e-07
9.08679e-08
1.64312e-06
7.73766e-08
3.78124e-09
1.07577e-06
4.8278e-07
1.01778e-07
4.73131e-11
1.27971e-11
1.59606e-12
9.38343e-11
2.47143e-11
1.46001e-12
6.61866e-11
2.65915e-11
5.84294e-12
0
0.0252502
0
0
0.00245988
0.044212
0
0.0303392
0
0
0.0249557
0
0
0.00245929
0
0
0.0299871
0
0
0.0243053
0
0
0.0024591
0
0
0.0292193
0
1.99053e-15
7.21259e-16
5.54788e-17
2.46922e-15
8.41753e-16
3.71817e-17
2.36872e-15
1.67869e-15
3.96263e-16
5.06838e-19
2.95497e-19
8.32603e-21
3.64896e-19
3.95626e-19
1.14864e-20
5.26926e-19
1.0594e-18
2.62012e-19
3.83059e-20
7.86968e-20
1.32356e-22
1.78658e-20
2.1885e-19
2.08295e-20
1.04287e-19
1.05543e-18
1.04929e-18
1.34418e-21
4.79365e-26
3.20395e-30
8.56838e-22
9.88717e-24
2.22878e-26
1.58326e-20
1.94117e-22
3.86582e-25
3.66287e-24
3.63227e-26
2.16053e-29
1.42636e-22
9.70334e-23
3.79676e-27
3.27066e-20
1.54289e-21
6.24175e-25
9.75648e-23
2.09057e-25
6.47226e-29
3.89137e-21
4.81011e-24
9.32943e-28
8.97792e-19
1.34697e-20
9.28134e-25
1.99174e-29
9.97459e-25
4.69723e-20
1.8742e-29
8.46163e-25
4.46356e-20
4.07467e-29
1.06931e-24
5.27537e-20
5.18636e-32
9.44561e-28
2.03528e-23
1.75734e-30
3.3264e-26
6.39582e-24
7.71316e-32
1.2599e-27
1.97501e-23
4.31123e-32
5.30778e-28
5.62277e-24
3.34443e-31
1.37135e-27
1.84038e-24
7.47706e-32
1.44959e-27
1.22266e-23
8.6147e-38
1.36578e-37
1.25799e-33
2.02635e-37
1.96692e-37
7.51636e-34
2.62512e-37
2.65569e-37
2.43339e-33
3.76686e-39
1.2936e-40
2.50729e-36
1.5903e-37
7.58024e-39
7.79582e-35
2.29577e-38
2.8021e-40
4.34107e-36
1.82723e-41
1.59098e-41
8.82628e-37
8.77921e-38
9.51702e-40
1.66802e-35
4.31277e-41
3.67126e-41
1.68618e-36
2.00382e-42
4.86771e-43
3.60212e-42
3.89144e-38
3.42132e-41
1.65289e-40
3.39985e-42
9.96059e-43
1.24552e-41
2.62733e-43
6.5593e-44
1.17838e-44
2.08077e-38
3.22212e-39
3.9158e-40
2.02138e-43
6.38877e-44
7.42772e-45
3.44222e-44
6.76488e-45
8.41156e-46
9.82993e-39
1.8883e-39
2.41229e-40
6.1849e-44
1.23825e-44
1.51699e-45
4.72882e-34
2.74115e-37
1.15107e-37
6.16646e-30
9.25989e-33
8.07884e-33
9.31091e-29
2.89654e-32
2.21361e-32
1.71931e-33
1.42394e-37
1.13054e-38
1.29871e-30
2.43517e-33
2.72431e-33
3.41566e-29
4.86405e-33
9.17685e-33
1.78171e-33
4.7892e-38
3.57781e-40
2.47515e-30
3.97973e-34
5.58383e-35
2.51842e-29
1.42769e-33
2.2431e-34
1.78955e-38
9.93732e-40
1.42955e-40
1.49988e-34
1.14915e-35
2.15984e-36
2.33011e-34
4.38495e-38
2.45572e-39
5.21821e-40
5.59138e-41
1.1471e-41
7.30015e-35
4.47461e-36
1.34861e-36
1.15983e-39
4.20878e-41
1.58286e-41
1.00326e-40
6.92997e-42
2.27417e-42
2.96864e-35
1.95005e-36
6.29487e-37
1.80457e-40
1.26639e-41
4.37268e-42
)
;

boundaryField
{
    fuel
    {
        type            fixedValue;
        value           uniform 0;
    }
    primary_air
    {
        type            fixedValue;
        value           uniform 0.23;
    }
    Secondary_air_RHS
    {
        type            fixedValue;
        value           uniform 0.23;
    }
    Secondary_air_LHS
    {
        type            fixedValue;
        value           uniform 0.23;
    }
    outlet
    {
        type            inletOutlet;
        inletValue      uniform 0;
        value           nonuniform List<scalar> 
18
(
0
2.96864e-35
0
0
1.95005e-36
0
0
6.29487e-37
0
0
9.82993e-39
0
0
1.8883e-39
0
0
2.41229e-40
0
)
;
    }
    stove_body
    {
        type            fixedValue;
        value           uniform 0;
    }
    frontAndBack
    {
        type            empty;
    }
}


// ************************************************************************* //
