/*--------------------------------*- C++ -*----------------------------------*\
  =========                 |
  \\      /  F ield         | OpenFOAM: The Open Source CFD Toolbox
   \\    /   O peration     | Website:  https://openfoam.org
    \\  /    A nd           | Version:  6
     \\/     M anipulation  |
\*---------------------------------------------------------------------------*/
FoamFile
{
    version     2.0;
    format      ascii;
    class       volScalarField;
    location    "2.5";
    object      Qdot;
}
// * * * * * * * * * * * * * * * * * * * * * * * * * * * * * * * * * * * * * //

dimensions      [1 -1 -3 0 0 0 0];

internalField   nonuniform List<scalar> 
297
(
-0.000140613
-0.000213232
-0.000213232
0
0
0
-0.000353845
-0.000140613
0
0
0
-0.000213232
0
-0.000426463
0
-0.000140613
0
-0.000353845
-0.000213232
0
-0.000353845
-2.66539e-05
-1.75725e-05
0
-0.000213232
-0.000140613
-0.000213232
0
0
-1.50899e-10
0
0
1.75131e-09
2.56639e-10
-3.77248e-11
8.75657e-10
0
-4.7156e-12
5.03847e-10
0
0
-1.50899e-10
0
0
4.94416e-10
2.56639e-10
-4.7156e-12
0
0
0
1.02656e-09
0
0
0
5.13278e-10
5.13278e-10
5.13278e-10
0
1.02656e-09
5.13278e-10
2.56639e-10
-4.7156e-12
5.12099e-10
-1.43909e-16
-2.87818e-16
0
-2.87818e-16
-7.19544e-17
0
5.13278e-10
0
2.05311e-09
-7.0268e-20
4.10622e-09
-2.19587e-21
0
-7.0268e-20
0
0
0
0
0
-4.7156e-12
0
0
0
0
0
0
5.13278e-10
0
0
5.13278e-10
5.13278e-10
1.02656e-09
0
2.56639e-10
-4.7156e-12
0
0
0
0
0
0
5.13278e-10
0
-4.7156e-12
0
0
4.10622e-09
0
-8.57763e-24
0
0
-4.28882e-24
0
0
4.10622e-09
4.10622e-09
0
-1.04707e-27
0
-3.27211e-29
0
-2.09415e-27
4.10622e-09
0
-1.30884e-28
-2.55633e-31
-6.54421e-29
-5.23537e-28
-6.54421e-29
0
0
4.10622e-09
-2.04507e-30
0
0
8.21245e-09
0
8.21245e-09
-3.27211e-29
0
0
0
-6.24105e-35
-3.04739e-38
0
0
-1.56026e-35
4.10622e-09
4.10622e-09
0
0
-4.99284e-34
-1.21895e-37
0
0
0
4.10622e-09
0
0
4.10622e-09
0
4.10622e-09
0
8.21245e-09
0
0
0
0
0
0
0
0
8.21245e-09
-1.59771e-32
-1.19039e-40
4.10622e-09
0
0
0
-7.98854e-33
0
-3.90066e-36
0
4.10622e-09
4.10622e-09
4.10622e-09
0
4.10622e-09
-1.85998e-42
8.21245e-09
0
-1.85998e-42
4.10622e-09
0
-3.71995e-42
0
0
0
-4.54096e-46
-2.8381e-47
0
0
0
-7.26554e-45
0
-2.77158e-50
4.10622e-09
0
0
-5.81243e-44
4.10622e-09
0
0
0
0
0
-1.13524e-46
0
-4.43453e-49
4.10622e-09
4.10622e-09
-2.77158e-50
-4.3306e-52
4.10622e-09
0
0
4.10622e-09
-8.86906e-49
4.10622e-09
0
0
0
0
0
4.10622e-09
4.10622e-09
0
-1.08265e-52
4.10622e-09
0
-9.29989e-43
0
-2.27048e-46
0
-2.97596e-41
0
4.10622e-09
0
0
-3.71995e-42
-2.27048e-46
4.10622e-09
8.21245e-09
0
0
0
-7.43991e-42
-1.48798e-41
0
0
-8.86906e-49
0
-9.29989e-43
0
4.10622e-09
4.10622e-09
0
0
-1.77381e-48
4.10622e-09
8.21245e-09
0
8.21245e-09
-4.64994e-43
4.10622e-09
-3.54763e-48
-8.86906e-49
-1.10863e-49
-2.77158e-50
8.21245e-09
-1.45311e-44
-3.63277e-45
-1.77381e-48
-5.54316e-50
-2.77158e-50
4.10622e-09
0
-3.46448e-51
0
4.10622e-09
-1.81638e-45
0
0
-6.92896e-51
)
;

boundaryField
{
    fuel
    {
        type            calculated;
        value           uniform 0;
    }
    primary_air
    {
        type            calculated;
        value           uniform 0;
    }
    Secondary_air_RHS
    {
        type            calculated;
        value           uniform 0;
    }
    Secondary_air_LHS
    {
        type            calculated;
        value           uniform 0;
    }
    outlet
    {
        type            calculated;
        value           uniform 0;
    }
    stove_body
    {
        type            calculated;
        value           uniform 0;
    }
    frontAndBack
    {
        type            empty;
    }
}


// ************************************************************************* //
