/*--------------------------------*- C++ -*----------------------------------*\
  =========                 |
  \\      /  F ield         | OpenFOAM: The Open Source CFD Toolbox
   \\    /   O peration     | Website:  https://openfoam.org
    \\  /    A nd           | Version:  6
     \\/     M anipulation  |
\*---------------------------------------------------------------------------*/
FoamFile
{
    version     2.0;
    format      ascii;
    class       volScalarField;
    location    "3.5";
    object      p;
}
// * * * * * * * * * * * * * * * * * * * * * * * * * * * * * * * * * * * * * //

dimensions      [1 -1 -2 0 0 0 0];

internalField   nonuniform List<scalar> 
297
(
122901
122901
122901
202827
202827
202827
122901
122901
122901
122890
122891
122890
202842
202839
202842
122890
122891
122890
122888
122890
122888
202854
202849
202854
122888
122890
122888
97141.6
97146.5
97166.3
161163
161155
161186
97121.3
97126.6
97145
97239.1
97149.6
97261.2
161001
161135
160951
97214.6
97131.1
97242.2
96603.1
96493
96509
157078
159670
156889
96600.3
96489.4
96503.2
94913.6
96174.6
95043.1
158715
158548
158911
94942.5
96148.1
95045
96753.9
96925.7
96817.3
161231
160792
161193
96748
96880.8
96882.4
96890.1
97094.1
97012
161091
161115
161135
96783.2
97022.1
97138.4
90703
96096.9
90227.9
145222
157032
144979
90831.6
96078.4
90301.5
90123.6
96079.2
89628.8
143598
156814
143507
90274.6
96059.4
89719.2
90382.9
96098.7
89953.7
144508
156901
144553
90538.3
96077.1
90053.5
97188.2
97372.3
97284
161005
161140
161120
97039.7
97264.5
97344.7
97249.9
97417.8
97349.3
161035
161166
161138
97115.3
97304
97383.6
97275.4
97416.1
97371.2
161063
161181
161147
97146.8
97308.4
97395
97227.8
97154.2
97111.8
160996
160962
160896
97228.5
97131.4
97061.2
97157.2
96983.2
96838.8
160975
160932
160823
97188.9
97028.2
96871.4
97148.2
96945.9
96784.3
160982
160888
160695
97178.5
97000.6
96815.1
96884.2
96998.2
97085.8
160357
160644
160740
97083.3
97027.9
97036
96503.6
96801.8
97017.4
160239
160627
160757
96507.1
96735.3
96950.9
96388.2
96760.8
97020.3
159992
160540
160768
96340.7
96663.7
96951.6
99309.9
98437
97325.2
160327
160180
160081
99524.7
98862.4
97776.2
98373.8
97261.1
96546.5
159585
159173
159453
98595.8
97767.1
96815.1
97361.2
96465.5
95969.1
158755
158249
158509
97420.1
96656.3
96036.5
93503.6
93423.2
93334.9
153871
153696
153447
92658.4
92513
92338.8
91076.6
91195.6
91258.8
147910
147919
147866
88782.4
88727
88685.7
87218.5
87333.3
87479.6
138387
138403
138388
86820.5
86980.1
87255
97465.2
98235.2
98818.1
160760
160754
160851
97269.6
97804.1
98243.5
96974.9
97471.2
98165.5
160486
160315
160530
96897.3
97226.3
97731.7
96692.1
97020.3
97567.5
160086
159948
160215
96639.1
96836.4
97215.7
95690.6
95718.7
95782.6
158283
158377
158476
95459.5
95495.2
95545
94342.6
94296.2
94225.1
154947
154962
154956
94442.9
94426.9
94383.1
90737
90653.4
90577.8
144200
144176
144140
91549.8
91463.2
91364.3
)
;

boundaryField
{
    fuel
    {
        type            zeroGradient;
    }
    primary_air
    {
        type            zeroGradient;
    }
    Secondary_air_RHS
    {
        type            zeroGradient;
    }
    Secondary_air_LHS
    {
        type            zeroGradient;
    }
    outlet
    {
        type            totalPressure;
        rho             rho;
        psi             none;
        gamma           1;
        p0              uniform 100000;
        value           nonuniform List<scalar> 
18
(
92507.2
100000
92978.5
92311.4
100000
92850.2
92076.8
100000
92605.4
88739.4
100000
87791.1
88965
100000
91703.7
89368.4
100000
99768.4
)
;
    }
    stove_body
    {
        type            zeroGradient;
    }
    frontAndBack
    {
        type            empty;
    }
}


// ************************************************************************* //
