/*--------------------------------*- C++ -*----------------------------------*\
  =========                 |
  \\      /  F ield         | OpenFOAM: The Open Source CFD Toolbox
   \\    /   O peration     | Website:  https://openfoam.org
    \\  /    A nd           | Version:  6
     \\/     M anipulation  |
\*---------------------------------------------------------------------------*/
FoamFile
{
    version     2.0;
    format      ascii;
    class       surfaceScalarField;
    location    "3.5";
    object      phi;
}
// * * * * * * * * * * * * * * * * * * * * * * * * * * * * * * * * * * * * * //

dimensions      [1 0 -1 0 0 0 0];

internalField   nonuniform List<scalar> 
675
(
-2.55535e-06
-0.000213046
0.00033422
1.73918e-06
-0.000225089
0.000339424
-0.00021601
0.000336371
1.53417e-05
0.000213046
-0.00024808
-4.96779e-06
0.000225089
-0.000236485
0.000216011
-0.000243628
-2.5552e-06
0.000334221
1.7393e-06
0.000339425
0.000336373
-2.8941e-06
1.90034e-05
0.000318116
1.55928e-06
1.10088e-05
0.000323978
1.77426e-05
0.000320194
4.67404e-06
-1.90024e-05
-0.00021479
-3.59092e-06
-1.10078e-05
-0.000206181
-1.77415e-05
-0.000211773
-2.8939e-06
0.000318118
1.55945e-06
0.000323981
0.000320196
-8.25545e-06
0.000207755
4.87913e-06
0.000192242
0.000206455
7.31042e-06
-0.000207755
-7.73002e-06
-0.000192243
-0.000206456
-8.25505e-06
4.87945e-06
-0.0058628
0.00589571
0.00317506
0.0061101
0.00312253
-0.0118875
0.00596528
0.00335128
0.00175437
-0.00596943
0.0153553
-0.00173978
-0.00312429
0.0149834
-0.00589292
0.0153601
-0.00609302
0.00333191
0.00587804
-0.0118875
0.00319127
-0.00145036
0.00813768
-0.00351223
0.000311745
0.00288687
-0.0165364
0.00860975
-0.00494723
-0.000637587
-0.00860031
0.0327317
0.000606846
-0.00288823
0.0195146
-0.00814827
0.0327245
-0.00035273
-0.00491499
0.00140812
-0.0165361
-0.0035486
0.00697737
0.0123506
-0.0228413
0.000828187
0.00528969
-0.0156539
0.0151929
-0.0193109
-0.031968
-0.015193
0.0922392
0.0319488
-0.00530203
-0.0338091
-0.0123432
0.0922163
-0.000838897
-0.019271
-0.00699005
-0.0157118
-0.0228813
-0.00121005
-0.00649444
-0.0199266
0.0276295
0.00519402
0.00758911
-0.0263555
0.0123712
-0.00551452
-0.0132488
0.0239619
0.0190875
0.00550793
0.0402867
-0.0713743
-0.0190699
-0.00758419
0.0042891
0.0490384
0.00650433
0.0402769
-0.0713609
-0.00519256
-0.0132314
0.0239275
0.00121746
-0.0263665
0.0123612
-0.0199412
0.0276644
0.00238394
-0.0047581
-0.0175557
0.000258766
-0.00163101
-0.0226005
-0.00185454
-0.0111332
0.00858071
0.00184668
0.0250971
-0.00856851
0.00162511
0.0181824
0.0047598
0.0250995
-0.000250529
-0.0111346
-0.00238065
-0.0226092
-0.0175582
-0.00282995
-0.000327312
-0.0144035
-0.00728909
-0.0012536
-0.0168931
-0.00295793
-0.015468
-0.0101447
0.00295531
0.0319585
0.0101473
0.00125325
-0.00461698
0.000326991
0.031962
0.0072942
-0.0154682
0.00283463
-0.0168916
-0.0143939
0.00083931
-0.00271759
-0.0241595
-0.00016432
-0.0018142
-0.0128318
-0.00178569
-0.0208847
-0.00277329
0.00179244
0.0853609
0.00277339
0.0018834
-0.0430528
0.00271117
0.0853464
0.000167111
-0.020842
-0.000832446
-0.0128311
-0.0242011
0.000370854
-0.00143997
-0.0262855
0.000140774
-0.00126856
-0.0113323
-0.00111663
-0.0228221
-0.00138819
0.0011203
0.0790528
0.00138896
0.00131539
-0.0484166
0.00143632
0.07904
-0.000136063
-0.0227803
-0.000362856
-0.0112884
-0.0263252
0.000318949
-0.00217014
0.000144155
0.00121616
-0.00191078
-0.00154381
0.00190679
0.00154415
-0.00124643
0.00217368
-0.000140222
-0.000316649
0.00256285
-0.00251055
-0.00392693
-0.0105281
-0.0058646
-0.00108042
-0.0073862
-0.00381615
-0.00502311
-0.0124944
-0.00154111
0.00381745
0.0162782
0.0108952
0.00154538
0.00108088
-0.00986503
0.00251126
0.0162799
0.010898
0.00586525
-0.0050235
-0.0124913
-0.00256002
-0.00738479
-0.00392104
-0.0105234
0.00296979
0.0004408
0.000893414
-0.00822974
-0.00461421
0.00124331
-0.00104646
-0.000209311
0.000435844
-0.00986517
-0.000845024
0.000210841
0.00487681
0.0124789
0.000850651
-0.00124286
-0.00907488
-0.000439088
0.00487626
0.0124813
0.00461488
0.000435537
-0.00986187
-0.00296661
-0.00104567
0.000896594
-0.00822559
0.00120632
0.00211181
-0.00242335
-0.00243122
0.00259009
0.00182986
-0.00382669
0.00195094
-0.00182784
0.00686812
-0.00194454
-0.00258972
-0.00211152
0.00687014
0.00243247
-0.00382358
-0.0012025
-0.00241989
-0.0120203
-0.00167876
0.00120487
-0.0123818
-0.000867977
0.00123064
-0.00100885
0.00136137
-0.0127326
0.00689703
0.00124001
0.00108041
0.00640071
0.000719752
-0.00109354
0.000948566
0.000627567
0.0038139
-0.0103939
0.00110866
-0.0108008
0.00112439
0.00134573
-0.0111998
-0.00953135
-0.00195066
0.00282195
-0.00968823
-0.000607398
0.00199611
-0.000301969
0.000777356
-0.00880058
0.0111385
0.00134468
-0.000874368
0.0104234
0.000501304
-0.00148945
0.00052498
0.00256765
0.0076544
-0.0082274
0.00245304
-0.008473
0.00186887
0.0014572
-0.00806143
-0.00129535
0.000290754
-0.000148997
0.000850593
0.000820867
-0.000191098
0.00680362
-0.000519124
0.00703227
-0.000869557
-0.000532175
0.0109514
-0.000487981
0.000509242
0.00143272
0.0107978
-0.000946785
0.00134668
-0.0111961
0.0103942
-0.000718674
0.00112453
-0.00124054
0.00110859
-0.00640212
0.00101093
0.000628663
0.00381747
-0.00689531
0.000869959
-0.00109328
0.00168057
0.00108069
0.0123773
0.00136166
-0.0127287
0.0120157
0.00123095
0.00120487
0.00846958
-0.000522945
0.00145826
-0.00805604
0.00822793
-0.000499894
0.00186855
-0.00134393
0.00245265
-0.0104267
0.000302968
0.00257058
0.00766101
-0.0111382
0.000608633
-0.00148798
0.00195278
-0.000873352
0.00968338
0.000777202
-0.00879683
0.00952636
0.00199588
0.00282195
-0.000512748
0.000532314
0.00144088
0.000488389
0.000869767
0.000519439
-0.00703719
-0.000818953
0.0109611
-0.00680482
-0.000848528
-0.000288944
0.000144119
-0.000186842
0.00129079
0.00694208
0.000283582
-0.00722432
0.0114026
-0.00125325
-0.00320577
-2.58037e-05
0.000234166
0.00428999
-0.000276809
-0.00372874
-0.000746569
0.00103896
0.00274548
-1.53838e-06
0.00304826
0.0078034
-0.00808105
0.0127835
-0.003942
5.23866e-05
0.00496527
0.000267042
-0.0124578
0.00813891
-0.000602755
-0.00577521
0.00040607
-8.72973e-05
0.00327566
-0.000326656
-0.00640988
-0.00395363
0.000620063
0.00875312
-0.000468947
0.00763206
0.00534247
-0.0137549
0.0085184
-0.00649995
-0.000695984
0.00501674
0.00232147
-0.0197998
0.00409279
-0.000847807
-0.00400336
-0.000399193
0.00584663
0.000713388
-0.00258938
-0.00221276
-0.00682748
0.00133131
0.0141155
-2.7306e-05
0.0113947
0.00488736
-0.0212328
0.00539888
-0.00568281
0.00448773
0.00451881
0.00665275
-0.0309888
0.00540404
0.00315486
-0.00804966
0.00240924
0.00883248
0.0112212
-0.00751422
0.000726516
0.012876
-0.00347751
0.0190873
-0.00331489
0.0299895
0.00328979
-0.0320351
0.00604557
-0.011927
0.00721471
-0.0123998
0.0105153
-0.0290819
-0.0115528
0.00712619
-0.0160207
0.00662228
-0.00933759
-7.75782e-05
-0.0102796
0.0216021
-0.00343152
-0.00655874
0.0361267
-0.00628625
0.0394663
-0.0128248
-0.0294772
-0.0124545
-0.0188358
-0.0115146
-0.00864552
0.022318
-0.0064784
0.0214899
0.023027
-0.00767368
-0.0217372
-0.00774173
-0.0206236
-0.0218474
-0.00762589
-0.00635803
-0.0127868
3.4356e-06
5.21761e-05
-0.00780529
-0.00103756
-0.0039422
0.000278504
-0.00808109
0.000743813
2.59172e-05
0.00304672
-0.0042919
0.0012536
0.00274413
-0.000284145
-0.00372942
-0.0114069
0.000231966
-0.00694462
-0.00320953
-0.00722962
-0.00852098
0.000470523
-0.000696282
-0.00534194
-0.0006186
-0.00650049
0.000324498
-0.0137465
0.0039498
-0.000406227
0.00762722
-0.00327727
0.000602838
0.00874937
-0.000267765
-0.00641448
-0.00814423
-9.25119e-05
-0.00496846
-0.00578267
-0.0124624
-0.00540015
2.84338e-05
0.00448575
-0.00488362
-0.00133018
-0.0056854
0.00258678
-0.0212233
0.00682145
0.000399233
0.0113858
-0.000714627
0.000847466
0.0141078
-0.00232009
-0.00222157
-0.0040985
0.00583745
-0.00501853
-0.00401376
-0.0198033
-0.00604688
0.00331473
0.00722627
-0.00327553
0.00347513
-0.0119157
0.00750835
-0.0320268
-0.0128747
-0.00241574
0.0299995
-0.0112185
-0.00316111
0.0190973
-0.00665814
0.000736323
-0.00541162
0.00884138
-0.00454164
-0.00803997
-0.0309777
0.0124522
0.00627914
-0.0115222
0.0127998
0.00655291
-0.0188422
0.01028
-0.0294894
0.00343017
-0.00661548
0.0394575
7.20583e-05
-0.00711795
0.0361186
-0.0105129
0.0215917
0.0115641
-0.00934447
0.0124282
-0.0160263
-0.0290901
0.00635739
0.0218425
0.00762628
0.0206187
0.0217258
0.00774063
-0.0230276
0.00767339
-0.0214905
-0.02232
0.00647825
0.00864708
)
;

boundaryField
{
    fuel
    {
        type            calculated;
        value           nonuniform List<scalar> 
36
(
0.000118616
0.000193363
0.000118616
0.000118616
0.000193363
0.000118616
0.000118616
0.000193363
0.000118616
-0.000118616
-0.000193362
-0.000118616
-0.000118616
-0.000193362
-0.000118616
-0.000118616
-0.000193362
-0.000118616
0
0
0
0
0
0
0
0
0
0
0
0
0
0
0
0
0
0
)
;
    }
    primary_air
    {
        type            calculated;
        value           nonuniform List<scalar> 9(-0.00320711 -0.00524323 -0.00320745 -0.00320795 -0.00524267 -0.00320795 -0.00320744 -0.00524322 -0.00320711);
    }
    Secondary_air_RHS
    {
        type            calculated;
        value           nonuniform List<scalar> 9(0.00319587 0.00514251 0.00319739 0.00319472 0.00513566 0.0031964 0.00319449 0.00514215 0.00319594);
    }
    Secondary_air_LHS
    {
        type            calculated;
        value           nonuniform List<scalar> 9(0.00319739 0.00514233 0.00319589 0.00319641 0.00513546 0.00319474 0.00319596 0.00514195 0.00319451);
    }
    outlet
    {
        type            calculated;
        value           nonuniform List<scalar> 
18
(
-0.0397228
0.0765937
-0.0388461
-0.0407302
0.0783023
-0.0396811
-0.0435894
0.0733191
-0.0427584
-0.0427579
0.0733227
-0.043588
-0.0396815
0.0783014
-0.0407267
-0.0388466
0.0765929
-0.0397194
)
;
    }
    stove_body
    {
        type            calculated;
        value           uniform 0;
    }
    frontAndBack
    {
        type            empty;
        value           nonuniform 0();
    }
}


// ************************************************************************* //
