/*--------------------------------*- C++ -*----------------------------------*\
  =========                 |
  \\      /  F ield         | OpenFOAM: The Open Source CFD Toolbox
   \\    /   O peration     | Website:  https://openfoam.org
    \\  /    A nd           | Version:  6
     \\/     M anipulation  |
\*---------------------------------------------------------------------------*/
FoamFile
{
    version     2.0;
    format      ascii;
    class       surfaceScalarField;
    location    "3.5";
    object      phi;
}
// * * * * * * * * * * * * * * * * * * * * * * * * * * * * * * * * * * * * * //

dimensions      [1 0 -1 0 0 0 0];

internalField   nonuniform List<scalar> 
675
(
-3.68834e-06
-0.000576596
0.0057864
4.09774e-06
-0.000568181
0.00576665
-0.000576777
0.00578701
1.26686e-06
0.000576596
0.00743632
3.2243e-08
0.000568182
0.00745825
0.000576778
0.00743722
-3.69046e-06
0.0057864
4.09907e-06
0.00576665
0.00578702
-4.65521e-06
-0.000767807
0.00655889
4.89941e-06
-0.000833158
0.00658955
-0.000768303
0.0065602
7.17504e-05
0.000767806
0.00582781
-8.05171e-05
0.000833157
0.00594745
0.000768302
0.00581901
-4.65713e-06
0.00655888
4.90115e-06
0.00658956
0.0065602
-3.30467e-06
0.00135656
6.89377e-06
0.0013733
0.00136147
-5.30651e-05
-0.00135656
5.207e-05
-0.0013733
-0.00136147
-3.30436e-06
6.89406e-06
-0.00127756
0.00463835
0.00941551
-0.00452492
0.00456387
0.0114627
0.00683729
0.00142199
-5.62119e-05
-0.00395691
0.0298489
-0.0053154
-0.00401766
0.0350396
-0.00613455
0.0288618
-0.00136934
0.0101871
-0.00426806
0.0116571
0.00237683
0.0142615
0.0123068
-0.0171387
-0.0196297
0.0018897
0.0434715
0.014874
-0.033069
0.00328041
-0.0118493
0.0507456
-0.0104797
-0.0013007
0.0520086
-0.0139725
0.0472461
0.0131052
-0.0147546
-0.0195708
0.043041
-0.0311556
0.0111159
0.0487804
-0.0770263
-0.00942303
0.0171095
0.0469082
0.0456316
-0.0881101
-0.0801195
-0.0490428
0.22869
0.0805045
-0.0168983
-0.0746028
-0.0456085
0.219002
0.011101
-0.0749022
-0.010136
0.0473795
-0.086894
-0.0373026
-0.037373
-0.0233192
0.0979953
0.0383395
0.00326917
-0.041883
-0.0370219
-0.0379913
-0.0314765
0.107815
0.0083368
0.0364496
0.109358
-0.191493
-0.0132709
-0.00286654
-0.0722489
0.0999931
0.037875
0.0902229
-0.179348
-0.0380807
-0.0216466
0.0961714
0.0374931
-0.0408254
-0.0376124
-0.0314961
0.106869
0.00720755
-0.0205836
-0.00993978
-0.00433141
-0.00301347
-0.0273197
-0.0175315
-0.0182661
0.0297424
0.0219011
0.0371136
-0.0354196
0.00385732
-0.0139399
0.0182233
0.0190713
0.00587295
-0.00560634
-0.0070883
-0.0239804
-0.0203537
0.0155203
-0.0114573
-0.0140156
0.00538402
-0.000705345
-0.0164888
0.00173167
-0.014602
-0.0114983
0.0103066
0.0268891
-0.024065
0.00113637
-0.0032224
-0.00240093
-0.000873214
0.0158721
-0.0111239
0.00912894
-0.0160816
-0.013633
-0.00133539
-0.00191155
-0.083264
0.001338
0.000454027
0.0437814
-0.00231288
-0.0938937
-0.0063191
0.00176609
0.216145
0.00591374
-0.000415547
-0.0859659
0.00226053
0.205182
-0.00134772
-0.081287
0.00129646
0.0443199
-0.0927795
-0.00163164
-0.000216962
-0.0908394
0.00164953
-0.000837166
0.041338
-0.000558752
-0.101057
-0.00234819
0.000141409
0.203119
0.00226712
0.000859875
-0.0922779
0.000519075
0.191366
-0.00165355
-0.0889323
0.00161481
0.0419116
-0.100027
-0.0028056
0.000510361
0.00299588
-0.00148481
0.000347855
-0.00238156
-0.000594447
0.00231949
0.00152979
-0.000430698
-0.00282333
0.00300578
0.00676204
-0.00305754
-0.00170164
-0.0160231
-0.00453201
-0.000318896
-0.004879
-0.00172942
-0.00392171
-0.0134749
0.00127402
0.00329222
0.0106337
0.00864662
0.00281846
0.000788651
-0.00587692
0.000214098
-0.00547058
0.00547818
0.01184
-0.0021556
-0.0175185
0.00111724
-0.00457142
-0.00244671
-0.00985494
0.00646352
0.00100287
0.00291305
-0.0120849
-0.00315665
0.00112569
0.00361317
0.00184741
0.00214742
-0.0110649
0.00289175
-0.00105899
0.00281383
0.00700263
0.00207572
-0.00201234
-0.00192259
-0.00229143
-0.00274385
0.0034974
0.0106863
0.00057467
-0.0144764
0.000594481
0.00350716
0.00355996
-0.00770601
0.000107401
0.00269115
0.000114219
0.000823456
0.00289617
0.00325886
-0.00028216
-0.000838393
-0.00212283
0.00848618
0.00258006
-0.00244429
-0.00327901
0.00638558
-0.000956136
-0.000586145
0.000110014
0.000383866
-0.0143433
-0.000796379
0.00166343
-0.0149041
-0.00123957
0.00180123
-0.00128862
0.00152585
-0.0151372
0.0047648
0.000257897
-0.00034078
0.00124253
0.000909295
0.00137446
0.00109849
0.00463246
-0.00577219
-0.0111262
0.0015338
-0.0118394
0.00162494
0.00165372
-0.0123979
-0.0112201
-0.000610554
0.0024259
-0.0107773
-4.25812e-05
0.00139958
-0.000362836
0.000980794
-0.00986892
0.0043008
0.000105818
-0.00186041
0.00309172
-4.27405e-05
0.00258421
0.000605943
0.00798571
-0.00122783
-0.00848604
0.00242437
-0.00855281
0.00165067
0.00184231
-0.00814055
0.00168941
0.000450989
0.00296386
0.000123663
-0.000470539
0.00441557
0.00559842
-0.000622017
0.00864582
-0.000339726
0.000787153
0.0153736
0.00218681
0.00349789
0.00612666
0.0172896
-0.00147633
0.00188355
-0.0176985
0.0172062
-0.00189219
0.00197338
-0.000724679
0.00190603
0.00409225
0.00154165
0.00526763
-0.012386
-0.00341149
0.00230318
0.00329986
0.00103162
0.00348392
0.0186796
0.00195595
-0.0191057
0.0184876
0.00248376
0.00199407
0.0118032
-0.00119155
0.00282041
-0.0115508
0.0122295
-0.000802183
0.00234742
-0.00072127
0.00277037
-0.00409712
0.00053568
0.0115465
-0.00391754
-0.00781594
0.000371818
0.00584529
0.00114691
0.000807067
0.0130453
0.0016942
-0.0122473
0.01404
0.00185714
0.00270245
-0.00501048
-0.00121167
0.00903909
-0.00250276
-0.000162828
0.000380141
-0.0151689
0.000999958
0.0245048
-0.00992542
0.000443961
-0.000244389
-0.00417912
0.00687804
-0.00187488
0.0119143
0.00216085
-0.0140717
0.0184415
0.000610316
-0.00713752
0.00102022
-0.000278156
0.0125069
-0.00346269
-0.00688407
0.0152553
-0.0025465
0.000402966
-0.0016057
0.00548796
0.0105457
-0.0139735
0.0185371
-0.0105131
-0.00217806
0.0088992
0.00179984
-0.0247696
0.0127855
0.000505998
-0.0115288
0.000889617
6.61526e-05
0.0104823
-0.0020378
-0.0135175
0.00831183
-0.0012042
0.00428651
-0.000826325
0.0115933
0.00857536
-0.0245495
0.0143049
-0.0174153
-0.000931697
0.00902606
0.004672
-0.0384767
0.00220113
0.000282726
-0.00499346
-0.000611001
0.0119133
0.0021858
-0.00501769
-0.00600227
-0.0122299
-0.00138836
0.0203741
0.000570698
0.0226838
0.00965604
-0.0392539
0.00485024
-0.0139886
0.0113753
-0.00243591
0.0131736
-0.049253
0.00563005
0.00803477
-0.0211746
0.0063258
0.0112096
0.0116276
-0.00764279
0.00314662
0.0167922
-0.0032664
0.0264744
-0.00187828
0.0476592
0.00172698
-0.0486987
0.0146617
-0.0302012
0.0241516
-0.0212353
0.0122404
-0.0402318
-0.0183968
0.0102142
-0.0341439
0.0105854
-0.0177682
-0.00573443
0.00153408
0.0195747
-0.0055492
0.00227442
0.0342355
0.00235288
0.0503388
0.000109773
-0.0472101
0.00267512
-0.030512
0.0291507
-0.00870499
0.0192275
-0.0111859
0.0186513
0.020562
-0.0115766
-0.0188055
-0.0123978
-0.0185769
-0.0195872
-0.0135688
-0.0182087
-0.0154216
0.000704092
-0.000419546
-0.00982311
0.000195501
-0.00579406
0.00151433
-0.0113337
-0.00890302
-0.000619317
0.00445743
-0.00910847
-0.000132303
0.000533737
-0.00129262
-0.00630572
-0.0129723
-5.29121e-05
-0.00845611
-0.00465894
-0.00975518
-0.0102842
0.000572893
-0.000577322
-0.00714589
5.68339e-05
-0.00898248
0.000940047
-0.0193968
-0.0039374
-0.000572518
0.00831309
-0.00656636
-8.63517e-05
0.00330294
-0.000885685
-0.0110503
-0.00886184
8.85557e-05
-0.00601162
-0.00759818
-0.0166375
-0.0029255
-0.000471772
0.00723548
-0.00640153
-0.000193703
-0.00530392
0.00301638
-0.0288129
0.00855064
0.000707021
0.0139561
-0.00148346
1.37602e-05
0.0131281
-0.00269228
-0.00682493
-0.0013703
0.00829192
-0.00608314
-0.00286963
-0.0254079
-0.00465126
0.00346282
0.00837889
-0.000308762
0.0045172
-0.01418
0.00879509
-0.0379167
-0.0112794
-0.000820434
0.0295096
-0.0092127
-0.0026071
0.0181982
-0.00608825
-0.00113302
-0.00484847
0.012328
-0.00388874
-0.00643236
-0.0354079
0.0132323
0.00705907
-0.011886
0.0155478
0.00641138
-0.0229075
0.00782041
-0.0301877
0.00918456
-0.00804153
0.0354313
0.00868473
-0.00802452
0.0331212
-0.00861867
0.0239725
0.0117952
-0.00751018
0.0143487
-0.017017
-0.0296587
0.00786341
0.0225529
0.00709284
0.0206582
0.0202798
0.0115185
-0.0253728
0.0120153
-0.0229329
-0.0218876
0.00813728
0.00954911
)
;

boundaryField
{
    fuel
    {
        type            calculated;
        value           nonuniform List<scalar> 
36
(
0.00520527
0.00859243
0.00520527
0.00520533
0.00859221
0.00520533
0.00520527
0.00859244
0.00520527
-0.0052058
-0.0085913
-0.0052058
-0.0052058
-0.0085913
-0.0052058
-0.0052058
-0.00859131
-0.0052058
0
0
0
0
0
0
0
0
0
0
0
0
0
0
0
0
0
0
)
;
    }
    primary_air
    {
        type            calculated;
        value           nonuniform List<scalar> 9(-0.0127776 -0.0211988 -0.0127749 -0.0127782 -0.0211977 -0.0127756 -0.0127808 -0.0212017 -0.012778);
    }
    Secondary_air_RHS
    {
        type            calculated;
        value           nonuniform List<scalar> 9(0.00943522 0.0151606 0.00944291 0.00937256 0.0150066 0.00938201 0.00940654 0.0151161 0.00941697);
    }
    Secondary_air_LHS
    {
        type            calculated;
        value           nonuniform List<scalar> 9(0.00948489 0.015186 0.00949834 0.0094243 0.0150162 0.00944009 0.00945142 0.0151114 0.00946767);
    }
    outlet
    {
        type            calculated;
        value           nonuniform List<scalar> 
18
(
-0.0423143
0.071824
-0.0410273
-0.0428082
0.0761992
-0.0413691
-0.0433878
0.0781408
-0.0420049
-0.0507521
0.0691647
-0.0524586
-0.0503138
0.0722612
-0.0444603
-0.0495159
0.0780686
-0.00864655
)
;
    }
    stove_body
    {
        type            calculated;
        value           uniform 0;
    }
    frontAndBack
    {
        type            empty;
        value           nonuniform 0();
    }
}


// ************************************************************************* //
