/*--------------------------------*- C++ -*----------------------------------*\
  =========                 |
  \\      /  F ield         | OpenFOAM: The Open Source CFD Toolbox
   \\    /   O peration     | Website:  https://openfoam.org
    \\  /    A nd           | Version:  6
     \\/     M anipulation  |
\*---------------------------------------------------------------------------*/
FoamFile
{
    version     2.0;
    format      ascii;
    class       volScalarField;
    location    "3.5";
    object      Qdot;
}
// * * * * * * * * * * * * * * * * * * * * * * * * * * * * * * * * * * * * * //

dimensions      [1 -1 -3 0 0 0 0];

internalField   nonuniform List<scalar> 
297
(
0
0
0
-0.000157461
-9.48883e-05
0
-3.12865e-05
0
-7.87306e-05
-7.87306e-05
-4.74441e-05
-3.12865e-05
0
0
-6.25729e-05
0
-4.74441e-05
-3.12865e-05
-4.74441e-05
-4.74441e-05
-7.87306e-05
-3.1286e-05
-3.12865e-05
-4.74441e-05
-7.87306e-05
-3.12865e-05
-4.74441e-05
-1.34301e-10
0
-1.34301e-10
9.13637e-10
0
0
0
0
-1.34301e-10
-3.35752e-11
0
9.13637e-10
9.13637e-10
-1.34301e-10
0
0
9.13637e-10
0
9.13637e-10
9.13637e-10
0
8.46487e-10
8.46487e-10
-6.71504e-11
9.13637e-10
9.13637e-10
9.13637e-10
9.05244e-10
0
9.13637e-10
1.81049e-09
-1.67876e-11
1.82727e-09
-1.67876e-11
9.13637e-10
0
0
9.09441e-10
0
0
-8.39379e-12
0
9.13637e-10
9.09441e-10
9.13637e-10
-4.1969e-12
0
0
1.82727e-09
-8.39379e-12
1.82727e-09
9.13637e-10
9.13637e-10
9.13637e-10
0
0
0
-3.35752e-11
0
9.13637e-10
0
-3.35752e-11
9.13637e-10
0
0
9.13637e-10
8.80062e-10
1.82727e-09
9.13637e-10
9.13637e-10
-3.35752e-11
0
9.13637e-10
0
0
-1.67876e-11
0
-8.39379e-12
-4.1969e-12
0
0
-2.09845e-12
0
-2.62306e-13
-1.67876e-11
1.81888e-09
1.82518e-09
-2.09845e-12
9.13637e-10
-2.62306e-13
0
0
-6.55765e-14
0
0
1.82623e-09
-1.04922e-12
-1.04922e-12
9.13506e-10
0
9.13113e-10
9.13506e-10
0
1.82623e-09
0
-1.04922e-12
0
-1.31153e-13
9.13506e-10
9.13506e-10
9.13621e-10
0
1.82727e-09
0
-1.31153e-13
-1.31153e-13
0
9.13572e-10
9.13637e-10
0
1.82727e-09
0
1.82727e-09
-6.55765e-14
9.13637e-10
-1.63941e-14
9.13572e-10
-3.27883e-14
9.13572e-10
0
0
1.82727e-09
0
-3.27883e-14
9.13572e-10
-3.27883e-14
9.13637e-10
9.13637e-10
0
0
-1.67876e-11
9.13637e-10
9.13637e-10
9.13637e-10
-1.31153e-13
-5.24612e-13
0
0
-1.67876e-11
-1.67876e-11
0
0
-1.04922e-12
-1.04922e-12
0
0
-8.39379e-12
0
0
9.13637e-10
-1.04922e-12
9.13637e-10
9.13637e-10
9.13605e-10
-3.27883e-14
1.82724e-09
1.82727e-09
1.82727e-09
-3.27883e-14
0
-3.27883e-14
9.13637e-10
9.13637e-10
9.13605e-10
-3.27883e-14
1.82727e-09
0
0
-3.27883e-14
0
9.13605e-10
0
9.13637e-10
1.82724e-09
-2.09845e-12
-4.1969e-12
-3.27883e-14
9.13572e-10
0
0
9.13637e-10
9.13113e-10
0
9.13637e-10
0
0
0
0
0
0
0
9.13637e-10
9.13637e-10
-2.09845e-12
-3.27883e-14
9.13637e-10
-5.24612e-13
-5.00309e-19
-4.00247e-18
9.13637e-10
9.13506e-10
0
-1.04922e-12
9.13637e-10
9.13506e-10
9.13637e-10
9.13635e-10
0
9.13637e-10
1.82727e-09
0
0
-4.09853e-15
9.13637e-10
-4.09853e-15
9.13629e-10
-2.04927e-15
9.13637e-10
0
0
1.82727e-09
9.13637e-10
9.13633e-10
9.13637e-10
-6.55765e-14
0
0
-5.24612e-13
1.82701e-09
0
0
9.13629e-10
0
9.13637e-10
0
0
0
1.82727e-09
0
-6.55765e-14
-8.19707e-15
0
0
0
9.13637e-10
-2.62306e-13
1.82721e-09
0
9.13605e-10
-1.63941e-14
9.13637e-10
9.13637e-10
0
-6.25386e-20
9.13572e-10
9.13605e-10
-1.63941e-14
-5.00309e-19
0
0
)
;

boundaryField
{
    fuel
    {
        type            calculated;
        value           uniform 0;
    }
    primary_air
    {
        type            calculated;
        value           uniform 0;
    }
    Secondary_air_RHS
    {
        type            calculated;
        value           uniform 0;
    }
    Secondary_air_LHS
    {
        type            calculated;
        value           uniform 0;
    }
    outlet
    {
        type            calculated;
        value           uniform 0;
    }
    stove_body
    {
        type            calculated;
        value           uniform 0;
    }
    frontAndBack
    {
        type            empty;
    }
}


// ************************************************************************* //
