/*--------------------------------*- C++ -*----------------------------------*\
  =========                 |
  \\      /  F ield         | OpenFOAM: The Open Source CFD Toolbox
   \\    /   O peration     | Website:  https://openfoam.org
    \\  /    A nd           | Version:  6
     \\/     M anipulation  |
\*---------------------------------------------------------------------------*/
FoamFile
{
    version     2.0;
    format      ascii;
    class       volScalarField;
    location    "3.5";
    object      T;
}
// * * * * * * * * * * * * * * * * * * * * * * * * * * * * * * * * * * * * * //

dimensions      [0 0 0 1 0 0 0];

internalField   nonuniform List<scalar> 
297
(
292.187
292.187
292.187
293.003
293.003
293.003
292.187
292.187
292.187
292.188
292.187
292.188
293.009
293.008
293.009
292.188
292.187
292.188
292.142
292.14
292.142
299.924
293.163
299.896
292.142
292.14
292.142
292.323
292.35
292.434
293.019
293.054
293.053
292.308
292.344
292.424
288.031
289.963
288.532
290.122
292.089
290.34
288.037
290.088
288.396
286.188
288.492
288.675
287.777
290.006
288.549
285.622
288.336
288.396
286.986
291.691
288.03
287.394
288.489
288.774
286.767
291.106
287.88
288.149
293.602
291.971
287.644
288.74
288.77
287.085
292.651
292.007
294.97
297.687
296.95
288.439
291.031
290.572
293.968
297.781
296.781
284.706
288.342
286.342
284.333
288.19
285.725
284.279
288.2
286.128
285.211
288.454
286.621
282.71
288.069
284.275
284.882
288.314
286.313
286.278
288.469
287.215
282.251
288.034
283.965
286.024
288.334
287.181
298.696
298.601
296.623
288.418
295.032
297.542
298.539
299.048
296.081
300.237
299.345
296.871
290.345
298.413
298.161
299.579
299.822
296.2
300.444
299.489
297.37
298.117
300.337
298.704
299.626
299.827
296.462
296.542
296.282
296.032
297.591
297.538
297.39
295.782
295.832
295.722
296.802
296.591
296.463
298.094
297.899
297.482
295.958
296.058
296.029
296.949
296.81
296.738
298.053
297.876
297.54
295.992
295.905
295.983
300.401
300.291
300.032
302.816
296.775
288.313
299.984
299.942
299.712
300.935
300.717
299.989
301.181
290.535
288.91
299.49
299.725
299.256
299.919
300.403
300.297
295.418
294.27
297.247
298.836
299.596
299.784
301.067
301.093
300.289
302.449
302.48
302.447
300.85
300.6
299.804
300.817
301.165
300.981
302.722
302.65
302.399
300.989
299.621
299.465
299.764
301.174
300.063
302.732
300.2
297.378
300.29
299.005
299.018
297.448
300.422
295.815
303.026
299.6
295.428
297.102
295.835
295.4
293.933
297.31
299.181
300.888
297.561
293.969
294.701
294.232
294.387
291.701
291.321
290.836
289.079
286.473
282.795
291.133
289.963
295.153
295.989
296.468
296.369
297.363
297.444
297.408
295.561
295.792
295.492
296.457
296.353
296.035
297.339
297.577
297.415
295.894
295.569
295.072
296.763
296.533
295.62
297.307
297.341
297.326
296.103
295.84
294.821
294.328
296.218
294.969
295.766
296.234
297.541
294.045
295.756
293.74
295.933
295.367
293.658
294.039
294.396
296.222
295.273
295.521
292.874
290.315
290.138
290.055
284.39
283.246
282.714
289.85
289.652
289.64
)
;

boundaryField
{
    fuel
    {
        type            fixedValue;
        value           uniform 293;
    }
    primary_air
    {
        type            fixedValue;
        value           uniform 293;
    }
    Secondary_air_RHS
    {
        type            fixedValue;
        value           uniform 293;
    }
    Secondary_air_LHS
    {
        type            fixedValue;
        value           uniform 293;
    }
    outlet
    {
        type            inletOutlet;
        inletValue      uniform 293;
        value           nonuniform List<scalar> 
18
(
293
284.391
293
293
283.246
293
293
282.715
293
293
289.078
293
293
286.473
293
293
282.795
293
)
;
    }
    stove_body
    {
        type            fixedValue;
        value           uniform 293;
    }
    frontAndBack
    {
        type            empty;
    }
}


// ************************************************************************* //
