/*--------------------------------*- C++ -*----------------------------------*\
  =========                 |
  \\      /  F ield         | OpenFOAM: The Open Source CFD Toolbox
   \\    /   O peration     | Website:  https://openfoam.org
    \\  /    A nd           | Version:  6
     \\/     M anipulation  |
\*---------------------------------------------------------------------------*/
FoamFile
{
    version     2.0;
    format      ascii;
    class       volVectorField;
    location    "3.5";
    object      U;
}
// * * * * * * * * * * * * * * * * * * * * * * * * * * * * * * * * * * * * * //

dimensions      [0 1 -1 0 0 0 0];

internalField   nonuniform List<vector> 
297
(
(55.7691 -0.0112658 10.5238)
(55.7705 0.00109719 10.5126)
(55.769 0.0121262 10.5245)
(-6.58012e-07 -0.0497702 9.80595)
(1.71557e-06 0.00440675 9.83226)
(-5.08583e-07 0.0495945 9.80576)
(-55.7691 -0.0112709 10.5238)
(-55.7704 0.00109527 10.5126)
(-55.769 0.0121293 10.5245)
(55.7119 -0.00620557 10.7404)
(55.7101 0.000155292 10.7291)
(55.7118 0.00716593 10.7413)
(-1.13546e-07 0.241467 8.32896)
(4.79849e-07 -0.0223054 8.27033)
(-2.22162e-07 -0.245974 8.32467)
(-55.7119 -0.00621024 10.7403)
(-55.7101 0.000154833 10.7291)
(-55.7118 0.00717013 10.7413)
(56.5446 -0.0386203 14.912)
(56.5388 0.00753137 14.9171)
(56.5442 0.0511124 14.9156)
(2.5186e-07 -7.49067 5.58474)
(-1.68084e-07 0.0318087 8.26799)
(-5.18471e-08 7.42749 5.56557)
(-56.5446 -0.0386207 14.912)
(-56.5388 0.00753272 14.9171)
(-56.5442 0.0511141 14.9156)
(36.5874 -0.401451 5.96512)
(36.5823 -1.51589 9.05814)
(36.6207 -1.22366 5.04774)
(-0.00173556 -0.216258 10.6959)
(-0.00170316 -0.988943 10.0266)
(-0.0018238 -0.777707 10.5924)
(-36.5898 -0.431622 6.15062)
(-36.587 -1.46906 9.04057)
(-36.6238 -1.14618 4.99174)
(36.6665 8.00898 25.9506)
(36.7718 -1.71753 22.527)
(37.0585 -9.63434 17.2947)
(-0.00208728 11.1616 49.3543)
(-0.00157458 -1.78811 36.6936)
(-0.00163213 -12.5007 47.2763)
(-36.6204 7.53502 26.575)
(-36.7415 -2.2219 22.6423)
(-37.0093 -9.33294 18.4556)
(36.133 8.47172 13.2787)
(36.9473 -2.6278 30.0158)
(36.3861 -3.99045 -3.14185)
(-0.000242313 -9.5016 72.6111)
(-0.000307542 -0.990055 22.327)
(-0.000515678 11.5925 69.5414)
(-36.0673 8.96858 15.837)
(-36.9067 -3.15689 30.4276)
(-36.3534 -4.34184 -1.98425)
(36.8796 -11.8395 -54.0883)
(36.8415 2.25096 -14.5135)
(37.0379 9.88146 -62.91)
(0.00249181 -0.210989 29.481)
(-0.00233887 -1.73632 -30.9094)
(0.000160706 2.21746 17.064)
(-36.8403 -12.656 -51.7875)
(-36.7648 1.41312 -13.0637)
(-37.0165 10.3427 -61.1259)
(37.1472 14.9192 -32.8848)
(37.6848 4.87834 -42.0619)
(37.6624 -19.7952 -43.5112)
(-0.000508923 5.9966 5.10316)
(-0.00388827 -0.635634 -19.093)
(0.00563656 -6.72619 -6.44714)
(-36.9952 11.3619 -30.3997)
(-37.5761 2.97337 -41.4515)
(-37.5987 -14.7681 -42.1242)
(37.9777 19.2083 -15.722)
(38.2839 12.1766 -17.0474)
(38.307 -17.9358 -17.8578)
(-0.0092541 2.01401 6.52988)
(-0.00629773 -8.70278 -13.9252)
(0.0110422 -7.13678 -1.54864)
(-37.9372 13.3708 -14.711)
(-38.3338 18.0403 -12.6994)
(-38.2018 -7.66083 -17.0929)
(31.1653 6.35046 -72.0294)
(35.9549 1.06691 35.2543)
(30.4533 -4.95972 -81.533)
(0.0122999 -4.46227 98.3285)
(-0.00147553 -1.72022 -41.5114)
(0.00704188 6.95471 94.2162)
(-31.2816 6.59728 -70.2597)
(-35.889 0.768977 35.6622)
(-30.5329 -5.17195 -80.4914)
(32.3321 -0.947278 -75.5992)
(33.8475 1.43828 34.3386)
(31.7969 0.651716 -85.0158)
(0.0115656 -1.63288 109.254)
(-0.00156827 -1.90971 -44.0406)
(0.00705269 4.14659 104.376)
(-32.4231 -1.17097 -73.6842)
(-33.7794 1.17333 34.7571)
(-31.8416 0.655586 -83.8857)
(34.8801 -5.31459 -69.8119)
(34.143 2.06122 32.3388)
(34.9943 4.63543 -79.5488)
(0.0111273 0.907428 108.009)
(-0.00187709 -1.93619 -44.4476)
(0.00730108 1.53195 102.818)
(-34.9427 -5.57633 -67.6023)
(-34.0756 1.93595 32.7445)
(-35.127 4.69134 -78.1181)
(38.0695 37.2867 -7.92634)
(38.1517 3.88714 -9.17321)
(37.8398 -32.2704 -8.57651)
(-0.0128809 -3.32351 7.8034)
(-0.00955811 3.94464 -1.9146)
(0.00542891 5.0402 -2.31062)
(-38.142 40.1975 -6.08634)
(-38.2394 29.89 -10.0126)
(-37.8598 -21.8191 -7.57239)
(38.5285 29.0922 4.80693)
(38.3389 8.10039 0.835691)
(38.1188 -25.9049 2.9431)
(-0.0117202 -1.64576 6.64897)
(-0.0102056 8.66295 -1.65581)
(0.00306591 -0.904088 -1.14555)
(-38.5357 34.0872 4.37016)
(-38.5398 27.2098 1.69322)
(-38.0492 -16.002 3.06053)
(38.6616 -4.72298 -1.22487)
(38.4941 2.67526 1.41295)
(38.2607 6.01241 -1.74134)
(-0.011533 -12.5673 -1.75119)
(-0.00973048 3.86002 0.399459)
(0.00213114 6.45481 -1.47359)
(-38.6 -20.7903 -5.1138)
(-38.5714 13.3287 0.874529)
(-38.1341 -1.51609 0.749624)
(37.8001 -37.0965 -3.9266)
(37.7219 -42.8196 -8.0259)
(37.6135 -46.5453 -9.52434)
(6.62696e-05 7.38592 -1.62637)
(-0.00203806 11.7813 -0.451437)
(-0.00450514 -6.15578 1.26617)
(-37.8251 -29.0601 -2.78602)
(-37.7679 -33.1933 -6.02563)
(-37.6818 -37.9537 -7.06933)
(37.9157 -30.5901 5.92479)
(38.1603 -34.5276 4.92414)
(38.1569 -35.6508 1.79591)
(0.00284352 5.44393 -1.79635)
(0.0040251 12.8946 2.98496)
(0.0029002 2.56145 9.57663)
(-37.9056 -23.3412 5.57757)
(-38.0815 -25.6446 4.97714)
(-38.0256 -29.0925 3.28721)
(38.1665 -1.11654 6.98007)
(38.2313 3.45657 7.54104)
(38.1332 12.0148 10.8255)
(0.00272217 9.70693 -0.487031)
(0.00490688 13.6291 0.495161)
(0.00273865 23.1152 5.73549)
(-38.056 1.04679 5.78109)
(-38.1205 6.96052 6.14304)
(-37.9397 12.5998 8.50757)
(37.8658 55.5219 -11.1922)
(37.9484 49.2501 -9.37393)
(38.2497 45.5855 -5.29846)
(0.0179801 20.568 -2.04596)
(0.002647 -3.45279 1.74945)
(-0.00430689 -13.9525 6.69482)
(-37.5865 58.1133 -11.8222)
(-37.6909 52.9321 -8.92904)
(-38.1547 50.0702 -5.06792)
(38.485 42.1881 5.56599)
(38.5471 35.1103 8.32651)
(38.3323 32.5847 7.95022)
(0.000317031 3.14919 15.4602)
(-0.00579466 -20.7151 8.23305)
(-0.00576581 -11.9291 3.04524)
(-38.4734 46.4071 1.59145)
(-38.5572 43.4657 7.41914)
(-38.1865 38.0336 7.76214)
(38.2715 -18.3551 11.6305)
(38.6329 -9.03587 7.7303)
(38.5797 -3.9172 7.5324)
(-0.00419133 -37.0947 7.01488)
(-0.00860962 -25.1838 0.00427408)
(-0.00616992 -18.4096 -0.663064)
(-38.2319 -18.0822 14.8104)
(-38.5448 -4.57128 8.59224)
(-38.539 1.57961 7.57971)
(37.4215 23.6154 -35.2482)
(37.196 31.3839 -26.3054)
(38.2279 53.26 -20.5952)
(0.0193307 18.3483 -14.8244)
(0.0384471 20.4271 -10.6847)
(0.0406249 26.3015 -3.77717)
(-37.8138 19.3297 -36.2776)
(-37.7681 29.1903 -31.6832)
(-38.1202 50.5165 -24.8949)
(37.6805 3.82751 -56.394)
(37.6321 22.3662 -32.4023)
(38.6145 40.4995 -5.5424)
(0.0199097 9.11453 -15.9703)
(0.0461111 13.7696 -2.94873)
(0.0243247 19.357 17.5555)
(-37.6882 9.35586 -55.3999)
(-37.4504 23.8272 -44.8823)
(-38.2184 37.4315 -13.1866)
(38.9113 -0.478807 -71.2837)
(37.8074 18.2244 -22.5002)
(37.6427 -14.1313 16.15)
(0.00533029 6.46759 -23.7799)
(0.0171652 -12.0189 24.6284)
(0.00586063 -30.8257 23.6437)
(-39.0518 3.64456 -72.6403)
(-37.9627 15.9624 -47.2591)
(-37.4866 -3.61978 19.238)
(38.3263 -13.8629 -96.3982)
(38.458 3.37874 5.8061)
(37.719 -3.28253 97.8084)
(-0.0805146 -9.29 11.8446)
(-0.0857106 11.8944 52.7831)
(-0.0926486 -11.1639 93.5619)
(-38.5304 -5.25594 -107.149)
(-38.2096 -4.46091 -54.4526)
(-38.0896 6.87587 55.7286)
(37.0697 -1.05891 -129.451)
(37.3169 -14.8897 -94.0932)
(37.5313 -3.66851 -6.94706)
(-0.225704 -1.65544 40.7208)
(-0.239652 1.29194 75.741)
(-0.246354 -8.53649 110.575)
(-37.8742 0.567813 -139.491)
(-37.7925 -4.23174 -104.16)
(-37.778 5.68416 90.7945)
(35.9903 -2.5644 -148.562)
(35.8797 -4.3357 -146.879)
(35.916 -2.58981 -143.844)
(-0.0395502 -3.32355 174.094)
(-0.0346469 -3.54406 180.418)
(-0.0216731 -5.02116 192.704)
(-36.0929 -4.58889 -155.523)
(-35.8838 -8.34861 -125.44)
(-36.4769 -1.1175 -20.0945)
(37.8012 -44.0247 -17.6323)
(36.982 -25.9171 -21.2614)
(37.1498 -19.3859 -28.6706)
(-0.0173951 -15.9998 -1.15951)
(-0.0384002 -13.0547 -6.97195)
(-0.0509735 -12.3899 -11.6486)
(-37.8463 -37.2837 -13.9447)
(-37.1581 -21.7675 -17.4002)
(-37.2805 -16.2657 -24.0769)
(38.0976 -31.2302 -5.21415)
(37.3534 -18.4343 -26.6365)
(37.2636 -3.81393 -46.0261)
(-0.0069099 -11.7869 12.2467)
(-0.0219075 -7.43702 -2.069)
(-0.0383033 -4.63775 -14.4419)
(-38.0777 -27.3561 -3.61283)
(-37.435 -15.3357 -21.8265)
(-37.3836 -2.31566 -40.2424)
(37.7257 0.826423 10.3043)
(37.4863 -12.0358 -16.372)
(38.1937 -0.358087 -56.9384)
(-0.00464938 19.1462 15.4162)
(-0.0164031 8.77624 17.269)
(-0.0312519 -3.16384 -18.6634)
(-37.5391 10.2948 11.4753)
(-37.6048 -13.2154 -13.7765)
(-38.1812 0.114674 -51.1408)
(37.7763 -3.70354 68.6584)
(38.0934 -0.953834 3.83481)
(38.1047 9.68938 -71.5859)
(-0.0209138 6.20303 58.071)
(-0.0202312 -8.35379 35.8448)
(-0.0215991 8.04053 8.18756)
(-37.7756 2.52063 65.2109)
(-38.0968 -5.13222 14.856)
(-37.9809 8.48284 -66.9771)
(37.5757 1.66226 0.104798)
(37.5138 10.2626 -55.1485)
(37.4225 0.87274 -94.46)
(0.00918887 4.27127 84.5343)
(0.0119831 2.67927 65.052)
(0.0145957 1.37325 31.3214)
(-37.4874 2.97891 27.7855)
(-37.5468 9.10598 -20.2172)
(-37.27 1.62679 -86.5773)
(36.0343 1.72498 -118.691)
(35.9132 3.271 -120.359)
(35.9086 1.91446 -122.338)
(0.0761318 2.82551 177.595)
(0.0755319 4.12575 187.921)
(0.0732361 2.65141 192.462)
(-35.8034 1.76763 -114.606)
(-35.6416 3.9672 -115.729)
(-35.6042 2.60597 -117.848)
)
;

boundaryField
{
    fuel
    {
        type            fixedValue;
        value           uniform (0 0 10);
    }
    primary_air
    {
        type            fixedValue;
        value           uniform (0 0 10);
    }
    Secondary_air_RHS
    {
        type            fixedValue;
        value           uniform (0 79.5 0);
    }
    Secondary_air_LHS
    {
        type            fixedValue;
        value           uniform (0 -79.5 0);
    }
    outlet
    {
        type            pressureInletOutletVelocity;
        value           nonuniform List<vector> 
18
(
(0 0 -118.691)
(0.0761318 2.82551 177.595)
(0 0 -114.606)
(0 0 -120.359)
(0.0755319 4.12575 187.921)
(0 0 -115.729)
(0 0 -122.338)
(0.0732361 2.65141 192.462)
(0 0 -117.848)
(0 0 -148.562)
(-0.0395502 -3.32355 174.094)
(0 0 -155.523)
(0 0 -146.879)
(-0.0346469 -3.54406 180.418)
(0 0 -125.44)
(0 0 -143.844)
(-0.0216731 -5.02116 192.704)
(0 0 -20.0945)
)
;
    }
    stove_body
    {
        type            noSlip;
    }
    frontAndBack
    {
        type            empty;
    }
}


// ************************************************************************* //
