/*--------------------------------*- C++ -*----------------------------------*\
  =========                 |
  \\      /  F ield         | OpenFOAM: The Open Source CFD Toolbox
   \\    /   O peration     | Website:  https://openfoam.org
    \\  /    A nd           | Version:  6
     \\/     M anipulation  |
\*---------------------------------------------------------------------------*/
FoamFile
{
    version     2.0;
    format      ascii;
    class       volVectorField;
    location    "3.5";
    object      U;
}
// * * * * * * * * * * * * * * * * * * * * * * * * * * * * * * * * * * * * * //

dimensions      [0 1 -1 0 0 0 0];

internalField   nonuniform List<vector> 
297
(
(139.008 0.00173492 0.262233)
(139.189 0.00311866 0.259094)
(139.044 -0.008769 0.26215)
(-1.75926e-07 0.110151 -0.560134)
(-1.76878e-07 0.0230906 -0.569001)
(-1.76611e-07 -0.107371 -0.565429)
(-139.008 0.00173542 0.262235)
(-139.189 0.00311938 0.259095)
(-139.043 -0.0087688 0.262152)
(138.84 -0.0241459 0.602903)
(139.075 -0.000200543 0.616837)
(138.878 0.014096 0.607475)
(-1.53219e-07 -0.0255891 -0.318491)
(-1.53703e-07 0.0041343 -0.315765)
(-1.53773e-07 0.00515717 -0.317293)
(-138.84 -0.0241452 0.602906)
(-139.075 -0.000199469 0.61684)
(-138.878 0.0140963 0.607478)
(131.304 -0.0759565 0.945078)
(132.205 -0.00486919 0.964638)
(131.409 0.0570021 0.951195)
(-1.51346e-07 -0.0404913 0.514387)
(-1.52096e-07 0.00395065 0.53185)
(-1.51912e-07 0.0189057 0.523306)
(-131.304 -0.0759549 0.945081)
(-132.205 -0.00486705 0.96464)
(-131.408 0.0570024 0.951197)
(92.6184 -2.6393 -3.33518)
(93.9618 0.374893 -8.18057)
(92.6374 2.66721 -4.11726)
(0.00225753 -1.14697 3.27639)
(2.73031e-05 0.000153519 3.01294)
(-0.00221082 1.1557 3.27114)
(-92.6362 -2.6513 -4.08077)
(-93.9619 -0.372223 -8.17904)
(-92.6197 2.65105 -3.37099)
(94.7886 0.422635 8.77195)
(94.9976 1.35963 -14.6833)
(95.0742 -3.15186 7.13255)
(0.00486025 1.63335 24.653)
(-1.45072e-05 0.00281886 16.6298)
(-0.00488776 -1.66149 24.6533)
(-95.0742 3.10714 7.09362)
(-94.9977 -1.36042 -14.6833)
(-94.7894 -0.465765 8.81746)
(95.2266 13.9843 -11.0385)
(94.5185 2.33463 -15.8026)
(95.614 -8.53995 -2.03231)
(0.0184462 -1.57365 30.2408)
(8.18251e-05 -0.00128913 2.9477)
(-0.0186287 1.56655 30.2394)
(-95.6158 8.54129 -2.00198)
(-94.4809 -2.3322 -15.8039)
(-95.2268 -13.9877 -11.0644)
(94.2306 8.0626 -22.531)
(94.5459 -1.94872 -16.5619)
(94.491 -1.01405 -19.3537)
(-0.00920571 0.864681 0.450249)
(0.00014402 0.00746094 -7.85969)
(0.00929513 -0.872171 0.452018)
(-94.4923 1.01743 -19.3237)
(-94.5641 1.94862 -16.5753)
(-94.2294 -8.05554 -22.5616)
(94.1475 12.1921 -17.7074)
(94.1862 -2.75456 -21.9061)
(94.7826 -6.60581 -12.4167)
(-0.0180061 1.53433 4.3273)
(0.000207081 0.00626293 0.686313)
(0.0183764 -1.53936 4.32634)
(-94.7826 6.61 -12.4101)
(-94.1855 2.76189 -21.9139)
(-94.1472 -12.1931 -17.7136)
(94.1155 15.6067 -24.1456)
(93.9527 -6.88232 -22.8841)
(94.3416 -15.7272 -23.1579)
(-0.0285645 -0.458839 14.024)
(-0.000145941 0.00292701 6.66722)
(0.0282684 0.455467 14.024)
(-94.342 15.7291 -23.1626)
(-93.9525 6.88484 -22.8863)
(-94.1157 -15.6043 -24.1414)
(87.9681 17.805 -18.8213)
(88.0031 1.33569 -11.5936)
(89.7571 -10.279 -16.9326)
(-0.0106854 -1.77646 38.947)
(0.000537782 0.00592352 -22.1047)
(0.0108121 1.76611 38.9413)
(-89.7463 10.3098 -16.9029)
(-89.9943 -1.29212 -11.6318)
(-87.9844 -17.7756 -18.8499)
(86.0749 12.0991 -22.0635)
(90.0337 -0.118113 -9.44858)
(87.5346 -4.37264 -18.9077)
(-0.00977118 -1.91776 42.1918)
(0.000429036 0.00994849 -21.1123)
(0.00984638 1.90507 42.1822)
(-87.6445 4.40502 -18.8859)
(-91.4979 0.187494 -9.40815)
(-86.0067 -12.0646 -22.0885)
(80.9554 10.7584 -21.7253)
(94.4939 -0.263214 -10.2442)
(82.7564 -3.4837 -18.7699)
(-0.00794463 -2.08216 41.2798)
(-0.000195701 0.00847022 -17.367)
(0.00792516 2.0684 41.2726)
(-82.7732 3.49474 -18.7461)
(-93.5137 0.304268 -10.2265)
(-80.9397 -10.7441 -21.7487)
(92.1038 24.7851 -5.41474)
(92.973 -7.63857 -8.14526)
(91.6635 -29.0485 -6.82578)
(-0.0119577 -8.41292 13.6137)
(-0.000435427 0.00562928 -5.39174)
(0.0110053 8.41738 13.6153)
(-91.6641 29.0464 -6.82574)
(-92.973 7.6419 -8.14392)
(-92.1059 -24.7747 -5.40877)
(93.3067 19.9554 -1.35612)
(93.6306 -3.57803 -3.73316)
(93.181 -23.8798 -1.74368)
(-0.00739082 -10.2739 7.42992)
(-0.000513633 0.00578543 -4.49514)
(0.0062385 10.28 7.42916)
(-93.1822 23.877 -1.74399)
(-93.6309 3.58248 -3.73293)
(-93.311 -19.946 -1.35243)
(93.9958 3.37823 0.839416)
(94.1402 -2.3617 -1.12418)
(93.9589 -6.6108 2.289)
(-0.00309092 -5.56485 -0.0414438)
(-0.000555835 0.00570403 -0.862625)
(0.001843 5.5715 -0.0417864)
(-93.9608 6.60775 2.28874)
(-94.1411 2.36916 -1.12357)
(-93.9967 -3.36853 0.84052)
(90.1782 -31.687 -1.48749)
(91.4566 -36.4116 -4.39916)
(91.722 -38.0695 -5.7641)
(-0.00750292 15.6053 9.75406)
(-0.00765498 13.1673 5.94042)
(-0.00950719 11.8596 7.41571)
(-90.7393 -26.925 -0.750749)
(-91.6227 -31.642 -2.89823)
(-91.7983 -33.3784 -3.91027)
(90.7978 -24.8531 4.05206)
(92.2056 -29.3602 3.37624)
(92.8261 -30.4778 1.61799)
(-0.0023675 19.2764 1.85881)
(2.26296e-05 19.3634 -3.31965)
(-0.0012854 18.9319 -0.606028)
(-91.4084 -20.9733 3.64746)
(-92.2524 -25.2821 3.13157)
(-92.5182 -26.7121 1.99401)
(93.3924 -8.28018 7.62714)
(93.8912 -4.1685 7.72289)
(93.8666 4.83303 8.11986)
(-0.000617862 11.2218 -5.29661)
(0.0013404 10.8587 -3.32204)
(-0.00292636 15.0697 -0.635148)
(-93.5819 -4.96428 6.18829)
(-93.8439 -1.21821 6.21011)
(-93.5388 3.75448 7.47502)
(91.8055 33.3719 -3.91033)
(91.6287 31.6382 -2.89807)
(90.7361 26.9326 -0.751272)
(0.00986295 -11.8643 7.41725)
(0.00742108 -13.167 5.9411)
(0.00661524 -15.6022 9.75491)
(-91.7136 38.0587 -5.76412)
(-91.4514 36.3999 -4.39939)
(-90.1826 31.6769 -1.48758)
(92.5274 26.7024 1.99548)
(92.2573 25.2783 3.1314)
(91.3949 20.9806 3.64749)
(0.00157755 -18.9409 -0.602391)
(-0.000356468 -19.3661 -3.31747)
(0.00140983 -19.2739 1.86118)
(-92.8177 30.467 1.61804)
(-92.2008 29.3474 3.37653)
(-90.8023 24.8425 4.05223)
(93.537 -3.76972 7.47642)
(93.8437 1.21415 6.20966)
(93.58 4.96928 6.1877)
(0.00316936 -15.0824 -0.634759)
(-0.00178839 -10.8639 -3.32262)
(-0.000339056 -11.2212 -5.29733)
(-93.8698 -4.84735 8.12079)
(-93.8942 4.15716 7.72296)
(-93.3949 8.26988 7.62725)
(91.2066 15.2398 -16.8386)
(89.6209 19.1694 -10.7365)
(92.3458 31.2172 -8.23052)
(0.0559825 8.31385 -3.66091)
(0.0459903 5.45998 4.62251)
(0.0255375 -4.49678 10.731)
(-90.9283 17.4608 -19.5188)
(-89.6787 21.6514 -13.087)
(-92.2766 34.5595 -10.6114)
(91.757 4.20865 -30.2403)
(91.3388 11.8175 -16.2204)
(93.5188 24.1072 -1.79142)
(0.0502346 4.39095 -7.04473)
(0.0344839 3.04943 8.34858)
(0.0148207 -10.9133 8.35884)
(-91.6158 5.87581 -32.411)
(-91.1506 11.3458 -18.7624)
(-93.5963 25.2627 -2.27047)
(95.1484 2.17224 -39.353)
(91.1033 9.12057 -12.8278)
(92.3978 6.98217 5.54373)
(0.0472332 4.48425 -11.7577)
(0.0249746 -6.48408 19.2663)
(0.0107992 -17.4907 11.7665)
(-95.3411 3.27233 -41.1583)
(-90.1483 5.67125 -15.3027)
(-92.9554 17.5863 3.12598)
(93.8198 -6.61785 -55.2161)
(93.2938 1.25945 -1.03052)
(92.7083 7.29619 56.5937)
(0.0303343 -6.97008 13.0491)
(0.0252437 7.09311 38.3834)
(0.0260661 -2.11105 58.4727)
(-93.9554 -7.34432 -56.4028)
(-93.2171 -0.879719 -8.73564)
(-92.6687 11.6907 58.8174)
(91.8849 -2.17471 -74.2748)
(91.2109 -7.96495 -18.3184)
(91.0097 0.0621085 12.0716)
(-0.0279386 -1.17846 30.5339)
(-0.0247931 -0.435926 68.2074)
(-0.0213452 -0.716442 86.5233)
(-92.1123 -1.71656 -78.342)
(-91.2171 -8.48303 -33.0749)
(-91.086 0.413753 -0.253518)
(86.3835 -1.90573 -120.245)
(85.7647 -3.15762 -109.625)
(86.1471 -1.43274 -106.839)
(-0.0883109 -2.02548 176.339)
(-0.0892163 -2.68479 187.373)
(-0.0896583 -1.55235 183.443)
(-86.8018 -1.71631 -122.928)
(-86.0943 -2.77368 -112.909)
(-86.3715 -1.45388 -109.495)
(92.279 -34.5698 -10.6114)
(89.6818 -21.6569 -13.0872)
(90.9216 -17.4631 -19.5182)
(-0.0248582 4.49301 10.7297)
(-0.0449984 -5.46512 4.62256)
(-0.0547779 -8.31637 -3.66017)
(-92.3483 -31.2267 -8.23309)
(-89.6209 -19.1771 -10.7414)
(-91.204 -15.243 -16.8448)
(93.5962 -25.2709 -2.27171)
(91.1522 -11.3504 -18.7645)
(91.6079 -5.87552 -32.4107)
(-0.0140718 10.9046 8.35244)
(-0.0333425 -3.05424 8.34556)
(-0.0487346 -4.39231 -7.04945)
(-93.5181 -24.1205 -1.80138)
(-91.3348 -11.8287 -16.2336)
(-91.7387 -4.21303 -30.2571)
(92.9548 -17.5933 3.12295)
(90.1514 -5.66729 -15.3068)
(95.3697 -3.27422 -41.1418)
(-0.00990121 17.4774 11.7548)
(-0.0236818 6.47669 19.2552)
(-0.0457373 -4.48481 -11.7691)
(-92.4006 -7.00115 5.52378)
(-91.0993 -9.13112 -12.8525)
(-95.1676 -2.17616 -39.3738)
(92.671 -11.6911 58.8299)
(93.2185 0.883046 -8.73063)
(93.9833 7.34839 -56.3876)
(-0.0236852 2.10978 58.4736)
(-0.0223987 -7.09278 38.3837)
(-0.025919 6.97122 13.0484)
(-92.7077 -7.29894 56.5912)
(-93.2918 -1.26596 -1.03551)
(-93.8334 6.61264 -55.2123)
(91.0783 -0.414832 -0.247918)
(91.2101 8.47553 -33.0614)
(92.0601 1.71214 -78.3388)
(0.0170158 0.715701 86.5292)
(0.0199364 0.434907 68.2151)
(0.0213617 1.17809 30.5404)
(-91.0077 -0.0593308 12.0753)
(-91.209 7.97469 -18.3086)
(-91.8574 2.18269 -74.2632)
(86.3712 1.45376 -109.506)
(86.0938 2.77375 -112.92)
(86.789 1.716 -122.932)
(0.0900691 1.552 183.444)
(0.0896176 2.68467 187.375)
(0.088675 2.0254 176.33)
(-86.1461 1.43271 -106.842)
(-85.7634 3.15799 -109.629)
(-86.3766 1.9057 -120.253)
)
;

boundaryField
{
    fuel
    {
        type            fixedValue;
        value           uniform (0 0 0.25);
    }
    primary_air
    {
        type            fixedValue;
        value           uniform (0 0 2.5);
    }
    Secondary_air_RHS
    {
        type            fixedValue;
        value           uniform (0 25 0);
    }
    Secondary_air_LHS
    {
        type            fixedValue;
        value           uniform (0 -25 0);
    }
    outlet
    {
        type            pressureInletOutletVelocity;
        value           nonuniform List<vector> 
18
(
(0 0 -109.506)
(0.0900691 1.552 183.444)
(0 0 -106.842)
(0 0 -112.92)
(0.0896176 2.68467 187.375)
(0 0 -109.629)
(0 0 -122.932)
(0.088675 2.0254 176.33)
(0 0 -120.253)
(0 0 -120.245)
(-0.0883109 -2.02548 176.339)
(0 0 -122.928)
(0 0 -109.625)
(-0.0892163 -2.68479 187.373)
(0 0 -112.909)
(0 0 -106.839)
(-0.0896583 -1.55235 183.443)
(0 0 -109.495)
)
;
    }
    stove_body
    {
        type            noSlip;
    }
    frontAndBack
    {
        type            empty;
    }
}


// ************************************************************************* //
