/*--------------------------------*- C++ -*----------------------------------*\
  =========                 |
  \\      /  F ield         | OpenFOAM: The Open Source CFD Toolbox
   \\    /   O peration     | Website:  https://openfoam.org
    \\  /    A nd           | Version:  6
     \\/     M anipulation  |
\*---------------------------------------------------------------------------*/
FoamFile
{
    version     2.0;
    format      ascii;
    class       volScalarField;
    location    "0.5";
    object      T;
}
// * * * * * * * * * * * * * * * * * * * * * * * * * * * * * * * * * * * * * //

dimensions      [0 0 0 1 0 0 0];

internalField   nonuniform List<scalar> 
297
(
291.637
291.641
291.637
292.939
292.945
292.939
291.637
291.641
291.637
292.113
293.144
292.108
293.381
294.187
293.353
292.113
293.143
292.108
326.156
432.229
326.216
349.939
461.564
342.311
326.145
432.158
326.25
391.93
383.489
347.349
344.444
343.533
329.028
392.887
384.748
348.021
423.077
423.218
391.737
382.054
358.64
346.102
426.466
428.357
396.076
423.513
429.454
533.526
407.013
424.749
412.277
425.579
437.039
547.79
384.105
374.065
430.019
462.322
452.334
484.161
386.325
376.067
437.367
356.218
373.503
414.713
461.622
439.746
484.395
353.871
375.615
433.932
313.433
354.623
385.729
384.997
397.862
483.838
313.775
349.377
393.632
421.67
389.103
572.164
426.792
448.735
446.894
423.832
402.341
596.532
406.384
372.274
485.456
442.792
448.8
454.916
408.598
377.992
497.905
393.935
371.223
463.05
459.837
449.313
481.026
396.214
376.524
472.955
307.072
320.048
323.852
335.337
403.3
478.821
303.897
327.54
333.636
304.406
311.521
316.026
318.775
364.558
474.35
302.401
320.655
325.634
304.457
309.233
316.01
321.616
346.779
398.39
310.471
319.767
319.733
301.377
301.369
301.054
302.074
304.629
304.523
302.451
302.867
302.913
315.675
305.423
301.981
439.589
400.797
306.331
318.64
302.873
302.976
316.12
309.761
314.791
389.689
380.354
357.516
317.383
302.94
302.671
303.018
302.969
303.069
304.366
304.492
304.149
300.05
300.488
300.662
303.051
302.908
304.435
304.594
313.265
315.571
301.426
301.757
302.428
302.817
303.139
304.333
310.63
314.001
317.384
303.813
303.734
304.495
303.885
303.776
303.301
304.054
304.318
304.196
299.8
300.609
299.871
303.73
303.573
303.166
304.293
304.469
304.285
299.586
301.45
301.288
303.259
303.147
302.662
304.311
305.255
306.996
299.121
301.721
303.511
302.88
302.561
301.911
305.179
304.143
304.797
298.761
299.648
298.178
298.843
298.921
298.23
304.019
302.848
303.515
295.069
294.543
296.15
292.032
292.014
291.398
293.17
290.203
286.562
291.079
290.684
299.377
301.012
301.853
301.793
304.434
304.583
304.529
303.179
303.565
303.735
301.942
302.195
301.373
304.528
304.823
304.816
303.082
303.552
303.592
312.764
302.301
300.644
329.303
311.984
304.95
302.531
303.077
303.157
302.089
299.945
296.764
315.824
310.478
305.7
301.806
302.566
302.779
299.849
295.732
293.529
309.036
304.489
304.183
297.488
298.855
298.814
302.785
291.759
291.314
290.98
291.935
293.062
291.335
291.992
292.035
)
;

boundaryField
{
    fuel
    {
        type            fixedValue;
        value           uniform 293;
    }
    primary_air
    {
        type            fixedValue;
        value           uniform 293;
    }
    Secondary_air_RHS
    {
        type            fixedValue;
        value           uniform 293;
    }
    Secondary_air_LHS
    {
        type            fixedValue;
        value           uniform 293;
    }
    outlet
    {
        type            inletOutlet;
        inletValue      uniform 293;
        value           nonuniform List<scalar> 
18
(
293
290.979
293
293
291.934
293
293
293.062
293
293
293.169
293
293
290.2
293
293
286.559
293
)
;
    }
    stove_body
    {
        type            fixedValue;
        value           uniform 293;
    }
    frontAndBack
    {
        type            empty;
    }
}


// ************************************************************************* //
