/*--------------------------------*- C++ -*----------------------------------*\
  =========                 |
  \\      /  F ield         | OpenFOAM: The Open Source CFD Toolbox
   \\    /   O peration     | Website:  https://openfoam.org
    \\  /    A nd           | Version:  6
     \\/     M anipulation  |
\*---------------------------------------------------------------------------*/
FoamFile
{
    version     2.0;
    format      ascii;
    class       volVectorField;
    location    "0.5";
    object      U;
}
// * * * * * * * * * * * * * * * * * * * * * * * * * * * * * * * * * * * * * //

dimensions      [0 1 -1 0 0 0 0];

internalField   nonuniform List<vector> 
297
(
(70.4034 -0.0150893 0.192481)
(70.4045 0.000524792 0.190129)
(70.4034 0.0158999 0.191371)
(-2.50013e-06 0.0245773 0.305934)
(-2.34435e-06 -0.00244128 0.28376)
(-2.18425e-06 -0.0247428 0.302495)
(-70.4034 -0.0150911 0.192521)
(-70.4046 0.000580165 0.190196)
(-70.4034 0.015899 0.191431)
(70.515 -0.0405873 0.241097)
(70.7733 0.000714238 0.242654)
(70.5135 0.0423761 0.244138)
(-2.5299e-06 0.0619667 0.21264)
(-2.37353e-06 0.00258265 0.332419)
(-2.2183e-06 -0.067041 0.222203)
(-70.515 -0.0405222 0.241121)
(-70.7732 0.00066891 0.242705)
(-70.5136 0.0423081 0.244153)
(73.3535 -0.225508 0.48298)
(72.5555 0.0154326 0.376636)
(73.4707 0.231589 0.483726)
(-2.65621e-06 -0.0112432 0.189532)
(-2.80595e-06 0.0231196 -0.1995)
(-2.40425e-06 -0.00931027 0.189323)
(-73.3499 -0.225454 0.48305)
(-72.5501 0.0155569 0.376818)
(-73.4658 0.231603 0.483802)
(62.034 7.02937 -7.41111)
(60.5965 6.51896 -3.65861)
(54.4926 3.41574 2.8645)
(-0.00508897 1.80599 4.21862)
(-0.00449057 -0.391111 4.0088)
(-0.0035917 0.197387 6.13012)
(-62.2085 6.81467 -6.98149)
(-60.7933 5.93884 -3.57836)
(-54.603 2.87686 3.18305)
(67.2596 11.1249 -14.1587)
(67.2932 9.48597 -10.0985)
(62.2489 10.3585 11.6729)
(-0.00495814 11.1392 37.7567)
(-0.00193919 1.55704 28.4235)
(-0.00101625 0.396548 35.201)
(-67.8361 12.1459 -12.5944)
(-68.1215 10.6353 -9.14805)
(-62.9545 10.9386 10.4069)
(66.3933 8.5363 -18.5476)
(68.0298 -11.0956 -2.55451)
(83.9969 -15.6196 32.796)
(-0.0248093 -7.93723 52.9944)
(-0.00947292 -4.92352 12.951)
(-0.00640943 9.99943 55.5331)
(-66.8047 10.2875 -20.4461)
(-69.2988 -11.3667 -3.56069)
(-86.2712 -14.6242 35.4053)
(60.9634 -0.380438 -53.5455)
(59.216 -5.52459 -30.2291)
(68.1535 -0.0590105 -37.2821)
(0.0145581 0.494201 -0.504597)
(0.00272019 8.47369 -35.0095)
(0.00705977 -5.1482 31.8781)
(-61.4534 -0.929183 -51.9746)
(-59.527 -6.34927 -29.9844)
(-69.2404 0.138829 -36.0572)
(56.9291 19.3355 -38.6286)
(59.2717 -5.0494 -38.1811)
(66.3831 -8.93453 -22.1772)
(-0.00130889 -2.27857 -10.9679)
(-0.00357414 4.16173 -15.809)
(0.00644897 -8.32114 23.108)
(-56.5471 19.3729 -37.6457)
(-59.6712 -5.04731 -38.0823)
(-69.3644 -5.91125 -20.9257)
(50.08 20.4684 -30.9569)
(56.3958 -15.0763 -30.7345)
(61.4481 -24.0338 -24.5061)
(0.00270007 0.102678 -3.56658)
(0.00118308 3.55626 -20.5079)
(0.0061983 -5.0795 21.6221)
(-50.1182 21.4341 -31.4011)
(-55.5935 -17.3362 -29.6361)
(-62.6961 -20.9646 -24.0412)
(57.3329 11.9008 -62.1246)
(58.0991 -17.7668 -16.4869)
(83.5159 -37.9954 -30.437)
(0.0162746 -5.78808 72.7588)
(-0.0116112 -3.70415 -37.1187)
(-0.00197859 0.942527 73.8146)
(-56.4007 10.7608 -62.9705)
(-60.3544 -20.8679 -15.416)
(-87.2066 -40.9939 -28.6708)
(57.5809 6.9858 -65.2472)
(56.7611 -12.5032 -15.5141)
(70.256 -14.0819 -39.9729)
(0.0196031 -4.12261 81.0652)
(-0.0110684 0.501775 -38.7419)
(-0.0014317 1.22133 80.4502)
(-56.7942 6.2623 -65.9409)
(-57.8401 -14.4201 -14.4823)
(-72.3191 -14.8926 -39.4586)
(55.5317 3.38966 -62.4017)
(58.2942 -10.1118 -20.3135)
(63.8598 -8.15551 -39.018)
(0.0256603 -2.42828 80.2587)
(-0.0103378 2.71196 -37.4683)
(-0.00115576 -5.37894 86.5447)
(-58.4031 2.78631 -62.3766)
(-59.1138 -11.5131 -19.5555)
(-65.5145 -8.3018 -37.9842)
(48.0485 37.3892 -7.93571)
(50.307 -0.972572 -9.58142)
(50.7993 -39.8255 -9.08127)
(-0.00109908 -4.39816 -4.94371)
(0.0032788 -8.75288 -5.77249)
(0.00348929 -2.12922 15.8646)
(-47.7146 39.303 -9.65398)
(-51.3513 -8.22301 -10.4297)
(-52.1628 -36.77 -7.0604)
(48.1322 30.3633 -0.198611)
(49.2966 -4.50005 -2.32039)
(50.127 -29.8799 2.88189)
(0.00189963 0.729075 -3.2635)
(0.00173667 -8.37219 -5.21827)
(-0.00164547 -0.932662 7.95009)
(-47.9515 27.3329 3.55261)
(-50.7029 -17.9013 -3.12674)
(-51.4966 -30.6268 -0.249581)
(48.4047 4.87748 2.938)
(49.2167 -0.721917 0.215176)
(50.3309 3.82585 -2.4995)
(0.00149979 -7.12486 -1.54664)
(0.00234627 -6.20673 -1.31793)
(0.00164909 2.3218 -1.34943)
(-49.3255 -7.70213 -2.36583)
(-50.7599 -9.79778 1.69392)
(-50.8069 -5.76408 3.53877)
(47.295 -45.5065 -4.54432)
(47.0087 -50.5259 -8.43419)
(46.8392 -53.7645 -9.42691)
(0.0364039 -0.320319 -1.53367)
(0.039089 -11.9145 -2.95775)
(0.0767259 -17.9218 -3.17986)
(-46.3382 -39.0964 -2.91583)
(-47.5183 -45.4718 -7.4764)
(-47.9558 -41.9896 -14.0178)
(49.7523 -32.767 7.54386)
(48.3163 -35.6859 7.01827)
(47.7028 -41.5514 4.86065)
(0.024817 8.45195 1.64427)
(0.0407676 14.8078 5.90789)
(0.0789999 -7.40636 10.4967)
(-49.5797 -31.4147 4.62334)
(-48.0469 -35.6989 -0.846829)
(-48.1267 -28.2701 -9.88811)
(50.2813 1.87597 8.15062)
(49.377 7.25087 9.2196)
(49.7025 18.6664 11.4912)
(0.0146777 9.13104 -2.36572)
(0.0346819 19.1297 0.0267688)
(0.0730524 25.3369 4.28508)
(-50.3932 -10.5499 12.7311)
(-48.2856 3.00669 9.87808)
(-48.1803 -20.4272 -11.8349)
(47.9429 42.2413 -14.3822)
(47.5143 46.356 -7.46885)
(46.3868 40.1194 -2.57281)
(-0.0809301 18.1209 -2.8341)
(-0.039575 11.5807 -3.8118)
(-0.0345239 1.51697 0.306528)
(-46.6895 53.0367 -9.39785)
(-46.8732 49.5925 -8.42542)
(-47.1736 44.775 -4.82377)
(48.0634 27.1856 -10.0348)
(48.0612 35.883 -0.70844)
(47.4018 32.0937 4.50794)
(-0.0807224 7.94795 10.1196)
(-0.0287133 -12.5557 2.95816)
(-0.0138845 -5.52727 -1.77844)
(-47.6185 40.836 5.37062)
(-47.7394 34.7724 7.55506)
(-47.6557 32.4593 8.05675)
(48.1407 17.9463 -17.6405)
(48.3256 -2.08072 9.03055)
(48.3382 9.48907 12.0669)
(-0.0625458 -22.5488 5.3109)
(-0.0241448 -13.3279 0.878146)
(-0.0068806 -8.10979 0.243111)
(-48.0058 -20.2006 9.16353)
(-48.3638 -11.2274 5.40302)
(-48.2917 -6.69953 3.73574)
(47.6772 7.15826 -24.9983)
(47.7565 20.7505 -23.0684)
(47.7261 32.3973 -17.5469)
(0.00797991 12.7409 -9.53767)
(-0.0374357 14.523 -6.46209)
(-0.0936237 20.262 -2.91379)
(-46.1582 24.0752 -31.4702)
(-45.8316 30.8691 -23.2246)
(-47.2443 50.9636 -17.5123)
(47.3228 5.18403 -37.1542)
(47.3775 14.5441 -31.6286)
(47.831 21.6896 -23.2589)
(-0.0525621 7.08937 -8.46455)
(-0.111077 10.9427 2.82427)
(-0.129067 15.1686 12.0095)
(-46.5786 5.96474 -54.7556)
(-46.6576 21.6611 -29.8198)
(-47.9232 38.9957 -4.66283)
(48.6874 -0.912293 -48.8878)
(48.0879 8.55119 -42.92)
(48.4276 7.37709 -32.7752)
(-0.115238 4.32176 -18.1095)
(-0.145042 -5.9237 16.5254)
(-0.136971 -18.2454 19.2328)
(-48.4625 3.48917 -71.2021)
(-46.9895 20.4037 -21.3451)
(-46.9782 -15.8115 22.1709)
(47.6873 -3.84274 -77.5958)
(47.3943 -6.59185 -71.5714)
(47.376 -3.2981 -72.9297)
(-0.327732 -2.40435 35.3613)
(-0.331643 -0.681091 47.844)
(-0.340711 -10.778 42.7946)
(-48.151 -8.64534 -103.261)
(-47.9522 11.557 16.8019)
(-47.8065 -3.20176 68.3713)
(46.8772 0.907931 -137.559)
(46.8316 0.682546 -136.739)
(46.7117 0.523817 -136.43)
(-0.141264 1.31473 71.6001)
(-0.151305 3.59775 77.5245)
(-0.167889 -1.38493 75.0213)
(-46.8125 2.69645 -137.651)
(-46.816 -5.48557 -73.6371)
(-46.8023 1.46527 111.876)
(44.8945 -0.138251 -166.934)
(44.8717 -0.0738433 -166.63)
(44.7623 -0.0694622 -166.395)
(0.311176 -1.12775 161.722)
(0.327377 0.674445 173.418)
(0.347872 -0.755196 199.2)
(-44.061 -5.64833 -156.04)
(-43.7959 -7.5086 -111.599)
(-44.8643 -3.72851 -3.10203)
(47.4092 -51.4784 -17.6304)
(45.9899 -31.2404 -23.5194)
(46.4409 -24.4312 -31.7773)
(0.0874522 -19.9782 -2.80694)
(0.0272718 -14.4439 -6.12625)
(-0.020797 -12.8647 -9.51424)
(-47.7226 -31.0899 -17.2595)
(-47.6742 -21.0913 -21.5383)
(-47.6097 -7.62611 -24.2227)
(48.0294 -39.749 -4.92524)
(46.7543 -21.8404 -30.299)
(46.8385 -6.27341 -55.2332)
(0.127008 -14.7103 12.397)
(0.106346 -10.9081 2.8125)
(0.0432659 -7.15454 -8.66379)
(-47.8305 -19.941 -24.3887)
(-47.4073 -14.2714 -30.2759)
(-47.3392 -5.14538 -35.6921)
(48.38 12.7328 23.3506)
(47.019 -20.5175 -22.0077)
(48.7103 -3.58199 -71.5829)
(0.148823 20.318 19.3287)
(0.146732 7.15235 16.8658)
(0.108651 -4.66134 -18.0722)
(-48.404 -8.27569 -32.0477)
(-48.1097 -7.37359 -42.9266)
(-48.6608 0.464083 -47.5361)
(48.428 1.54658 67.7261)
(47.9877 -10.071 13.2045)
(47.8205 8.75741 -103.234)
(0.35637 11.5195 44.8281)
(0.341365 0.307515 49.2436)
(0.330129 1.82858 34.6388)
(-47.3342 3.61766 -71.0836)
(-47.3825 6.09646 -69.5348)
(-47.6537 3.84092 -75.8753)
(47.3859 -2.52514 111.071)
(47.0001 5.85718 -76.348)
(46.5318 -2.44347 -137.51)
(0.176719 1.86229 76.4119)
(0.159001 -3.56941 77.8031)
(0.148511 -1.37762 71.319)
(-46.562 -0.712016 -135.27)
(-46.7937 -0.422762 -135.69)
(-46.841 -0.799472 -136.501)
(45.3881 3.09718 -4.17294)
(43.9776 7.66601 -112.647)
(44.0798 5.46484 -155.416)
(-0.344995 0.808752 200.786)
(-0.319372 -0.499727 173.642)
(-0.300782 1.08791 163.582)
(-44.7285 0.107184 -165.275)
(-44.8527 0.0727673 -165.743)
(-44.8769 0.130737 -166.043)
)
;

boundaryField
{
    fuel
    {
        type            fixedValue;
        value           uniform (0 0 0.25);
    }
    primary_air
    {
        type            fixedValue;
        value           uniform (0 0 2.5);
    }
    Secondary_air_RHS
    {
        type            fixedValue;
        value           uniform (0 50 0);
    }
    Secondary_air_LHS
    {
        type            fixedValue;
        value           uniform (0 -50 0);
    }
    outlet
    {
        type            pressureInletOutletVelocity;
        value           nonuniform List<vector> 
18
(
(0 0 -4.17294)
(-0.344995 0.808752 200.786)
(0 0 -165.275)
(0 0 -112.647)
(-0.319372 -0.499727 173.642)
(0 0 -165.743)
(0 0 -155.416)
(-0.300782 1.08791 163.582)
(0 0 -166.043)
(0 0 -166.934)
(0.311176 -1.12775 161.722)
(0 0 -156.04)
(0 0 -166.63)
(0.327377 0.674445 173.418)
(0 0 -111.599)
(0 0 -166.395)
(0.347872 -0.755196 199.2)
(0 0 -3.10203)
)
;
    }
    stove_body
    {
        type            noSlip;
    }
    frontAndBack
    {
        type            empty;
    }
}


// ************************************************************************* //
