/*--------------------------------*- C++ -*----------------------------------*\
  =========                 |
  \\      /  F ield         | OpenFOAM: The Open Source CFD Toolbox
   \\    /   O peration     | Website:  https://openfoam.org
    \\  /    A nd           | Version:  6
     \\/     M anipulation  |
\*---------------------------------------------------------------------------*/
FoamFile
{
    version     2.0;
    format      ascii;
    class       volScalarField;
    location    "1";
    object      O2;
}
// * * * * * * * * * * * * * * * * * * * * * * * * * * * * * * * * * * * * * //

dimensions      [0 0 0 0 0 0 0];

internalField   nonuniform List<scalar> 
297
(
0
0
0
0
0
0
0
0
0
0
0
0
0
0
0
0
0
0
0
0
0
0
0
0
0
0
0
0.0567413
0.0713476
0.140085
0.151248
0.159677
0.201377
0.0560881
0.0706271
0.139702
0
8.29064e-06
0.0189756
0.0655851
0.116111
0.100621
0
8.27875e-06
0.0201261
0
0
0
0.0435866
0.0275593
0.0723112
0
0
0
0
0
0
0
0
0
8.22844e-05
1.11514e-09
0
0
0
0
0
0
0
0
0
0
0
0
0
0
0
0
0
0
0
0
0
0
0.00319915
6.94104e-07
0.0310853
0
0
0
0
0
0
0
0
0.00912529
0
0
0
0
0
0
0
0
0
0
0
0
1.82021e-14
0
0
1.02995e-14
0
0
1.28197e-14
0
0
8.88495e-18
4.22389e-17
1.65283e-17
0
0
0
6.02121e-18
3.87846e-18
4.85965e-16
3.72565e-18
3.72872e-17
4.87983e-17
2.1633e-18
0
0
2.24026e-17
1.43176e-17
6.18444e-19
0
4.56825e-22
9.26146e-26
0
3.47354e-21
8.23517e-25
0
0
2.30891e-26
0
0
0
0
0
0
0
0
0
2.50559e-21
9.16606e-22
0
0
0
0
0
8.1005e-24
0
1.11008e-24
1.1945e-21
9.0133e-19
6.05972e-21
1.33044e-19
7.75962e-18
4.44197e-20
4.50516e-20
4.12154e-19
7.68612e-24
1.67427e-22
3.91533e-19
2.15304e-19
4.68942e-18
4.57951e-18
7.96429e-20
1.88691e-19
4.88883e-19
3.28719e-23
1.79805e-22
2.68011e-19
2.69162e-18
3.80356e-18
3.67918e-18
4.41928e-18
7.76245e-18
1.11766e-17
2.40842e-25
3.91724e-25
7.59033e-25
1.29704e-20
9.6607e-21
1.0173e-20
3.29275e-20
5.26367e-20
5.14008e-20
3.5876e-25
1.34258e-24
2.9573e-24
1.73085e-20
1.19513e-20
1.19543e-20
4.34989e-20
7.3866e-20
7.09403e-20
3.87129e-25
1.95023e-24
6.62294e-24
1.96853e-20
3.45641e-19
1.24473e-18
5.17404e-20
8.85486e-20
3.27589e-18
4.78726e-25
2.40992e-24
4.60611e-24
4.14732e-20
2.71258e-19
6.10845e-19
5.6379e-20
2.03067e-19
1.66665e-18
3.06001e-25
1.21497e-24
3.25011e-24
3.04336e-20
1.50819e-19
3.83711e-19
7.02175e-20
2.55006e-19
1.25032e-18
1.76537e-25
5.31063e-25
1.65152e-24
3.31717e-20
1.51722e-19
4.74092e-19
6.30202e-20
2.93018e-19
1.08145e-18
3.48751e-27
3.58059e-27
4.91371e-27
1.43264e-27
1.20034e-27
1.64306e-27
5.82168e-31
1.46887e-32
2.79536e-32
6.78229e-28
7.3603e-28
5.10929e-27
0
1.26427e-27
1.82086e-27
0
0
1.52457e-32
0
0
5.15783e-27
0
0
1.87368e-27
0
0
1.09551e-32
9.5135e-26
9.08546e-27
5.30068e-27
0
0
0
0
0
7.81458e-33
8.76395e-26
2.14549e-26
5.39753e-27
0
0
1.80095e-28
6.03359e-32
3.65732e-32
1.14064e-32
8.0245e-26
2.24708e-26
4.98722e-27
1.48029e-26
6.80036e-27
1.88169e-27
8.03904e-32
3.71435e-32
1.0218e-32
)
;

boundaryField
{
    fuel
    {
        type            fixedValue;
        value           uniform 0;
    }
    primary_air
    {
        type            fixedValue;
        value           uniform 0.23;
    }
    Secondary_air_RHS
    {
        type            fixedValue;
        value           uniform 0.23;
    }
    Secondary_air_LHS
    {
        type            fixedValue;
        value           uniform 0.23;
    }
    outlet
    {
        type            inletOutlet;
        inletValue      uniform 0;
        value           nonuniform List<scalar> 
18
(
0
1.48029e-26
0
0
6.80036e-27
0
0
1.88169e-27
0
0
3.31717e-20
0
0
1.51722e-19
0
0
4.74092e-19
0
)
;
    }
    stove_body
    {
        type            fixedValue;
        value           uniform 0;
    }
    frontAndBack
    {
        type            empty;
    }
}


// ************************************************************************* //
