/*--------------------------------*- C++ -*----------------------------------*\
  =========                 |
  \\      /  F ield         | OpenFOAM: The Open Source CFD Toolbox
   \\    /   O peration     | Website:  https://openfoam.org
    \\  /    A nd           | Version:  6
     \\/     M anipulation  |
\*---------------------------------------------------------------------------*/
FoamFile
{
    version     2.0;
    format      ascii;
    class       volScalarField;
    location    "1";
    object      p;
}
// * * * * * * * * * * * * * * * * * * * * * * * * * * * * * * * * * * * * * //

dimensions      [1 -1 -2 0 0 0 0];

internalField   nonuniform List<scalar> 
297
(
122646
122646
122646
203268
203268
203268
122646
122646
122646
122646
122646
122646
203269
203268
203269
122646
122646
122646
122646
122646
122646
203269
203268
203269
122646
122646
122646
97395.1
97410.7
97403
161062
161098
161159
97389.6
97406.4
97399.8
97352.1
97312.4
97311.9
160682
160809
160776
97337.3
97296.3
97301
97230.9
97252
96963.3
158651
159901
158703
97234.4
97231.1
96942.4
96287.7
96653.8
96419.5
159834
159508
159607
96303.1
96684.4
96460.8
96799.6
96882
96725.5
160669
160404
160497
96813.8
96897.5
96771.4
96949.7
97109.2
96881
160716
160625
160568
96956.9
97109.3
96891.2
95265.2
97337.8
96002.2
152820
158418
155368
95194.5
97344.6
96025.3
95008.8
97302.9
95833.5
152250
158350
154844
94937.8
97312.3
95859.9
95005.3
97225.8
95716
152807
158455
154907
94939.4
97237.9
95743
97402.6
97524.5
97374.9
160744
160765
160827
97367.5
97529.8
97414.2
97482.1
97585.1
97469.5
160767
160847
160931
97480.9
97579.9
97490
97511.7
97576.5
97501.9
160791
160898
160982
97517.9
97576
97521.9
97383.9
97278.9
97124.9
160789
160732
160553
97670.5
97592.9
97795.2
97297
97093.5
96788.5
160764
160718
160500
97430.9
97331
97478.1
97289.3
97046.8
96679.8
160807
160696
160372
97373.6
97266.1
97224
97779.7
97556.4
97633
160521
160680
160711
97116.9
97254
97347.6
97443.7
97274.5
97390.5
160469
160661
160668
96782.1
97075.7
97287.2
97177.4
97214.7
97330.2
160342
160639
160689
96661.4
97023.2
97278.9
99144
98825.8
98311.7
160538
160428
160378
99290.5
98551.4
97529.8
98754
98381.9
97903
160056
159853
160020
98351.5
97457.1
96810.6
98191.1
97801.1
97416.4
159291
159093
159378
97226.9
96567.8
96221.6
95666.9
95648
95613.7
155025
154934
154768
92884.7
92823.1
92722.7
89882
89931.9
89974.4
146787
146776
146705
88732.2
88688.1
88596
83843.1
83842.3
83842.2
134674
134615
134546
86243.6
86401.3
86609.5
97529
98544.9
99274
160404
160446
160555
98297.7
98779.2
99086.1
96795.9
97439
98337.5
160063
159890
160087
97914.7
98369
98719.3
96201.1
96543.2
97222.4
159424
159152
159349
97451.7
97818.7
98185.4
92766.1
92866.3
92935.1
154867
155050
155143
95720.4
95748.6
95761.6
88721.4
88806.2
88847.3
146925
146993
147012
90119.2
90078.4
90032.9
86743.6
86526.9
86366.9
134723
134796
134847
84003.3
84003.3
84003.4
)
;

boundaryField
{
    fuel
    {
        type            zeroGradient;
    }
    primary_air
    {
        type            zeroGradient;
    }
    Secondary_air_RHS
    {
        type            zeroGradient;
    }
    Secondary_air_LHS
    {
        type            zeroGradient;
    }
    outlet
    {
        type            totalPressure;
        rho             rho;
        psi             none;
        gamma           1;
        p0              uniform 100000;
        value           nonuniform List<scalar> 
18
(
99992.7
100000
86485.3
93253.5
100000
86380.6
87760.2
100000
86336.4
86170.8
100000
87660.8
86211.8
100000
93234.3
86247
100000
99993.3
)
;
    }
    stove_body
    {
        type            zeroGradient;
    }
    frontAndBack
    {
        type            empty;
    }
}


// ************************************************************************* //
