/*--------------------------------*- C++ -*----------------------------------*\
  =========                 |
  \\      /  F ield         | OpenFOAM: The Open Source CFD Toolbox
   \\    /   O peration     | Website:  https://openfoam.org
    \\  /    A nd           | Version:  6
     \\/     M anipulation  |
\*---------------------------------------------------------------------------*/
FoamFile
{
    version     2.0;
    format      ascii;
    class       surfaceScalarField;
    location    "1";
    object      phi;
}
// * * * * * * * * * * * * * * * * * * * * * * * * * * * * * * * * * * * * * //

dimensions      [1 0 -1 0 0 0 0];

internalField   nonuniform List<scalar> 
675
(
-9.1821e-07
-8.67549e-06
0.000139392
7.35727e-07
-8.88227e-06
0.000137009
-8.61066e-06
0.000139144
-4.82756e-06
8.48878e-06
0.000202737
5.30046e-06
8.71132e-06
0.0001874
8.42331e-06
0.000203335
-9.63003e-07
0.00013925
7.78697e-07
0.000136744
0.000139
-5.23455e-06
-1.89991e-05
0.000163527
4.75827e-06
-2.45338e-05
0.000151418
-1.85885e-05
0.00016239
2.08882e-06
1.85634e-05
0.000162838
1.29596e-06
2.45039e-05
0.000138998
1.81074e-05
0.000167681
-5.30342e-06
0.000163016
4.79882e-06
0.000150994
0.000161803
-2.16241e-05
5.53403e-05
2.04828e-05
-2.01592e-05
5.30776e-05
5.87447e-05
-5.45932e-05
-5.91278e-05
2.10905e-05
-5.23946e-05
-2.15252e-05
2.05189e-05
0.00745715
0.00555839
-0.00980288
0.00869942
0.00579496
-0.0038242
0.00882531
0.003075
0.00132561
-0.00547491
0.0149987
-0.00428234
-0.00567085
0.0223652
-0.00870941
0.018535
0.00756013
-0.00981491
0.00884688
-0.00374676
0.00333247
0.0154282
0.00684028
-0.0320681
0.0119908
0.00299223
-0.00337553
0.00871604
0.00635947
0.00581291
-0.00662965
0.0226997
0.00878462
-0.00271204
0.0251288
-0.00840729
0.0444569
0.0156774
-0.0321174
0.0121269
-0.00287421
0.00708625
-0.00665885
0.0237411
-0.0491424
-0.0053761
0.0112321
-0.0158685
0.0174142
-0.0164048
-0.0471771
-0.0235807
0.117091
0.0414367
-0.0107969
-0.0414477
-0.0170047
0.120363
-0.00669338
-0.0488318
-0.00531015
-0.0151302
-0.0152102
-0.0169746
-0.0140879
-0.0297158
0.0607337
0.00621638
-0.000192656
-0.0419763
0.0190021
-0.00977162
-0.0164702
0.0324882
0.0179702
0.0137376
0.0407166
-0.0863598
-0.00470988
-0.000162476
-0.0293548
0.0520028
0.0098881
0.0630439
-0.0874066
-0.0173203
-0.029472
0.0603321
0.0056147
-0.0413045
0.0182042
-0.0160374
0.0315405
0.00417741
-0.0102177
-0.0236716
-0.000224641
-0.00859194
-0.0289504
-0.00651893
-0.0101415
0.0152273
0.0102838
0.0049987
-0.0122323
0.00781717
-0.0183278
0.00708914
0.0372278
0.00510143
-0.0242517
-0.00012274
-0.0283101
-0.00906278
-0.00487177
-0.00130134
-0.0174823
-0.0150271
-0.000364699
-0.0184471
-0.00911468
-0.0159269
0.0092944
0.00118039
-0.00670571
5.6934e-05
-0.000152987
-0.00937958
0.00879349
0.0193491
-0.00509168
-0.0180039
-0.014339
-0.0192342
-0.0146186
-0.000879171
-0.00251262
-0.0520173
-0.00129192
-0.000623221
-0.0148298
-0.00204066
-0.0219676
-0.00321553
0.00250427
0.105248
0.00264565
0.00063472
-0.0485639
0.00198676
0.108762
-0.000916181
-0.0516899
-0.00134679
-0.014048
-0.0208844
-0.00113694
-0.000700078
-0.0564298
-0.000283217
-4.94128e-05
-0.0156318
-0.00104448
-0.0275071
-0.00149364
0.000691844
0.095346
0.00228818
5.40678e-05
-0.0524457
0.00098656
0.0988343
-0.00117176
-0.0560904
-0.000314959
-0.0148302
-0.0265157
-0.0019185
-2.65955e-05
-5.14297e-05
0.00150573
-0.00136354
-0.00112437
4.36162e-05
0.00145636
-0.00151548
0.00133216
-0.00193979
-6.14309e-05
0.00542175
-0.00300219
-0.00443009
-0.0154731
-0.00607808
-0.000926855
-0.00601306
-0.00295083
-0.00285584
-0.0163327
-0.00242983
0.00221058
-0.00774899
-0.00175411
-0.00285876
0.00166473
-0.0115275
0.00343665
0.0114645
-0.00135302
0.00570482
-0.0048662
-0.0166359
-0.00565647
-0.00620512
-0.00218605
-0.0146615
0.00381354
0.0012147
0.00207261
-0.0115348
-0.00585224
0.00155206
0.0021254
0.000273339
0.00257824
-0.0115442
-0.00133633
-0.00208127
-0.00571109
0.00257277
-0.00363209
-0.00124166
-0.00642201
0.000456995
0.00439314
0.00327725
0.00249532
0.00258549
-0.0120254
-0.00688282
0.00193499
0.00219022
-0.0107945
0.000520214
0.00353268
-0.0019455
-0.000860439
0.00352903
0.00243526
-0.000723392
-0.00385941
-0.00315212
0.00480192
-0.00394377
-0.00279526
-0.00194988
0.00483642
-0.00209051
0.00151723
-0.00295379
-0.00271789
-0.0170999
-0.000989629
0.00177076
-0.016985
-0.00177631
0.00166859
-0.00158563
0.00183553
-0.0172366
-0.00588279
0.00249945
0.00104697
-0.00816917
0.000114985
0.000394425
-0.00171844
0.00238811
-0.0104315
-0.0140177
0.00185752
-0.0150382
0.00113519
-0.00209809
-0.0146587
-0.0117389
-0.000871308
0.00285238
-0.0117557
-0.00103273
0.00272216
-0.00133649
0.00288929
-0.0114739
0.00355927
0.00162197
-0.00172865
0.000546045
-0.000149724
0.00249094
-0.0013208
0.00737558
-0.00442824
-0.0102402
0.00291986
-0.0100875
0.000832616
-0.00346396
-0.0100427
0.00163598
0.000498017
0.00407275
0.000288973
-0.00131788
0.00827996
0.00409371
-0.000486782
0.0077448
-0.00087502
-0.000909811
0.0147129
-0.000284615
-0.000327729
-0.00470244
0.0156015
0.0016821
-0.00222389
-0.0150602
0.0146214
-0.000137909
0.00111715
-0.00259054
0.00173713
0.00825433
0.00164925
0.00236794
-0.0105907
0.00664051
0.00189008
-0.000414227
0.000962236
0.00133102
0.0170697
0.00183665
-0.0172569
0.0172617
0.00169929
0.00158578
0.0107279
0.00130259
-0.00381
-0.0104448
0.0108143
0.000124345
0.00090565
-0.00172313
0.00273757
-0.000695955
0.00117108
0.00775801
-0.00456287
-0.00348503
0.000676456
0.00181675
0.000519656
-0.00183099
0.0118378
0.00258835
-0.0114179
0.0121498
0.00206334
0.00223502
0.000153734
0.000990439
-0.00495443
5.37748e-05
0.00100485
0.000842778
-0.00712256
0.00125049
0.0146147
-0.00414888
-0.000174878
-0.00033207
-0.00531405
0.00915473
-0.00342251
0.00651825
0.00311169
-0.00963095
0.0116916
0.00286572
-0.00803992
0.00183483
-0.00520413
0.00921579
-0.0017021
-0.00440528
0.0110858
-0.000127047
0.00111952
-0.000821836
0.00314921
0.011626
-0.0133298
0.0180532
-0.00655545
-2.61437e-05
0.00504379
0.00206366
-0.0167391
0.00802969
0.00196334
-0.0129898
0.00170304
-0.00932275
0.00787447
-0.00139011
-0.00882921
0.00677454
5.9746e-06
0.00417373
-0.000737632
0.00779963
0.00859658
-0.0233177
0.0129022
-0.0108558
0.000720394
0.00631441
0.00468269
-0.0277368
0.00628736
0.0028252
-0.0157884
0.00200277
-0.0099928
0.00215449
-0.0043213
-0.00198266
-0.00676854
0.000273476
0.0156458
0.00113954
0.0165067
0.00941443
-0.0370539
0.00227446
-0.00344274
0.0132896
-0.0103349
0.0170743
-0.0344766
-0.00698909
0.0140084
-0.033143
0.0155018
-0.0324836
-0.00337895
-0.00276665
0.0212223
-0.00511887
0.00271085
0.0286674
0.00114025
0.0257352
0.00635093
-0.0461794
0.0170383
-0.0114294
0.0314611
-0.00105321
0.00760298
-0.0409923
-0.000466436
0.00711193
-0.04081
0.00768161
-0.0405973
0.00455786
-0.00194571
0.0262607
0.00938812
-0.00275341
0.0335971
0.000869472
0.0419889
-0.00290713
-0.04518
0.00256814
-0.0196214
0.0349424
-0.000159737
0.0147359
-0.000151455
0.0146899
0.0147009
-0.000131319
-0.0228786
0.00168304
-0.0221358
-0.0212059
-0.0153128
-0.0163005
-0.0180723
0.000784214
4.53771e-05
-0.0116179
8.80608e-05
-0.00655026
0.00166199
-0.0132881
-0.0109021
-0.00182602
0.00307438
-0.00909922
-0.00282511
0.00110674
-0.0030538
-0.00438446
-0.0113113
-0.00517275
-0.00638207
-0.00775298
-0.0094342
-0.0130065
0.000663444
0.000909942
-0.00865568
-7.36604e-05
-0.0108334
0.00134395
-0.0232938
-0.00657826
-0.00169202
0.00757546
-0.00784475
-0.00193353
0.00423006
-0.00203381
-0.00885276
-0.00769455
-0.00921236
-0.00489871
-0.0124811
-0.0163652
-0.00278198
-0.00122158
0.013192
-0.00950846
-0.000394192
-0.00371691
0.0042713
-0.0370777
0.00740277
-0.00192425
0.0155862
-0.00178529
-0.00276999
0.0157921
-0.00461692
-0.0017512
-0.00599792
-0.00984061
-0.00599356
-0.0152543
-0.0269743
-0.0166589
-0.00127865
0.031143
-0.006272
-0.00306023
-0.0110307
0.0027272
-0.0460586
0.00467285
-0.0154755
0.0251215
0.00297095
-0.0139838
0.0284306
-0.0170885
0.021047
0.00693799
-0.0322504
0.0102725
-0.0325705
-0.0337878
-0.00252556
-0.000818282
0.034494
0.00315088
0.00277692
-0.0194814
0.00201072
-0.0449167
-0.00996864
-0.00757874
0.0418537
-0.00486575
-0.00731939
0.0334293
-0.00784556
0.0260457
0.000494886
-0.040315
0.00103183
-0.0404228
-0.0405995
0.0161038
0.021046
0.0152462
0.0221135
0.0229219
-0.00177948
-0.0146141
7.98859e-05
-0.0148055
-0.0148985
0.000153556
0.000176809
)
;

boundaryField
{
    fuel
    {
        type            calculated;
        value           nonuniform List<scalar> 
36
(
0.000129875
0.00021525
0.000129875
0.000129875
0.00021525
0.000129875
0.000129875
0.00021525
0.000129875
-0.000129875
-0.00021525
-0.000129875
-0.000129875
-0.00021525
-0.000129875
-0.000129875
-0.00021525
-0.000129875
0
0
0
0
0
0
0
0
0
0
0
0
0
0
0
0
0
0
)
;
    }
    primary_air
    {
        type            calculated;
        value           nonuniform List<scalar> 9(-0.00320273 -0.00529636 -0.00320255 -0.00320325 -0.00529753 -0.0032031 -0.00320299 -0.00529956 -0.00320289);
    }
    Secondary_air_RHS
    {
        type            calculated;
        value           nonuniform List<scalar> 9(0.00631386 0.0102182 0.00631538 0.00630277 0.0101838 0.0063045 0.00629503 0.0101879 0.00629681);
    }
    Secondary_air_LHS
    {
        type            calculated;
        value           nonuniform List<scalar> 9(0.00626539 0.0100506 0.00626074 0.00624852 0.0100131 0.00624386 0.00624829 0.0100498 0.00624396);
    }
    outlet
    {
        type            calculated;
        value           nonuniform List<scalar> 
18
(
-0.00265269
0.0792925
-0.0550828
-0.0407384
0.0684861
-0.0552518
-0.0525946
0.0639446
-0.0553213
-0.0555999
0.0639548
-0.052779
-0.0555365
0.0687364
-0.0407981
-0.055481
0.0795283
-0.0025906
)
;
    }
    stove_body
    {
        type            calculated;
        value           uniform 0;
    }
    frontAndBack
    {
        type            empty;
        value           nonuniform 0();
    }
}


// ************************************************************************* //
