/*--------------------------------*- C++ -*----------------------------------*\
  =========                 |
  \\      /  F ield         | OpenFOAM: The Open Source CFD Toolbox
   \\    /   O peration     | Website:  https://openfoam.org
    \\  /    A nd           | Version:  6
     \\/     M anipulation  |
\*---------------------------------------------------------------------------*/
FoamFile
{
    version     2.0;
    format      ascii;
    class       volScalarField;
    location    "1";
    object      Qdot;
}
// * * * * * * * * * * * * * * * * * * * * * * * * * * * * * * * * * * * * * //

dimensions      [1 -1 -3 0 0 0 0];

internalField   nonuniform List<scalar> 
297
(
0
0
0
-7.83401e-05
0
-7.83401e-05
-2.58302e-05
-3.91701e-05
0
0
-3.91701e-05
0
0
0
-0.000130001
-6.50003e-05
-3.91701e-05
0
-2.58302e-05
-1.9585e-05
1.1786e-11
-3.91701e-05
0
-3.91701e-05
0
0
-3.91701e-05
3.63291e-10
3.63291e-10
0
-5.54396e-11
0
0
0
0
-5.54396e-11
3.77151e-10
0
-3.46497e-12
0
-5.54396e-11
0
3.77151e-10
3.77151e-10
0
0
3.77151e-10
0
7.40443e-10
0
7.54303e-10
0
0
0
0
3.77151e-10
0
0
7.54303e-10
0
3.77151e-10
-2.06529e-19
3.77151e-10
0
3.77151e-10
0
0
0
0
0
3.77151e-10
0
7.54303e-10
0
0
0
0
0
7.54303e-10
0
3.77151e-10
0
0
0
7.54303e-10
0
0
0
3.77151e-10
0
0
0
0
0
0
0
0
0
0
3.77151e-10
3.77151e-10
3.77151e-10
0
0
0
0
0
0
7.54303e-10
0
0
7.54303e-10
0
0
7.54303e-10
0
0
0
-1.23101e-26
0
7.54303e-10
0
0
0
7.54303e-10
0
0
0
-1.23101e-26
7.54303e-10
0
7.54303e-10
-6.15503e-27
0
0
7.54303e-10
0
0
0
-1.50269e-30
0
0
0
0
0
0
7.54303e-10
0
0
7.54303e-10
0
7.54303e-10
7.54303e-10
0
0
7.54303e-10
0
0
7.54303e-10
7.54303e-10
7.54303e-10
0
7.54303e-10
0
0
0
0
0
-1.20215e-29
0
7.54303e-10
0
0
-9.61724e-29
1.50861e-09
7.54303e-10
0
7.54303e-10
7.54303e-10
0
-1.17398e-32
0
0
0
7.54303e-10
0
7.54303e-10
0
0
0
0
0
-6.01077e-30
0
0
0
-2.40431e-29
-2.40431e-29
7.54303e-10
0
-7.33737e-34
0
0
0
0
0
0
-1.83434e-34
0
0
1.50861e-09
1.50861e-09
0
0
0
0
-1.83434e-34
0
-1.46747e-33
0
0
0
0
-4.80862e-29
-3.84689e-28
7.54303e-10
0
0
-1.20215e-29
7.54303e-10
0
7.54303e-10
-9.61724e-29
0
-4.58586e-35
7.54303e-10
0
7.54303e-10
7.54303e-10
0
0
0
0
7.54303e-10
0
-1.43308e-36
1.50861e-09
0
1.50861e-09
0
-5.46677e-42
-1.09335e-41
0
-1.79135e-37
0
0
0
-7.1654e-37
7.54303e-10
0
7.54303e-10
0
7.54303e-10
7.54303e-10
7.54303e-10
7.54303e-10
0
0
0
-2.73338e-42
0
0
-1.43308e-36
0
0
0
0
7.54303e-10
0
-2.29293e-35
7.54303e-10
7.54303e-10
7.54303e-10
7.54303e-10
0
0
7.54303e-10
7.54303e-10
-2.29293e-35
-5.73232e-36
-1.43308e-36
0
-2.86616e-36
7.54303e-10
0
0
-2.73338e-42
)
;

boundaryField
{
    fuel
    {
        type            calculated;
        value           uniform 0;
    }
    primary_air
    {
        type            calculated;
        value           uniform 0;
    }
    Secondary_air_RHS
    {
        type            calculated;
        value           uniform 0;
    }
    Secondary_air_LHS
    {
        type            calculated;
        value           uniform 0;
    }
    outlet
    {
        type            calculated;
        value           uniform 0;
    }
    stove_body
    {
        type            calculated;
        value           uniform 0;
    }
    frontAndBack
    {
        type            empty;
    }
}


// ************************************************************************* //
