/*--------------------------------*- C++ -*----------------------------------*\
  =========                 |
  \\      /  F ield         | OpenFOAM: The Open Source CFD Toolbox
   \\    /   O peration     | Website:  https://openfoam.org
    \\  /    A nd           | Version:  6
     \\/     M anipulation  |
\*---------------------------------------------------------------------------*/
FoamFile
{
    version     2.0;
    format      ascii;
    class       volScalarField;
    location    "1";
    object      T;
}
// * * * * * * * * * * * * * * * * * * * * * * * * * * * * * * * * * * * * * //

dimensions      [0 0 0 1 0 0 0];

internalField   nonuniform List<scalar> 
297
(
291.843
291.844
291.843
293.041
293.047
293.041
291.843
291.845
291.843
292.129
292.663
292.125
293.214
294.327
293.219
292.173
292.773
292.17
308.287
343.971
308
306.569
456.727
305.929
311.28
353.479
311.055
411.094
400.928
358.217
354.499
353.202
336.574
411.247
401.534
358.916
448.992
450.016
413.356
398.988
370.675
356.617
449.15
452.114
412.625
448.945
454.42
589.728
429.652
451.75
436.498
449.528
470.146
601.17
402.751
383.824
457.375
497.535
486.384
524.397
401.487
387.568
465.544
371.751
382.609
438.712
497.27
463.854
524.406
368.637
387.07
458.64
319.776
360.775
401.586
400.646
412.678
524.279
315.81
351.756
409.553
447.418
403.709
637.002
453.409
482.269
478.155
447.369
418.758
663.619
428.94
381.67
526.559
473.182
482.185
488.204
428.363
390.006
540.453
414.224
380.099
498.265
494.357
482.28
521.064
413.206
388.069
509.353
308.341
322.583
327.501
340.24
417.772
511.377
305.017
330.124
337.215
305.331
314.052
318.873
323.109
374.593
505.522
303.443
322.569
329.253
301.396
313.206
319.194
325.928
354.631
411.507
312.891
323.424
323.595
301.38
301.389
301.013
301.763
304.565
304.497
301.675
302.911
302.953
319.018
307.086
302.064
451.599
423.134
310.875
320.624
302.903
303.018
319.041
311.631
316.729
399.211
390.726
365.867
319.295
303.074
302.697
303.056
303.008
303.333
304.3
305.108
305.169
300.199
300.614
300.831
303.074
302.955
304.999
304.994
319.185
319.39
301.808
302.621
303.428
302.879
303.183
304.425
314.687
319.211
323.337
305.481
305.485
307.311
303.945
303.831
303.347
304.005
304.264
304.141
299.574
300.817
300.068
303.786
303.599
303.203
304.354
304.511
304.316
299.749
301.855
301.687
303.343
303.229
302.759
304.392
305.783
308.776
299.324
302.231
304.888
302.987
302.664
302.022
305.51
305.183
305.731
298.996
299.621
300.279
298.89
298.969
298.302
303.129
302.673
302.76
295.203
294.708
295.945
292.069
292.044
291.434
293.242
290.308
286.985
291.137
290.767
299.451
300.868
301.602
301.432
304.397
304.531
304.442
303.217
303.575
303.761
301.702
301.85
300.932
304.481
304.749
304.677
303.135
303.558
303.597
314.392
302.036
300.26
333.401
313.211
304.693
302.535
303.096
303.194
303.327
300.792
297.966
317.942
311.694
305.558
301.927
302.61
302.846
300.935
295.984
295.504
310.292
305.034
304.189
296.602
298.796
298.85
304.024
292.075
291.433
291.784
292.244
293.162
291.338
292.014
292.076
)
;

boundaryField
{
    fuel
    {
        type            fixedValue;
        value           uniform 293;
    }
    primary_air
    {
        type            fixedValue;
        value           uniform 293;
    }
    Secondary_air_RHS
    {
        type            fixedValue;
        value           uniform 293;
    }
    Secondary_air_LHS
    {
        type            fixedValue;
        value           uniform 293;
    }
    outlet
    {
        type            inletOutlet;
        inletValue      uniform 293;
        value           nonuniform List<scalar> 
18
(
293
291.785
293
293
292.245
293
293
293.162
293
293
293.239
293
293
290.291
293
293
286.981
293
)
;
    }
    stove_body
    {
        type            fixedValue;
        value           uniform 293;
    }
    frontAndBack
    {
        type            empty;
    }
}


// ************************************************************************* //
