/*--------------------------------*- C++ -*----------------------------------*\
  =========                 |
  \\      /  F ield         | OpenFOAM: The Open Source CFD Toolbox
   \\    /   O peration     | Website:  https://openfoam.org
    \\  /    A nd           | Version:  6
     \\/     M anipulation  |
\*---------------------------------------------------------------------------*/
FoamFile
{
    version     2.0;
    format      ascii;
    class       volScalarField;
    location    "0.0025";
    object      O2;
}
// * * * * * * * * * * * * * * * * * * * * * * * * * * * * * * * * * * * * * //

dimensions      [0 0 0 0 0 0 0];

internalField   nonuniform List<scalar> 
3773
(
0
0
0
0
0
0
0
0
0
0
0
0
0
0
0
0
0
0
0
0
0
0
0
0
0
0
0
0
0
0
0
0
0
0
0
0
0
0
0
0
0
0
0
0
0
0
0
0
0
0
0
0
0
0
0
0
0
0
0
0
0
0
0
0
0
0
0
0
0
0
0
0
0
0
0
0
0
0
0
0
0
0
0
0
0
0
0
0
0
0
0
0
0
0
0
0
0
0
0
0
0
0
0
0
0
0
0
0
0
0
0
0
0
0
0
0
0
0
0
0
0
0
0
0
0
0
0
0
0
0
0
0
0
0
0
0
0
0
0
0
0
0
0
0
0
0
0
0
0
0
0
0
0
0
0
0
0
0
0
0
0
0
0
0
0
0
0
0
0
0
0
0
0
0
0
0
0
0
0
0
0
0
0
0
0
0
0
0
0
0
0
0
0
0
0
0
0
0
0
0
0
0
0
0
0
0
0
0
0
0
0
0
0
0
0
0
0
0
0
0
0
0
0
0
0
0
0
0
0
0
0
0
0
0
0
0
0
0
0
0
0
0
0
0
0
0
0
0
0
0
0
0
0
0
0
0
0
0
0
0
0
0
0
0
0
0
0
0
0
0
0
0
0
0
0
0
0
0
0
0
0
0
0
0
0
0
0
0
0
0
0
0
0
0
0
0
0
0
0
0
0
0
0
0
0
0
0
0
0
0
0
0
0
0
0
0
0
0
0
0
0
0
0
0
0
0
0
0
0
0
0
0
0
0
0
0
0
0
0
0
0
0
0
0.00207331
0.00207437
0.00207278
0.00207303
0.00207296
0.00207346
0.00207179
0.00239812
0.00239904
0.00239779
0.00239716
0.0023966
0.00239705
0.00239644
0.0026506
0.002651
0.00265111
0.00265101
0.00265062
0.00265027
0.0026503
0.00271604
0.00271701
0.00271686
0.00271704
0.00271716
0.00271717
0.0027168
0.00265371
0.00265412
0.00265453
0.0026548
0.00265462
0.00265459
0.00265348
0.00239339
0.00239249
0.00239421
0.0023942
0.00239484
0.00239607
0.00239581
0.00207284
0.00207225
0.00207288
0.00207209
0.00207184
0.00207193
0.00207163
1.7321e-06
1.83531e-06
1.72516e-06
1.89049e-06
1.87878e-06
1.83524e-06
1.93501e-06
1.62809e-06
1.67141e-06
1.61151e-06
1.56774e-06
1.64155e-06
1.69307e-06
1.60635e-06
2.28031e-06
2.19167e-06
2.21649e-06
2.10344e-06
2.08994e-06
2.04012e-06
2.08757e-06
1.43013e-06
1.45581e-06
1.45427e-06
1.46061e-06
1.49544e-06
1.53962e-06
1.60719e-06
1.60544e-06
1.55356e-06
1.6164e-06
1.63645e-06
1.86031e-06
2.09825e-06
2.14692e-06
1.18973e-06
1.06718e-06
1.15721e-06
1.08452e-06
1.11503e-06
1.2035e-06
1.16631e-06
1.11373e-06
1.11275e-06
1.28018e-06
1.23572e-06
1.25947e-06
1.295e-06
1.36706e-06
1.10125e-09
1.2538e-09
1.24986e-09
1.419e-09
1.34742e-09
7.36116e-10
1.78039e-09
2.22759e-09
2.16987e-09
2.06405e-09
1.88286e-09
1.91528e-09
1.73259e-09
1.88704e-09
2.60681e-09
2.48771e-09
2.56755e-09
1.65509e-09
2.19605e-09
1.89129e-09
1.50892e-09
1.86866e-09
1.97822e-09
1.90771e-09
1.12019e-09
1.74935e-09
1.0622e-09
1.06097e-09
2.64249e-09
2.28874e-09
2.29484e-09
2.18392e-09
1.92755e-09
1.71294e-09
1.56921e-09
8.67317e-10
6.42014e-10
7.48818e-10
7.94475e-10
9.2193e-10
9.42425e-10
9.79303e-10
4.88565e-10
4.92807e-10
6.1991e-10
7.77922e-10
9.45698e-10
1.0518e-09
1.1049e-09
0
2.07872e-13
1.94902e-13
2.19883e-13
3.33107e-13
6.30511e-13
1.79516e-13
5.80045e-13
8.37147e-13
8.69864e-13
9.14891e-13
1.0657e-12
1.23336e-12
9.19064e-13
1.53317e-12
2.42559e-12
1.50072e-12
1.49908e-12
1.27234e-12
1.9563e-12
1.22024e-12
1.54509e-12
1.40035e-12
1.16173e-12
1.02879e-12
9.17187e-13
2.38144e-12
6.07754e-13
1.78844e-12
1.4329e-12
1.59188e-12
1.16927e-12
1.22181e-12
1.35548e-12
8.52982e-13
0
9.8894e-13
2.6397e-13
2.08474e-13
2.93086e-13
5.17749e-13
2.84486e-13
0
2.05739e-13
1.99614e-13
1.60562e-13
1.38263e-13
1.33231e-13
0
0
0
7.74364e-15
2.26491e-16
1.15315e-15
0
0
0
1.23269e-14
9.8475e-16
3.50902e-16
3.76086e-15
1.86261e-16
0
0
4.48583e-12
1.21675e-14
1.14719e-15
1.44816e-15
9.96191e-14
0
0
1.05541e-12
2.43382e-14
9.23103e-16
6.60945e-15
1.50916e-11
0
0
5.83437e-14
1.46054e-14
5.35344e-16
1.98741e-15
2.34451e-14
0
0
4.3624e-12
8.73691e-14
2.4065e-16
7.74228e-16
0
0
0
2.57683e-14
1.60957e-14
2.60341e-16
2.81471e-14
1.40087e-17
0
0
0
2.55795e-14
2.01205e-16
9.82226e-15
0
0
0
5.53024e-14
1.55065e-15
1.80007e-16
2.44138e-14
0
0
0
3.5641e-11
1.06577e-13
3.23097e-16
2.13527e-15
3.9547e-13
0
0
1.24283e-11
2.98912e-13
1.79721e-15
3.55933e-14
8.41427e-11
0
0
0
9.67259e-14
3.05763e-16
2.48602e-15
6.98061e-14
0
0
6.37182e-12
4.99229e-13
6.32367e-16
9.72332e-16
0
0
0
4.84385e-14
1.10737e-13
7.77933e-16
1.63509e-13
0
0
0
0
2.56216e-14
6.07414e-16
7.79352e-14
0
0
0
0
6.13623e-15
4.12163e-16
4.41197e-14
0
0
0
5.8827e-11
2.257e-13
8.9639e-16
4.28415e-15
3.5675e-13
0
0
3.0788e-11
8.57519e-13
5.62556e-15
5.93235e-14
1.04036e-10
0
0
0
1.74386e-13
7.24679e-16
4.37165e-16
7.14566e-13
0
0
0
6.07125e-13
7.43539e-16
2.40266e-18
0
0
0
0
1.80612e-13
1.4956e-15
2.48811e-13
0
0
0
2.24762e-12
5.12096e-15
1.0543e-17
3.15208e-17
0
0
0
8.84703e-13
2.58956e-15
1.69868e-18
3.14791e-17
7.0029e-15
0
0
1.49901e-13
3.13879e-16
2.25851e-18
7.52409e-17
1.8739e-16
0
0
3.52922e-13
2.08027e-16
9.51869e-19
1.76565e-16
1.52209e-12
0
0
1.89181e-17
2.15308e-17
6.05324e-20
2.43336e-17
4.08644e-17
0
0
3.93294e-17
4.42028e-17
1.0312e-20
1.77476e-18
0
0
0
0
1.88279e-18
1.55671e-20
1.10771e-20
0
0
3.80118e-18
2.90588e-15
7.00619e-18
2.02781e-20
3.06797e-20
8.24027e-19
8.4171e-17
1.29983e-17
1.20917e-15
3.79562e-18
4.94003e-21
1.34924e-20
6.09536e-18
3.39427e-15
5.07888e-18
1.9605e-16
4.56571e-19
9.18892e-22
6.0829e-21
8.32931e-18
1.53188e-15
3.6523e-18
1.13094e-16
3.79083e-20
5.59099e-23
5.79421e-20
2.75368e-16
9.10709e-17
2.15609e-19
1.20265e-17
5.32356e-21
1.66886e-23
4.11687e-20
3.85991e-17
7.15276e-19
3.15994e-19
2.04329e-17
1.78442e-20
2.08907e-24
1.04534e-21
4.55498e-19
2.93214e-19
3.90589e-21
6.96833e-19
1.80638e-21
1.5799e-24
2.93141e-22
3.22612e-19
7.16253e-19
1.84025e-20
9.84664e-19
2.09845e-21
5.68425e-24
1.62255e-24
9.52608e-23
2.88764e-20
3.37141e-20
7.77199e-19
1.79402e-21
1.13557e-24
3.09409e-24
2.51302e-21
1.16088e-18
3.00907e-21
6.0375e-20
3.28984e-22
4.0886e-25
9.86744e-25
1.64734e-21
2.00614e-19
5.59625e-22
1.21013e-20
8.01227e-24
1.67517e-26
3.63624e-24
2.56152e-20
1.30973e-20
7.90111e-23
5.41017e-22
1.07568e-24
3.75281e-27
2.06505e-24
2.43126e-21
1.43865e-20
2.29666e-22
1.61602e-21
1.37856e-24
3.44867e-28
5.68152e-25
2.70104e-22
1.71263e-19
5.21454e-23
3.26616e-23
5.90088e-26
2.33686e-28
4.48346e-25
4.68958e-22
4.827e-19
2.3281e-23
2.5411e-22
1.82885e-25
1.58532e-28
1.1228e-28
1.56197e-26
2.52465e-24
7.13139e-23
4.92914e-23
2.24349e-25
1.16564e-28
1.74342e-28
9.77836e-26
3.16853e-23
1.25756e-23
8.0852e-24
5.7325e-26
1.06507e-28
1.10891e-28
3.8081e-26
1.06486e-23
5.3761e-24
4.49061e-25
1.49421e-27
7.70809e-30
5.68592e-28
6.41464e-25
2.18866e-24
3.52947e-23
5.54759e-26
3.80565e-28
8.58196e-31
9.81791e-29
4.05687e-26
1.78999e-24
8.24874e-23
1.44705e-25
2.08639e-28
6.63274e-32
4.57706e-29
3.44473e-26
1.22875e-23
2.48606e-23
2.76255e-26
2.08426e-29
3.06054e-32
1.45666e-28
2.60748e-26
3.56891e-23
4.29405e-27
1.16748e-26
3.4096e-29
2.80454e-32
1.74274e-29
2.88713e-27
4.91453e-25
2.06663e-27
1.83561e-27
2.58786e-29
1.02909e-31
2.15692e-29
2.20518e-27
1.47103e-25
6.55734e-28
2.56808e-28
3.4783e-30
2.4158e-32
3.96074e-30
2.82387e-28
1.34719e-25
3.92196e-28
1.50893e-29
9.29872e-32
1.88155e-33
1.46993e-31
2.50791e-29
2.55118e-27
3.49052e-27
5.51564e-30
2.84806e-32
2.55286e-34
5.1155e-33
7.83108e-31
1.30281e-28
1.04346e-26
1.32388e-29
4.60193e-32
1.57927e-34
1.90212e-33
7.05007e-31
2.09651e-28
2.89413e-27
4.45397e-30
1.11718e-32
1.77404e-35
2.03821e-33
2.53583e-30
1.37517e-27
1.16216e-31
1.33473e-31
3.71241e-34
1.27671e-35
1.13101e-33
1.06561e-31
3.72009e-29
1.92522e-31
2.28922e-32
3.46733e-34
7.77007e-36
9.27e-34
4.70397e-32
3.13537e-29
6.58159e-32
6.94634e-33
1.01239e-34
5.59661e-36
3.97461e-34
1.41937e-32
4.27945e-30
1.58927e-32
4.20399e-34
6.09514e-36
2.83389e-37
1.64747e-35
7.88414e-34
1.4539e-31
2.28416e-31
9.34221e-34
3.00603e-35
2.97333e-37
1.08169e-36
3.0324e-35
6.12699e-33
7.00294e-31
1.70161e-33
8.2413e-35
7.81906e-37
4.79846e-36
6.30197e-35
1.53082e-32
4.27657e-30
3.08945e-33
1.34952e-34
3.34495e-36
1.47863e-36
6.8092e-35
3.91272e-32
1.96351e-33
1.49174e-34
1.06112e-35
7.45313e-35
3.06354e-33
4.74368e-32
6.04664e-31
9.15371e-34
3.55383e-35
9.0066e-37
1.70235e-36
1.42438e-34
6.58271e-33
1.68568e-31
1.09829e-36
1.1622e-37
1.59905e-38
2.16021e-38
1.26756e-36
6.72619e-36
1.62398e-34
4.04978e-37
1.50682e-38
2.02601e-39
4.32432e-40
1.38901e-38
8.96719e-38
3.37802e-36
6.76125e-36
4.09445e-37
1.20563e-37
3.30966e-39
2.6234e-39
1.80071e-38
4.45566e-37
3.07609e-33
1.25031e-34
7.57319e-36
2.20869e-37
1.68483e-37
5.61914e-36
1.37153e-34
9.16091e-32
7.86398e-33
5.37651e-34
1.04806e-35
3.41455e-36
5.26364e-35
6.26308e-34
0
0
0
5.92026e-16
2.48964e-13
0
0
0
0
4.71265e-17
9.52068e-18
3.78028e-16
0
0
0
0
7.40074e-16
2.04009e-17
4.17576e-18
0
0
0
0
6.2333e-15
1.99487e-16
4.18598e-16
0
0
0
0
2.04432e-16
2.17555e-17
2.67725e-17
1.39771e-12
0
0
0
2.64517e-16
5.02355e-18
6.07573e-18
0
0
0
0
0
5.61796e-16
6.8579e-14
0
0
0
0
4.24208e-15
3.78098e-16
2.6155e-13
0
0
0
0
9.32078e-17
2.57753e-18
3.07695e-16
0
0
0
0
2.31087e-17
3.39616e-18
3.61512e-19
0
0
0
0
6.29052e-17
7.85244e-18
3.68946e-16
0
0
0
0
0
1.05266e-18
4.55465e-17
0
0
0
0
6.56494e-17
1.00152e-18
1.3748e-16
0
0
0
0
0
3.25924e-16
1.55372e-14
0
0
0
0
1.32796e-14
2.62279e-16
2.17785e-13
0
0
0
0
7.61494e-17
2.11818e-18
2.59515e-16
0
0
0
0
1.25317e-17
2.79628e-18
2.59971e-19
0
0
0
0
4.63921e-18
3.81568e-18
3.24786e-16
0
0
0
0
0
3.80329e-19
1.66513e-16
0
0
0
0
2.23783e-17
1.99745e-19
1.43885e-16
0
0
0
0
0
7.68426e-17
4.52149e-15
0
0
0
0
1.62967e-14
1.08958e-16
1.15083e-13
0
0
0
0
3.29098e-16
1.98569e-18
1.09536e-16
0
0
0
0
1.88199e-17
2.60038e-18
2.02973e-18
0
0
0
0
4.65708e-18
2.90211e-18
2.81712e-16
0
0
0
0
0
2.63505e-19
3.53806e-16
0
0
0
6.31562e-12
5.48782e-17
8.65101e-20
1.04061e-16
0
0
0
0
0
4.23428e-17
2.1413e-15
0
0
0
0
1.63115e-14
5.70017e-17
3.87039e-14
0
0
0
0
1.13615e-15
1.88086e-18
2.23667e-17
0
0
0
0
5.60032e-17
2.50773e-18
1.38597e-17
0
0
0
0
3.09057e-18
2.62989e-18
2.59268e-16
0
0
0
9.60911e-12
3.06213e-17
2.00697e-19
4.24762e-16
0
0
0
8.0364e-12
8.65679e-17
3.51699e-20
8.41204e-17
0
0
0
0
0
1.23781e-18
4.92816e-16
0
0
0
0
6.95425e-15
1.77965e-17
1.7274e-14
0
0
0
0
2.08834e-15
1.7855e-18
1.57005e-17
0
0
0
0
1.45729e-16
2.38374e-18
3.08628e-17
0
0
0
0
4.0242e-18
2.34388e-18
2.29556e-16
0
0
0
8.69962e-12
2.56765e-17
1.59211e-19
3.33047e-16
0
0
0
7.83632e-12
8.90209e-17
1.33618e-20
1.27094e-18
6.27308e-12
0
0
0
0
4.66224e-19
2.91649e-16
0
0
0
0
3.43003e-15
1.24037e-17
9.05567e-15
0
0
0
0
2.43069e-15
1.75295e-18
2.75875e-17
0
0
0
0
2.33475e-16
2.32383e-18
6.0218e-17
0
0
0
0
1.25303e-17
2.22381e-18
1.96059e-16
0
0
0
1.38955e-11
2.81076e-17
1.15303e-19
1.33398e-16
0
0
0
1.99364e-11
7.72564e-17
9.59507e-21
0
0
0
0
0
0
0
6.49517e-17
0
0
2.09467e-38
5.66872e-39
8.06036e-40
1.4077e-38
2.4156e-37
1.73559e-36
6.39414e-36
3.58909e-39
6.73487e-40
6.27343e-41
5.14509e-40
1.1657e-38
1.28347e-37
6.79994e-37
1.96839e-41
4.51053e-42
7.22486e-43
7.40602e-42
9.39939e-41
5.42921e-40
2.83329e-39
9.89342e-42
1.31298e-42
7.10323e-44
3.78921e-44
8.57441e-43
1.00688e-41
8.08901e-41
1.34464e-40
2.79773e-41
4.42237e-42
5.37514e-43
1.82719e-43
1.58742e-42
8.26855e-42
1.23761e-38
2.52862e-39
2.87491e-40
3.41211e-41
1.20616e-41
1.13025e-40
5.59537e-40
9.86199e-37
3.26761e-37
4.56314e-38
2.77939e-39
2.48928e-40
1.79738e-39
6.60482e-39
6.6481e-43
2.86417e-43
5.987e-44
1.06829e-42
1.51154e-41
8.62314e-41
2.01437e-40
3.69456e-44
1.34999e-44
3.13546e-45
5.56368e-44
6.31495e-43
2.82698e-42
7.18054e-42
7.59975e-46
6.74957e-46
1.57701e-46
1.5846e-44
2.93799e-44
1.10929e-43
1.11276e-43
4.29561e-46
1.48416e-46
4.4883e-47
1.6389e-45
1.67498e-45
1.64489e-45
3.85521e-45
5.53784e-45
7.33154e-45
3.38248e-45
5.3708e-46
5.2546e-47
2.37068e-46
3.14377e-46
1.33713e-43
1.87084e-43
8.82304e-44
1.00785e-44
8.6624e-46
2.99515e-45
6.32116e-45
3.23988e-41
1.53016e-41
3.46122e-42
2.158e-43
1.5341e-44
8.78471e-44
2.09248e-43
3.05595e-44
6.70565e-45
8.96306e-46
2.10635e-44
3.3517e-43
2.11759e-42
9.41235e-42
1.08138e-47
5.49545e-47
1.78116e-47
2.21161e-45
9.94405e-45
1.8993e-44
2.32635e-45
3.35625e-50
7.98498e-49
4.92167e-49
3.33553e-46
8.28662e-46
4.69293e-46
6.77391e-48
2.09467e-50
6.17997e-49
5.84474e-49
6.40502e-48
2.06828e-47
8.34585e-48
2.73568e-49
3.16231e-49
5.30206e-47
4.97317e-47
8.81595e-48
2.51725e-49
2.67623e-49
1.44297e-50
6.06184e-47
1.95829e-45
9.95054e-46
1.30845e-46
5.13623e-48
1.12073e-47
2.24289e-48
7.65505e-43
1.80299e-43
2.79208e-44
2.55619e-45
1.69578e-46
1.08564e-45
4.82284e-45
2.22506e-45
3.89148e-46
4.43825e-47
1.72829e-45
2.20477e-44
1.30874e-43
7.00547e-43
1.02071e-49
2.49918e-48
1.07192e-48
3.98438e-46
1.62666e-45
1.37479e-45
2.87268e-47
5.27748e-52
5.38282e-50
5.06095e-50
5.20445e-47
2.08522e-46
1.18698e-46
1.49307e-48
2.0846e-51
1.16552e-49
1.29992e-49
9.4075e-49
4.02754e-48
2.81273e-48
6.30411e-50
6.50275e-50
8.96451e-48
1.27337e-47
9.03205e-49
4.85518e-50
4.32648e-50
4.152e-52
1.61212e-48
1.79745e-46
1.7165e-46
1.73705e-47
7.24674e-49
9.20404e-49
3.29257e-50
5.69258e-44
1.29649e-44
3.23012e-45
1.95262e-46
1.4676e-47
7.49112e-47
3.59544e-46
1.02037e-46
2.47972e-47
3.92844e-48
1.16025e-45
5.37958e-45
1.43998e-44
4.28041e-44
7.38527e-51
3.43823e-49
2.06189e-49
2.72311e-46
1.08298e-45
7.21316e-46
1.68353e-47
4.51534e-52
1.61131e-50
1.42373e-50
2.40823e-47
1.35166e-46
9.99634e-47
1.81809e-48
2.04869e-51
5.1519e-50
2.97923e-50
3.9627e-49
2.56021e-48
2.32273e-48
8.17815e-50
6.42042e-50
3.89936e-48
2.6567e-48
1.57252e-49
1.24404e-50
1.78854e-50
3.61121e-52
1.0797e-48
6.4045e-47
4.32087e-47
2.80735e-48
1.89055e-49
2.76581e-49
6.78372e-51
6.34633e-45
2.06514e-45
6.08464e-46
2.92615e-47
2.31405e-48
8.16164e-48
2.08986e-47
9.73668e-48
2.73833e-48
4.67149e-49
4.02132e-46
2.42596e-45
4.24855e-45
6.39976e-45
1.24918e-49
1.42652e-49
5.41776e-50
5.57381e-47
4.74676e-46
7.85047e-46
3.01723e-46
3.65482e-51
8.81598e-51
3.005e-51
3.72229e-48
3.1493e-47
6.77689e-47
1.67048e-47
6.8635e-51
1.88033e-50
6.17721e-51
6.80393e-50
6.67683e-49
1.18531e-48
2.98533e-49
5.54103e-49
1.63022e-48
3.72628e-49
2.24947e-50
2.61003e-51
8.34527e-51
2.75051e-51
2.02781e-47
3.05746e-47
7.65132e-48
5.02319e-49
4.64498e-50
1.38e-49
8.39285e-50
7.33225e-46
4.92678e-46
8.26265e-47
5.95124e-48
4.07082e-49
1.93677e-48
2.56024e-48
8.274e-49
2.25267e-49
3.67044e-50
5.17309e-47
4.47696e-46
1.28253e-45
2.27728e-45
5.74967e-50
2.48685e-50
5.91657e-51
6.83053e-48
8.29778e-47
2.47893e-46
3.80067e-46
1.42764e-51
1.7299e-51
3.39139e-52
4.5552e-49
4.86585e-48
1.17914e-47
2.32194e-47
3.65937e-51
2.38522e-51
8.81042e-52
1.92644e-50
1.75284e-49
2.99612e-49
3.22151e-49
1.76446e-49
1.19841e-49
5.4152e-50
4.63313e-51
4.80381e-52
1.29565e-51
1.07147e-51
8.9863e-48
4.15156e-48
6.57786e-49
3.91199e-50
5.68392e-51
2.04297e-50
4.60589e-50
1.16296e-46
5.17321e-47
5.32025e-48
2.90825e-49
5.44793e-50
2.01831e-49
4.95078e-49
4.15403e-41
2.95567e-46
1.01792e-50
1.40698e-50
1.93718e-50
2.52466e-50
1.84183e-50
1.27996e-42
5.76102e-48
5.05904e-52
1.1589e-51
1.84727e-51
2.32773e-51
1.17371e-51
3.05495e-44
2.79611e-49
1.01307e-53
1.85875e-53
5.30262e-53
9.35672e-53
7.4447e-53
8.72638e-46
1.62561e-50
3.02717e-55
1.84767e-56
1.28009e-55
6.36366e-55
7.98046e-55
9.45792e-47
9.23731e-52
1.07259e-56
2.03474e-57
5.58992e-57
7.23079e-57
3.03517e-57
1.45746e-45
6.69736e-51
6.96943e-56
6.78957e-56
1.47835e-55
1.70865e-55
1.01412e-55
4.28706e-44
3.05418e-49
3.65425e-54
8.50761e-55
1.3404e-54
1.81753e-54
1.47703e-54
1.25028e-42
2.33053e-47
3.82733e-50
7.77372e-50
1.08602e-49
1.28856e-49
9.8246e-50
1.08666e-44
7.63192e-50
2.7093e-51
5.7239e-51
8.82874e-51
9.86128e-51
5.66893e-51
1.76547e-46
4.36507e-51
3.05785e-53
1.0627e-52
3.70811e-52
5.25775e-52
2.63319e-52
6.14126e-50
2.28489e-54
2.6581e-56
1.30517e-55
1.01645e-54
5.59422e-54
2.67359e-54
6.23708e-49
1.50544e-53
3.78342e-57
1.26546e-56
3.67932e-56
4.67566e-56
2.00748e-56
1.23614e-47
8.83535e-53
2.01137e-55
4.29686e-55
7.0906e-55
8.1795e-55
5.23071e-55
1.48039e-45
2.11519e-50
3.16561e-54
5.73575e-54
7.19675e-54
9.5947e-54
8.32959e-54
4.68269e-44
8.73065e-49
1.29672e-49
2.1236e-49
3.94614e-49
4.58999e-49
5.30124e-49
1.49592e-46
4.05409e-51
3.92462e-51
1.00778e-50
1.77433e-50
2.11401e-50
1.76475e-50
2.12025e-48
9.836e-53
5.30051e-53
1.78072e-52
6.59996e-52
8.43192e-52
7.49814e-52
7.46908e-52
4.5307e-55
4.35258e-56
4.73671e-55
4.38677e-54
1.49006e-53
1.05201e-53
9.07537e-51
2.62767e-55
5.95216e-57
1.82358e-56
7.54625e-56
1.03059e-55
6.89398e-56
1.04323e-49
2.06973e-54
3.99479e-55
1.01372e-54
1.88717e-54
2.27042e-54
1.75801e-54
4.13401e-47
6.79919e-52
1.45252e-53
2.37891e-53
3.73378e-53
5.01195e-53
4.90314e-53
3.41236e-45
2.81323e-49
4.79076e-49
8.23628e-49
1.20365e-48
1.25492e-48
1.2027e-48
2.63532e-48
1.01321e-51
1.94575e-51
4.97612e-51
9.58501e-51
1.54536e-50
7.93603e-51
3.32174e-50
1.03846e-53
2.14103e-53
5.2287e-53
2.02878e-52
3.20531e-52
1.66878e-52
1.00712e-52
2.7519e-55
9.428e-56
6.60427e-55
4.0691e-54
8.44632e-54
3.28773e-54
1.51183e-52
7.57302e-57
2.45068e-57
6.55829e-57
2.86711e-56
4.27715e-56
3.74713e-56
3.14284e-51
1.98298e-55
2.04357e-55
5.77634e-55
1.19655e-54
1.99653e-54
1.31405e-54
2.03901e-48
8.34459e-53
4.3859e-53
8.70038e-53
1.5034e-52
1.60142e-52
1.72505e-52
2.69765e-46
9.54482e-49
3.46299e-48
8.67427e-48
7.83544e-48
4.16006e-48
3.53645e-48
4.12659e-50
1.46856e-51
5.30759e-51
1.49509e-50
1.12211e-50
4.09657e-51
2.44765e-51
6.38111e-52
1.08118e-54
2.20061e-54
4.72852e-54
8.96348e-54
1.51137e-53
3.37328e-53
4.22988e-54
2.24391e-55
1.6831e-56
5.49484e-56
1.49225e-55
3.59194e-55
5.29116e-55
2.70621e-54
2.9941e-58
2.10066e-58
5.34767e-58
9.07737e-58
1.63186e-57
3.0387e-57
1.25427e-52
8.46612e-56
2.72712e-55
8.95173e-55
1.06936e-54
3.77481e-55
2.26385e-55
1.2786e-49
7.68137e-53
2.84552e-52
6.94431e-52
5.23957e-52
2.90299e-52
3.14195e-52
2.8774e-47
4.46551e-49
3.64345e-47
5.10462e-47
3.51874e-47
1.23434e-47
8.73577e-48
2.37975e-50
5.3362e-51
2.53019e-50
4.89997e-49
2.53153e-49
4.96918e-50
1.52451e-50
2.20902e-52
3.70195e-54
2.63915e-54
1.6245e-53
6.04279e-54
5.55852e-55
5.81363e-55
5.42809e-54
2.37621e-55
4.83613e-56
4.63882e-55
5.53365e-56
6.63346e-57
1.84895e-56
9.46976e-56
3.1482e-58
3.054e-58
2.01367e-57
8.68817e-58
6.6066e-59
5.08955e-59
6.99973e-53
4.24115e-55
1.94081e-54
3.56692e-53
2.39044e-53
4.73567e-54
1.47685e-54
2.4501e-50
4.21285e-53
3.32476e-51
4.62639e-51
3.11459e-51
1.10415e-51
6.65497e-52
1.32767e-45
9.76404e-46
5.16765e-46
2.9161e-46
1.55184e-46
4.99479e-47
1.68594e-47
1.61891e-46
6.72266e-47
2.2936e-47
1.01487e-47
3.18738e-48
5.35344e-49
6.72206e-50
2.40873e-49
6.63026e-50
1.91378e-50
2.58898e-51
2.83525e-52
1.41393e-53
2.23174e-55
2.01912e-51
2.72087e-51
6.44028e-52
6.53593e-53
4.99687e-54
3.20259e-55
9.39157e-57
1.06896e-53
5.13833e-54
1.40851e-54
3.00882e-55
3.82257e-56
2.01621e-57
2.53144e-59
1.74699e-50
5.00292e-51
1.66486e-51
7.34972e-52
3.08062e-52
5.17358e-53
6.59219e-54
2.10461e-49
1.1931e-49
5.34707e-50
2.81834e-50
1.39162e-50
4.64217e-51
1.60995e-51
1.47576e-54
1.67541e-54
1.3943e-54
6.80162e-55
1.05792e-53
1.47609e-48
1.37074e-43
9.77609e-56
1.39348e-55
1.10982e-55
5.96786e-56
1.23707e-55
2.10157e-50
6.64408e-45
5.66648e-57
5.79526e-57
4.61209e-57
1.98506e-57
3.75224e-56
3.90013e-51
2.13795e-46
5.4395e-57
5.83737e-57
9.70583e-58
2.41127e-56
2.62371e-55
8.80312e-51
1.9899e-46
5.93686e-55
1.16772e-54
1.00021e-54
2.78596e-55
2.67232e-55
1.48944e-50
7.87012e-46
2.02516e-53
3.19017e-53
2.78683e-53
1.22274e-53
6.53394e-54
1.02975e-49
3.21311e-44
2.87725e-52
3.47944e-52
2.97896e-52
1.52653e-52
5.91396e-52
6.95592e-47
6.46394e-42
8.34469e-54
8.92982e-54
6.61515e-54
4.3489e-54
4.13262e-54
1.01182e-49
4.67294e-45
4.26149e-55
6.20161e-55
5.31679e-55
3.06032e-55
1.39573e-55
3.16018e-52
5.42052e-47
1.93305e-56
3.47081e-56
2.5015e-56
7.00496e-57
4.06829e-57
5.62009e-53
1.39103e-48
2.80728e-56
7.73502e-56
1.25304e-56
1.33416e-57
1.83613e-58
5.6e-55
1.03687e-50
3.32231e-54
7.55903e-54
5.50424e-54
1.55783e-54
3.84128e-55
2.11536e-52
5.01048e-48
8.76185e-53
1.3598e-52
1.19884e-52
7.29449e-53
3.19551e-53
1.67393e-51
2.73369e-46
1.4818e-51
1.88213e-51
1.55023e-51
1.01929e-51
5.36042e-52
3.55632e-48
2.00179e-43
2.87874e-53
2.75599e-53
2.32609e-53
1.16452e-53
6.91595e-54
4.24147e-51
1.04897e-46
1.02792e-54
1.24594e-54
1.02975e-54
5.10363e-55
1.9803e-55
5.79007e-54
4.13243e-49
3.33821e-56
4.28872e-56
3.0993e-56
7.34184e-57
2.35248e-57
9.40642e-55
1.99584e-50
1.26855e-55
1.78384e-55
5.29355e-56
5.11908e-57
4.19379e-58
2.46182e-56
3.85677e-53
1.01842e-53
1.0549e-53
7.97748e-54
1.88565e-54
5.28463e-55
3.72703e-54
5.90768e-50
2.44988e-52
2.81824e-52
2.316e-52
1.1581e-52
4.39059e-53
6.23436e-53
2.16448e-48
7.06743e-51
6.06625e-51
5.09445e-51
2.53152e-51
1.48626e-51
1.85589e-49
9.78594e-45
1.15125e-52
1.05579e-52
1.04437e-52
6.95971e-53
3.41989e-53
3.154e-52
5.82482e-48
9.10041e-55
1.25455e-54
7.17172e-55
3.31955e-55
1.08175e-55
2.06159e-55
9.88819e-51
2.75806e-56
3.24772e-56
1.63669e-56
3.281e-57
1.13461e-57
2.40714e-56
3.53646e-52
4.74514e-56
1.02516e-55
4.55095e-56
6.57493e-57
8.10334e-58
4.72756e-57
4.26647e-54
2.47233e-54
4.15474e-54
2.4195e-54
5.60375e-55
2.0767e-55
1.91753e-55
9.83414e-52
1.23037e-52
2.14699e-52
1.24632e-52
5.59497e-53
2.06045e-53
1.09633e-53
6.10588e-50
1.71362e-50
1.6719e-50
1.47505e-50
8.22681e-51
4.15351e-51
1.35303e-50
4.62861e-46
2.10475e-52
2.03444e-52
4.35769e-52
3.90358e-52
1.60317e-52
5.98925e-53
3.84465e-49
2.80134e-55
3.51096e-55
8.37326e-55
1.17281e-54
4.17003e-55
1.20538e-55
2.20809e-52
3.212e-57
1.55634e-57
6.78687e-58
2.83019e-58
1.02912e-58
8.68414e-58
6.08177e-54
1.0017e-56
5.23195e-57
1.68347e-57
5.92182e-58
1.50549e-58
9.55149e-58
1.09833e-55
6.82175e-55
2.44593e-55
1.01544e-55
5.06661e-56
1.94653e-56
1.26759e-56
1.90841e-53
4.88703e-53
7.50753e-53
1.32578e-52
1.24606e-52
4.26552e-53
1.24786e-53
2.4032e-51
5.13973e-50
5.3542e-50
7.82988e-50
6.98542e-50
2.48939e-50
9.68004e-51
1.81243e-47
6.67107e-52
8.35951e-52
2.24241e-51
3.79288e-51
3.8986e-51
3.37856e-53
1.73819e-50
1.0476e-54
3.94536e-54
1.96708e-53
3.8153e-53
2.0162e-54
4.93767e-55
5.07655e-53
5.45448e-59
6.9751e-59
1.016e-57
2.71163e-57
3.92149e-58
7.80896e-58
1.86262e-55
3.35603e-58
1.15038e-58
8.0124e-58
5.60016e-57
5.84454e-58
1.98782e-57
9.19445e-56
1.1362e-56
9.46667e-57
8.89722e-56
2.24025e-55
3.47085e-56
3.87204e-56
5.41722e-54
2.95053e-52
8.93473e-52
2.62971e-51
5.35192e-51
2.73443e-52
6.22829e-53
1.58265e-51
1.28395e-49
1.54583e-49
4.37403e-49
7.3596e-49
6.72108e-49
4.86136e-51
3.08538e-48
1.29868e-51
3.93395e-51
9.96623e-51
2.20237e-50
6.44865e-50
1.38447e-49
2.66218e-49
5.40282e-54
4.34077e-53
2.46917e-52
7.58248e-52
1.67041e-51
5.5707e-51
2.13908e-50
2.43788e-59
2.47268e-57
5.1994e-56
4.72733e-55
2.78288e-54
9.18941e-54
1.62425e-53
1.45911e-58
4.55282e-57
6.46836e-56
7.93536e-55
7.42613e-54
3.00522e-53
1.13628e-53
3.84817e-57
2.28176e-55
4.01523e-54
3.33367e-53
2.16357e-52
7.22697e-52
2.10358e-51
1.31004e-51
9.70627e-51
3.34202e-50
1.07168e-49
2.69385e-49
1.00917e-48
2.91004e-48
2.5299e-49
7.55302e-49
1.95582e-48
4.65638e-48
1.07218e-47
2.03034e-47
4.47293e-47
1.10066e-70
3.79605e-69
3.72577e-68
2.89218e-67
7.88327e-66
1.37417e-62
1.21599e-58
2.4694e-71
5.8137e-70
5.74878e-69
3.50163e-68
6.72492e-67
9.72933e-64
6.33016e-60
3.58018e-72
3.686e-71
4.00024e-70
4.26058e-69
2.90504e-68
8.26248e-65
3.22194e-61
1.68403e-72
6.49556e-71
5.12026e-70
4.68189e-69
1.51064e-67
4.91122e-64
2.1272e-60
4.45448e-71
2.30732e-69
1.24423e-68
1.5602e-67
5.69088e-66
2.28482e-62
1.93674e-58
8.14921e-70
2.4507e-68
2.47291e-67
3.07243e-66
5.98461e-65
4.68816e-61
2.83283e-57
5.8584e-69
1.57399e-67
1.93769e-66
2.19096e-65
5.82131e-64
4.70114e-60
2.98863e-56
4.56071e-70
1.87761e-68
1.74695e-67
1.64358e-66
3.32025e-65
8.64237e-62
9.11999e-58
1.06704e-70
2.02387e-69
1.66454e-68
1.22936e-67
2.18666e-66
5.53895e-63
3.61886e-59
1.19875e-71
2.06467e-70
1.32689e-69
1.08583e-68
9.90392e-68
2.42576e-64
1.3535e-60
4.08956e-72
1.84357e-70
1.46901e-69
1.80579e-68
1.12368e-67
5.98977e-64
2.98446e-60
2.06149e-70
1.048e-68
9.34081e-68
1.1624e-66
7.63245e-66
5.04571e-62
3.92466e-58
3.34117e-69
1.64161e-67
1.42365e-66
1.45749e-65
1.41117e-64
1.07571e-60
1.10777e-56
2.78957e-68
1.14397e-66
1.13504e-65
1.37422e-64
1.73647e-63
1.79541e-59
2.11211e-55
1.88866e-69
5.22721e-68
5.10939e-67
4.03698e-66
2.04241e-64
5.44117e-61
3.92254e-57
3.39213e-70
5.89921e-69
5.87142e-68
3.88745e-67
1.16394e-65
2.90671e-62
1.47071e-58
3.70448e-71
4.76713e-70
3.97702e-69
2.4397e-68
5.06011e-67
1.125e-63
5.66097e-60
1.60386e-71
7.10568e-70
5.35838e-69
3.96693e-68
3.49676e-67
1.75905e-63
1.09324e-59
9.08696e-70
4.64459e-68
3.92657e-67
3.01773e-66
3.00791e-65
1.51106e-61
1.27165e-57
9.69198e-69
8.13056e-67
6.45232e-66
5.19436e-65
5.8295e-64
3.52577e-60
4.08527e-56
7.70639e-68
6.5776e-66
5.91698e-65
5.5093e-64
8.30057e-63
6.19435e-59
1.3352e-54
3.60483e-69
1.131e-67
1.70513e-66
1.21078e-65
4.98197e-64
9.36403e-61
1.67163e-56
6.76758e-70
1.46687e-68
1.937e-67
1.13122e-66
3.33741e-65
4.59576e-62
2.73659e-58
5.87882e-71
9.05639e-70
1.17312e-68
6.82984e-68
1.09e-66
1.64339e-63
5.41515e-60
3.06304e-71
1.55992e-69
1.53261e-68
9.69617e-68
6.77986e-67
2.56804e-63
1.17682e-59
2.2642e-69
1.07052e-67
1.21136e-66
9.38743e-66
6.00668e-65
1.82773e-61
7.7018e-58
3.455e-68
2.21984e-66
2.10721e-65
1.5219e-64
1.45433e-63
5.99225e-60
4.11074e-56
2.47389e-67
1.55102e-65
2.22899e-64
1.7834e-63
1.75471e-62
1.14339e-58
2.43189e-54
9.68677e-69
2.643e-67
3.53994e-66
1.46221e-65
1.11825e-63
1.00419e-60
2.1906e-56
1.31546e-69
3.02651e-68
3.98535e-67
1.77946e-66
7.87016e-65
3.80818e-62
1.52378e-58
1.06421e-70
1.93776e-69
2.37901e-68
1.03003e-67
3.47893e-66
1.01754e-63
3.0339e-60
6.74637e-71
3.20455e-69
2.10882e-68
1.3633e-67
1.51784e-66
3.47948e-63
3.70256e-60
5.38638e-69
2.85901e-67
2.14524e-66
1.60962e-65
1.44157e-64
2.05847e-61
2.87928e-58
5.80771e-68
5.57721e-66
4.45142e-65
2.66878e-64
2.49753e-63
6.43999e-60
2.68279e-56
4.04605e-67
4.47769e-65
4.30986e-64
2.55026e-63
3.15968e-62
1.72842e-58
3.85791e-54
1.59124e-68
3.30771e-67
4.25841e-66
1.59643e-65
1.58928e-63
8.85845e-61
2.77585e-56
1.7645e-69
3.67467e-68
4.70679e-67
2.07071e-66
1.00989e-64
2.14733e-62
8.21206e-59
8.71337e-71
1.25242e-69
1.50002e-68
7.10511e-68
3.17718e-66
4.98073e-64
5.81381e-61
4.39258e-71
3.18421e-69
2.42246e-68
1.0071e-67
1.18013e-66
4.55157e-63
4.84313e-60
3.37491e-69
3.06914e-67
2.59757e-66
1.36913e-65
1.07531e-64
9.24087e-62
6.68735e-59
6.81827e-68
7.4783e-66
6.91673e-65
3.81868e-64
2.89228e-63
3.65815e-60
1.32122e-56
4.04253e-67
8.16488e-65
8.347e-64
4.27412e-63
4.28368e-62
1.46372e-58
4.61107e-54
1.83588e-68
3.57171e-67
4.47923e-66
1.50229e-65
1.63472e-63
4.00364e-61
2.22423e-56
1.96524e-69
4.14875e-68
4.79939e-67
2.09379e-66
1.0468e-64
1.66777e-62
2.56089e-58
1.49849e-70
2.64333e-69
2.19362e-68
4.16102e-68
2.82427e-66
6.58802e-64
2.24767e-60
7.55455e-71
5.32613e-69
2.96557e-68
1.95877e-67
4.14114e-64
1.35876e-61
6.99522e-60
7.64462e-69
5.78469e-67
3.80856e-66
7.76925e-66
9.1646e-65
1.09033e-61
3.56187e-58
6.17829e-68
8.96556e-66
7.87168e-65
4.55776e-64
3.35386e-63
2.79816e-60
3.71748e-56
2.6818e-67
1.06438e-64
1.0926e-63
5.67524e-63
5.67881e-62
7.04601e-59
4.05718e-54
4.19532e-74
8.7735e-73
2.83747e-70
6.43715e-66
1.35553e-64
2.76224e-63
5.44332e-62
2.54884e-75
5.92922e-74
1.42781e-72
2.83952e-70
2.39537e-69
2.12875e-66
2.26873e-64
1.9196e-72
3.29646e-71
2.9267e-70
1.12133e-69
7.05235e-68
3.12052e-65
6.7434e-62
5.97449e-72
3.98625e-70
2.46638e-69
1.31791e-68
9.4926e-66
3.85124e-63
3.08204e-61
1.01158e-70
5.14567e-69
3.23709e-68
3.48595e-67
2.38497e-66
5.17508e-63
1.12725e-59
2.18076e-73
1.57839e-71
4.7074e-69
9.95248e-67
3.58706e-67
2.91639e-64
3.72916e-62
1.09483e-71
2.83836e-70
3.08622e-67
6.62587e-63
6.60425e-62
1.00772e-60
1.46373e-59
1.59186e-76
9.81303e-75
4.66581e-73
1.70496e-71
3.54997e-70
4.81867e-69
1.09455e-67
4.65936e-79
3.6911e-77
8.73661e-76
3.47454e-74
8.89277e-73
3.44672e-71
1.61036e-69
3.46722e-74
8.46988e-73
4.55293e-71
2.62642e-69
1.43162e-67
1.00531e-65
1.32159e-63
3.11143e-73
2.19323e-71
1.85571e-70
4.16666e-69
3.09426e-67
9.61302e-65
1.64073e-62
2.38426e-72
1.3658e-70
9.13875e-69
5.8807e-67
3.0839e-65
2.10659e-63
2.55198e-61
1.79937e-76
1.53372e-74
3.71026e-73
1.05289e-71
2.09889e-70
7.40545e-69
3.11744e-67
5.02736e-74
2.39009e-72
1.28332e-70
1.02205e-68
1.12737e-67
1.5796e-66
2.01173e-65
3.11584e-82
1.57495e-80
6.80897e-79
2.19278e-77
4.79235e-76
6.89223e-75
1.36324e-73
1.28626e-81
4.46734e-80
2.69098e-78
1.64366e-76
1.1254e-74
6.11211e-73
5.68643e-71
1.05032e-75
4.20599e-74
2.65922e-72
1.63649e-70
1.04953e-68
5.4719e-67
5.71029e-65
2.12878e-74
1.50626e-72
1.31197e-71
2.98159e-70
1.58665e-68
3.00987e-66
5.51398e-64
1.36264e-73
7.17227e-72
4.92229e-70
3.07576e-68
1.97458e-66
7.87066e-65
6.3421e-63
1.466e-79
7.40115e-78
4.99215e-76
2.8603e-74
2.05744e-72
8.76485e-71
6.81015e-69
8.28634e-80
4.33582e-78
2.70087e-76
1.21762e-74
1.44298e-73
2.15606e-72
3.66447e-71
7.74618e-88
3.01343e-86
1.29253e-84
6.34062e-83
3.26242e-81
1.2955e-79
5.60619e-78
8.21113e-83
1.49132e-81
6.88691e-80
4.22743e-78
3.20379e-76
1.77109e-74
1.34665e-72
6.19234e-77
1.23048e-75
6.61648e-74
4.00298e-72
2.88197e-70
1.58531e-68
1.35389e-66
1.69188e-75
1.13703e-73
9.08075e-73
1.7435e-71
7.17519e-70
1.09298e-67
2.04205e-65
3.60739e-75
1.83116e-73
1.25929e-71
1.18254e-69
5.23061e-68
2.29151e-66
1.64659e-64
3.85897e-81
2.04114e-79
1.45142e-77
1.30627e-75
5.57374e-74
2.52964e-72
1.72283e-70
1.02451e-85
6.648e-84
4.28196e-82
2.70088e-80
6.9878e-79
2.01868e-77
9.56608e-76
5.71977e-88
1.75656e-86
6.53133e-85
5.04117e-83
4.46431e-81
2.03033e-79
7.30654e-78
3.9302e-84
9.44396e-83
3.43127e-81
1.94803e-79
1.45201e-77
7.53511e-76
6.21647e-74
3.12555e-78
7.42386e-77
3.10394e-75
1.78644e-73
1.2239e-71
6.34729e-70
6.07065e-68
2.82213e-76
1.4219e-74
1.1943e-73
1.76056e-72
5.09251e-71
5.79083e-69
1.60389e-66
1.53119e-76
8.89123e-75
5.97857e-73
6.43194e-71
2.35083e-69
9.78254e-68
8.25384e-66
1.68379e-82
1.02763e-80
7.40239e-79
7.46813e-77
2.79841e-75
1.16966e-73
9.29489e-72
2.08153e-86
2.31534e-84
1.89118e-82
1.83519e-80
9.10343e-79
2.86336e-77
1.45023e-75
5.04655e-91