/*--------------------------------*- C++ -*----------------------------------*\
  =========                 |
  \\      /  F ield         | OpenFOAM: The Open Source CFD Toolbox
   \\    /   O peration     | Website:  https://openfoam.org
    \\  /    A nd           | Version:  6
     \\/     M anipulation  |
\*---------------------------------------------------------------------------*/
FoamFile
{
    version     2.0;
    format      ascii;
    class       volScalarField;
    location    "0.0025";
    object      p;
}
// * * * * * * * * * * * * * * * * * * * * * * * * * * * * * * * * * * * * * //

dimensions      [1 -1 -2 0 0 0 0];

internalField   nonuniform List<scalar> 
3773
(
39897.1
39900.4
39905.6
39907.1
39905.8
39901.4
39898.1
98405.9
98407.5
98403.6
98401.8
98403.4
98406.9
98407.3
133942
133941
133940
133941
133941
133941
133942
145786
145786
145787
145787
145787
145786
145785
133943
133941
133941
133941
133939
133938
133939
98402.4
98402.3
98401.9
98400.1
98402.7
98405.6
98404.5
39893.6
39897.5
39899.6
39901.8
39901.3
39898.1
39895.6
39896.8
39896.1
39901.3
39903.3
39902
39897.9
39897.4
98407.7
98411.9
98407.8
98406
98407.2
98410.4
98409.4
133942
133940
133940
133940
133941
133941
133941
145786
145786
145787
145787
145787
145785
145785
133942
133940
133941
133941
133939
133938
133939
98404.2
98407.1
98406.1
98403.5
98406.6
98409.6
98406.5
39893.2
39894.8
39895.9
39899
39897.2
39894
39894.9
39902.6
39897.4
39902.4
39904.9
39904.2
39901.4
39903.3
98404.9
98413
98409.4
98407.6
98407.8
98409.2
98405.8
133940
133939
133939
133939
133940
133940
133940
145785
145785
145786
145787
145786
145785
145785
133940
133938
133939
133939
133939
133938
133938
98401.7
98408.5
98407.1
98402.8
98407.6
98409.7
98403.1
39898.9
39895.6
39897.9
39903
39898.4
39896.1
39900.8
39906.5
39898.2
39902
39904.2
39904.6
39903.7
39907.8
98401.6
98412.3
98409.1
98408.5
98407
98406.1
98401.3
133940
133939
133939
133938
133940
133941
133939
145786
145785
145786
145787
145786
145785
145785
133940
133938
133939
133939
133939
133939
133938
98398.5
98407.3
98406.9
98401.4
98407
98407.7
98398.9
39902.7
39896.5
39898.5
39904.7
39897.8
39897.7
39905.5
39906.1
39896.3
39904.1
39903.8
39904.2
39903.8
39908.1
98400.3
98410.6
98404.5
98406.7
98405
98404
98399.4
133941
133940
133941
133939
133941
133942
133940
145786
145786
145787
145787
145787
145785
145785
133941
133940
133940
133940
133941
133941
133939
98396.9
98403.5
98405.1
98398.8
98404.5
98405.2
98397.2
39902.4
39898.1
39898.2
39904.7
39897.3
39898.3
39906
39902
39898.9
39908.7
39905
39904.6
39902.6
39904.1
98401.5
98405
98398.8
98403.2
98403
98403.5
98400.6
133943
133943
133943
133941
133942
133943
133941
145787
145787
145787
145787
145787
145786
145785
133942
133941
133942
133942
133942
133942
133941
98398
98398.7
98402.2
98395.4
98400.3
98404.1
98398.7
39898.1
39901.1
39897.8
39905.7
39899.9
39897.9
39902.1
39896
39905.8
39906.4
39906.3
39906
39902.1
39897.7
98403.9
98398.3
98398.8
98401
98401.3
98403.2
98403.5
133944
133944
133943
133942
133943
133943
133942
145787
145787
145787
145788
145787
145786
145785
133944
133942
133944
133944
133941
133942
133942
98401.1
98398.9
98401.1
98396.3
98395
98404.3
98401.9
39891.2
39899.2
39897.3
39901.2
39907.7
39897.9
39895.7
47138
47139.5
47142.2
47144.7
47145.1
47145.5
47146.2
116115
116118
116124
116128
116129
116129
116129
157976
157978
157982
157985
157987
157985
157984
171954
171955
171956
171957
171956
171954
171952
158030
158029
158028
158026
158025
158022
158020
116196
116192
116190
116188
116186
116184
116182
47179.1
47180.4
47179.3
47178
47177.3
47177
47177.3
47220.7
47220.4
47221
47222.5
47219.3
47221.1
47224.7
116299
116301
116305
116306
116309
116308
116309
158262
158264
158267
158271
158274
158275
158275
172272
172274
172276
172279
172281
172281
172281
158310
158305
158305
158306
158307
158306
158305
116364
116366
116361
116360
116357
116355
116354
47237.6
47247.7
47251.6
47250.8
47252.5
47251.7
47251.5
47399
47398.5
47399.6
47402.8
47398.5
47401.2
47406.9
116881
116883
116878
116884
116876
116876
116874
159097
159097
159097
159091
159101
159102
159097
173189
173187
173184
173186
173189
173194
173198
159125
159125
159123
159121
159119
159122
159119
116917
116920
116918
116912
116911
116902
116899
47417.8
47421.7
47420.5
47421.2
47432.9
47433.3
47428.6
47901.3
47903.1
47899.3
47894
47895.5
47887
47886.8
118090
118090
118083
118078
118077
118065
118067
160682
160680
160672
160670
160676
160681
160679
174888
174881
174872
174874
174881
174891
174896
160683
160680
160676
160674
160676
160679
160686
118080
118084
118087
118082
118074
118079
118075
47908.4
47903.9
47904.4
47897
47894.5
47888.2
47881
48755.2
48760.8
48754.8
48729.4
48738.1
48733.2
48733.9
119901
119891
119879
119893
119893
119885
119886
162981
162972
162973
162981
162983
162972
162974
177300
177303
177305
177309
177319
177319
177321
162984
162975
162976
162977
162958
162948
162983
119921
119901
119908
119919
119883
119886
119897
48738.3
48774.2
48747.1
48745.5
48730
48737.7
48743.9
49667.8
49684.5
49668.1
49685.5
49641.8
49636.4
49652.2
121903
121930
121937
121886
121862
121893
121886
165565
165620
165641
165635
165634
165612
165625
180151
180175
180207
180212
180220
180195
180165
165684
165682
165671
165662
165664
165695
165650
121956
121961
121926
121918
121933
121927
121926
49707.4
49672.2
49702.5
49681.1
49691.6
49681.3
49671.7
50492.3
50445
50455.9
50445.1
50476
50450.2
50428.4
123638
123644
123661
123654
123643
123644
123662
167926
167961
167989
167960
167993
167963
167932
182678
182776
182843
182798
182810
182737
182703
167927
167986
168038
168005
168013
168000
167947
123690
123680
123714
123720
123708
123659
123702
50452.3
50464.7
50482.4
50494.6
50508.3
50535.1
50511.1
51698.9
51517
51545.4
51630.8
51541.4
51603.1
51561.1
125707
125711
125726
125756
125682
125709
125707
170150
170235
170216
170216
170256
170228
170237
184981
185358
185396
185347
185457
185391
185061
170251
170281
170243
170277
170288
170271
170270
125763
125756
125743
125700
125730
125713
125750
51548.3
51488.2
51496
51498.8
51506.8
51501.8
51562.8
51767.8
51712.3
51752.8
51792.3
51732
51700.9
51743.4
126172
126251
126310
126324
126291
126231
126167
170863
170934
170956
170967
170969
170938
170870
185771
185811
185808
185818
185810
185846
185804
170890
170933
170970
171003
170983
170971
170919
126173
126244
126294
126323
126307
126261
126203
51751.5
51698.1
51736.3
51770.5
51739.6
51718.9
51759.7
51717.2
51773.1
51841.9
51906.7
51841.7
51766.1
51718.7
126156
126287
126397
126439
126393
126266
126146
170825
170869
170954
170988
170970
170892
170829
185657
185684
185715
185723
185730
185702
185668
170845
170891
170962
170993
170978
170905
170870
126169
126278
126398
126453
126411
126305
126192
51717.1
51768.7
51839.3
51902.9
51843.2
51773.4
51720.9
51417.5
51600.1
51718.1
51813.8
51716.7
51593.4
51403.9
125635
125820
125990
126034
125994
125831
125632
170077
170159
170224
170258
170245
170179
170104
184807
184843
184851
184862
184872
184865
184841
170100
170175
170253
170263
170249
170178
170124
125661
125848
125988
126041
126001
125874
125672
51419.8
51602
51720.5
51805.7
51717.1
51607.1
51418.8
50628.5
50921.4
51355.2
51662.5
51321.5
50885.6
50628
124215
124537
124925
125037
124929
124543
124227
168581
168702
168740
168748
168741
168709
168589
183289
183295
183214
183211
183224
183313
183314
168595
168718
168757
168770
168759
168734
168631
124251
124568
124929
125027
124933
124578
124252
50643
50920.8
51372.5
51630.5
51334
50924.3
50637.8
48724.2
49441.9
51424.4
52786.8
51461.1
49263.8
48724.5
120819
121788
124024
125132
123963
121768
120861
165374
166150
167040
167357
167040
166131
165377
180324
180915
181235
181320
181229
180913
180330
165383
166154
167075
167360
167052
166176
165416
120867
121801
123974
125098
124018
121831
120875
48741.1
49447.2
51678.2
52769
51502.8
49441.1
48730.9
45079.8
48252
53875.1
56743
53867.3
48485.3
45114
115157
119735
126100
129395
126143
119717
115195
160405
163896
166864
167827
166808
163827
160365
176012
178588
180069
180335
180063
178582
176025
160349
163872
166833
167841
166868
163917
160417
115151
119748
126128
129476
126207
119776
115123
45123.9
48269.7
53596.3
56750.9
53911.3
48371.7
45124.1
50981.4
50932.5
50947.4
50953
50917.9
50941.8
50912.2
124338
124370
124334
124269
124298
124265
124350
168635
168530
168529
168553
168482
168559
168594
183377
183328
183409
183352
183288
183307
183341
168623
168563
168620
168674
168608
168632
168669
124403
124404
124409
124439
124414
124545
124425
50915.4
50918.2
50963.5
50920.1
50938.7
50875.8
50944.4
51048.4
50994.6
50995.6
50993.9
50975.4
51001.4
50974.8
124437
124453
124441
124373
124354
124365
124447
168711
168604
168590
168604
168539
168615
168663
183434
183374
183445
183398
183331
183343
183394
168700
168630
168690
168747
168674
168684
168748
124505
124514
124501
124544
124520
124649
124528
50976.3
50973.8
51016.7
50975.6
50998.3
50924.4
50999.3
51120.6
51061.1
51055.5
51094.6
51033.5
51062.1
51038.6
124534
124554
124545
124472
124546
124460
124547
168779
168673
168649
168646
168601
168659
168729
183492
183421
183479
183452
183386
183379
183456
168772
168700
168758
168815
168738
168746
168818
124609
124619
124613
124653
124630
124720
124630
51040
51032.2
51054.1
51032.6
51056.4
50978.6
51057.4
51195
51130.8
51142.4
51155.4
51109.8
51131.7
51111.3
124629
124637
124639
124569
124596
124551
124647
168847
168739
168710
168695
168670
168703
168796
183567
183491
183538
183530
183468
183443
183543
168846
168769
168822
168888
168798
168804
168889
124711
124703
124753
124756
124702
124807
124732
51110.8
51100.6
51113.3
51096.9
51119.5
51045.6
51124.1
51269.9
51193.3
51210.6
51242.9
51173.9
51202.3
51185
124704
124746
124716
124641
124694
124619
124733
168914
168808
168778
168752
168742
168765
168862
183647
183576
183616
183615
183563
183525
183640
168919
168842
168890
168968
168861
168867
168955
124799
124776
124853
124843
124791
124896
124821
51182.9
51172.7
51155.5
51163.5
51186.9
51116.5
51191.7
51341.8
51257.3
51273.2
51319.6
51239.7
51272.6
51252.4
124773
124834
124799
124712
124767
124682
124817
168983
168885
168855
168821
168827
168842
168935
183736
183671
183712
183708
183668
183622
183748
168998
168919
168968
169050
168942
168943
169025
124887
124852
124918
124925
124876
124971
124904
51248.8
51244.2
51214.2
51225.8
51249.3
51184.3
51258.2
51400.6
51302.5
51310.1
51378.1
51296.8
51328.4
51299.4
124865
124933
124902
124808
124851
124774
124924
169087
169003
168974
168936
168955
168958
169058
183862
183816
183861
183852
183829
183780
183889
169120
169049
169087
169163
169062
169059
169142
124995
124972
125013
125027
124977
125062
125006
51294.8
51279.5
51261.4
51267.9
51291
51235.6
51304.7
48515.6
51866.6
57803.1
60989.2
57880.7
51955.4
48581.8
119403
123956
130789
134615
130781
123901
119460
162598
165803
168712
169862
168648
165710
162533
176703
179204
180716
181102
180705
179198
176734
162445
165778
168682
169889
168733
165833
162626
119417
123904
130804
134696
130894
124023
119404
48590.6
51849
57763
61091.3
57977.3
51942.3
48499.1
49824.2
53019.2
58670.7
61828.3
58699.6
53054.8
49868.8
121015
125441
132086
135753
132089
125341
121039
163533
166612
169397
170546
169336
166510
163458
177156
179641
181083
181539
181072
179640
177189
163399
166565
169358
170570
169422
166648
163576
121026
125352
132072
135878
132191
125509
121050
49871.4
52995.6
58642.8
61907.7
58817.1
53086.9
49810.3
50524.7
53861.8
59136.7
62045.3
59098.4
53853.1
50487.9
121927
126453
132679
135952
132683
126314
121840
164279
167279
169916
170963
169852
167166
164187
177606
180052
181459
181926
181448
180055
177639
164166
167242
169868
170975
169943
167321
164348
121877
126347
132651
136082
132778
126522
121980
50507.6
53803.5
59097.1
62072
59244.9
53921.7
50548.2
50551.7
54459.6
59204.5
61706.7
59131.3
54416.6
50414.9
122226
127037
132711
135583
132671
126827
122055
164807
167753
170192
171179
170131
167616
164718
177981
180391
181788
182238
181779
180413
178012
164739
167691
170141
171204
170215
167785
164904
122117
126909
132649
135646
132799
127112
122306
50488.2
54383.3
59157.9
61710.4
59283.6
54524.7
50596.4
50360.8
54706.1
59014.4
61141.4
58898.1
54663.2
50183.1
122354
127303
132483
135032
132377
127066
122095
165125
168006
170311
171279
170255
167854
164998
178238
180627
182025
182495
182021
180656
178268
165063
167938
170265
171317
170319
168030
165202
122211
127203
132391
134997
132555
127386
122463
50274
54659.4
58964
61087.2
59060.3
54791.3
50425.6
50429.1
54815.4
58743.3
60594
58562.1
54793.6
50225.8
122528
127448
132253
134549
132087
127225
122178
165241
168096
170343
171293
170298
167946
165084
178403
180760
182174
182651
182174
180791
178431
165184
168042
170299
171323
170358
168118
165302
122368
127384
132158
134457
132287
127544
122655
50318
54800.6
58695.5
60501.7
58767.7
54938.1
50523.7
50528.4
54868
58597
60331.5
58422.3
54774
50310.1
122634
127503
132122
134315
131937
127263
122242
165238
168101
170359
171303
170328
167976
165066
178464
180797
182244
182734
182242
180829
178487
165187
168075
170326
171327
170372
168128
165296
122462
127450
132031
134183
132142
127604
122775
50409.3
54879.7
58545.8
60216.2
58617.1
55026.2
50642.9
48530
48733
49547.1
52011.3
56862.3
64176.4
72805.4
118913
118792
119116
121144
124487
129173
135424
160945
159917
158851
158048
157729
157719
158078
174972
173762
172345
170810
169189
167468
165781
161089
160056
159025
158258
157865
157750
157979
118938
118952
119435
121573
124751
128981
135148
48524.2
48808
49718.7
52100.6
56629.1
63806.4
72624.4
48969.8
48409.7
48539.5
50177
53893.5
60026.7
68490.9
119424
118618
118504
119706
122238
126236
132085
161270
159996
158874
158055
157610
157361
157491
175123
173829
172391
170852
169278
167598
165858
161438
160151
159040
158229
157708
157374
157355
119463
118738
118801
120168
122486
126169
131915
49007.6
48520.2
48684
50287.5
53766.7
59843.2
68437.5
48787.6
47556.7
47057.1
47656.1
49620.4
53826.7
61383.6
119351
118004
117205
117367
118792
121635
126424
161650
160096
158802
157863
157243
156732
156483
175333
173907
172409
170934
169456
167809
165949
161796
160274
158989
158017
157340
156762
156368
119422
118124
117477
117722
118971
121623
126339
48900.1
47676.1
47140.5
47698.7
49581.3
53822
61484.3
48038.4
46814.1
46082.4
46005.9
46730.3
48790.6
54267.1
119047
117431
116193
115574
116001
117690
121091
161937
160219
158733
157565
156784
156080
155388
175557
174005
172456
171015
169609
167999
166011
162098
160386
158926
157750
156915
156157
155353
119166
117528
116432
115833
116207
117795
121080
48186.1
46893
46098.2
46021.2
46743.2
48804.8
54369.2
47537.3
46442.2
45780.6
45578.1
45933.7
46625.5
49449.2
118856
117178
115762
114799
114655
115294
117421
162127
160280
158614
157272
156425
155648
154526
175747
174111
172506
171041
169651
168078
165964
162293
160463
158799
157486
156610
155790
154600
119069
117349
115939
115001
114836
115498
117623
47718.7
46540.3
45803.8
45582.8
46003.8
46765.1
49659.9
47528.9
46435.6
45922.7
45881.3
46203.1
46444
47631.9
118866
117115
115620
114599
114324
114405
115280
162188
160259
158380
157034
156214
155449
154147
175877
174227
172555
171034
169619
168035
165834
162391
160457
158611
157266
156450
155660
154297
119167
117335
115809
114795
114579
114756
115699
47713.4
46545.5
45981.3
45928.7
46348.6
46777.3
48213
47699.8
46717.3
46294.7
46313.3
46514.6
46691.5
46923.9
118868
117105
115780
114976
114600
114486
114320
162140
160234
158377
157026
156194
155280
153794
175938
174294
172608
171032
169582
167869
165294
162371
160444
158620
157274
156460
155524
153961
119233
117370
115991
115217
114943
114952
114832
47901.6
46842
46374.5
46416.2
46736.8
47133.3
47612.5
72358.2
63740.7
56576.6
51966.2
49661
48784.2
48506.1
135034
128908
124488
121478
119538
118963
118908
157926
157646
157770
158130
158950
160002
161047
165595
167342
169133
170723
172273
173702
174918
157920
157657
157697
158005
158788
159828
160854
136038
129524
124654
121476
119444
118896
118895
73445.4
64664.7
57109.9
52184.7
49769.6
48871.9
48594.9
68180.8
59753.5
53770.7
50241.6
48672.4
48492.6
48972.2
131773
126139
122410
120032
118818
118765
119448
157351
157315
157622
158122
158967
160100
161400
165655
167499
169212
170769
172312
173767
175073
157337
157263
157538
157987
158805
159917
161189
132507
126535
122471
119944
118686
118677
119404
68984.9
60414.4
54151.4
50357
48672
48504.4
49030.2
61368.8
53773.5
49577
47679.8
47113.2
47602.5
48808.2
126208
121595
118977
117634
117418
118099
119362
156386
156711
157262
157928
158920
160219
161768
165779
167699
169375
170842
172340
173851
175285
156399
156574
157130
157781
158755
160047
161562
126585
121813
118968
117500
117280
117996
119254
61645.8
54079
49831.2
47786.3
47134.3
47604.8
48825.2
54334.3
48809.3
46709.3
45969.7
46027.4
46779.4
48062.3
121080
117761
116144
115738
116312
117493
119084
155304
156111
156842
157679
158867
160334
162094
165874
167874
169522
170926
172391
173949
175512
155275
155976
156703
157508
158671
160234
161923
121121
117753
116087
115625
116186
117418
119010
54295.2
48900.7
46821.9
46051.6
46079.1
46827.8
48084.9
49611.4
46727.9
45939
45502
45695.2
46412.2
47599.5
117486
115434
114792
114918
115847
117265
118976
154529
155691
156523
157416
158749
160402
162238
165828
167948
169565
170968
172452
174070
175713
154462
155591
156381
157253
158597
160319
162157
117476
115347
114667
114804
115746
117156
118865
49504.5
46686.4
45955.9
45550.1
45729.3
46411
47585.2
48048.9
46695.6
46263.4
45844.9
45845.2
46447.9
47620
115503
114643
114501
114707
115718
117251
119071
154154
155537
156367
157208
158554
160386
162317
165691
167909
169538
170975
172517
174201
175852
154157
155446
156229
157074
158419
160328
162272
115508
114558
114381
114631
115628
117118
118914
47971.7
46652.6
46291.6
45874
45871
46388.4
47536.1
47403.7
47030.5
46633.2
46302.9
46266.7
46763.1
47827.8
114608
114793
114822
115115
115914
117304
119140
153782
155395
156385
157210
158582
160387
162302
165141
167753
169509
170982
172577
174278
175930
153832
155326
156257
157102
158463
160314
162242
114680
114740
114751
115085
115824
117146
118940
47495.2
47062
46717.2
46385.9
46273.2
46673.4
47700.6
90398.8
90360
89952.1
89399.7
87991.8
84479.7
79404.7
156517
156099
154982
152970
150196
146116
141036
160697
160512
160159
159802
159404
158767
158277
160284
160418
160753
161308
162042
162980
164103
160688
160449
160125
159802
159401
158811
158323
157909
156903
154959
152689
150223
146593
141921
91832.4
90899.2
89788.4
89169.7
87999.7
84732.8
80103.9
88545.8
88366.1
87898
86845.8
84437.3
80668.8
75609.5
154442
153916
152426
150198
146840
142773
137902
159666
159533
159201
158825
158382
157981
157642
159900
160048
160462
161038
161847
162907
164134
159664
159558
159284
158913
158472
158068
157686
155102
154224
152395
150250
147179
143300
138550
89390.7
88590.1
87810.3
86854.7
84421.9
80773.1
76065.6
85117.8
84735.4
84013.8
82104.4
78539.2
74353
69186.4
150334
149482
147719
144856
141023
136866
132032
157727
157577
157332
156981
156654
156547
156449
159146
159312
159771
160473
161425
162691
164119
157813
157741
157568
157239
156883
156689
156490
150092
149234
147659
145113
141428
137200
132344
85250
84652.4
84034.9
82222.2
78532.6
74281.8
69181.7
80847.6
80292.7
78709.2
75788.4
71877.5
67745.8
62517.7
144941
143991
141798
138202
134246
130324
125930
155172
155000
154765
154488
154399
154662
154968
158097
158307
158820
159633
160789
162344
164008
155427
155357
155228
154883
154692
154825
155000
144090
143461
141846
138523
134577
130397
125974
80276.1
80188.2
79102.8
75840.7
71678
67404.9
62241.7
75944.4
75375.2
73333.3
69940.1
66140.2
62138.5
56949.2
138700
137715
135267
131639
128271
125019
121409
152283
152069
151779
151592
151873
152558
153423
156816
157056
157603
158484
159833
161670
163661
152617
152632
152426
152070
152168
152737
153461
137758
137356
135394
131830
128323
124905
121303
75510.5
75385.8
73650.9
69955.6
66084.1
61891.4
56733.8
70777.2
70432.7
69016.2
66631
62393.3
57807.3
53171.8
132016
131316
129276
126116
123479
120982
118293
149510
149291
148992
148887
149496
150494
152033
155465
155726
156271
157180
158623
160558
162994
149921
149978
149707
149463
149870
150808
152218
131697
131321
129604
126468
123642
121041
118300
70827.1
70172.7
68893.7
66508.8
62493.1
58013.9
53217.2
64694.2
64461.9
64113.4
64102.9
58683.6
53734
50031.3
125382
124997
123777
121736
119157
116972
115230
147015
146813
146569
146578
147276
148539
150475
154082
154345
154890
155752
157136
158875
161278
147429
147426
147201
147094
147667
148868
150696
125505
124974
123867
122101
119558
117302
115478
65240
63905.7
63588.2
63877.5
59318
54173.6
50380.6
42058.2
41784.5
41626.9
41215.1
41119
40869.7
40575.8
104810
104464
104113
103928
103698
103236
102727
138371
138400
138465
138649
138944
139221
139361
149366
149508
149754
150047
150311
150408
150118
138647
138642
138715
138892
139253
139586
139737
105187
104910
104551
104343
104126
103683
103109
42596.1
42658.7
42510.7
42192.2
41943.9
41595.9
41167
38619.6
38592.6
38551.2
38541.8
38703
38805.1
38878.3
93387.5
93459.5
93612.2
93769.4
93869.8
93971.5
94085.1
125783
125831
125912
126028
126128
126199
126273
136924
136950
136983
137016
137023
136994
136958
125996
126048
126134
126250
126351
126422
126491
93755.5
93824.9
93985.1
94148.2
94231
94306
94407.2
38736.1
38808.9
38812.2
38769.1
38893.5
38941.6
38988
37068.5
37123.2
37204.3
37245.9
37276.1
37292.7
37293
87812.2
87871.5
87963.1
88063.8
88138.5
88183.9
88190.8
117810
117813
117823
117820
117808
117778
117758
127800
127788
127767
127740
127704
127668
127660
117808
117811
117813
117826
117802
117773
117758
87783
87840.3
87933
88043.9
88132.9
88198.5
88220.9
37060.5
37108.2
37185.5
37233.8
37270.9
37301.3
37312.7
36814
36835.4
36848.5
36856.3
36871.6
36877.7
36896.2
85062.1
85064.9
85067
85073.2
85072.2
85062.2
85051.4
112841
112831
112817
112805
112794
112787
112785
121952
121953
121949
121944
121941
121937
121937
112862
112854
112838
112825
112810
112803
112803
85064.2
85066.5
85070
85079.5
85083.6
85077.6
85067.4
36849.2
36858.9
36863.2
36867.8
36886.6
36896.5
36913.7
36483.5
36485.5
36484.9
36480.3
36479.5
36477.5
36481.6
83927.1
83921.5
83912.9
83901.8
83888.2
83882.4
83884.7
110075
110071
110071
110074
110078
110082
110087
118164
118171
118183
118204
118229
118250
118264
110064
110064
110064
110066
110067
110071
110075
83930.8
83928.6
83920
83909.7
83901.3
83893.7
83892.2
36507.1
36501.3
36497.7
36493.8
36491.9
36493.9
36497.5
38216.1
38216.3
38219.3
38220.4
38226.9
38225.1
38232.1
84900.8
84897.4
84893.1
84891.4
84890.5
84889.8
84891.1
107699
107702
107714
107726
107730
107726
107715
114147
114153
114166
114182
114203
114220
114232
107665
107670
107683
107693
107697
107694
107680
84891.1
84893.7
84892.9
84892.8
84895.2
84893.6
84895.2
38224.7
38222.1
38227.3
38229
38232.5
38238.1
38241.5
49014.7
49015.4
49010.2
49003.9
48997.4
49000.4
48996
84495.2
84493.6
84489.8
84490.1
84492.7
84495.5
84499.1
102879
102883
102889
102894
102896
102892
102888
108014
108019
108029
108033
108038
108044
108049
102883
102888
102891
102899
102902
102900
102896
84484.9
84487.8
84486.9
84488
84491.6
84493
84499.9
49003.6
49004.6
48999.5
48996.4
48990.3
48984.3
48977.6
79414
84034.4
87253.1
88470.2
88832.6
88667.7
87972.3
141250
146046
149943
152715
154780
155497
155325
158548
159059
159689
160075
160480
160818
160972
164366
163232
162289
161564
161048
160738
160624
158336
158818
159448
159830
160086
160342
160520
141214
146241
150157
152691
154537
155833
156380
79633.8
84649.5
88030.4
89259.9
89589.1
90046.2
90232.2
75669.5
80490.1
84078.8
86301.8
86963
87028.9
86793.4
138139
142973
147027
150223
152156
153378
153602
157881
158260
158679
159168
159617
159972
160124
164364
163121
162078
161292
160731
160380
160239
157652
158007
158421
158866
159251
159489
159575
138016
142874
146860
150126
152298
153800
154317
75732.5
80651.9
84380.9
86793.5
87802.8
88278.6
88492.3
69271.4
74637.4
78712.5
82014.1
83528
84004.6
84438.6
132266
137182
141534
145130
147554
149255
150242
156636
156802
156943
157345
157838
158241
158429
164301
162878
161630
160713
160061
159642
159472
156441
156588
156739
157099
157473
157669
157788
132097
136935
141061
144943
147814
149358
150145
69200.4
74291
78482.6
82068.5
84082.1
84773
85077.1
62551.8
68020.2
72244.8
75912.9
78521.4
79859.3
80780.8
126104
130629
134911
138814
142024
144162
145510
155107
154870
154603
154832
155404
155836
156084
164146
162504
160974
159856
159080
158597
158405
155001
154757
154538
154684
154993
155178
155295
125989
130378
134271
138285
141844
143889
144754
62492.7
67746.5
71956.1
75839.3
78838.4
80379.3
80777.9
56829.9
62186
66278.9
69913.6
72996.6
74749.1
75467.4
121400
125147
128667
132208
135609
137972
139257
153530
152787
152235
152178
152577
152997
153327
163792
161837
160021
158704
157852
157325
157120
153535
152730
152076
151863
152076
152294
152436
121493
124999
128456
131807
135346
137882
138785
57069.8
62230.9
66253.8
69991.2
73305.9
75337.1
75918.5
52812
57549.6
62227
66550.3
68445.7
69307.3
69272.7
118051
120776
123564
126528
129454
131452
132213
152192
150743
149822
149466
149748
150219
150584
163156
160724
158805
157384
156499
155977
155762
152241
150745
149738
149172
149298
149592
149723
118481
121120
123588
126261
129486
131602
132111
53497.2
58060.3
62362.8
66402
68811
70099.5
70609.7
49701.1
53427.7
58444.4
64163.2
63654.3
63420
62998.5
115007
116780
119304
122295
124046
125088
125326
150629
148743
147523
147031
147170
147597
147915
161443
159046
157317
155950
155101
154601
154361
150691
148790
147550
146837
146819
147075
147250
115501
117265
119515
121820
123704
124893
125429
50498.2
54185.9
58995.7
63653.1
63945.1
64068.9
64546.2
41343.2
41491.4
41579.1
41567.5
42352.7
42838.3
43309.1
103610
104094
104434
104609
104886
105302
105639
139788
139622
139277
138925
138735
138677
138654
150237
150515
150411
150144
149847
149599
149459
139420
139293
139019
138732
138552
138480
138464
102640
103173
103689
103966
104178
104502
104804
40474.4
40883
41261.6
41553.2
41910.2
42126.9
42346.4
39104.9
39032
38928.4
38800.2
38872.7
38967.7
39027.7
94583.2
94470.6
94380.1
94261.3
94075.2
93920.5
93861.6
126630
126560
126475
126350
126243
126170
126128
137090
137118
137134
137124
137094
137066
137045
126287
126210
126138
126033
125936
125865
125817
94024
93916.1
93821.7
93736.7
93594.8
93456.4
93389.5
38828
38761.6
38678.6
38547.1
38568.3
38624.8
38647.4
37358.2
37358.8
37336.7
37290.2
37230.9
37137.4
37068.7
88230.7
88212.8
88154
88063.6
87938.8
87823.3
87749
117788
117806
117837
117860
117848
117841
117836
127726
127733
127767
127799
127823
127844
127856
117777
117807
117843
117865
117847
117833
117834
88169.4
88164.7
88122.1
88050.8
87953.8
87863.6
87805.6
37282.6
37279.2
37261.4
37233.8
37191.2
37111.2
37055.8
36925.6
36912.1
36902.6
36888.6
36890.9
36887.9
36877.8
85093.5
85100.9
85105.7
85100.9
85091.8
85092.5
85096.7
112839
112841
112850
112864
112877
112891
112899
121990
121996
122004
122012
122020
122025
122025
112813
112818
112832
112851
112869
112884
112894
85039.6
85052.9
85066.5
85066
85056.1
85051.6
85049.6
36880.4
36860.9
36859.6
36848.8
36835
36815.9
36792.5
36514.3
36515.8
36516.3
36518.9
36522.2
36524.3
36527
83959.6
83962.1
83970.2
83976
83980.7
83989.4
83997.1
110127
110118
110112
110107
110105
110105
110103
118310
118299
118283
118264
118247
118237
118233
110110
110113
110113
110119
110127
110136
110144
83876.9
83879.4
83884.5
83886.6
83895.6
83907.7
83917.5
36472.1
36465.9
36474.7
36481.5
36476.1
36466.1
36457.6
38261.9
38264.1
38259.2
38248.7
38237.9
38231.5
38232.1
84929.5
84928.9
84931.6
84929.1
84928.3
84930.9
84933.4
107693
107697
107697
107692
107681
107670
107660
114235
114225
114211
114195
114181
114172
114167
107715
107736
107742
107743
107738
107734
107736
84870.7
84867.6
84864.8
84856.8
84860.7
84871.9
84880.1
38225
38215.8
38215.9
38211.3
38201.6
38196.4
38193.7
48957.2
48961.2
48967.9
48978.8
48988.5
48993.9
48995.9
84518.6
84513.6
84511.1
84505.8
84503.1
84502
84501.1
102906
102907
102906
102902
102896
102886
102881
108027
108025
108022
108018
108012
108007
108003
102864
102868
102870
102867
102862
102856
102853
84482
84470.8
84466.3
84461.1
84462.3
84465.4
84465.5
49008.6
49016.6
49011.8
49011.5
49016.4
49020.9
49023.2
)
;

boundaryField
{
    fuel
    {
        type            zeroGradient;
    }
    primary_air
    {
        type            zeroGradient;
    }
    Secondary_air_RHS
    {
        type            zeroGradient;
    }
    Secondary_air_LHS
    {
        type            zeroGradient;
    }
    outlet
    {
        type            totalPressure;
        rho             rho;
        psi             none;
        gamma           1;
        p0              uniform 100000;
        value           nonuniform List<scalar> 
98
(
44385.3
73100.5
100000
100000
100000
73091.7
44301.5
44316.5
73114.8
100000
100000
100000
73092.9
44267.2
44320.7
73114.5
100000
100000
100000
73084.7
44334.8
44337.5
73100.3
100000
100000
100000
73093
44278.6
44314.8
73099.1
100000
100000
100000
73087.5
44263.7
44310.3
73098.8
100000
100000
100000
73086.9
44269
44329.2
73097.8
100000
100000
100000
73087.3
44291
44323.4
73101.5
100000
100000
100000
73099.4
44308.2
44276.7
73098.7
100000
100000
100000
73087.6
44321.7
44275.4
73102.5
100000
100000
100000
73104.1
44278.2
44333.7
73094.9
100000
100000
100000
73094.7
44317.3
44301.7
73109.8
100000
100000
100000
73096.4
44328.3
44331.8
73097.5
100000
100000
100000
73097.6
44316.3
44311.1
73100.4
100000
100000
100000
73095.2
44354.1
)
;
    }
    stove_body
    {
        type            zeroGradient;
    }
    frontAndBack
    {
        type            empty;
    }
}


// ************************************************************************* //
