/*--------------------------------*- C++ -*----------------------------------*\
  =========                 |
  \\      /  F ield         | OpenFOAM: The Open Source CFD Toolbox
   \\    /   O peration     | Website:  https://openfoam.org
    \\  /    A nd           | Version:  6
     \\/     M anipulation  |
\*---------------------------------------------------------------------------*/
FoamFile
{
    version     2.0;
    format      ascii;
    class       surfaceScalarField;
    location    "0.0025";
    object      phi;
}
// * * * * * * * * * * * * * * * * * * * * * * * * * * * * * * * * * * * * * //

dimensions      [1 0 -1 0 0 0 0];

internalField   nonuniform List<scalar> 
10143
(
-1.24155e-06
-1.42571e-05
2.37006e-05
-4.30573e-07
-1.30646e-05
2.15311e-05
4.04981e-07
-1.28634e-05
2.06303e-05
7.22854e-07
-1.29277e-05
2.08347e-05
1.11645e-06
-1.29751e-05
2.10545e-05
1.40693e-06
-1.35269e-05
2.21678e-05
-1.48714e-05
2.46863e-05
1.35602e-06
-2.3464e-05
1.14339e-05
1.29749e-06
-2.39353e-05
1.25249e-05
3.10838e-07
-2.41223e-05
1.39901e-05
-3.04615e-07
-2.38489e-05
1.34696e-05
-6.57756e-08
-2.37174e-05
1.23317e-05
-9.53979e-07
-2.41368e-05
1.33417e-05
-2.3547e-05
1.08492e-05
3.54501e-07
-1.13458e-05
1.04453e-05
5.68588e-07
-1.1832e-05
1.06203e-05
5.936e-08
-1.24116e-05
1.1902e-05
4.19395e-07
-1.23376e-05
1.13188e-05
1.08232e-06
-1.22618e-05
1.09691e-05
-5.56299e-07
-1.24398e-05
1.2961e-05
-1.13503e-05
1.04241e-05
3.74336e-07
1.15077e-05
6.27932e-06
1.42536e-06
1.19416e-05
4.66681e-06
2.56702e-07
1.26138e-05
5.49046e-06
-1.21773e-06
1.25655e-05
5.76327e-06
-2.255e-06
1.23973e-05
5.77211e-06
-1.41389e-06
1.25525e-05
3.80678e-06
1.1672e-05
5.27676e-06
-1.02222e-07
2.39812e-05
1.04796e-05
2.28116e-09
2.41921e-05
1.08306e-05
-4.71298e-07
2.47227e-05
1.14623e-05
-1.01421e-07
2.4305e-05
1.10773e-05
6.70623e-07
2.41208e-05
1.0578e-05
-4.55374e-07
2.45216e-05
1.20731e-05
2.40525e-05
1.03721e-05
8.80045e-07
1.51285e-05
1.15704e-05
1.13834e-06
1.4031e-05
1.20312e-05
-4.71347e-07
1.40421e-05
1.41382e-05
-5.72905e-07
1.40539e-05
1.25031e-05
-4.16256e-07
1.37924e-05
1.16638e-05
-1.02828e-06
1.39534e-05
1.26322e-05
1.53241e-05
1.06985e-05
-1.04205e-06
2.49336e-05
-6.65379e-07
2.26498e-05
-1.61478e-08
2.26249e-05
-7.6109e-07
2.32589e-05
-2.22007e-08
2.22079e-05
1.32786e-06
2.20753e-05
2.52336e-05
-2.06129e-06
-4.46325e-07
2.49869e-05
-1.01059e-06
-1.40055e-06
2.17895e-05
6.34466e-09
-6.78643e-07
1.9933e-05
8.06318e-07
-6.35233e-07
1.99534e-05
1.55717e-06
-1.22082e-06
2.08138e-05
1.8561e-06
-2.31918e-06
2.34025e-05
-1.1539e-06
2.63782e-05
1.52003e-06
-1.3354e-05
9.13349e-06
4.34803e-07
-1.38306e-05
1.10433e-05
3.16526e-07
-1.53637e-05
1.38296e-05
4.71832e-07
-1.50871e-05
1.29264e-05
5.80246e-07
-1.48679e-05
1.11754e-05
-7.18777e-07
-1.43402e-05
1.2336e-05
-1.37989e-05
9.01647e-06
7.37548e-07
-7.8646e-06
1.13169e-05
5.64768e-07
-5.88894e-06
1.01476e-05
3.10604e-07
-9.14168e-06
1.35316e-05
8.75029e-07
-8.88274e-06
1.21996e-05
1.34833e-06
-8.52382e-06
1.16443e-05
-3.75848e-07
-6.35747e-06
1.4109e-05
-7.83359e-06
1.13611e-05
1.24051e-07
7.00552e-06
4.55703e-06
1.92226e-06
6.69337e-06
3.54538e-06
2.76138e-07
8.35538e-06
2.74888e-06
-1.46427e-06
8.50514e-06
3.06734e-06
-2.70662e-06
8.42041e-06
3.21135e-06
-1.34425e-06
7.956e-06
1.5073e-06
7.25329e-06
2.29491e-06
1.06808e-07
1.36212e-05
1.07793e-05
-1.50136e-07
1.48866e-05
1.01275e-05
-3.60204e-07
1.55316e-05
1.20074e-05
2.94578e-07
1.51316e-05
1.13699e-05
8.22201e-07
1.50916e-05
1.08307e-05
-2.19432e-07
1.5413e-05
1.2956e-05
1.36506e-05
1.10158e-05
9.31418e-07
1.24314e-06
9.42189e-06
4.73276e-07
1.19796e-06
1.09473e-05
-6.51991e-07
1.59943e-06
1.44585e-05
1.86135e-07
1.5896e-06
1.08605e-05
1.37444e-07
1.26421e-06
1.04474e-05
-6.83458e-07
2.27117e-06
1.18352e-05
1.31092e-06
8.34761e-06
-1.51108e-06
2.68517e-05
-1.45913e-06
2.38395e-05
-1.52051e-07
2.28586e-05
-8.38574e-07
2.46962e-05
2.33051e-07
2.24363e-05
1.72518e-06
2.27162e-05
2.71647e-05
-2.8759e-06
5.86265e-06
2.03966e-05
-9.5866e-07
1.31325e-06
1.86771e-05
-6.36551e-08
2.92324e-06
1.66291e-05
8.81831e-07
3.21021e-06
1.61607e-05
2.04205e-06
2.50146e-06
1.73855e-05
2.38817e-06
1.80886e-06
2.09055e-05
4.69832e-06
2.21584e-05
2.06514e-06
-1.23055e-05
8.56729e-06
3.50083e-07
-1.24843e-05
9.4915e-06
5.657e-07
-1.53704e-05
1.45173e-05
4.85423e-07
-1.47598e-05
1.33789e-05
3.0637e-08
-1.39177e-05
1.07992e-05
-1.13754e-06
-1.1987e-05
1.04355e-05
-1.11552e-05
7.20486e-06
7.92026e-07
-6.98876e-06
1.23066e-05
4.56921e-07
-4.76139e-06
9.64559e-06
4.02114e-07
-9.95872e-06
1.52107e-05
9.01377e-07
-9.76821e-06
1.38724e-05
1.17141e-06
-9.06862e-06
1.34986e-05
-3.42977e-07
-3.65264e-06
1.39498e-05
-5.63378e-06
1.26117e-05
-9.23476e-08
5.33078e-06
5.42452e-06
1.88595e-06
4.09944e-06
5.86715e-06
2.42812e-07
6.23859e-06
1.17426e-06
-1.47874e-06
6.80018e-06
1.04489e-06
-2.90602e-06
8.53503e-06
1.33728e-08
-1.37623e-06
7.82679e-06
1.71894e-06
4.93865e-06
3.61901e-06
1.94618e-07
1.14188e-05
1.14618e-05
-2.39125e-07
1.24354e-05
9.34759e-06
-2.37615e-07
1.22703e-05
1.29652e-05
3.31631e-07
1.22801e-05
1.23139e-05
5.99799e-07
1.44914e-05
1.15398e-05
-7.9756e-08
1.42074e-05
1.39613e-05
1.10513e-05
1.19478e-05
1.12469e-06
-5.19921e-06
8.18748e-06
5.03668e-07
-2.09316e-06
8.67402e-06
-7.70589e-07
-1.94198e-06
1.22381e-05
4.54787e-07
-6.00231e-06
9.56626e-06
-4.25195e-07
-1.95063e-06
1.03864e-05
-9.53792e-07
-3.77272e-07
1.02373e-05
-4.83692e-06
6.40756e-06
-1.97546e-06
2.2294e-05
-1.6901e-06
2.12824e-05
1.92781e-07
1.95422e-05
-1.29174e-06
2.02296e-05
4.43142e-07
1.95189e-05
2.33987e-06
2.06856e-05
2.30144e-05
-3.42972e-06
5.16622e-06
1.59644e-05
-8.40783e-07
-2.58046e-06
1.83187e-05
-1.9148e-07
-1.3127e-06
1.62174e-05
1.00999e-06
-1.16818e-06
1.54287e-05
2.521e-06
3.87088e-08
1.53402e-05
2.69086e-06
2.2265e-06
1.75934e-05
4.61414e-06
1.71367e-05
2.40081e-06
-1.27295e-05
7.72179e-06
5.64505e-07
-1.37178e-05
6.25583e-06
6.84212e-07
-1.43952e-05
1.15217e-05
3.18769e-07
-1.43862e-05
1.04059e-05
-6.44575e-07
-1.40207e-05
9.22029e-06
-1.4724e-06
-1.20381e-05
8.58011e-06
-1.20753e-05
6.27214e-06
7.76476e-07
-5.91322e-06
1.21187e-05
6.24044e-07
-6.65499e-06
9.99586e-06
4.72269e-07
-7.04572e-06
1.52729e-05
9.86587e-07
-7.80992e-06
1.41947e-05
8.99824e-07
-7.38892e-06
1.4076e-05
-2.64855e-07
-3.77253e-06
1.37513e-05
-4.69651e-06
1.23444e-05
4.68176e-08
5.58496e-06
6.97064e-06
1.24857e-06
5.2814e-06
5.88899e-06
1.82921e-07
7.01133e-06
1.17691e-06
-1.67167e-06
7.76226e-06
1.9445e-07
-2.58469e-06
6.60041e-06
-6.43848e-08
-1.2259e-06
6.28277e-06
3.47534e-06
4.52196e-06
6.40332e-06
1.77094e-07
1.21674e-05
1.20233e-05
-1.38357e-07
1.19901e-05
1.02601e-05
-1.03983e-07
1.37081e-05
1.34866e-05
3.52814e-07
1.43282e-05
1.2588e-05
6.13178e-07
1.37105e-05
1.11997e-05
-7.76723e-08
1.42725e-05
1.33692e-05
1.21108e-05
1.16458e-05
1.36788e-06
-4.97421e-06
7.49927e-06
3.99042e-07
-2.43144e-06
6.89532e-06
-8.47112e-07
2.10137e-07
1.01275e-05
8.0019e-07
-5.35965e-06
9.89102e-06
-1.14719e-06
1.59313e-06
8.37497e-06
-1.14358e-06
3.15491e-07
7.97355e-06
-4.69566e-06
5.56934e-06
-2.13603e-06
1.69588e-05
-1.8052e-06
1.73422e-05
2.90394e-07
1.72498e-05
-1.4541e-06
1.5655e-05
7.66467e-07
1.84094e-05
2.57716e-06
1.87184e-05
1.80692e-05
-3.38012e-06
5.32843e-06
1.0749e-05
-9.37989e-07
-1.22153e-06
1.48874e-05
-4.60392e-07
4.93521e-07
1.29635e-05
1.06338e-06
-6.12718e-07
1.34619e-05
2.87276e-06
-3.06601e-08
1.25679e-05
2.82321e-06
3.92312e-06
1.23298e-05
4.93179e-06
1.12918e-05
2.39776e-06
-1.33367e-05
8.09998e-06
6.88633e-07
-1.39259e-05
5.86114e-06
7.10749e-07
-1.22994e-05
8.65224e-06
3.204e-07
-1.36169e-05
7.59025e-06
-1.17089e-06
-1.2913e-05
7.2689e-06
-1.63817e-06
-1.23155e-05
8.44597e-06
-1.36686e-05
7.6364e-06
9.54255e-07
-6.92036e-06
1.22745e-05
7.82342e-07
-7.24606e-06
1.07418e-05
6.10859e-07
-4.46656e-06
1.46066e-05
1.03701e-06
-6.10752e-06
1.34306e-05
6.22436e-07
-4.31148e-06
1.28991e-05
-2.7329e-07
-3.9685e-06
1.31708e-05
-6.1178e-06
1.20415e-05
-1.14398e-07
5.88373e-06
7.28606e-06
5.79585e-07
5.8396e-06
5.1647e-06
3.65123e-08
7.15475e-06
2.98463e-06
-1.71274e-06
6.93562e-06
1.69953e-06
-1.93734e-06
5.51817e-06
3.24702e-06
-8.39778e-07
6.18231e-06
5.27388e-06
6.11077e-06
6.46075e-06
2.44958e-07
1.3113e-05
1.20035e-05
-2.09686e-07
1.30944e-05
1.0815e-05
-2.72565e-08
1.42394e-05
1.35734e-05
2.70089e-07
1.39301e-05
1.26539e-05
6.21939e-07
1.1823e-05
1.15216e-05
-1.72235e-07
1.42505e-05
1.25565e-05
1.34367e-05
1.15821e-05
1.4885e-06
-4.66062e-06
7.92656e-06
8.33103e-08
-2.17019e-06
7.44875e-06
-4.64119e-07
-1.34959e-06
9.50853e-06
6.45449e-07
-2.31642e-06
9.16509e-06
-1.69985e-06
5.70569e-07
6.27755e-06
-1.08119e-06
-3.05922e-06
8.30317e-06
-4.81722e-06
6.86034e-06
-2.09605e-06
1.12011e-05
-1.78014e-06
1.23484e-05
7.39229e-09
1.32015e-05
-1.04725e-06
1.15401e-05
1.04672e-06
1.53029e-05
2.42796e-06
1.34848e-05
1.21835e-05
-3.03606e-06
3.60958e-06
7.40273e-06
-9.65434e-07
-9.60179e-07
1.03061e-05
-4.52279e-07
8.75753e-07
1.06817e-05
9.48705e-07
3.6994e-07
1.01989e-05
2.61569e-06
1.9471e-08
9.60923e-06
2.91159e-06
1.75678e-06
8.61437e-06
3.68766e-06
7.38848e-06
2.10782e-06
-1.50386e-05
9.71412e-06
5.2799e-07
-1.47313e-05
7.58763e-06
8.58819e-07
-1.51387e-05
8.15077e-06
3.8394e-07
-1.521e-05
8.00791e-06
-1.44559e-06
-1.40682e-05
7.57904e-06
-1.48272e-06
-1.47274e-05
9.4893e-06
-1.46477e-05
9.45785e-06
1.28256e-06
-8.95861e-06
1.23821e-05
7.68402e-07
-7.18585e-06
1.08791e-05
6.86629e-07
-5.80953e-06
1.22064e-05
9.0814e-07
-6.57459e-06
1.16531e-05
4.92233e-07
-5.21059e-06
1.13042e-05
-3.10646e-07
-5.56026e-06
1.16305e-05
-7.26947e-06
1.18108e-05
-5.21342e-07
7.51437e-06
4.23783e-06
2.71933e-07
5.44357e-06
4.67622e-06
-1.52825e-07
6.52775e-06
3.84998e-06
-1.46547e-06
5.68672e-06
3.45054e-06
-1.58183e-06
6.3316e-06
4.65346e-06
-8.08212e-07
7.95259e-06
3.93122e-06
7.69908e-06
3.71548e-06
5.53101e-07
1.48214e-05
1.15548e-05
-3.75045e-07
1.47817e-05
9.71452e-06
4.81743e-08
1.4354e-05
1.24075e-05
1.04662e-07
1.41593e-05
1.1238e-05
5.1252e-07
1.34715e-05
1.10478e-05
-2.50899e-07
1.58556e-05
1.19581e-05
1.46646e-05
1.17278e-05
1.43677e-06
-3.05486e-06
9.31016e-06
-2.0585e-07
3.75276e-07
7.33473e-06
1.75625e-08
-1.55969e-06
9.18849e-06
1.71943e-07
-1.72363e-07
7.47616e-06
-1.6183e-06
1.26335e-06
6.60761e-06
-7.20567e-07
-1.93215e-06
9.68135e-06
-3.48063e-06
9.05081e-06
-2.06103e-06
7.55457e-06
-1.46745e-06
1.08513e-05
-2.61737e-07
9.12781e-06
-5.30534e-07
1.00913e-05
8.81985e-07
1.11692e-05
2.18261e-06
8.99893e-06
7.91907e-06
-2.78106e-06
2.95439e-06
-7.02962e-07
2.82838e-06
-5.72985e-07
3.26183e-06
8.85854e-07
4.14359e-06
2.29392e-06
3.84839e-06
2.95784e-06
3.045e-06
3.01113e-06
2.0597e-06
-1.17056e-05
5.3871e-07
-1.2044e-05
1.23775e-06
-1.19051e-05
5.07674e-07
-1.19708e-05
-1.39392e-06
-1.15777e-05
-1.21498e-06
-1.17918e-05
-1.13302e-05
1.50013e-06
-3.52549e-06
6.1099e-07
-3.25812e-06
9.07367e-07
-3.19419e-06
9.28977e-07
-3.4126e-06
4.74776e-07
-2.99859e-06
-2.70666e-07
-2.58922e-06
-2.44697e-06
-5.27764e-07
3.70881e-06
1.87856e-07
3.24991e-06
-2.57936e-07
3.50497e-06
-1.36227e-06
3.49036e-06
-1.74929e-06
4.50205e-06
-1.01843e-06
3.20724e-06
2.84064e-06
6.88296e-07
1.18976e-05
-3.85084e-07
1.11635e-05
2.02303e-07
1.22866e-05
1.87505e-07
1.18089e-05
6.5778e-07
1.2075e-05
-2.24936e-07
1.22683e-05
1.15603e-05
1.14639e-06
-2.50317e-06
-4.79867e-08
-4.23778e-06
2.20714e-07
-3.20626e-06
-8.07134e-09
-2.74362e-06
-1.48509e-06
-4.53457e-06
-5.4455e-07
-2.55928e-06
-2.65013e-06
-1.77285e-06
-1.64094e-06
-2.16426e-07
-4.85767e-07
5.27532e-07
1.99345e-06
-1.0857e-06
-0.000131569
-0.000988886
-3.91789e-06
-0.000131625
-0.000987795
-4.59635e-06
-0.000132411
-0.000988646
-3.68798e-06
-0.000132248
-0.000988157
-3.03062e-06
-0.000131558
-0.000986672
-2.5474e-06
-0.000130254
-0.000986339
-0.000130945
-0.000988048
-1.36421e-06
-0.000351367
-0.00205014
-3.64597e-06
-0.000351214
-0.00204961
-4.22147e-06
-0.000349666
-0.00205121
-1.72276e-06
-0.000348358
-0.00205177
7.1198e-07
-0.00034844
-0.00205286
-1.19387e-06
-0.000347382
-0.00205038
-0.000344739
-0.00205242
-4.05909e-06
-0.000148507
-0.00255069
-1.05004e-05
-0.000142971
-0.00255093
-1.25939e-05
-0.000145273
-0.00254977
-1.19084e-05
-0.000146682
-0.00254956
-8.10161e-06
-0.000145703
-0.00255049
-3.2888e-06
-0.000146047
-0.00255105
-0.000148925
-0.00254932
-7.52222e-06
0.000179244
-0.00270366
-7.01148e-06
0.000177051
-0.0027026
-5.97583e-06
0.000177888
-0.00270374
-3.5453e-06
0.000178141
-0.0027038
5.24923e-07
0.000177378
-0.00270364
3.44638e-06
0.000177282
-0.00270432
0.00017917
-0.00270459
6.20938e-06
0.000353834
-0.00253843
5.90396e-06
0.000356511
-0.00253714
4.80241e-06
0.000358452
-0.00253698
5.17102e-06
0.000358331
-0.00253673
5.07716e-06
0.000358841
-0.00253791
2.24636e-06
0.000361226
-0.00253929
0.000362381
-0.00254137
-2.85914e-06
0.000140723
-0.00206906
-4.54524e-06
0.000139532
-0.00206444
-5.02562e-06
0.000140785
-0.00205876
-2.5926e-06
0.000140881
-0.00205776
-7.09637e-07
0.000140556
-0.00205511
-5.30791e-07
0.000140254
-0.00205233
0.000140205
-0.00205222
-3.84698e-06
-0.000981554
-2.32167e-06
-0.000989309
-2.01357e-06
-0.00098784
-1.02987e-06
-0.000987617
-1.64449e-07
-0.000987461
-4.54338e-08
-0.000987324
-0.000987517
1.57396e-06
-7.37333e-05
-0.0019389
-1.62224e-06
-7.3429e-05
-0.00193796
-4.31683e-06
-7.66092e-05
-0.00193849
1.57731e-06
-7.81895e-05
-0.0019433
-2.6997e-06
-7.77252e-05
-0.00193825
-4.58887e-06
-7.48873e-05
-0.00194026
-7.89097e-05
-0.00194389
-1.22516e-06
-0.000331543
-0.00408892
-3.88287e-06
-0.000331005
-0.00408798
-7.35822e-06
-0.000329906
-0.00408913
-1.99317e-06
-0.000329891
-0.00407726
1.93501e-07
-0.000330267
-0.00408968
-6.10441e-06
-0.000329992
-0.00408871
-0.00032596
-0.00407955
-5.25005e-06
-0.000110704
-0.00504096
-1.0642e-05
-0.000108786
-0.00504156
-9.89922e-06
-0.00011139
-0.00504086
-1.74923e-05
-0.000116173
-0.00504548
-1.1824e-05
-0.000116392
-0.00503975
-1.30649e-06
-0.000117495
-0.00504035
-0.000122246
-0.00504278
-6.09155e-06
0.000160634
-0.00531213
-7.8761e-06
0.000157929
-0.00531171
-6.50727e-06
0.00015393
-0.00531192
-2.50231e-06
0.000153141
-0.00531345
8.7659e-07
0.000149923
-0.00531044
3.70926e-06
0.000148241
-0.00530871
0.000152702
-0.00530889
1.07013e-05
0.000318618
-0.00502406
7.10052e-06
0.000333283
-0.00502508
3.72777e-06
0.000336211
-0.00502468
6.7441e-07
0.000337129
-0.00502463
-1.75869e-06
0.000340775
-0.005025
-1.48712e-06
0.00034467
-0.00502545
0.000345974
-0.00502708
9.25021e-06
0.00011424
-0.00407809
4.73932e-07
9.12525e-05
-0.00408432
-1.98071e-06
9.06958e-05
-0.00408307
7.82987e-07
9.23592e-05
-0.00408094
-7.00093e-07
9.10432e-05
-0.00407494
-2.38894e-06
8.9539e-05
-0.00407185
8.94475e-05
-0.00407037
-2.20395e-05
-0.00195426
-3.57471e-06
-0.00194642
2.41833e-08
-0.00194101
-5.77868e-07
-0.00193878
2.0169e-07
-0.00194232
-1.9262e-06
-0.0019391
-0.00193615
-3.45736e-08
-1.18158e-05
-0.00292018
-1.17218e-06
-1.34014e-05
-0.0029219
-1.70678e-05
-1.97749e-05
-0.00292559
1.60723e-05
-7.24311e-06
-0.0029177
-7.25738e-06
-2.2476e-05
-0.00292745
-1.65006e-05
-6.33991e-06
-0.00292517
-8.40796e-07
-0.00291893
-2.20554e-06
-0.00021888
-0.00599644
-7.76837e-06
-0.000218371
-0.00599692
1.41286e-05
-0.000222372
-0.00599565
-2.18446e-05
-0.000257896
-0.00600537
1.88644e-06
-0.000227855
-0.00599824
1.1571e-05
-0.000228306
-0.00600595
-0.000260212
-0.00600835
-5.17152e-06
-0.000105343
-0.00732625
-1.0438e-05
-0.000102164
-0.00732606
-1.73038e-05
-0.000106406
-0.00732393
-9.85589e-06
-8.91403e-05
-0.00732492
-1.06537e-05
-0.000105612
-0.00732272
1.10584e-06
-0.000106303
-0.00732255
-9.23423e-05
-0.00732097
-7.50691e-06
0.000138775
-0.00771745
-7.11908e-06
0.000132459
-0.0077159
-9.2492e-06
0.000131127
-0.0077149
4.31046e-06
0.000128483
-0.00771205
5.42963e-06
0.00012524
-0.00771085
2.71598e-06
0.000124004
-0.00770634
0.000126799
-0.00770197
6.98434e-06
0.00023934
-0.00732029
7.60117e-06
0.000246774
-0.00731903
2.96183e-06
0.000248489
-0.00731976
-4.71937e-07
0.000250926
-0.0073196
-5.09229e-06
0.000265533
-0.00732166
-1.4791e-06
0.000272497
-0.00731855
0.000273591
-0.00731659
8.76593e-07
4.69905e-05
-0.00595987
4.54637e-07
5.46002e-05
-0.00596755
4.00441e-06
5.5979e-05
-0.00596536
1.71839e-05
5.57047e-05
-0.00596556
8.56118e-06
2.57389e-05
-0.00597686
4.36955e-06
1.4872e-05
-0.00598556
1.65857e-05
-0.00598954
-3.90005e-07
-0.0029316
8.42057e-06
-0.00292803
5.3044e-06
-0.00292464
-1.04403e-05
-0.00291992
8.56417e-06
-0.00291
3.49783e-06
-0.00290001
-0.00289202
-5.06212e-06
6.33284e-05
-0.0039779
-8.18178e-06
6.20968e-05
-0.00397688
-2.99568e-06
6.10896e-05
-0.00398121
-5.8782e-06
6.44129e-05
-0.00397122
-3.95314e-06
6.8388e-05
-0.00397111
-6.38504e-06
7.45698e-05
-0.00397396
6.63703e-05
-0.00396858
-7.14041e-06
-0.000121583
-0.00781764
-6.41084e-06
-0.000115053
-0.00780892
-1.42481e-05
-0.000114061
-0.00779399
8.8028e-06
-0.000118943
-0.0078079
-1.93038e-05
-0.000129857
-0.00782161
-2.94911e-06
-0.000129523
-0.00780956
-0.000118389
-0.0077976
-4.03512e-06
-8.08608e-05
-0.00941826
-4.70756e-06
-8.15386e-05
-0.00942205
-1.59428e-05
-8.27148e-05
-0.00942114
-1.37651e-05
-8.54697e-05
-0.00942012
-4.48331e-06
-7.77673e-05
-0.00941728
1.33424e-05
-8.29851e-05
-0.00942101
-9.25475e-05
-0.00942293
-6.0202e-06
8.39389e-05
-0.00987362
-5.99194e-06
9.16857e-05
-0.0098758
-3.53963e-06
8.90579e-05
-0.00988089
5.78413e-06
8.57544e-05
-0.00988444
1.72602e-05
9.08523e-05
-0.00988606
8.91451e-06
0.000101787
-0.00989492
0.000114504
-0.00989646
1.4054e-05
0.000187667
-0.00941367
1.10841e-05
0.000176137
-0.00941612
4.6872e-06
0.000171959
-0.00941844
-4.77397e-06
0.000169378
-0.00942173
-2.05999e-07
0.000159197
-0.00941782
8.36142e-06
0.000147364
-0.00941052
0.000132069
-0.00941962
-2.14517e-05
-6.81877e-05
-0.00780221
2.60648e-06
-4.26659e-05
-0.00777669
4.67778e-06
-3.55161e-05
-0.0077732
-6.41338e-07
-2.86976e-05
-0.00776403
5.02369e-06
-3.40699e-05
-0.00776142
1.99955e-08
-4.53178e-05
-0.007762
-4.09171e-05
-0.00775966
8.23415e-06
-0.00395617
1.64827e-05
-0.00396561
1.52969e-05
-0.00396073
1.05433e-05
-0.00395402
2.72833e-05
-0.00395172
2.34963e-05
-0.00394129
-0.00393991
-1.28878e-05
0.000211674
-0.00507884
-1.56544e-05
0.000205184
-0.00505956
1.61292e-05
0.000226512
-0.00504301
1.3628e-06
0.000196674
-0.00506097
-2.38724e-05
0.000221185
-0.0050653
-4.49246e-06
0.000215079
-0.00505535
0.000205732
-0.0050397
-2.00247e-05
-0.000117385
-0.00937576
3.68674e-05
-9.7525e-05
-0.00930384
-4.60705e-05
-0.000114052
-0.00932576
3.16485e-06
-9.31195e-05
-0.00932808
-1.09635e-05
-9.09014e-05
-0.009335
1.3964e-05
-0.000111876
-0.00936392
-0.000100056
-0.00933706
8.35509e-07
-7.4859e-05
-0.0112559
-6.49967e-06
-7.64715e-05
-0.0112885
-1.83825e-05
-6.46061e-05
-0.0112945
-4.9417e-06
-7.87178e-05
-0.0112937
-2.44487e-05
-9.2056e-05
-0.0112923
2.77129e-05
-9.27445e-05
-0.011265
-8.88596e-05
-0.0112831
-7.06394e-06
0.000102253
-0.0118803
-1.88075e-05
0.00010799
-0.0119065
-1.44006e-05
8.95686e-05
-0.0119124
7.19338e-06
5.90638e-05
-0.0119068
-4.58635e-06
7.5379e-05
-0.0119063
5.71836e-06
6.64931e-05
-0.0118822
6.05064e-05
-0.0118766
9.19006e-06
0.000110893
-0.0113122
1.72845e-05
0.000137895
-0.0112962
-7.78503e-06
0.000123786
-0.0113168
-1.74391e-06
0.000131243
-0.0113185
1.03626e-05
0.000135365
-0.0112928
4.44201e-06
0.000112792
-0.0113021
0.00010967
-0.0113153
-1.43808e-05
-0.000219405
-0.00933284
2.81393e-05
-0.000204441
-0.00928993
2.12966e-05
-0.000197817
-0.00929013
-9.79452e-06
-0.000189839
-0.00928907
1.08399e-05
-0.000191381
-0.00928898
1.20408e-05
-0.000191179
-0.00929393
-0.000191966
-0.00931493
-3.98009e-06
-0.00503842
3.5687e-05
-0.00504149
2.70683e-05
-0.00505843
2.06414e-05
-0.00505822
3.65785e-05
-0.00504552
2.99858e-05
-0.00501983
-0.00501141
3.79605e-05
-0.000160233
-0.00529203
4.28267e-07
-0.000134878
-0.00525651
8.15183e-06
-0.000159368
-0.00527909
-9.51711e-06
-0.000152373
-0.00534101
-3.69241e-06
-0.000166309
-0.00529411
1.45898e-05
-0.000145018
-0.00529795
-0.000189199
-0.00526304
7.24924e-05
-0.000288283
-0.010552
2.21055e-05
-0.000238784
-0.01055
-1.61579e-05
-0.000267133
-0.0105821
-5.85874e-05
-0.000292999
-0.0106345
-1.91207e-05
-0.000265335
-0.010561
3.35919e-06
-0.000298896
-0.0106211
-0.000276696
-0.010497
-5.00767e-05
-0.000119324
-0.0129359
-3.35349e-05
-6.28837e-05
-0.0129951
3.40196e-06
-5.10319e-05
-0.0129861
-4.5931e-06
-8.76464e-05
-0.012974
9.18746e-06
-8.84815e-05
-0.012989
3.11973e-06
-0.00012915
-0.0129537
-0.000100735
-0.0129535
-6.64725e-06
7.24935e-05
-0.0136856
-4.46571e-05
8.1244e-05
-0.0136712
-2.88457e-05
5.97167e-05
-0.0137015
2.98686e-05
4.7175e-05
-0.0137436
3.69131e-05
7.83367e-05
-0.0137235
5.64306e-06
3.53398e-05
-0.0136786
4.22863e-05
-0.0136382
2.19103e-05
0.000230853
-0.012992
-3.33997e-06
0.000283233
-0.0130431
1.97314e-05
0.000264143
-0.0130426
2.88748e-05
0.00026259
-0.0130381
-3.3352e-06
0.000311466
-0.0130643
2.5503e-06
0.000271551
-0.0129984
0.000265174
-0.0130138
3.39981e-05
0.00016836
-0.0105336
2.95147e-05
0.000145357
-0.0105501
2.38603e-05
0.000114822
-0.0105599
6.09979e-06
0.000123955
-0.0105438
-2.3435e-05
0.000145446
-0.0106037
-4.60355e-05
0.000147723
-0.0105231
0.000168571
-0.0105402
-1.18245e-05
-0.00526134
-1.75978e-05
-0.00525909
2.22471e-05
-0.00524658
4.50005e-05
-0.00524631
0.000119135
-0.00525515
9.65308e-06
-0.00533177
-0.00530026
6.99735e-05
-0.000850268
-0.00465401
-5.62917e-05
-0.000834734
-0.00469342
-9.48768e-05
-0.000798915
-0.00453056
4.54821e-05
-0.000782446
-0.00466202
3.48105e-05
-0.000850831
-0.00456587
5.62828e-05
-0.000825585
-0.00468033
-0.00085286
-0.00453454
0.00011119
-0.00133909
-0.0115809
-2.13341e-05
-0.00132428
-0.0114664
-0.000101032
-0.0013389
-0.0115229
-4.04608e-05
-0.00134415
-0.0116511
8.75634e-06
-0.00132117
-0.0115006
7.25003e-05
-0.00132638
-0.0116094
-0.00127556
-0.0114274
-0.000134527
-0.000520991
-0.0149919
-9.86825e-05
-0.000431141
-0.0151082
1.27928e-05
-0.000448555
-0.0152067
3.13623e-05
-0.000541436
-0.0149881
9.46725e-05
-0.000506758
-0.015125
6.83826e-05
-0.000523447
-0.0149993
-0.000514716
-0.015026
-0.000106886
0.000526003
-0.0159857
-8.60022e-05
0.000412844
-0.0157897
-6.11377e-06
0.000445239
-0.0159777
6.09654e-05
0.000523096
-0.0161528
0.00012918
0.000511362
-0.0160353
0.000102559
0.000505813
-0.0159364
0.000556198
-0.0159308
-6.86388e-05
0.00126073
-0.0150257
-4.60076e-05
0.00134603
-0.0152499
-1.38519e-05
0.0013005
-0.0152788
-8.98913e-07
0.00129521
-0.0151067
7.2033e-05
0.00132526
-0.0152097
4.89563e-05
0.00132615
-0.0150651
0.00124917
-0.0149555
-2.84559e-05
0.000786497
-0.0115578
6.17928e-06
0.000816412
-0.0115679
2.5911e-05
0.000804277
-0.0115097
-6.32563e-05
0.00079459
-0.011562
1.47986e-05
0.000816086
-0.0116629
-4.73148e-05
0.000722843
-0.0115535
0.000777855
-0.0115761
2.1401e-06
-0.0045881
-4.54654e-07
-0.00460203
1.08466e-05
-0.00460324
8.25882e-06
-0.0045669
2.94024e-05
-0.00458011
5.86259e-05
-0.00462457
-0.00469034
0.000150654
0.00147854
-0.00593306
0.00387264
-7.8192e-05
0.00210881
-0.00597449
0.00370908
-9.22158e-05
0.00207373
-0.00609705
0.00368624
0.000100448
0.00180581
-0.00613116
0.00383895
-1.50764e-05
0.00203504
-0.00608985
0.00372457
-8.17755e-05
0.00180232
-0.00592909
0.0038219
0.00172077
-0.00595631
0.00370693
-5.49985e-05
0.000978899
-0.0130047
0.0122832
-0.000169072
0.00191958
-0.0134153
0.0122189
-0.000108519
0.00190038
-0.0135493
0.0122516
8.11566e-05
0.00132348
-0.0135578
0.0123994
9.18822e-05
0.00182753
-0.0135067
0.0122539
6.55215e-05
0.00139926
-0.0132839
0.012271
0.00159617
-0.0130627
0.0120474
-0.000384115
0.000227626
-0.016413
0.0166118
-0.000177692
0.000690944
-0.0165544
0.0165192
7.25384e-05
0.00070059
-0.016728
0.0165766
5.96857e-05
0.000493977
-0.0168586
0.0166836
0.00022018
0.000748224
-0.0168394
0.0167024
0.000118867
0.000430912
-0.0166638
0.0166234
0.000491318
-0.0163609
0.0165947
-0.000299827
-0.000669081
-0.0170135
0.0177171
-0.000136344
-0.000722697
-0.0173521
0.0177738
-9.93676e-05
-0.000870209
-0.0174861
0.0179479
9.18744e-05
-0.000923527
-0.0174446
0.0179673
0.000181764
-0.000811624
-0.0174581
0.0179069
0.000224577
-0.000823662
-0.017309
0.0178522
-0.000552753
-0.0170023
0.0177997
-0.000191122
-0.0015467
-0.0163373
0.0165072
-0.000245904
-0.00188372
-0.0165494
0.0166162
-0.000145868
-0.00194548
-0.0166918
0.016574
0.000155637
-0.00197622
-0.0167409
0.0165219
0.000137357
-0.00185983
-0.016708
0.0166225
0.000218353
-0.00197312
-0.016544
0.0164886
-0.00150101
-0.0162402
0.0164044
-0.00014113
-0.00176728
-0.0131279
0.0121683
-0.000193592
-0.00206609
-0.0133395
0.0122435
-8.63462e-05
-0.00207215
-0.0135715
0.0122296
7.48295e-05
-0.00208627
-0.0136331
0.0122422
0.000139189
-0.00205216
-0.0135319
0.0123383
8.53555e-05
-0.00209026
-0.0133601
0.0121577
-0.00175622
-0.0131235
0.012259
7.92081e-05
-0.00599367
0.00381472
-5.28275e-05
-0.00598915
0.00371697
-2.00325e-05
-0.00612552
0.00374301
7.10829e-05
-0.00620716
0.00375244
5.45284e-05
-0.00614787
0.00378602
-4.43862e-05
-0.00600937
0.00372926
-0.00603891
0.00384415
9.85263e-05
0.000273538
-0.00651947
-0.000238989
0.0013539
-0.00718812
-0.000146514
0.00133062
-0.00766595
0.000131812
0.00134502
-0.0079183
0.000227814
0.0013254
-0.0076735
-6.25507e-05
0.00133397
-0.00721021
0.000303826
-0.00652869
-0.000476118
0.000240973
-0.0133758
-0.000495405
0.00122203
-0.0144559
-0.000252453
0.00125815
-0.0149257
0.000207895
0.00129851
-0.0150803
0.000496155
0.00129783
-0.0148992
0.000523338
0.0012667
-0.0143685
0.000258789
-0.0133683
-0.000742265
5.84527e-05
-0.0161622
-0.000525377
0.000437645
-0.0167229
-0.000149789
0.000491825
-0.017096
0.000203932
0.000438096
-0.0171154
0.000531974
0.00044707
-0.0171097
0.000704343
0.000424275
-0.0167779
7.43803e-05
-0.0161637
-0.000729438
-9.62277e-05
-0.0167489
-0.000511599
-0.000502418
-0.0172789
-0.00015499
-0.000549292
-0.0174915
0.000197163
-0.000543603
-0.0175196
0.000507684
-0.000536617
-0.01751
0.000742285
-0.000521127
-0.0172859
-0.000121768
-0.0167416
-0.000716876
-0.000218694
-0.0161698
-0.00052085
-0.001206
-0.0167931
-0.000177173
-0.00123873
-0.0170955
0.000192506
-0.00125034
-0.017175
0.00052192
-0.00124948
-0.0171175
0.000692137
-0.00121383
-0.0168009
-0.00020237
-0.0161229
-0.000513605
-0.000295648
-0.0134215
-0.000510772
-0.00133632
-0.0143654
-0.000238026
-0.00133743
-0.014916
0.000172823
-0.00134237
-0.015004
0.000505652
-0.00131432
-0.0149056
0.000493185
-0.00132346
-0.0143484
-0.000296479
-0.013434
5.83347e-05
-0.00655627
-0.000237141
-0.00722101
-0.000135442
-0.00769427
0.000132585
-0.00793004
0.000242824
-0.00771021
-4.37553e-05
-0.00722971
-0.00656172
-0.000485349
0.000271838
-0.00635516
-0.000842345
0.0015893
-0.00846669
-0.000378452
0.00163057
-0.0097095
0.000379144
0.00165115
-0.0102962
0.000842792
0.00161844
-0.00971262
0.000486406
0.00157077
-0.00848991
0.00026622
-0.00637181
-0.00132541
0.000132702
-0.0127608
-0.00126413
0.00161198
-0.0155476
-0.000440273
0.00174086
-0.016893
0.000469808
0.00172429
-0.0170697
0.00127443
0.00171664
-0.0168704
0.00130092
0.00158777
-0.0154668
0.00011708
-0.0127765
-0.00138695
5.34314e-05
-0.0152355
-0.00101452
0.000626988
-0.0167447
-0.000334402
0.000672519
-0.0174132
0.000352319
0.000672172
-0.0173836
0.00101876
0.000681897
-0.0174356
0.00139655
0.000646488
-0.0168238
4.31211e-05
-0.0152677
-0.00137462
-3.31216e-05
-0.0157735
-0.000913725
-0.000649018
-0.0169143
-0.000282735
-0.000694232
-0.0172422
0.000299083
-0.000694009
-0.0172658
0.000926477
-0.00069903
-0.0172631
0.00141467
-0.000659636
-0.0169393
-2.22059e-05
-0.0157886
-0.00139145
-0.000123566
-0.0152477
-0.00101994
-0.0015815
-0.0168419
-0.00032319
-0.00172209
-0.0174023
0.000333245
-0.00170965
-0.0174522
0.00102348
-0.00171406
-0.0174453
0.00138071
-0.00158704
-0.0168386
-0.000133557
-0.0152049
-0.00132072
-0.000263317
-0.0127924
-0.00127623
-0.0015645
-0.0154377
-0.000475738
-0.00161537
-0.0169057
0.000455387
-0.00163777
-0.0169825
0.00125112
-0.00160858
-0.0168392
0.00129857
-0.00155831
-0.0154284
-0.000275153
-0.012826
-0.000503234
-0.00637474
-0.000836693
-0.00848147
-0.000388308
-0.00971627
0.000375942
-0.0102942
0.000837134
-0.00971692
0.000512928
-0.00848241
-0.00638138
-0.0018104
0.000860274
-0.00539962
-0.00191199
0.00181643
-0.00989002
-0.00080887
0.00189365
-0.0122983
0.000822836
0.00185681
-0.0135326
0.00191397
0.00188655
-0.0123074
0.00180503
0.00180221
-0.00987446
0.000862586
-0.00541874
-0.00291963
0.000775938
-0.0105327
-0.00262657
0.00197748
-0.0167273
-0.000803385
0.00225696
-0.0197993
0.000835004
0.00217819
-0.019851
0.00259191
0.00224045
-0.0197404
0.00288912
0.00197997
-0.0166619
0.000767543
-0.0105627
-0.00226938
0.000341729
-0.0129254
-0.0017348
0.0008121
-0.0165672
-0.000590454
0.000862988
-0.0177499
0.000555469
0.000870011
-0.0176984
0.0017409
0.00086546
-0.0178222
0.00227585
0.000806588
-0.0166425
0.000315936
-0.0129673
-0.00190609
-0.000300402
-0.0135881
-0.00134564
-0.00080055
-0.0161845
-0.000423672
-0.000861156
-0.0167751
0.000414248
-0.00086886
-0.0167256
0.00134987
-0.000894095
-0.0167893
0.00193919
-0.000828672
-0.0162025
-0.000281292
-0.0135975
-0.00226758
-0.00077162
-0.0129497
-0.00174237
-0.00196151
-0.0166596
-0.000530415
-0.00223492
-0.0177773
0.00054264
-0.00218323
-0.0176886
0.00172381
-0.00221888
-0.0178125
0.00225704
-0.00192809
-0.0166488
-0.000776834
-0.0128678
-0.00288551
-0.000847432
-0.0105606
-0.00258647
-0.00178243
-0.0166177
-0.00084353
-0.00188746
-0.0197406
0.00086349
-0.00184547
-0.0198286
0.00259071
-0.00187951
-0.019672
0.00283817
-0.00178902
-0.016586
-0.000888837
-0.0105981
-0.00179504
-0.00540164
-0.00187708
-0.00987745
-0.00081279
-0.0122981
0.000804057
-0.0135132
0.00189202
-0.0122959
0.00180282
-0.00988265
-0.00542144
-0.00298396
0.000489577
-0.00262472
-0.00333174
0.00155513
-0.0102411
-0.0014909
0.00127171
-0.0144688
0.00152985
0.000531072
-0.0165829
0.00331295
0.00124779
-0.0144907
0.00294623
0.00151039
-0.0101903
0.000487891
-0.00266583
-0.00508352
0.000475241
-0.00570089
-0.00499602
0.00138978
-0.016767
-0.00179737
0.00158335
-0.023481
0.00178109
0.00132773
-0.0249369
0.00494871
0.00159387
-0.0234357
0.00509961
0.00141597
-0.0167186
0.000478283
-0.0057638
-0.00396968
0.000303679
-0.00889232
-0.00371615
0.000477955
-0.0161554
-0.00133176