/*--------------------------------*- C++ -*----------------------------------*\
  =========                 |
  \\      /  F ield         | OpenFOAM: The Open Source CFD Toolbox
   \\    /   O peration     | Website:  https://openfoam.org
    \\  /    A nd           | Version:  6
     \\/     M anipulation  |
\*---------------------------------------------------------------------------*/
FoamFile
{
    version     2.0;
    format      ascii;
    class       volScalarField;
    location    "0.0025";
    object      T;
}
// * * * * * * * * * * * * * * * * * * * * * * * * * * * * * * * * * * * * * //

dimensions      [0 0 0 1 0 0 0];

internalField   nonuniform List<scalar> 
3773
(
216.735
216.194
216.26
216.299
216.247
216.225
216.721
277.538
277.282
277.223
277.203
277.196
277.302
277.64
312.237
312.489
312.495
312.494
312.489
312.478
312.31
322.104
322.172
322.201
322.203
322.198
322.195
322.113
312.327
312.367
312.56
312.554
312.541
312.528
312.355
277.79
277.453
277.439
277.414
277.396
277.448
277.759
216.697
216.393
216.359
216.39
216.362
216.287
216.76
211.161
210.439
210.14
210.074
210.322
210.568
210.234
271.531
275.012
275.163
275.082
274.9
275.361
272.63
313.783
311.956
311.776
311.873
312.197
311.776
313.784
324.499
324.547
324.538
324.57
324.583
324.479
325.032
314.105
313.861
312.378
312.313
312.179
312.154
314.093
271.974
271.688
274.705
274.831
274.892
275.262
272.251
210.627
210.88
210.172
210.187
210.113
210.424
210.246
209.879
210.252
209.375
209.442
209.917
210.713
209.837
269.741
272.822
270.977
270.512
270.518
273.205
270.242
314.039
312.21
314.181
314.214
313.998
311.726
314.038
325.181
324.473
324.824
325.205
325.272
324.553
325.176
314.04
311.712
313.004
313.877
314.101
312.999
314.033
269.982
273.115
272.356
270.613
271.073
272.076
270.215
209.732
210.622
209.447
209.215
209.347
210.336
209.779
209.717
210.967
210.48
210.555
210.332
210.588
209.779
269.792
274.359
273.627
273.343
271.423
273.666
269.975
314.064
311.124
311.959
312.158
313.401
310.91
314.007
325.189
324.406
324.73
325
324.884
324.744
325.155
314.077
310.627
313.28
314.4
313.468
310.824
314.011
269.87
274.235
271.673
270.199
271.921
274.003
269.956
209.674
210.681
210.38
209.105
210.121
210.588
209.728
209.74
210.395
210.22
209.777
210.133
210.373
209.698
269.9
274.325
274.277
274.551
274.476
274.015
269.971
314.12
311.586
311.223
311.914
311.476
310.522
314.066
325.202
324.278
324.706
324.569
324.513
324.796
325.174
314.112
311.121
311.624
312.79
312.89
310.872
314.07
269.981
274.264
274.018
272.581
272.815
273.765
269.999
209.736
210.417
210.267
209.594
209.802
210.452
209.688
209.777
210.46
208.669
210.53
210.623
210.354
209.736
270.207
274.621
275.587
274.31
274.485
274.402
270.239
314.232
311.259
311.428
310.881
310.85
310.649
314.163
325.23
324.303
324.322
324.519
324.246
324.815
325.206
314.217
311.71
311.134
311.432
311.086
312.078
314.169
270.314
275.526
274.652
275.645
274.526
272.984
270.249
209.774
208.896
210.343
208.696
210.885
210.389
209.731
210.47
208.424
210.256
210.246
210.252
210.385
210.461
274.038
275.252
274.22
273.904
273.928
274.186
274.039
311.507
311.996
311.022
311.395
310.91
311.371
310.996
325.332
325.993
325.782
325.796
326.1
325.324
326.147
311.502
314.901
311.431
311.006
315.529
311.461
310.983
274.072
269.191
274.033
274.22
270.499
274.182
274.061
210.55
209.943
210.316
210.304
208.175
210.448
210.515
219.911
219.835
219.846
219.858
219.861
219.868
219.894
285.099
285.052
285.07
285.076
285.059
285.012
285.071
328.313
328.287
328.28
328.272
328.293
328.29
328.242
340.127
340.129
340.127
340.129
340.124
340.123
340.117
328.338
328.342
328.311
328.295
328.281
328.283
328.295
285.008
285.016
285.086
285.1
285.115
285.13
285.153
219.869
219.913
219.91
219.894
219.882
219.874
219.922
220.861
220.783
220.791
220.819
220.759
220.933
220.874
287.117
286.953
287.11
287.37
287.032
286.766
287.468
326.689
326.755
326.665
326.399
326.743
326.746
326.301
340.096
340.094
340.063
340.096
340.039
340.053
340.071
327.317
326.921
326.657
326.536
326.454
326.47
326.405
286.671
286.698
287.072
287.307
287.471
287.499
287.632
220.124
220.904
220.903
220.847
220.836
220.79
220.869
220.127
220.035
219.97
220.27
219.836
220.589
220.217
284.892
284.774
285.032
286.787
285.389
284.249
286.852
329.138
329.203
329.119
327.492
329.005
329.194
327.401
340.766
340.655
340.66
340.841
340.646
340.754
340.973
327.803
327.101
327.183
327.043
327.343
327.886
327.672
286.519
287.536
287.417
287.842
287.328
286.63
286.802
220.386
220.492
220.379
220.117
220.259
220.072
220.317
221.446
221.452
221.455
221.097
221.127
221.054
221.123
285.779
285.49
286.014
285.715
285.899
284.9
286.051
328.94
329.097
328.798
329.351
329.182
329.929
328.981
341.813
341.617
341.572
341.653
341.548
341.712
341.807
327.697
327.461
327.338
327.357
328.015
329.349
329.301
287.775
288.378
288.496
288.773
287.498
285.557
285.312
220.972
221.113
220.929
220.655
221.113
221.122
221.21
223.28
223.567
223.752
223.057
222.596
223.872
223.544
288.587
288.747
289.573
289.743
287.399
288.326
289.862
329.059
328.751
328.16
329.204
329.971
329.972
327.969
342.924
343.126
343.064
343.097
342.93
343.158
343.206
330.42
328.81
328.67
328.584
328.91
328.83
328.139
286.866
290.272
289.325
290.175
289.783
289.352
289.867
223.9
223.544
222.596
222.354
223.07
223.25
222.91
231.365
229.059
231.823
228.948
229.366
230.702
230.248
294.628
296.274
295.112
295.976
297.039
292.979
296.958
333.731
331.705
332.046
331.908
331.398
333.776
331.449
345.636
345.156
345.32
344.9
345.317
345.309
345.872
332.029
331.107
331.71
331.655
331.744
332.594
332.098
295.098
295.955
296.226
296.818
296.135
294.927
298.498
231.052
231.647
231.962
230.699
232.248
227.538
228.634
243.755
245.018
245.899
244.436
246.873
243.467
243.708
307.076
302.887
301.478
303.275
303.757
303.046
304.245
334.908
335.535
336.199
336.24
334.169
336.9
334.161
347.019
346.684
346.91
346.889
346.769
346.588
346.961
335.425
334.213
334.865
335.757
334.473
335.781
335.907
301.144
303.415
302.401
301.947
302.677
305.323
304.678
246.232
245.366
245.571
245.104
246.792
239.947
239.051
225.677
225.783
225.698
226.2
226.03
226.007
225.82
288.762
280.362
282.719
284.959
285.291
285.848
288.051
329.934
333.812
331.974
332.092
330.262
331.223
328.779
347.235
346.839
347.086
347.224
347.229
346.566
346.726
328.598
329.022
329.014
328.957
328.809
329.233
332.299
287.665
287.143
286.782
286.982
287.057
286.497
283.89
226.494
226.292
226.578
226.543
226.519
226.422
225.991
226.627
226.658
226.616
227.578
227.247
227.199
226.145
291.815
283.508
286.377
284.973
286.048
286.418
291.96
331.368
334.671
332.556
334.162
332.656
332.502
331.18
347.79
347.903
347.965
348.391
347.81
347.396
348.1
331.662
330.751
331.257
331.091
330.115
330.551
333
291.11
288.913
288.141
289.42
289.136
289.352
290.403
227.052
227.601
227.692
227.82
227.682
227.652
226.568
227.329
228.439
228.652
229.326
229.001
228.503
226.704
292.179
282.697
283.437
285.845
285.97
286.826
292.461
331.737
333.925
332.727
333.564
330.819
330.864
331.607
347.816
347.815
347.849
348.133
347.345
347.124
347.949
332.23
330.579
331.363
331.31
329.678
330.102
334.139
291.155
287.251
285.376
288.788
287.383
288.181
289.728
227.422
229.421
229.469
229.561
229.455
229.505
227.572
228.668
232.535
232.589
232.026
232.594
231.926
227.628
290.869
283.053
282.661
286.715
283.685
285.29
291.177
331.14
333.294
331.166
332.898
330.013
331.333
330.934
347.158
347.368
347.329
347.46
346.568
346.766
347.079
331.887
330.681
331.49
331.853
329.123
330.356
333.948
289.646
286.3
282.409
288.04
285.487
287.261
287.368
229.166
233.624
233.078
232.135
233.038
233.733
228.928
232.638
240.891
239.5
235.17
238.892
242.725
232.849
291.513
287.427
282.836
287.848
283.415
287.596
291.831
331.743
333.418
331.255
332.295
329.845
333.285
331.142
346.509
347.038
346.489
346.929
345.967
346.664
346.546
331.906
332.011
329.642
333.172
329.38
331.265
333.605
290.434
288.885
284.401
287.376
285.207
290.402
288.77
232.507
242.114
239.534
235.055
239.312
242.124
232.745
242.179
255.823
251.303
240.096
249.712
254.098
239.451
297.16
295.675
284.775
282.233
284.229
295.882
297.968
333.515
333.502
329.005
331.115
328.426
333.56
333.245
346.362
346.501
345.408
345.636
344.663
346.099
346.362
334.022
333.56
328.478
331.231
328.468
332.651
334.549
296.301
295.143
285.043
282.648
285.589
296.953
295.688
241.348
256.997
251.211
239.512
249.88
256.747
241.468
281.142
280.506
270.85
254.46
271.776
279.384
273.695
309.907
305.614
288.725
275.7
288.284
306.512
312.71
330.66
330.9
327.048
325.166
326.945
331.181
331.159
344.183
344.562
343.678
343.196
342.956
344.338
344.277
333.041
331.169
326.945
325.507
326.872
330.56
330.956
308.516
304.475
289.475
276.079
289.348
306.15
310.238
277.931
280.687
275.6
254.333
272.04
280.376
278.416
259.626
243.638
258.242
258.864
258.266
253.832
259.655
300.683
296.375
296.122
298.223
299.131
299.154
297.832
333.863
336.475
335.161
335.815
332.888
335.124
332.495
347.593
346.885
347.163
347.261
347.168
346.715
347.058
332.067
333.192
332.575
334.06
332.171
333.732
335.967
298.453
297.956
298.64
296.256
298.819
296.99
296.941
258.516
254.423
255.297
257.896
258.91
249.823
252.218
254.491
240.47
251.471
253.062
255.341
246.708
250.697
297.369
293.024
293.735
295.729
297.115
296.411
296.106
333.386
336.108
334.461
335.682
332.501
334.246
331.409
347.548
346.878
347.135
347.224
347.16
346.666
346.999
331.592
332.628
331.839
333.249
331.583
332.837
335.325
296.326
294.186
295.061
294.55
296.296
295.018
294.131
253.015
247.318
251.17
252.256
250.075
243.592
246.091
249.021
236.794
244.623
249.129
249.016
243.501
247.385
296.2
288.817
291.717
292.774
294.256
294.093
294.055
332.169
335.722
334.106
335.066
332.127
333.768
331.059
347.491
346.817
347.085
347.167
347.111
346.593
346.925
331.045
331.537
330.934
332.217
331.045
332.103
334.587
294.141
293.268
293.964
292.48
294.694
292.752
291.542
247.486
245.19
246.811
245.651
245.957
241.153
243.935
242.358
234.304
239.217
242.993
238.894
239.414
237.314
294.166
287.248
289.588
291.269
290.865
292.532
292.599
331.764
335.031
333.633
334.165
331.418
333.473
330.253
347.447
346.741
347.032
347.121
347.063
346.526
346.867
330.472
330.933
330.614
331.645
330.591
331.353
334.1
292.192
291.844
291.658
290.286
292.367
291.657
289.368
241.414
238.22
239.914
240.978
240.576
238.138
236.117
234.703
233.501
236.594
236.178
234.684
234.026
234.233
292.924
283.821
286.321
289.779
289.419
290.325
290.277
331.287
334.87
333.01
333.178
331.107
332.878
330.042
347.428
346.708
346.96
347.094
347.041
346.481
346.844
329.726
330.452
330.462
330.327
330.258
330.561
333.695
290.863
290.51
289.438
289.067
290.719
289.984
287.468
234.06
235.772
233.901
236.095
236.006
231.756
233.978
232.295
230.066
228.201
230.397
230.134
230.824
231.448
291.263
282.411
284.773
287.695
288.27
288.954
289.611
330.573
334.359
332.728
332.729
330.918
332.172
329.625
347.423
346.677
346.917
347.068
347.026
346.469
346.852
329.315
329.862
330.032
329.839
329.685
330.342
333.115
289.439
289.339
288.586
288.411
289.112
288.202
285.061
231.824
228.11
231.708
231.661
231.875
229.924
230.882
226.945
225.841
225.777
227.712
226.259
227.474
225.829
289.905
281.577
283.731
286.373
286.765
287.059
288.479
330.357
334.148
332.447
332.472
330.623
331.788
329.255
347.393
346.72
346.935
347.073
347.084
346.507
346.842
328.91
329.569
329.601
329.579
329.35
329.87
332.761
288.185
287.83
287.351
287.373
287.965
286.947
284.449
226.468
226.253
226.507
226.452
226.546
226.275
225.935
304.697
308.567
301.049
275.548
302.249
309.187
304.526
293.906
298.715
296.023
278.4
296.513
298.012
292.673
312.868
321.767
322.895
317.425
322.678
322.1
313.737
337.788
341.357
341.734
340.183
341.078
341.068
337.849
313.478
321.917
322.9
318.398
322.869
322.114
313.357
294.011
298.765
297.528
278.916
296.748
299.388
294.174
305.822
310.095
303.454
274.651
300.443
308.325
304.56
326.672
326.967
309.834
276
312.123
328.009
327.111
309.446
307.466
297.789
276.338
299.089
307.957
310.096
314.583
321.39
320.568
313.911
320.221
321.465
315.659
337.958
340.987
340.804
338.711
339.988
340.496
338
315.124
321.499
320.596
315.268
320.877
322.117
315.95
311.299
307.623
300.45
276.606
298.539
308.528
310.507
327.105
328.215
313.959
273.832
308.788
325.205
324.482
331.442
331.608
310.878
272.269
316.776
333.439
331.214
310.757
307.635
296.994
275.209
297.524
308.534
310.726
315.958
322.296
320.501
314.203
319.698
322.072
317.558
338.127
340.67
340.413
338.742
339.841
340.358
337.949
317.096
321.734
320.175
314.949
320.579
322.797
318.057
311.635
308.389
299.623
275.443
298.032
309.051
312.228
331.392
332.948
312.386
276.206
311.138
332.33
331.925
325.527
327.186
303.638
264.156
308.267
327.401
326.09
305.922
304.289
292.436
270.692
292.06
304.772
305.642
319.308
322.847
320.35
314.071
319.615
322.819
319.796
338.506
340.924
340.457
338.466
339.858
340.657
338.254
319.325
322.501
319.825
315.502
320.451
323.409
320.71
306.053
304.057
294.164
270.366
292.905
305.455
307.354
325.84
325.321
309.68
263.373
303.41
326.739
325.164
314.368
310.282
287.661
256.789
286.345
313.446
312.87
303.335
298.278
284.676
266.295
282.736
299.319
303.03
321.686
323.707
320.72
314.711
320.534
323.538
322.41
339.449
341.518
340.582
338.314
340.021
341.232
339.299
322.053
323.133
320.335
316.013
320.875
324.271
323.08
303.295
298.777
285.094
265.958
284.24
299.735
304.447
316.581
314.447
288.637
251.712
284.781
314.849
315.779
306.37
292.803
261.042
244.915
260.757
288.987
304.469
300.107
289.388
276.689
262.741
276.475
287.479
299.317
326.121
325.365
323.373
316.421
323.852
326.029
326.906
341.561
342.337
340.79
337.849
340.123
341.998
341.331
326.794
325.629
322.253
316.221
322.331
325.839
327.601
298.258
289.99
276.534
266.81
277.169
289.307
299.634
303.796
298.362
257.026
244.029
259.256
294.556
304.531
265.38
250.562
241.229
239.305
242.136
248.687
265.76
285.738
285.583
277.198
262.798
276.246
280.645
287.419
329.083
325.539
324.633
318.768
326.102
328.715
326.832
342.135
342.709
340.642
336.247
339.547
342.253
342.243
329.765
329.573
319.344
311.594
319.543
325.345
329.336
284.157
280.25
283.565
278.327
285.065
285.275
285.423
260.891
251.918
241.558
239.268
243.029
248.71
262.701
309.507
311.181
313.008
320.359
323.963
333.976
349.161
294.698
299.101
304.276
313.75
317.106
323.871
333.635
302.37
298.328
295.56
294.653
295.43
297.33
299.771
332.713
329.985
326.555
323.019
315.985
312.583
308.855
302.912
299.465
297.15
296.105
296.771
297.895
300.063
295.812
299.87
304.425
316.082
322.577
326.679
336.924
309.563
311.819
314.32
317.967
324.359
333.94
349.315
327.864
327.088
327.517
331.058
334.575
339.109
347.368
317.811
322.216
325.912
331.899
333.805
337.066
346.739
307.418
305.002
303.977
304.148
307.085
309.243
313.231
333.912
331.686
329.188
324.313
318.325
316.228
312.297
308.193
306.098
305.41
306.089
308.709
310.69
314.637
317.666
322.3
326.475
332.522
334.542
337.65
347.264
326.497
326.236
326.299
329.438
331.135
337.041
351.549
330.291
326.989
325.759
325.354
327.45
333.727
336.122
316.802
318.431
323.362
324.817
327.006
329.717
336.876
309.545
308.169
307.232
307.317
309.477
311.127
315.038
334
331.844
330.323
324.38
320.08
318.339
314.967
310.638
309.584
308.665
308.717
310.859
312.578
316.602
317.738
318.942
321.327
325.035
326.628
329.714
337.323
330.842
327.279
325.77
324.916
325.677
328.872
339.968
322.443
320.405
317.321
316.141
318.47
321.981
330.476
308.743
310.024
312.478
312.607
315.845
317.28
325.932
312.398
309.78
307.405
307.162
308.122
309.311
313.001
333.637
331.174
330.389
324.756
321.058
319.665
316.727
312.804
310.885
309.167
308.443
309.343
310.613
314.372
310.487
311.002
312.972
314.939
316.389
318.547
326.711
320.09
316.955
314.299
311.739
313.311
323.214
328.502
307.018
300.923
292.08
288.813
291.564
299.518
315.713
304.616
305.436
307.333
307.575
310.227
313.771
320.607
315.316
312.495
309.395
307.932
307.753
308.237
309.654
334.354
331.494
330.825
327.403
324.513
321.734
318.998
316.316
313.643
310.954
308.548
308.26
308.661
310.094
305.756
305.904
307.967
308.809
310.479
314.195
320.749
309.286
305.608
299.303
296.771
300.486
308.467
320.813
297.458
287.914
284.6
276.111
273.965
281.223
309.97
303.25
304.68
307.852
307.281
307.078
308.368
314.655
322.869
320.052
318.037
315.607
314.165
310.63
307.784
338.547
335.909
334.919
333.161
330.431
327.286
323.292
324.168
321.088
318.479
315.729
314.317
310.814
308.174
304.175
305.197
307.941
307.539
307.279
308.356
314.835
300.857
290.847
286.643
276.097
270.156
273.788
312.651
268.385
267.402
264.471
263.365
263.868
265.701
295.219
291.788
292.365
292.963
294.064
298.147
301.4
311.829
327.935
325.348
325.557
326.654
326.533
319.614
311.068
339.466
337.862
337.079
338.147
337.253
333.853
327.757
328.339
326.408
326.028
326.974
326.872
319.478
310.931
291.358
292.676
292.858
295.362
298.37
301.503
311.91
266.911
265.996
263.334
262.804
263.71
267.977
295.283
348.682
332.286
326.344
315.581
312.82
311.18
309.592
329.315
323.113
316.772
310.499
304.858
299.998
295.852
301.034
297.933
296.395
294.963
295.827
298.227
301.936
307.252
313.123
317.839
322.262
326.365
329.948
332.703
300.295
296.811
295.894
295.019
296.069
298.661
302.474
333.494
324.799
321.166
311.436
305.269
300.155
295.922
346.333
335.231
329.135
317.798
313.956
311.861
310.211
349.387
334.707
329.759
326.865
325.405
325.578
326.257
346.583
336.447
333.314
331.34
325.532
321.365
316.685
312.886
308.767
306.693
303.63
303.013
303.933
306.329
311.276
315.633
317.879
323.642
328.721
331.229
333.556
313.212
309.376
307.424
304.528
304.231
305.09
307.354
347.065
337.578
334.134
332.131
326.147
322.367
318.133
352.683
337.742
333.13
328.951
325.912
325.997
327.122
340.12
332.907
329.832
326.818
326.793
327.54
330.737
336.363
328.528
325.73
324.277
320.826
318.275
316.926
315.253
310.678
308.977
306.577
306.49
307.294
308.35
314.309
318.028
319.893
324.519
330.427
331.889
334.07
314.788
311.366
309.539
307.222
307.134
308.045
309.511
338.586
330.58
327.39
325.734
321.858
319.298
317.859
337.595
335.181
328.805
326.044
326.141
327.051
330.182
327.354
318.548
313.242
311.731
314.58
317.307
320.398
327.051
318.512
316.344
314.039
311.493
309.63
309.05
312.726
309.131
307.75
306.678
307.368
308.905
310.599
316.205
319.733
321.3
325.495
330.973
331.619
333.949
312.974
309.183
307.949
307.004
307.594
309.333
311.806
326.824
317.763
315.656
313.404
312.761
309.572
308.716
332.52
324.199
320.699
317.734
319.479
321.326
323.982
321.417
308.603
299.664
298.654
300.644
305.868
310.674
319.762
312.87
310.194
307.377
306.941
305.014
304.617
309.369
307.906
307.372
307.576
309.956
312.135
314.565
319.828
321.374
325.27
327.868
331.423
332.11
334.898
309.436
307.964
307.433
307.608
309.488
312.38
315.003
320.715
314.178
309.307
307.874
307.486
305.449
304.801
315.793
299.868
291.314
292.302
298.549
303.489
307.476
303.859
273.61
273.382
273.006
286.349
291.86
299.246
315.887
308.823
306.906
307.064
307.42
304.45
303.262
307.408
310.238
313.704
315.841
317.776
320.366
323.445
324.196
328.01
331.276
333.861
335.474
336.519
338.99
307.398
310.016
313.617
315.114
317.43
319.912
322.994
314.508
308.435
307.167
307.129
307.662
304.509
303.291
309.38
281.646
269.516
272.994
285.982
290.145
299.311
295.179
266.105
264.162
262.412
263.855
266.405
267.796
311.577
301.08
297.856
293.954
292.893
292.212
290.829
310.343
319.172
326.635
326.732
325.435
325.403
327.881
328.785
334.397
337.539
338.447
337.59
338.345
340.159
310.038
319.56
326.717
326.855
325.88
325.742
328.034
311.658
301.22
298.689
293.25
292.144
291.82
290.536
295.176
265.747
264.181
263.184
264.801
264.769
265.888
356.821
355.938
360.134
361.719
363.093
359.927
353.352
338.391
339.099
344.467
341.401
343.898
339.64
335.192
307.702
300.641
301.926
305.929
303.145
304.212
303.123
301.165
300.304
300.749
301.75
302.784
303.567
305.378
303.707
303.366
301.298
300.841
304.223
301.817
301.956
347.288
335.082
338.797
340.018
339.459
339.798
335.703
364.412
356.483
355.693
357.984
362.16
359.669
354.15
374.52
373.082
373.116
370.749
368.949
366.503
356.387
364.221
363.653
362.973
361.867
359.739
356.177
350.295
319.345
317.008
318.837
319.658
318.442
316.631
314.328
307.257
306.411
307.295
308.022
308.499
309.219
310.207
318.744
316.243
317.719
318.978
318.304
316.931
314.714
362.249
362.417
361.465
361.253
359.92
356.568
350.205
376.656
374.808
373.2
373.111
370.642
366.916
358.626
368.798
368.342
369.147
363.318
355.613
352.374
347.83
361.852
360.892
359.888
356.005
351.291
345.163
338.501
326.441
325.167
324.732
323.808
321.777
318.811
316.816
310.356
309.687
310.381
311.159
311.077
311.83
313.095
330.556
323.942
323.769
323.473
321.716
319.534
316.787
357.866
359.933
359.324
357.586
352.922
346.789
341.224
371.651
368.334
367.954
364.041
357.154
353.093
345.471
364.537
361.841
354.694
347.847
348.285
344.374
339.157
354.436
352.715
349.698
344.218
341.257
338.24
332.459
324.848
323.657
323.325
321.708
319.086
316.952
314.295
311.913
311.728
312.19
312.285
312.672
313.916
315.19
324.396
322.686
322.517
321.77
319.213
317.084
314.555
352.844
353.111
350.45
346.52
341.979
337.521
332.782
357.95
363.227
356.608
345.428
347.378
345.213
340.639
350.209
349.672
345.361
342.121
333.08
335.921
333.714
346.068
344.794
340.963
338.063
332.824
329.786
324.576
322.778
321.667
320.611
318.31
316.946
314.45
312.029
313.35
312.781
313.011
313.727
314.378
314.966
316.454
326.736
321.653
319.627
318.738
317.153
314.672
311.903
343.639
344.626
343.036
338.649
334.458
331.687
325.278
351.309
349.91
349.901
336.9
331.525
334.479
332.089
343.681
345.766
341.294
335.31
328.801
329.863
326.327
339.185
338.059
335.372
332.593
329.003
327.2
322.869
316.4
315.013
313.679
312.264
311.451
309.553
308.127
314.064
313.992
314.624
314.768
315.709
317.293
320.531
317.071
315.891
314.377
312.793
311.933
310.157
308.294
340.133
337.936
335.54
332.154
329.226
326.492
322.952
345.97
342.72
337.565
326.417
328.016
325.938
325.25
338.458
337.816
334.625
332.212
325.004
321.7
319.723
336.041
334.936
332.447
330.526
326.947
324.588
321.642
318.466
317.307
315.211
309.792
308.607
308.268
307.136
315.249
315.366
315.73
316.075
315.607
318.157
322.323
323.023
319.887
317.52
310.985
309.184
308.574
307.265
335.61
334.834
332.591
329.98
327.381
324.636
321.653
337.263
338.19
334.283
325.94
326.585
322.191
318.727
330.095
329.73
328.107
325.049
320.471
317.774
314.268
328.632
327.644
326.614
325.029
323.307
322.675
320.474
314.131
312.721
310.523
306.92
305.267
305.79
305.76
312.966
312.382
312.064
312.263
312.086
313.274
315.5
315.494
313.548
311.332
308.105
305.339
305.958
305.944
329.159
328.047
326.901
325.032
323.603
322.751
320.457
331.249
330.39
328.846
324.263
323.867
319.034
315.399
292.715
292.336
293.416
291.84
291.803
291.331
291.456
316.316
316.02
315.685
315.976
316.249
315.727
316.481
308.129
306.663
305.649
304.565
304.409
305.373
304.109
305.763
307.391
306.988
307.375
308.472
309.151
310.988
306.173
306.6
305.284
304.115
303.886
305.196
304.089
316.793
316.464
316.149
316.436
316.486
316.014
316.747
292.959
292.988
294.567
292.322
292.593
291.633
291.874
281.588
281.471
281.941
281.765
281.967
282.466
282.507
308.987
309.238
309.122
309.205
309.323
309.024
309.24
301.669
302.847
303.075
303.058
303.58
304.072
303.365
304.309
302.704
302.463
302.561
303.172
303.51
307.952
302.667
301.8
301.909
301.706
302.364
303.577
302.848
309.008
309.157
309.198
309.324
309.332
309.128
309.361
281.738
281.862
282.134
281.925
282.25
282.617
282.814
278.19
278.138
278.211
278.62
278.505
278.683
278.728
304.981
304.891
304.894
304.819
304.907
304.808
305.157
301.368
302.776
302.932
302.808
302.974
303.224
303.11
301.525
302.426
302.293
302.296
302.644
302.813
302.047
302.187
301.596
301.649
301.675
302.044
302.926
302.74
304.89
304.832
304.897
304.806
304.865
304.868
305.191
278.258
278.429
278.238
278.641
278.83
278.75
279.03
276.505
276.406
276.416
276.722
276.471
276.768
276.595
303.234
303.218
303.207
303.107
303.101
303.039
303.246
300.144
300.993
300.947
300.575
300.368
300.325
300.307
300.083
301.611
301.68
301.489
301.331
301.112
300.76
300.255
300.123
300.106
300.269
300.46
300.341
300.376
303.246
303.156
303.206
303.129
303.049
303.075
303.307
276.579
276.76
276.472
276.772
276.806
276.815
276.911
277.258
277.215
277.219
277.477
277.254
277.504
277.303
303.217
303.21
303.204
303.123
303.189
303.126
303.205
303.126
303.45
303.397
303.123
303.029
303.023
302.676
298.463
300.199
300.287
300.041
299.829
299.544
296.059
302.91
302.968
302.999
303.08
303.23
303.028
302.887
303.212
303.134
303.204
303.135
303.123
303.138
303.146
277.275
277.475
277.216
277.488
277.508
277.52
277.57
292.749
292.777
292.775
292.155
292.768
292.163
292.751
305.102
305.103
305.095
304.976
305.086
304.981
305.095
302.365
302.469
302.436
302.303
302.269
302.303
301.928
288.073
289.36
289.335
289.149
289.025
288.861
287.644
302.058
302.285
302.372
302.308
302.411
302.267
302.059
305.09
304.979
305.086
304.972
304.971
304.975
304.982
292.754
292.161
292.774
292.162
292.162
292.162
292.159
353.713
359.193
362.64
360.612
360.125
354.091
345.721
336.755
339.204
343.601
341.646
339.343
336.956
330.9
300.133
302.73
300.798
301.998
305.19
299.265
305.387
305.688
303.855
302.734
302.186
301.532
300.616
301.285
300.864
302.094
302.914
303.087
302.507
300.491
303.635
339.662
343.663
345.808
344.29
341.667
336.255
340.466
353.656
360.205
363.338
361.362
357.62
353.109
355.242
357.784
364.683
369.973
372.992
374.419
374.285
370.139
350.505
355.956
359.754
362.014
362.891
362.706
358.996
314.539
316.836
318.312
319.477
318.84
316.663
316.571
311.287
310.303
309.65
309.229
308.495
307.306
308.479
316.216
318.428
319.977
320.848
319.804
318.211
325.73
350.62
356.188
359.467
361.049
361.357
361.784
357.782
356.615
366.063
368.973
371.115
372.402
374.068
374.547
346.584
356.6
357.228
362.093
368.505
369.004
368.889
339.318
346.219
351.872
357.065
359.314
360.032
358.339
316.286
319.114
321.852
323.964
324.046
323.452
322.852
313.866
313.086
312.564
312.393
311.89
311.347
312.18
317.944
321.028
323.481
325.395
325.733
325.619
325.989
339.358
344.863
350.777
355.419
359.528
360.738
359.915
348.59
351.84
354.893
359.868
366.161
368.601
369.506
337.754
342.335
346.549
355.235
356.907
360.256
365.074
331.266
335.729
340.657
345.966
350.033
352.327
350.734
314.465
317.123
319.371
321.33
323.815
325.503
329.519
315.891
314.631
313.775
313.601
313.521
313.259
313.571
315.679
318.292
320.6
321.835
323.689
324.558
324.257
332.478
337.636
340.269
345.013
349.907
351.732
354.915
341.202
345.598
344.978
353.647
358.747
358.469
364.933
330.809
336.037
336.128
339.813
347.631
350.287
353.204
325.227
331.607
334.871
338.255
342.546
345.818
347.067
312.038
314.525
317.127
319.306
321.175
323.924
327.692
316.71
315.435
314.834
314.243
314.131
313.918
314.396
312.651
315.262
317.658
319.488
320.621
321.146
321.348
325.447
331.219
333.753
337.366
341.364
344.819
344.385
331.335
337.683
336.891
338.858
346.379
353.007
350.244
326.116
330.301
331.914
333.561
343.292
345.813
348.146
323.036
327.129
329.493
333.462
336.087
338.581
342.788
308.487
310.107
311.564
313.061
313.884
315.839
317.813
319.882
316.964
315.673
314.938
314.627
314.224
314.446
308.984
310.716
312.205
313.51
314.373
316.705
318.896
323.255
327.191
330.49
333.494
336.596
339.039
337.841
326.93
326.785
330.765
333.553
342.055
343.883
344.339
318.859
322.006
325.102
331.548
335.829
337.28
338.375
321.592
324.585
327.39
331.389
333.083
335.311
336.404
307.618
308.551
309.216
311.194
316.099
318.919
320.571
321.321
317.486
315.255
315.629
315.263
314.966
314.951
308.062
309.426
309.997
311.06
315.654
318.017
318.215
321.906
324.976
327.026
330.9
332.668
334.702
335.129
319.196
322.534
325.1
331.353
335.379
337.994
338.709
315.353
318.275
321.948
327.4
327.826
329.273
329.347
320.773
322.859
323.709
325.866
327.131
328.577
329.442
306.719
306.352
305.574
307.593
310.947
313.273
314.717
316.81
312.712
311.386
311.379
311.299
311.656
312.557
306.34
306.609
306.158
307.747
311.339
313.659
316.191
320.487
322.932
323.59
325.545
326.922
327.963
327.85
314.413
318.146
321.203
328.009
328.606
330.018
330.468
292.16
291.762
292.854
292.455
294.813
292.6
294.057
316.783
316.182
316.636
316.431
316.105
316.469
316.9
304.734
305.869
304.854
305.347
306.388
306.792
307.769
307.046
308.873
307.93
306.994
306.32
306.53
304.811
305.005
305.539
304.816
305.225
306.602
307.738
307.019
316.349
315.858
316.213
316.009
315.767
316.155
316.572
291.517
291.207
291.956
291.835
293.673
292.537
292.708
282.949
282.597
282.214
282.171
282.42
282.012
282.09
309.206
309.185
309.413
309.298
309.118
309.186
309.085
303.428
303.787
303.287
302.775
303.029
302.828
303.812
305.306
302.893
302.446
301.689
301.566
301.675
303.079
302.14
302.943
302.665
302.395
302.285
301.971
302.846
309.273
309.203
309.25
309.245
309.131
309.19
309.102
282.561
282.323
282.178
281.631
281.983
281.571
281.645
278.975
278.483
278.637
278.604
278.476
278.432
278.509
305.08
304.893
304.898
304.821
304.829
304.877
304.959
303.035
302.718
302.398
302.248
302.551
302.604
302.744
301.726
302.056
301.788
301.192
301.269
301.333
299.868
302.072
302.013
301.932
301.951
301.753
301.49
301.933
305.07
304.927
304.794
304.859
304.861
304.879
304.903
278.725
278.457
278.754
278.413
278.22
278.122
278.164
276.914
276.536
276.529
276.787
276.77
276.759
276.845
303.307
303.173
303.153
303.172
303.188
303.207
303.349
300.213
299.831
299.808
299.964
300.282
300.562
299.819
300.043
300.121
300.196
300.029
300.389
300.462
299.067
300.386
299.725
299.849
300.012
299.916
299.806
299.752
303.301
303.145
303.004
303.151
303.195
303.193
303.235
276.585
276.454
276.775
276.459
276.418
276.406
276.487
277.631
277.303
277.292
277.529
277.497
277.48
277.534
303.177
303.239
303.226
303.166
303.164
303.16
303.179
302.592
302.743
302.716
302.738
302.919
303.075
302.517
298.291
298.583
298.69
298.664
298.939
299.081
295.35
303.026
302.793
302.846
302.901
302.89
302.805
302.723
303.183
303.203
303.09
303.173
303.184
303.196
303.221