/*--------------------------------*- C++ -*----------------------------------*\
  =========                 |
  \\      /  F ield         | OpenFOAM: The Open Source CFD Toolbox
   \\    /   O peration     | Website:  https://openfoam.org
    \\  /    A nd           | Version:  6
     \\/     M anipulation  |
\*---------------------------------------------------------------------------*/
FoamFile
{
    version     2.0;
    format      ascii;
    class       volVectorField;
    location    "0.0025";
    object      U;
}
// * * * * * * * * * * * * * * * * * * * * * * * * * * * * * * * * * * * * * //

dimensions      [0 1 -1 0 0 0 0];

internalField   nonuniform List<vector> 
3773
(
(22.9949 -0.100141 0.131887)
(22.9062 -0.023255 0.106278)
(22.9148 0.0299603 0.0839956)
(22.9201 0.00828449 0.0882362)
(22.9118 0.022299 0.0908564)
(22.9087 0.0510112 0.0915487)
(23.0042 0.0834102 0.122497)
(8.13119 0.0220543 0.0421183)
(8.11401 -0.0289457 0.0468634)
(8.11259 -0.0234126 0.0597278)
(8.11183 0.020491 0.0599773)
(8.11127 0.0212576 0.0615445)
(8.11493 0.0223378 0.0826413)
(8.13493 -0.00606903 0.0891415)
(3.39418 0.0396002 0.0314896)
(3.39252 -0.00844825 0.0401063)
(3.39293 -0.0293717 0.0517702)
(3.39305 0.0183909 0.0495681)
(3.39285 0.0313243 0.0513832)
(3.39244 0.0152418 0.0699678)
(3.39488 -0.0160044 0.0565652)
(4.66368e-05 0.00926662 0.0436548)
(4.06183e-05 0.0262908 0.0409761)
(3.55768e-05 0.0261797 0.0432468)
(4.12071e-07 -0.0102828 0.0425393)
(-0.000116662 -0.0399491 0.0402641)
(-0.000175935 -0.042767 0.0302751)
(-0.000190444 -0.0217523 0.0343134)
(-3.39537 0.0303135 0.0341845)
(-3.3932 -0.0170197 0.0401321)
(-3.39376 -0.0352044 0.0453117)
(-3.39385 0.0075724 0.0448085)
(-3.39352 0.0203699 0.0464549)
(-3.39313 0.0103007 0.0622421)
(-3.39559 -0.0140916 0.050842)
(-8.1398 0.0124923 0.0334403)
(-8.12182 -0.0401102 0.0452244)
(-8.12043 -0.0306432 0.0626111)
(-8.1192 0.0084054 0.0564296)
(-8.11823 0.013898 0.0586084)
(-8.11961 0.0243743 0.0790951)
(-8.13878 -0.00300122 0.089565)
(-22.997 -0.0715547 0.144334)
(-22.9247 -0.0258785 0.108674)
(-22.9297 0.000457326 0.107299)
(-22.9335 -0.0206627 0.113581)
(-22.9305 -0.0207349 0.103512)
(-22.9195 0.0205949 0.100499)
(-23.0094 0.0660687 0.137535)
(21.652 -0.103688 0.378206)
(21.5377 -0.0530972 0.332161)
(21.5038 0.00146348 0.301172)
(21.4951 0.0119838 0.301918)
(21.5217 0.0302431 0.309916)
(21.5507 0.0622853 0.337035)
(21.5469 0.0903931 0.383441)
(7.64495 0.0224191 0.0438742)
(7.73705 -0.0348934 0.0588804)
(7.7417 -0.0358157 0.0881677)
(7.73901 0.0233847 0.084205)
(7.73382 0.0413391 0.0779778)
(7.74779 0.039492 0.11016)
(7.67556 -0.0021126 0.0970796)
(3.26867 0.0428683 0.0543436)
(3.24836 -0.000665102 0.0560049)
(3.24709 -0.0273536 0.0814964)
(3.24804 0.0185819 0.0745921)
(3.25108 0.0426993 0.0727936)
(3.24726 0.0210063 0.0982821)
(3.26849 -0.0201373 0.0762987)
(3.59413e-05 0.00629139 0.0458798)
(-2.53676e-05 0.0288864 0.0390009)
(1.671e-05 0.0305447 0.0379893)
(7.38752e-06 -0.0128583 0.0386972)
(-9.49211e-05 -0.0461229 0.0371273)
(-0.000154373 -0.0451067 0.0205534)
(-0.000161801 -0.0194652 0.0268245)
(-3.27218 0.0332396 0.0519476)
(-3.26673 -0.0146082 0.0545171)
(-3.25341 -0.0359392 0.0688897)
(-3.25259 0.00850475 0.0659065)
(-3.25077 0.0308201 0.064815)
(-3.2508 0.0147919 0.0866817)
(-3.27188 -0.0182125 0.0689648)
(-7.65826 0.0203908 0.0391339)
(-7.64191 -0.0416604 0.0590554)
(-7.72953 -0.0452254 0.0940942)
(-7.73224 0.00985078 0.0734163)
(-7.73315 0.0335901 0.0747282)
(-7.74499 0.0408876 0.10694)
(-7.66507 0.000581566 0.0941603)
(-21.5987 -0.0739681 0.400521)
(-21.5893 -0.0525242 0.352551)
(-21.5114 -0.0209042 0.340936)
(-21.5135 -0.0178819 0.355381)
(-21.5045 -0.016956 0.333028)
(-21.5347 0.031101 0.336862)
(-21.5503 0.0734077 0.402119)
(21.4259 -0.116313 0.339231)
(21.433 -0.0691622 0.301095)
(21.3383 0.000587688 0.264666)
(21.3463 0.0144855 0.259969)
(21.3957 0.0383476 0.28062)
(21.4802 0.0801086 0.337046)
(21.4204 0.103019 0.371261)
(7.58618 0.0236451 0.0828306)
(7.66501 -0.0258242 0.0977822)
(7.6129 -0.0291005 0.126055)
(7.59979 0.0173399 0.11848)
(7.6001 0.0388885 0.100816)
(7.67584 0.0350482 0.10302)
(7.60031 -0.00596791 0.071001)
(3.26871 0.0406023 0.0928502)
(3.24639 0.000722311 0.075676)
(3.26699 -0.0244062 0.106762)
(3.26751 0.0148142 0.0974614)
(3.26534 0.0441214 0.0926287)
(3.24164 0.0218243 0.099569)
(3.26873 -0.0234038 0.0859051)
(1.77945e-05 0.00625702 0.0373656)
(-3.8619e-05 0.02596 0.034654)
(1.19688e-05 0.0284709 0.0161934)
(3.36002e-05 -0.0121824 0.0169971)
(-6.50791e-05 -0.0488218 0.0139832)
(-0.000139399 -0.0472511 0.0127361)
(-0.000127879 -0.0195419 0.0209021)
(-3.2691 0.0322115 0.0832852)
(-3.24161 -0.0128878 0.0722977)
(-3.25521 -0.0345127 0.0921698)
(-3.26448 0.00623614 0.0874914)
(-3.26634 0.0322877 0.0811788)
(-3.25464 0.0155969 0.0942041)
(-3.26892 -0.0207353 0.0815154)
(-7.59347 0.017691 0.0900565)
(-7.67342 -0.0333392 0.0953583)
(-7.65268 -0.0415524 0.123434)
(-7.60348 0.00192292 0.100033)
(-7.6161 0.0344844 0.0983436)
(-7.64436 0.0364025 0.102493)
(-7.5998 -0.00453697 0.065796)
(-21.4086 -0.0901141 0.368787)
(-21.4715 -0.0662016 0.338767)
(-21.3475 -0.0136468 0.308957)
(-21.3243 -0.0205337 0.32959)
(-21.3372 -0.0262895 0.306343)
(-21.4422 0.0476224 0.326053)
(-21.4161 0.0924441 0.384757)
(21.3978 -0.124172 0.257946)
(21.495 -0.0764741 0.262195)
(21.4446 -0.00209804 0.228306)
(21.4515 0.0152527 0.215733)
(21.4302 0.0510126 0.226148)
(21.4578 0.0926851 0.276029)
(21.403 0.109051 0.286938)
(7.58707 0.0241217 0.0730022)
(7.70798 -0.0152535 0.0706989)
(7.68713 -0.0223818 0.109811)
(7.67903 0.0113079 0.0994675)
(7.62521 0.0329233 0.0832363)
(7.68856 0.0268396 0.0768257)
(7.59238 -0.00985023 0.0531139)
(3.26918 0.0365499 0.0914922)
(3.23496 0.00365304 0.073851)
(3.24392 -0.0192462 0.111763)
(3.2461 0.0125511 0.104208)
(3.25914 0.0445162 0.101581)
(3.23328 0.0202796 0.0989219)
(3.26854 -0.0247088 0.0900706)
(-1.47489e-06 0.00890723 0.0420003)
(-2.60793e-05 0.0212851 0.0399141)
(-1.97421e-05 0.0212459 0.0102372)
(6.10745e-05 -0.0136225 0.00608057)
(-3.34883e-05 -0.0481905 0.00156522)
(-0.000120012 -0.0431937 0.0184517)
(-9.21397e-05 -0.0183096 0.0332013)
(-3.26967 0.0292924 0.085591)
(-3.23023 -0.0100947 0.072306)
(-3.25784 -0.0301072 0.0963106)
(-3.26991 0.00415263 0.0903182)
(-3.25981 0.0344194 0.0825311)
(-3.23202 0.0170757 0.0964023)
(-3.26893 -0.0232332 0.0835918)
(-7.59006 0.0164342 0.0748908)
(-7.70495 -0.0259628 0.0725951)
(-7.63282 -0.038431 0.0967472)
(-7.5912 -0.00216471 0.0858461)
(-7.63984 0.0332475 0.0807936)
(-7.69802 0.0283509 0.0751593)
(-7.59215 -0.00963842 0.0497839)
(-21.3946 -0.0979461 0.282139)
(-21.4698 -0.0706528 0.279301)
(-21.4374 -0.0113293 0.259259)
(-21.3066 -0.0225045 0.249026)
(-21.4087 -0.0259258 0.268732)
(-21.4587 0.0579388 0.285018)
(-21.399 0.101628 0.299452)
(21.3999 -0.11553 0.18922)
(21.4391 -0.077677 0.238285)
(21.4177 -0.013534 0.203755)
(21.3721 0.0122302 0.199688)
(21.4113 0.0611957 0.193289)
(21.4363 0.101261 0.212954)
(21.395 0.108374 0.20757)
(7.59033 0.0228771 0.0713786)
(7.70748 -0.00910975 0.054644)
(7.70594 -0.0174671 0.089257)
(7.71336 0.00641635 0.0811167)
(7.71142 0.0296657 0.0736201)
(7.69864 0.0216989 0.073532)
(7.59226 -0.0148509 0.0595479)
(3.26985 0.03349 0.0887177)
(3.23992 0.00850525 0.0759871)
(3.23666 -0.0133382 0.110782)
(3.24374 0.0110181 0.101637)
(3.23925 0.0438107 0.0991987)
(3.22923 0.0174314 0.0972875)
(3.26917 -0.0262566 0.0886257)
(-1.48367e-05 0.00735548 0.0478211)
(-4.45365e-05 0.0138075 0.036525)
(-4.31995e-05 0.0136623 0.014117)
(7.4981e-05 -0.0151509 0.0063596)
(-1.72579e-05 -0.043085 0.0107399)
(-7.7489e-05 -0.0343226 0.0282872)
(-5.11326e-05 -0.0135945 0.0412809)
(-3.27015 0.0264086 0.0866603)
(-3.23562 -0.00817363 0.0770194)
(-3.24073 -0.0273314 0.0988013)
(-3.25332 0.0011902 0.0925902)
(-3.254 0.0353461 0.0820592)
(-3.23269 0.0163419 0.0918618)
(-3.26952 -0.0256222 0.0821357)
(-7.59337 0.0169905 0.0697232)
(-7.70602 -0.0216938 0.063166)
(-7.69894 -0.0349875 0.0882599)
(-7.65852 -0.00443972 0.0835584)
(-7.6655 0.0288686 0.0682143)
(-7.6916 0.0231566 0.0741184)
(-7.5934 -0.0146268 0.0573485)
(-21.401 -0.094263 0.1991)
(-21.4427 -0.0701728 0.205922)
(-21.4284 -0.0175741 0.211574)
(-21.3547 -0.0179926 0.184525)
(-21.3763 -0.0147274 0.239239)
(-21.4466 0.0602643 0.232154)
(-21.3945 0.0993566 0.219794)
(21.4044 -0.104443 0.0997859)
(21.4451 -0.0711009 0.158972)
(21.2575 -0.0172711 0.142477)
(21.4488 0.0119503 0.143988)
(21.4594 0.0539473 0.132492)
(21.4342 0.0987727 0.126936)
(21.4 0.107291 0.107213)
(7.59926 0.0183657 0.0871003)
(7.71598 -0.00753783 0.0808569)
(7.74273 -0.011956 0.107766)
(7.70665 0.00505159 0.108215)
(7.71175 0.0257553 0.105494)
(7.70943 0.0203123 0.115929)
(7.59997 -0.0162725 0.105168)
(3.27077 0.0311344 0.0981672)
(3.23687 0.0134601 0.0841899)
(3.23905 -0.0088805 0.108518)
(3.2331 0.00788863 0.103362)
(3.23283 0.0414923 0.101283)
(3.23047 0.0155247 0.100997)
(3.27007 -0.0284408 0.0959567)
(-2.80549e-05 0.00335621 0.0426803)
(-7.9968e-05 0.00659655 0.0360141)
(-1.04842e-05 0.00892837 0.0243299)
(7.77644e-05 -0.0143122 0.0177663)
(-3.43529e-05 -0.0382131 0.0258576)
(-6.76742e-05 -0.0304256 0.030261)
(-1.7097e-05 -0.011251 0.0363562)
(-3.27101 0.0248245 0.0914812)
(-3.24209 -0.00523265 0.0769678)
(-3.23582 -0.0243006 0.103612)
(-3.23944 -0.00253779 0.0984348)
(-3.23542 0.0331402 0.0945199)
(-3.24531 0.0145997 0.0994558)
(-3.27028 -0.0272986 0.0954644)
(-7.60281 0.0142327 0.0845585)
(-7.74161 -0.0162204 0.0857931)
(-7.7172 -0.0297438 0.115569)
(-7.74511 -0.00976299 0.109847)
(-7.7136 0.0289871 0.0978465)
(-7.66985 0.0231928 0.114654)
(-7.60062 -0.0165142 0.0951706)
(-21.4054 -0.0940741 0.109554)
(-21.2839 -0.0628684 0.144723)
(-21.4343 -0.0180684 0.133092)
(-21.2608 -0.0109313 0.126787)
(-21.4864 -0.00892641 0.164603)
(-21.4394 0.0497833 0.133548)
(-21.4 0.0976334 0.115464)
(21.449 -0.0989662 0.131939)
(21.2346 -0.057524 0.155795)
(21.422 -0.0172405 0.163751)
(21.4209 0.00724834 0.155348)
(21.4217 0.0480035 0.151201)
(21.4375 0.0936449 0.15307)
(21.4478 0.105199 0.136706)
(7.7002 0.0181146 0.0237564)
(7.73409 -0.00125517 0.0279389)
(7.70484 -0.00543351 0.0453811)
(7.6958 0.00500466 0.0457699)
(7.69649 0.0293501 0.044512)
(7.70389 0.024664 0.0560939)
(7.69997 -0.0172303 0.0473409)
(3.23962 0.0286602 0.0402513)
(3.24512 0.0140244 0.0302352)
(3.23499 -0.00511401 0.0392007)
(3.23876 0.00855385 0.0407555)
(3.23367 0.0425921 0.0401395)
(3.23824 0.0150983 0.039282)
(3.23429 -0.030256 0.0380253)
(-4.07428e-05 0.00312149 0.00555881)
(-0.000126384 0.00503373 0.00695686)
(2.07592e-05 0.00712695 0.00159608)
(8.41458e-05 -0.0142784 -0.000568413)
(-9.89921e-05 -0.0398237 0.00261315)
(-8.98917e-05 -0.0322116 0.000550498)
(-8.90905e-06 -0.0115433 0.00252042)
(-3.23979 0.0212985 0.0341956)
(-3.27537 -0.00412702 0.0210072)
(-3.23907 -0.0193183 0.0385832)
(-3.23501 -0.00267555 0.0364508)
(-3.28219 0.0364878 0.0382202)
(-3.23913 0.0170379 0.0413915)
(-3.23427 -0.028674 0.0407677)
(-7.70174 0.0152005 0.0228978)
(-7.56403 -0.0126304 0.0335506)
(-7.70023 -0.0245054 0.0461511)
(-7.70553 -0.0120932 0.0442145)
(-7.60039 0.0316518 0.0409278)
(-7.70388 0.0227612 0.0492497)
(-7.7009 -0.0201094 0.0359628)
(-21.4587 -0.0863995 0.14045)
(-21.3922 -0.0623989 0.173208)
(-21.4317 -0.0212915 0.152233)
(-21.4289 -0.00560756 0.159567)
(-21.2081 -0.0172621 0.163959)
(-21.4457 0.0379919 0.148119)
(-21.4538 0.0978019 0.138725)
(22.3973 -0.0498092 -3.3791)
(22.3895 -0.0100411 -3.35936)
(22.3904 0.000675916 -3.36508)
(22.3913 -0.0266308 -3.36472)
(22.3917 -0.00634789 -3.35813)
(22.3922 -0.0224058 -3.35223)
(22.3947 -0.00369012 -3.35772)
(8.00283 0.0158291 -3.64489)
(8.00135 0.00802713 -3.64015)
(8.00156 -0.0138258 -3.64463)
(8.00149 -0.0152426 -3.64641)
(8.00097 0.00392747 -3.64737)
(7.99954 0.00264096 -3.64211)
(8.00104 -0.0105858 -3.65455)
(3.41229 0.00827162 -3.85167)
(3.41181 -0.0135663 -3.85701)
(3.41137 -0.0290192 -3.85388)
(3.41101 -0.0221412 -3.85191)
(3.41109 -0.0212643 -3.85541)
(3.41096 -0.011565 -3.85838)
(3.41037 -0.00527642 -3.85855)
(0.00314423 -0.0140426 -3.89671)
(0.00294439 -0.0174691 -3.89315)
(0.00264464 -0.00770608 -3.89532)
(0.00238211 -0.00968759 -3.89553)
(0.0022188 -0.00421316 -3.89483)
(0.00214368 0.00521811 -3.89528)
(0.00209388 0.0040274 -3.89326)
(-3.40641 0.00988933 -3.83483)
(-3.40676 0.0150757 -3.82921)
(-3.40669 0.012154 -3.82918)
(-3.40672 0.00737988 -3.82994)
(-3.4067 0.00892607 -3.83251)
(-3.40677 0.0103353 -3.83535)
(-3.40689 0.00189142 -3.84135)
(-7.99565 0.0279551 -3.67475)
(-7.99597 -0.00787533 -3.67651)
(-7.99808 -0.0286716 -3.66526)
(-7.9986 0.000967131 -3.66446)
(-7.9991 -0.00185473 -3.66098)
(-7.99951 -0.00928937 -3.659)
(-8.00003 -0.0134642 -3.6664)
(-22.3903 0.0111729 -3.32341)
(-22.3938 -0.0047267 -3.3699)
(-22.3935 -0.0349371 -3.36237)
(-22.392 0.00358866 -3.36055)
(-22.3909 -0.00620628 -3.36002)
(-22.3898 -0.0103763 -3.36187)
(-22.3944 0.0186828 -3.36379)
(22.4964 -0.0225819 -9.95858)
(22.4888 0.0101792 -9.94332)
(22.49 -0.00681001 -9.94872)
(22.4925 -0.0164717 -9.96774)
(22.4879 0.0121891 -9.9402)
(22.505 -0.021934 -9.94504)
(22.4978 -0.0111188 -9.96586)
(8.06402 0.0221287 -11.013)
(8.05946 0.00869337 -11.0044)
(8.06379 -0.021544 -11.0177)
(8.07116 -0.0188261 -11.0081)
(8.06194 0.00912854 -11.0166)
(8.05442 -0.00844439 -10.9978)
(8.07379 -0.0285353 -11.021)
(3.39842 8.65603e-05 -11.4162)
(3.39912 -0.0172411 -11.4236)
(3.398 -0.0215122 -11.4168)
(3.39526 -0.0237868 -11.4146)
(3.3987 -0.0305208 -11.4203)
(3.39878 -0.0173953 -11.4245)
(3.39412 -0.00650805 -11.4089)
(0.00276217 -0.00905026 -11.5333)
(0.00235556 -0.0155475 -11.5313)
(0.00218185 -0.0112431 -11.5317)
(0.00203709 -0.00915633 -11.5343)
(0.00190289 -0.00374272 -11.5279)
(0.00182642 0.00749395 -11.5257)
(0.00176656 0.0068394 -11.5245)
(-3.40002 0.0186194 -11.3882)
(-3.39605 0.0228363 -11.3754)
(-3.39372 0.00963597 -11.3658)
(-3.39267 0.00131217 -11.362)
(-3.39207 -0.000134136 -11.3619)
(-3.3924 -0.00307833 -11.3666)
(-3.39183 -0.00690341 -11.3705)
(-8.04903 0.0267559 -11.019)
(-8.04868 0.00797589 -11.0268)
(-8.05928 -0.0103688 -11.029)
(-8.06611 0.00786887 -11.0336)
(-8.0708 0.00595758 -11.0239)
(-8.07177 -0.0181265 -11.0159)
(-8.07555 -0.0248803 -11.0221)
(-22.425 -0.0552332 -9.95997)
(-22.5007 -0.0589145 -9.99404)
(-22.4989 -0.0195059 -9.96737)
(-22.4933 0.00929474 -9.95532)
(-22.4913 -0.0057858 -9.968)
(-22.4866 -0.0140222 -9.95414)
(-22.4944 0.016954 -9.94785)
(22.4407 -0.0292933 -16.354)
(22.4318 0.00488017 -16.3614)
(22.4243 -0.0314071 -16.3693)
(22.4536 -0.0145063 -16.3738)
(22.4108 0.0356974 -16.3673)
(22.4862 -0.056168 -16.4305)
(22.4459 -0.0407861 -16.3802)
(8.00834 0.0192767 -17.852)
(8.00497 0.00216517 -17.8516)
(8.01239 -0.00089652 -17.8662)
(8.06088 -0.0182494 -17.969)
(8.023 -0.0091595 -17.8906)
(7.99086 0.0151687 -17.8342)
(8.06348 -0.0104923 -17.9765)
(3.42631 0.00152041 -18.5924)
(3.42674 -0.0158001 -18.5943)
(3.42593 -0.0315981 -18.5867)
(3.40888 -0.0228806 -18.5073)
(3.4251 -0.0204823 -18.5783)
(3.42739 -0.0154185 -18.5841)
(3.40908 -0.0034768 -18.4873)
(0.00165111 -0.0106713 -18.6295)
(0.00160456 -0.0165959 -18.6241)
(0.001501 -0.0126158 -18.624)
(0.00178084 -0.00524335 -18.6322)
(0.00102659 0.00676427 -18.6153)
(0.00112159 0.0112471 -18.6113)
(0.00131245 0.00583279 -18.618)
(-3.40959 0.0135927 -18.4837)
(-3.40203 0.0180464 -18.4438)
(-3.40281 0.0101226 -18.4484)
(-3.40192 0.000250699 -18.4385)
(-3.40535 -0.00454917 -18.4598)
(-3.41175 -0.00707111 -18.4861)
(-3.40998 -0.00793076 -18.4686)
(-8.05227 0.016221 -17.8714)
(-8.08039 -0.000815901 -17.9557)
(-8.07709 -0.00320874 -17.9427)
(-8.08928 0.0336339 -17.9667)
(-8.07405 0.0383022 -17.9444)
(-8.05522 0.0022755 -17.9026)
(-8.0605 -0.0162867 -17.9098)
(-22.4664 -0.00204262 -16.494)
(-22.4762 0.0211346 -16.454)
(-22.465 0.0174366 -16.414)
(-22.4373 -0.00162016 -16.3711)
(-22.4466 -0.00721583 -16.3456)
(-22.4263 0.021304 -16.2873)
(-22.4523 0.03262 -16.2574)
(22.5705 -0.0372706 -23.0984)
(22.5702 -0.0213234 -23.1122)
(22.571 -0.0186527 -23.143)
(22.5355 -0.0269128 -23.0498)
(22.5377 -0.00998272 -23.0679)
(22.5315 -0.028032 -23.0823)
(22.539 -0.0112644 -23.0728)
(8.02775 0.013707 -24.2302)
(8.01933 -0.000522515 -24.2111)
(8.03418 -0.0315472 -24.219)
(8.02637 -0.0177274 -24.2314)
(8.03198 -0.0017102 -24.2589)
(8.00557 -0.0232281 -24.1707)
(8.03769 -0.0227651 -24.2481)
(3.41985 0.00313324 -24.8742)
(3.42117 -0.00939767 -24.8868)
(3.41804 -0.0229005 -24.8614)
(3.42425 -0.0256106 -24.9065)
(3.42288 -0.0185679 -24.878)
(3.43181 0.00418394 -24.9557)
(3.42225 0.00717264 -24.8742)
(7.68164e-05 -0.00898026 -24.9552)
(2.20152e-05 -0.0145304 -24.9405)
(0.000206339 -0.00751692 -24.9478)
(0.000198298 0.00303259 -24.9584)
(3.95023e-05 0.0198677 -24.9478)
(-0.000143038 0.0264686 -24.9731)
(0.000419253 0.0114586 -24.9706)
(-3.40741 0.0211892 -24.761)
(-3.40446 0.0286865 -24.7482)
(-3.40257 0.015824 -24.7386)
(-3.4032 -0.0027314 -24.7484)
(-3.41089 -0.00309463 -24.7964)
(-3.42499 0.00895628 -24.8794)
(-3.42496 0.000857903 -24.8765)
(-8.08426 -0.012605 -24.3005)
(-8.10089 -0.0244696 -24.3465)
(-8.10373 0.000719 -24.3232)
(-8.11221 0.0115582 -24.3266)
(-8.07719 0.014954 -24.2414)
(-8.02288 -0.00236368 -24.0954)
(-8.01735 -0.0186003 -24.0619)
(-22.5178 0.0163112 -23.0281)
(-22.5346 0.0592508 -23.0557)
(-22.5164 0.0563024 -22.9991)
(-22.4905 0.0682667 -22.936)
(-22.5364 0.085544 -22.946)
(-22.5401 0.109631 -22.8952)
(-22.5514 0.0787692 -22.8904)
(22.7083 -0.0345547 -30.1247)
(22.7336 -0.047701 -30.0371)
(22.7513 -0.0071968 -30.0594)
(22.697 0.032746 -29.9407)
(22.6465 -0.0342101 -29.9258)
(22.7747 -0.0688788 -30.046)
(22.7427 -0.00900787 -29.9446)
(8.08591 0.00969763 -30.1228)
(8.08971 0.0407693 -29.989)
(8.11451 -0.0248837 -30.0828)
(8.12048 -0.0589583 -30.0968)
(8.05439 -0.000855691 -29.9546)
(8.08058 0.00219852 -30.0313)
(8.1237 0.000968868 -30.19)
(3.40838 0.00277582 -30.3452)
(3.40613 -0.00983273 -30.3776)
(3.40085 -0.0228787 -30.3262)
(3.4109 -0.0165207 -30.3897)
(3.4194 -0.0306357 -30.4752)
(3.42004 -0.00246137 -30.4315)
(3.39939 0.0212711 -30.2941)
(0.000220472 -0.0104019 -30.5589)
(0.000154835 -0.0275121 -30.5823)
(0.000185053 -0.0292669 -30.5969)
(-0.00026879 -0.00717709 -30.6101)
(-0.00142866 0.00192314 -30.5908)
(-0.00138403 0.00369771 -30.5858)
(0.000485755 0.00678638 -30.5997)
(-3.42123 0.018376 -30.518)
(-3.40606 0.0287821 -30.3696)
(-3.40438 0.00632578 -30.3894)
(-3.403 -0.00891131 -30.3523)
(-3.40943 0.0108768 -30.3509)
(-3.4087 0.0127784 -30.338)
(-3.40031 -0.00295033 -30.3025)
(-8.03769 -0.008137 -29.847)
(-8.13117 0.0119349 -30.0292)
(-8.10625 0.0528583 -29.9737)
(-8.12959 0.0232738 -30.0331)
(-8.12068 0.011551 -29.9566)
(-8.10719 0.0105132 -29.9591)
(-8.12303 -0.0108633 -30.0944)
(-22.7817 -0.0183066 -29.9027)
(-22.73 0.0686291 -29.9266)
(-22.6429 0.128042 -29.9219)
(-22.6218 0.104865 -29.8656)
(-22.6954 0.141831 -29.9265)
(-22.7096 0.149772 -29.7193)
(-22.6766 0.0719204 -29.7105)
(23.4381 0.142169 -37.5033)
(23.2036 0.129327 -37.0898)
(23.4891 -0.0477725 -37.4594)
(23.1903 -0.00944847 -37.3813)
(23.2436 -0.00909539 -37.3504)
(23.3825 0.0361767 -37.4448)
(23.3323 0.0669812 -37.1454)
(8.23744 0.133893 -35.2478)
(8.28469 0.153828 -35.2054)
(8.2544 -0.0319932 -35.1746)
(8.28064 -0.105281 -35.4339)
(8.31471 -0.0753895 -35.405)
(8.19787 -0.0145545 -35.1063)
(8.30928 0.00612402 -35.3099)
(3.45294 -0.061525 -34.9194)
(3.43063 -0.0937542 -34.8134)
(3.43518 -0.0236852 -34.8698)
(3.43722 0.00548608 -34.8975)
(3.43377 0.00868047 -34.8078)
(3.45561 0.00728577 -34.9729)
(3.42983 -0.00742926 -34.7083)
(0.00668702 -0.024958 -34.9953)
(0.0034782 -0.0576677 -35.0687)
(0.00171233 -0.0522979 -35.0915)
(0.00153182 -0.00268717 -35.0219)
(0.00166031 0.0553261 -35.0697)
(0.00471878 0.0503916 -34.9737)
(0.00141872 0.00982578 -34.9564)
(-3.42971 0.041126 -34.9207)
(-3.42142 0.0250522 -34.8321)
(-3.43176 -0.000127123 -34.9503)
(-3.4321 0.0512551 -35.0101)
(-3.43262 0.0327381 -34.9606)
(-3.43959 -0.00806063 -35.0191)
(-3.43366 -0.00603147 -34.9628)
(-8.25274 0.0524503 -35.0632)
(-8.27908 0.074787 -35.1605)
(-8.28612 0.0538228 -35.1594)
(-8.30411 0.0355561 -35.2378)
(-8.28355 -0.00638861 -35.2917)
(-8.25277 -0.0942556 -35.0543)
(-8.35006 -0.084953 -35.4383)
(-23.4039 -0.0473028 -37.2695)
(-23.4758 -0.0704612 -37.3174)
(-23.4904 0.0147124 -37.2692)
(-23.3703 0.118674 -37.1059)
(-23.5249 0.394516 -37.3432)
(-23.0522 0.327789 -36.8291)
(-23.1683 0.0101413 -36.6958)
(24.6062 0.328593 -40.5746)
(24.7525 0.124192 -39.9926)
(24.8378 -0.53205 -40.4571)
(24.6908 -0.0931398 -40.7499)
(24.9266 0.206607 -40.6512)
(24.5923 0.217954 -40.6453)
(24.629 0.240069 -40.3262)
(8.55356 0.222913 -39.5956)
(8.44304 0.212552 -38.9288)
(8.40417 -0.274942 -39.0278)
(8.45388 -0.192247 -39.5886)
(8.46717 -0.00480072 -39.3205)
(8.44696 0.111023 -39.2652)
(8.48038 0.162121 -38.841)
(3.45401 -0.179038 -37.9152)
(3.46493 -0.246599 -38.1896)
(3.47413 -0.0978402 -38.2788)
(3.47301 0.0528848 -38.421)
(3.45225 0.156491 -38.1325)
(3.47674 0.153629 -38.1806)
(3.44621 0.0693066 -37.729)
(1.98816e-05 -0.250927 -38.3621)
(0.00137037 -0.275044 -38.8872)
(0.00268911 0.053809 -38.9859)
(0.00251841 0.047073 -38.6154)
(0.00110843 0.108615 -38.7579)
(0.00206794 0.269539 -38.5356)
(0.0008013 0.122874 -38.2995)
(-3.45627 0.0256498 -38.4552)
(-3.44869 -0.0718248 -38.136)
(-3.45633 -0.166867 -38.4294)
(-3.46326 0.00940925 -38.7508)
(-3.45116 0.124156 -38.614)
(-3.46353 0.072132 -38.6105)
(-3.46156 0.0247446 -38.8202)
(-8.38883 -0.019872 -38.904)
(-8.45611 -0.0118111 -39.2041)
(-8.4275 0.0324407 -39.0845)
(-8.41288 -0.0749622 -39.1237)
(-8.43293 -0.0391822 -39.4506)
(-8.50654 -0.0305598 -39.3459)
(-8.48298 -0.0989874 -39.3686)
(-24.8778 -0.0300498 -40.4665)
(-24.7854 0.00696334 -40.4912)
(-24.8047 0.0555636 -40.3178)
(-24.7543 -0.0251267 -40.2127)
(-24.9169 0.102964 -40.6003)
(-24.2107 0.282042 -39.8493)
(-24.1374 0.113144 -39.797)
(22.7426 0.255417 -31.3902)
(22.8507 0.114227 -31.401)
(22.834 -0.32159 -31.6788)
(22.8648 0.0212981 -30.6961)
(22.8654 0.201954 -31.2885)
(22.8496 -0.223825 -30.263)
(22.7981 -0.233375 -32.3357)
(7.95163 -0.122656 -41.0949)
(7.80151 -0.342359 -40.5926)
(7.86296 -0.259147 -41.2559)
(7.87641 -0.0306762 -40.8667)
(7.89868 0.223732 -40.9566)
(7.90671 0.191417 -40.5306)
(7.98883 0.0205121 -41.7534)
(3.37015 -0.383382 -46.5481)
(3.42775 -0.562103 -47.0248)
(3.41086 -0.143722 -47.0717)
(3.4 0.106254 -47.2014)
(3.39369 0.294222 -46.933)
(3.40351 0.376826 -46.8576)
(3.35965 0.178834 -46.3866)
(0.00557467 -0.274602 -47.174)
(0.0024922 -0.389833 -46.9707)
(0.00147616 -0.352184 -47.2207)
(0.00336437 0.0111516 -47.7342)
(0.00174611 0.31867 -47.366)
(0.00231946 0.383318 -47.257)
(0.00182368 0.290344 -47.1518)
(-3.33905 -0.302055 -46.1525)
(-3.37542 -0.473518 -46.6559)
(-3.37903 -0.341934 -46.788)
(-3.37705 -0.0165728 -46.7762)
(-3.38026 0.271788 -46.6834)
(-3.38216 0.425866 -46.509)
(-3.39176 0.291395 -46.3537)
(-7.97646 -0.229037 -42.004)
(-7.99258 -0.426903 -41.8285)
(-7.9804 -0.377064 -42.5703)
(-7.99079 0.0273122 -42.842)
(-7.99115 0.291106 -42.0609)
(-7.97557 0.257732 -42.1488)
(-7.87301 0.187308 -41.6871)
(-22.875 0.182348 -32.9732)
(-22.9167 0.0536607 -31.9869)
(-22.9418 -0.226194 -32.6678)
(-22.9313 0.166639 -32.9723)
(-22.9311 0.313348 -32.3812)
(-22.9195 -0.0283031 -32.3556)
(-22.8189 -0.0651561 -33.2422)
(22.7857 0.106934 -41.0359)
(22.9205 -0.332545 -42.3109)
(22.9093 -0.983296 -43.7266)
(22.995 -0.044915 -44.8504)
(22.9772 0.942294 -43.9647)
(22.9764 0.408442 -42.5585)
(22.7464 -0.0577204 -40.9413)
(8.07428 -0.731882 -45.4538)
(7.87031 -1.23593 -46.0374)
(7.94505 -0.913828 -47.2953)
(7.90355 -0.0424837 -47.4587)
(7.93965 0.867448 -47.2313)
(7.95369 1.29895 -46.3433)
(8.08053 0.766907 -45.3935)
(3.39827 -0.905223 -46.4234)
(3.42851 -1.38905 -47.5648)
(3.4033 -0.697144 -47.984)
(3.41176 0.0410058 -48.3816)
(3.40055 0.73225 -48.085)
(3.40963 1.3859 -47.4464)
(3.39854 0.897884 -46.3731)
(0.00150631 -0.886608 -46.3249)
(-5.89107e-05 -1.32588 -47.2003)
(0.000740806 -0.645899 -47.6651)
(0.00193878 0.0402915 -47.754)
(0.000785803 0.664871 -47.6549)
(0.00183823 1.34698 -47.1052)
(0.00269316 0.932367 -46.3157)
(-3.38977 -0.891292 -46.3704)
(-3.38892 -1.36195 -47.1174)
(-3.39065 -0.683287 -47.7639)
(-3.3868 0.00509926 -47.9172)
(-3.3781 0.703096 -47.6401)
(-3.38708 1.34798 -47.0799)
(-3.41324 0.882413 -46.4415)
(-8.05733 -0.76495 -45.4335)
(-8.02191 -1.32598 -46.6015)
(-7.99736 -0.927384 -47.4147)
(-8.03069 -0.077524 -47.8403)
(-8.02462 0.853853 -47.6534)
(-8.03411 1.29508 -46.5316)
(-8.03743 0.719889 -45.3394)
(-22.8336 0.0532079 -41.3203)
(-23.0188 -0.439549 -42.6451)
(-23.0211 -0.976168 -44.0675)
(-23.0277 0.000275067 -44.8556)
(-23.0207 0.968376 -44.2792)
(-23.019 0.479077 -42.697)
(-22.7857 -0.00951161 -41.3453)
(22.917 -1.16191 -41.9332)
(23.0823 -3.52778 -49.6211)
(23.0935 -3.04726 -54.1634)
(23.1451 -0.00703231 -56.4025)
(23.1284 3.07682 -54.2379)
(23.0887 3.53418 -49.6852)
(22.8526 1.12336 -41.9008)
(8.11038 -1.70225 -44.8019)
(7.83614 -3.44663 -48.5165)
(7.85161 -2.02518 -50.7347)
(7.91354 0.0384615 -51.7492)
(7.92318 2.09319 -51.1771)
(7.95396 3.47154 -48.9838)
(8.11896 1.67645 -44.8622)
(3.39678 -1.52088 -44.9646)
(3.41239 -2.76767 -47.4985)
(3.39473 -1.31435 -48.5256)
(3.4006 0.0119289 -48.5476)
(3.37601 1.31668 -48.2362)
(3.38275 2.76659 -47.2342)
(3.39653 1.54088 -44.9976)
(0.00112542 -1.47783 -44.9346)
(0.00116871 -2.50922 -46.5291)
(0.000472317 -1.09674 -47.1018)
(0.000262144 0.00728933 -47.1922)
(0.000442223 1.12202 -47.0775)
(0.000664119 2.5721 -46.4871)
(0.00225904 1.51889 -44.9689)
(-3.40062 -1.52803 -45.057)
(-3.37821 -2.75196 -47.2963)
(-3.38054 -1.29754 -48.3122)
(-3.37674 0.00892246 -48.4485)
(-3.36313 1.30275 -48.1227)
(-3.37243 2.7453 -47.2286)
(-3.41892 1.53092 -45.2192)
(-8.08233 -1.69879 -44.7719)
(-7.96455 -3.52015 -49.0145)
(-7.90611 -2.10771 -51.1857)
(-7.99465 -0.00556356 -52.0368)
(-7.96157 2.06749 -51.4013)
(-7.98938 3.45103 -49.1161)
(-8.04277 1.64939 -44.5838)
(-22.9278 -1.17772 -42.1626)
(-23.1818 -3.57867 -49.9901)
(-23.1773 -3.07636 -54.4777)
(-23.1723 -0.0193786 -56.6024)
(-23.1763 3.02753 -54.4802)
(-23.1922 3.59716 -50.0398)
(-22.9444 1.22721 -42.1667)
(23.1407 -4.20667 -36.907)
(23.4836 -9.99231 -57.47)
(23.465 -7.10003 -71.2153)
(23.3547 0.0526582 -77.5168)
(23.4669 7.12166 -71.2481)
(23.4258 9.97674 -57.5973)
(23.0393 4.12991 -36.9354)
(8.07583 -3.41874 -38.9541)
(7.83816 -7.64461 -50.9168)
(7.81375 -4.17691 -58.0923)
(7.91981 0.0388499 -59.8546)
(7.84324 4.19326 -58.1584)
(7.90111 7.61375 -50.9879)
(8.08732 3.39409 -39.049)
(3.38571 -2.17308 -39.6413)
(3.39822 -4.94346 -46.2626)
(3.36707 -2.22405 -48.8143)
(3.38203 -0.0370446 -49.1518)
(3.35589 2.17315 -48.7598)
(3.37846 4.93754 -46.2692)
(3.38513 2.18147 -39.7013)
(0.0012467 -1.7232 -39.724)
(0.000920609 -3.88942 -44.4088)
(0.00156102 -1.5091 -45.94)
(0.000268799 -0.0102171 -46.0701)
(0.000221794 1.50107 -45.8876)
(-2.57952e-05 3.92052 -44.3934)
(0.00108236 1.75547 -39.7497)
(-3.39149 -2.16775 -39.7475)
(-3.36968 -4.91161 -46.1685)
(-3.36984 -2.16406 -48.7767)
(-3.3709 0.00587747 -49.1466)
(-3.34633 2.15122 -48.6039)
(-3.36602 4.87373 -46.0466)
(-3.41316 2.17496 -39.7968)
(-8.0413 -3.38052 -38.8536)
(-7.92718 -7.65031 -51.0751)
(-7.80878 -4.17008 -58.0458)
(-7.95678 0.0343639 -59.7911)
(-7.89259 4.23827 -58.3912)
(-7.9516 7.61164 -51.2526)
(-7.97902 3.2906 -38.7045)
(-23.1936 -4.1489 -36.9738)
(-23.5969 -9.93162 -57.7374)
(-23.5141 -7.04701 -71.3446)
(-23.3722 -0.0037688 -77.4684)
(-23.5127 7.02921 -71.3308)
(-23.6097 9.996 -57.7609)
(-23.1707 4.19191 -37.0576)
(23.5818 -7.00444 -20.5108)
(24.367 -16.1288 -70.3373)
(24.1272 -12.9342 -98.957)
(23.4113 0.13559 -109.305)
(24.0798 12.9036 -98.7819)
(24.5669 16.1732 -70.3026)
(23.6044 6.86375 -20.5057)
(8.12649 -5.72555 -21.5147)
(7.98482 -13.8903 -55.3267)
(7.78349 -8.91675 -75.4174)
(7.89429 -0.0174827 -79.049)
(7.80128 8.84628 -75.2767)
(7.99205 13.8862 -55.174)
(8.13514 5.75151 -21.6863)
(3.40964 -3.07436 -26.4429)
(3.40764 -10.4649 -46.1531)
(3.35861 -4.95042 -54.2269)
(3.36496 -0.0466776 -54.9405)
(3.34464 4.86282 -54.2981)
(3.40668 10.4179 -46.2831)
(3.40396 3.03479 -26.5108)
(0.000823289 -1.55562 -28.8692)
(0.000921599 -8.1096 -43.0052)
(0.000971543 -3.07868 -47.4513)
(0.00120114 -0.00533862 -47.521)
(0.000996354 3.05499 -47.4187)
(0.00140133 8.09417 -42.9902)
(0.00232251 1.56803 -28.8686)
(-3.40894 -3.03418 -26.5174)
(-3.39092 -10.3985 -46.1869)
(-3.34164 -4.852 -54.1835)
(-3.374 0.0230602 -54.8381)
(-3.33931 4.89105 -54.1654)
(-3.38353 10.3606 -46.1026)
(-3.42687 3.03848 -26.4459)
(-8.094 -5.6653 -21.5396)
(-8.02453 -13.8841 -55.2359)
(-7.8268 -8.84564 -75.4257)
(-7.88568 0.0155407 -79.1159)
(-7.85186 8.86724 -75.4864)
(-8.06679 13.8936 -55.3494)
(-8.05025 5.6054 -21.5451)
(-23.5683 -6.80852 -20.6)
(-24.4959 -16.0162 -70.6454)
(-24.1277 -12.789 -99.0928)
(-23.4137 0.111353 -109.187)
(-24.1191 12.8459 -98.932)
(-24.4972 16.115 -70.6345)
(-23.5937 6.88454 -20.7126)
(24.7015 -8.69607 -7.53008)
(25.9676 -4.07504 -93.5857)
(25.1289 -7.10878 -120.893)
(23.5881 0.210908 -122.454)
(24.9536 7.17838 -121.12)
(25.8616 3.91272 -93.7749)
(24.4309 8.24822 -7.88479)
(8.41449 -8.28707 -9.44382)
(8.31618 -13.4098 -70.5709)
(7.77012 -10.7335 -92.2002)
(7.51578 -0.0108174 -96.3284)
(7.75641 10.7263 -92.1289)
(8.33487 13.4328 -70.5235)
(8.434 8.28412 -9.68858)
(3.51842 -3.18013 -20.3748)
(3.48059 -15.1013 -52.669)
(3.30116 -9.32876 -65.6118)
(3.24978 -0.0847086 -66.1353)
(3.29791 9.1975 -65.662)
(3.48245 15.0282 -52.7142)
(3.51331 3.10625 -20.4713)
(0.000478121 0.508773 -25.5552)
(0.000219089 -12.1022 -46.7105)
(0.00194589 -5.92805 -54.5045)
(0.000127343 -0.0359524 -54.0925)
(0.000658326 5.86665 -54.5045)
(0.00249363 12.0827 -46.7175)
(0.00222598 -0.491179 -25.5352)
(-3.5207 -3.11519 -20.4149)
(-3.48014 -15.0546 -52.6704)
(-3.29688 -9.19539 -65.622)
(-3.25289 0.0273154 -66.1381)
(-3.2956 9.27549 -65.5801)
(-3.46837 15.0468 -52.7101)
(-3.52548 3.14666 -20.4507)
(-8.38603 -8.17406 -9.60949)
(-8.30039 -13.3359 -70.5505)
(-7.76642 -10.6496 -92.3327)
(-7.53027 0.0844663 -96.4327)
(-7.78919 10.6293 -92.3312)
(-8.35121 13.3539 -70.5212)
(-8.37108 8.11824 -9.46744)