/*--------------------------------*- C++ -*----------------------------------*\
  =========                 |
  \\      /  F ield         | OpenFOAM: The Open Source CFD Toolbox
   \\    /   O peration     | Website:  https://openfoam.org
    \\  /    A nd           | Version:  6
     \\/     M anipulation  |
\*---------------------------------------------------------------------------*/
FoamFile
{
    version     2.0;
    format      ascii;
    class       volScalarField;
    location    "3.5";
    object      O2;
}
// * * * * * * * * * * * * * * * * * * * * * * * * * * * * * * * * * * * * * //

dimensions      [0 0 0 0 0 0 0];

internalField   nonuniform List<scalar> 
297
(
0
0
0
0
0
0
0
0
0
0
0
0
0
0
0
0
0
0
0
0
0
0
0
0
0
0
0
0.102881
0.176763
0.109695
0.195321
0.218509
0.197887
0.10266
0.17684
0.110188
0
0.0491384
0
0.0399424
0.165497
0.0430363
0
0.0491632
0
0
0.0465821
0
0.0259941
0.0403436
0.026467
0
0.0465948
0
0.00713211
0.0193151
0.00709267
0
0.00314359
0
0.00724391
0.0193107
0.00720912
4.19748e-07
3.84191e-07
7.72041e-07
1.09635e-06
3.09291e-07
2.17593e-06
4.22933e-07
3.85238e-07
7.76549e-07
7.09306e-12
1.544e-11
1.90992e-11
1.98614e-11
1.27199e-11
4.06749e-11
7.14613e-12
1.54944e-11
1.91757e-11
0
0.0457089
0
0
0.00314437
0
0
0.0457182
0
0
0.045284
0
0
0.00314382
0
0
0.0452926
0
0
0.0438848
0
0
0.00314366
0
0
0.0438925
0
2.08805e-16
9.72588e-16
5.98067e-16
3.97135e-16
3.62129e-16
8.28645e-16
2.3125e-16
9.45274e-16
6.10575e-16
2.81887e-20
2.74226e-19
1.01723e-19
3.51299e-20
6.23585e-20
4.57419e-20
2.29967e-20
2.49736e-19
8.59427e-20
2.41232e-23
9.85332e-20
8.21751e-23
9.662e-24
2.39503e-20
1.03595e-23
2.02971e-23
9.04919e-20
6.80293e-23
1.12492e-20
3.60315e-25
5.53184e-30
1.15317e-20
1.75449e-25
2.85241e-30
1.14817e-20
3.6766e-25
5.64618e-30
1.78393e-24
7.61936e-29
3.03142e-33
1.28886e-24
6.58578e-27
2.80345e-31
1.49027e-24
7.7537e-29
3.47043e-33
6.82257e-27
1.90867e-29
2.33416e-33
7.29293e-28
3.06744e-28
2.54756e-32
5.66829e-27
1.90677e-29
2.33337e-33
1.02303e-30
6.67626e-26
3.94448e-21
1.16422e-30
7.59455e-26
5.53329e-21
2.28864e-30
7.42907e-26
4.36886e-21
1.10263e-33
2.02767e-29
5.29744e-25
1.16119e-31
2.80798e-27
8.22222e-25
1.64761e-33
3.42915e-29
8.15866e-25
1.41172e-33
3.94482e-30
2.00581e-27
1.84829e-32
6.20837e-29
4.89764e-28
1.48338e-33
6.44247e-30
1.77846e-27
1.09494e-43
1.69335e-39
4.51428e-35
6.29e-43
3.44299e-39
3.1081e-35
7.23744e-43
7.22273e-39
1.01011e-34
3.28722e-46
2.37897e-42
5.41107e-38
8.23187e-45
8.00273e-41
2.37776e-36
2.56074e-45
3.24422e-42
7.36729e-38
2.75492e-46
7.02847e-43
3.03901e-38
4.11576e-45
1.94693e-41
4.92323e-37
2.29288e-45
9.52639e-43
3.5136e-38
3.17171e-46
3.4681e-45
1.39721e-43
5.17384e-45
3.13831e-41
9.87123e-40
2.16424e-45
1.13447e-44
2.89092e-43
6.55455e-48
2.34605e-46
5.90073e-45
8.84867e-43
3.308e-41
7.69168e-40
6.66513e-48
3.39411e-46
5.84175e-45
1.29826e-48
4.79108e-47
1.09946e-45
3.97154e-43
1.39089e-41
3.27756e-40
2.20187e-48
8.25946e-47
1.84282e-45
1.30124e-34
9.19085e-39
9.14399e-43
7.67329e-35
3.80774e-39
8.9595e-43
2.47189e-34
9.60894e-39
9.59465e-43
1.21732e-37
5.23983e-42
8.70357e-46
5.66944e-36
1.84273e-40
1.69657e-44
1.40515e-37
4.96305e-42
5.48967e-45
5.74398e-38
1.32001e-42
7.81742e-46
6.90218e-37
2.60415e-41
6.89705e-45
5.59713e-38
1.49841e-42
5.33709e-45
2.6554e-43
8.18954e-45
9.542e-46
2.45861e-39
3.79619e-41
7.94952e-45
4.53199e-43
3.22836e-44
5.29273e-45
5.14746e-45
2.60359e-46
6.28277e-48
1.1615e-39
3.90531e-41
1.1329e-42
6.64142e-45
2.66355e-46
8.98546e-48
1.14317e-45
5.1902e-47
1.73641e-48
3.8568e-40
1.547e-41
5.17951e-43
1.80317e-45
9.02797e-47
3.03126e-48
)
;

boundaryField
{
    fuel
    {
        type            fixedValue;
        value           uniform 0;
    }
    primary_air
    {
        type            fixedValue;
        value           uniform 0.23;
    }
    Secondary_air_RHS
    {
        type            fixedValue;
        value           uniform 0.23;
    }
    Secondary_air_LHS
    {
        type            fixedValue;
        value           uniform 0.23;
    }
    outlet
    {
        type            inletOutlet;
        inletValue      uniform 0;
        value           nonuniform List<scalar> 
18
(
0
3.8568e-40
0
0
1.547e-41
0
0
5.17951e-43
0
0
3.97154e-43
0
0
1.39089e-41
0
0
3.27756e-40
0
)
;
    }
    stove_body
    {
        type            fixedValue;
        value           uniform 0;
    }
    frontAndBack
    {
        type            empty;
    }
}


// ************************************************************************* //
