/*--------------------------------*- C++ -*----------------------------------*\
  =========                 |
  \\      /  F ield         | OpenFOAM: The Open Source CFD Toolbox
   \\    /   O peration     | Website:  https://openfoam.org
    \\  /    A nd           | Version:  6
     \\/     M anipulation  |
\*---------------------------------------------------------------------------*/
FoamFile
{
    version     2.0;
    format      ascii;
    class       volScalarField;
    location    "3";
    object      O2;
}
// * * * * * * * * * * * * * * * * * * * * * * * * * * * * * * * * * * * * * //

dimensions      [0 0 0 0 0 0 0];

internalField   nonuniform List<scalar> 
297
(
0
0
0
0
0
0
0
0
0
0
0
0
0
0
0
0
0
0
0
0
0
0
0
0
0
0
0
0.0680167
0.105376
0.188428
0.125409
0.167441
0.215557
0.0687936
0.105174
0.182834
0
0.0635713
0.0989521
3.16159e-05
0.052274
0.190377
0
0.0812166
0.125892
0
0.0461705
0
0.00644532
0.0143242
0.119361
0
0.0613393
0
0.00869483
0.0241949
0.00916511
0
0.0103529
0
0.011356
0.0319143
0.0119395
1.00244e-06
8.88379e-07
7.1254e-07
9.23304e-08
5.25717e-07
4.28484e-07
1.05497e-06
9.32126e-07
8.21224e-07
1.54897e-07
2.50883e-08
1.95819e-08
2.12107e-07
1.56459e-07
8.86621e-08
1.79649e-09
1.01681e-08
4.20264e-08
0
0.0462237
0
0
0.010809
0.0500432
0
0.0614833
0
0
0.0462424
0
0
0.0104337
0.0135782
0
0.0616696
0
0
0.0461021
0
0
0.0104239
0
0
0.061609
0
6.64515e-12
8.96625e-12
2.64429e-12
8.78795e-12
1.26836e-11
2.08719e-11
1.95543e-13
1.85307e-12
3.20362e-12
1.54238e-15
3.18744e-14
1.25114e-13
1.03662e-15
2.33126e-14
5.16973e-14
6.67718e-16
1.20481e-13
2.47298e-13
2.62528e-16
4.50082e-14
9.20704e-14
4.11324e-16
2.65244e-14
4.6684e-14
1.17124e-14
4.83361e-14
1.32749e-13
1.00975e-14
6.4979e-15
6.66213e-15
2.91704e-13
1.67637e-15
1.41314e-15
7.03045e-15
1.51607e-15
1.6194e-15
1.10362e-13
2.36281e-14
2.27597e-14
1.54957e-12
1.47814e-14
2.2209e-15
1.79479e-13
7.1662e-15
6.61483e-15
1.78457e-13
1.52926e-13
5.48572e-14
9.1463e-13
8.75872e-13
6.60668e-13
4.0473e-13
4.54609e-13
4.34881e-13
4.04486e-25
1.37986e-21
6.9941e-17
1.20723e-21
1.34502e-19
9.47105e-17
1.37458e-20
2.7134e-18
1.76901e-17
2.4854e-24
1.15963e-21
4.75266e-20
3.76202e-22
9.26557e-19
3.17517e-18
1.67674e-20
4.20671e-17
2.81945e-16
1.22017e-23
4.97152e-21
1.61782e-19
9.99912e-23
4.91659e-20
1.13369e-17
2.43353e-20
3.01502e-16
3.38976e-15
9.02851e-30
1.32361e-29
1.17196e-28
1.14703e-24
1.93147e-24
2.2547e-24
5.22679e-24
3.93128e-24
6.92145e-24
2.91345e-31
2.82881e-31
1.85233e-28
9.24659e-26
5.07482e-26
8.97042e-26
1.00734e-24
1.04027e-27
1.40159e-24
1.02629e-33
1.06093e-32
3.57142e-28
3.99305e-28
8.28984e-29
5.29004e-26
1.03882e-26
2.24366e-29
5.64137e-25
2.55671e-34
4.29634e-34
5.07822e-33
9.5733e-30
1.91522e-30
6.23283e-29
1.46574e-31
3.57666e-32
1.47013e-29
1.16935e-34
3.80072e-35
5.77733e-34
9.23631e-30
2.37092e-30
5.56607e-29
1.33427e-34
5.72621e-35
6.18996e-34
2.08082e-35
5.21635e-36
1.02312e-34
5.35126e-30
1.3486e-30
2.77945e-29
4.1009e-35
9.9262e-36
1.90309e-34
2.06434e-18
6.92431e-19
4.40655e-19
4.37881e-16
4.36382e-16
4.92896e-16
1.73998e-15
1.55963e-15
1.33968e-15
3.83081e-18
7.82116e-19
4.27082e-19
6.59137e-16
4.87541e-16
5.36958e-16
7.03671e-15
2.30622e-15
1.66588e-15
3.85141e-18
8.09331e-19
5.69408e-19
3.70787e-13
1.26429e-13
7.26809e-15
4.10813e-13
4.11957e-15
1.83362e-15
1.62634e-18
4.11689e-19
1.94884e-19
1.34996e-13
5.33454e-14
1.14684e-14
1.868e-13
1.19065e-14
2.19728e-15
4.56944e-19
2.08005e-19
4.72027e-20
6.5882e-14
2.52084e-14
7.04302e-15
1.01594e-13
1.0622e-14
2.45464e-15
2.26428e-19
6.33806e-20
1.73399e-20
4.624e-14
1.29791e-14
3.41626e-15
7.49895e-14
1.60414e-14
2.46423e-15
)
;

boundaryField
{
    fuel
    {
        type            fixedValue;
        value           uniform 0;
    }
    primary_air
    {
        type            fixedValue;
        value           uniform 0.23;
    }
    Secondary_air_RHS
    {
        type            fixedValue;
        value           uniform 0.23;
    }
    Secondary_air_LHS
    {
        type            fixedValue;
        value           uniform 0.23;
    }
    outlet
    {
        type            inletOutlet;
        inletValue      uniform 0;
        value           nonuniform List<scalar> 
18
(
0
4.624e-14
0
0
1.29791e-14
0
0
3.41626e-15
0
0
5.35126e-30
0
0
1.3486e-30
0
0
2.77945e-29
0
)
;
    }
    stove_body
    {
        type            fixedValue;
        value           uniform 0;
    }
    frontAndBack
    {
        type            empty;
    }
}


// ************************************************************************* //
