/*--------------------------------*- C++ -*----------------------------------*\
  =========                 |
  \\      /  F ield         | OpenFOAM: The Open Source CFD Toolbox
   \\    /   O peration     | Website:  https://openfoam.org
    \\  /    A nd           | Version:  6
     \\/     M anipulation  |
\*---------------------------------------------------------------------------*/
FoamFile
{
    version     2.0;
    format      ascii;
    class       volScalarField;
    location    "3";
    object      p;
}
// * * * * * * * * * * * * * * * * * * * * * * * * * * * * * * * * * * * * * //

dimensions      [1 -1 -2 0 0 0 0];

internalField   nonuniform List<scalar> 
297
(
116615
116615
116615
194333
194332
194333
116615
116615
116615
116615
116615
116615
194333
194332
194333
116615
116615
116615
116615
116615
116615
194333
194332
194333
116615
116615
116615
98636.1
98054.8
97996.3
163599
163118
163210
98603.1
98030
97960.9
99399.7
97345.3
97717.3
163641
162273
162231
99271.8
97331.6
97618.4
95891.5
94325.4
95933.2
154618
157846
156310
95733.3
94451.6
95823.6
93500.9
95506.4
93082.1
160047
156054
156809
93744.2
95492
93204.3
97856.4
97686.1
97704.4
163442
162136
163055
97951.1
97758
97710.6
97910.8
98112.6
98087.3
163241
163394
163383
98069
98135.5
98005.1
72760.2
91954.1
83138.8
119179
150038
139729
74387.7
92185.7
84478.3
72005.2
91713.1
82228.2
115430
149340
136841
73844
91940.1
83643.9
74432.3
91946.8
83049.9
118117
149612
136656
76098.7
92156.9
84299.5
98080.8
98193.6
98112.2
163417
163471
163392
98173.1
98177.7
98006.8
98123.5
98188
98103.4
163486
163510
163409
98167.6
98180.9
98062.3
98123.1
98184.2
98113.2
163519
163532
163422
98165.5
98189.4
98098.8
98078.4
98143.4
98435.7
163311
163187
163025
97947.1
97818.8
97702.8
98004.7
97985.5
98140.9
163268
163103
162836
97897
97710.1
97451.7
97997
97946.1
97954.9
163237
163062
162737
97896
97675
97335.4
98409.4
98219.7
98150.7
163528
163472
163440
98383.7
98259.7
98194.4
98218.2
98106.3
98101
163422
163404
163427
98240.9
98165.6
98142.8
97908.7
97961.4
98044.4
163361
163401
163461
98046.7
98111.4
98139.6
98882.6
98793
98633.6
163710
163679
163616
98352.3
98428.3
98449.1
98760.2
98643.3
98459.2
163603
163575
163514
98307.1
98345.7
98334.8
98632.3
98513.4
98286.5
163422
163403
163362
98261.3
98282.5
98206.2
97786
97748
97655
162395
162388
162324
97810.9
97771.7
97710.2
93263.4
93276.6
93311
155005
155009
155008
93600.4
93571.8
93580.5
86336.1
86334.7
86336
139553
139563
139557
86525
86521.2
86519.1
98826.2
98917
98765.7
162958
162967
162982
98084
98993
99703
98498.1
98595.4
98473.2
162561
162463
162551
97474.3
98036.7
98980.5
98109.4
98202.4
98124.4
162078
161913
161948
97044.9
97444.4
98202.5
96325
96321
96356.5
158276
158396
158388
94475
94570.3
94608.6
90927.1
90946.8
90992.6
150300
150350
150368
90169.8
90305
90324.4
84334.1
84338.6
84345.5
137647
137712
137755
86581.7
86409.5
86269.7
)
;

boundaryField
{
    fuel
    {
        type            zeroGradient;
    }
    primary_air
    {
        type            zeroGradient;
    }
    Secondary_air_RHS
    {
        type            zeroGradient;
    }
    Secondary_air_LHS
    {
        type            zeroGradient;
    }
    outlet
    {
        type            totalPressure;
        rho             rho;
        psi             none;
        gamma           1;
        p0              uniform 100000;
        value           nonuniform List<scalar> 
18
(
87555.4
100000
99976
87565.4
100000
92780.9
87596.6
100000
88746.9
89697.6
100000
89960.8
89701.3
100000
89940.8
89723.2
100000
89947.4
)
;
    }
    stove_body
    {
        type            zeroGradient;
    }
    frontAndBack
    {
        type            empty;
    }
}


// ************************************************************************* //
