/*--------------------------------*- C++ -*----------------------------------*\
  =========                 |
  \\      /  F ield         | OpenFOAM: The Open Source CFD Toolbox
   \\    /   O peration     | Website:  https://openfoam.org
    \\  /    A nd           | Version:  6
     \\/     M anipulation  |
\*---------------------------------------------------------------------------*/
FoamFile
{
    version     2.0;
    format      ascii;
    class       surfaceScalarField;
    location    "3";
    object      phi;
}
// * * * * * * * * * * * * * * * * * * * * * * * * * * * * * * * * * * * * * //

dimensions      [1 0 -1 0 0 0 0];

internalField   nonuniform List<scalar> 
675
(
-2.80078e-06
-1.46307e-05
0.000140268
1.81776e-06
-2.55087e-05
0.000143757
-1.6174e-05
0.000140714
5.0519e-06
1.44614e-05
0.000172836
-3.58663e-06
2.60337e-05
0.000164072
1.60565e-05
0.000171324
-3.37302e-06
0.000140674
2.35434e-06
0.000143212
0.000141187
-1.21773e-06
-1.78092e-05
0.000158552
8.59947e-07
-4.53471e-05
0.000186324
-1.92402e-05
0.000159974
1.14177e-05
1.77743e-05
0.00012728
-2.0812e-06
4.58779e-05
8.77819e-05
1.93481e-05
0.000132239
-2.02361e-06
0.000159644
1.58346e-06
0.000184745
0.000161213
-1.50396e-06
3.57645e-05
5.54691e-07
5.98678e-05
3.61413e-05
-3.09737e-06
-3.77875e-05
-2.68442e-06
-5.61794e-05
-3.8185e-05
-2.58777e-06
1.51132e-06
0.00651438
0.00433279
-0.00757036
0.00550137
0.00100301
0.00311947
0.00125255
0.00535554
0.0145081
-0.00429151
-0.000506376
0.0101056
-0.00114196
0.0115587
-0.000384008
0.0165757
0.00648314
-0.00757385
0.00541152
0.00301727
0.00620136
0.00539577
0.009278
-0.0221165
-0.00711699
-0.00423689
0.0203172
0.00480506
-0.00489472
0.00822637
-0.00869271
0.00936706
0.00307549
0.00388046
0.0083337
-0.00502624
0.029651
0.0055746
-0.0217845
-0.00833917
0.0215246
-0.00427108
-0.000586042
0.0154768
-0.036914
-0.00376027
-0.00648314
0.0303453
0.0162708
-0.0249661
-0.0343412
-0.0150501
0.0742296
0.016253
0.00625719
-0.0547629
-0.0160905
0.0784818
-0.000665173
-0.0361478
-0.0033968
0.031003
-0.0237636
-0.0175373
-0.0199571
-0.0116832
0.049125
0.0146572
0.0118525
-0.0214526
-0.0224148
-0.0122628
-0.0124345
0.0397679
0.000871981
0.0192564
0.0145402
-0.0545272
0.000392768
-0.0128599
-0.0428683
0.0679528
0.0117108
0.0278089
-0.0512458
-0.0174524
-0.0122779
0.0489791
0.0147283
-0.0217948
-0.0228151
-0.0124544
0.0391484
0.00186472
-0.00902908
-0.00494404
-0.00394114
0.0077482
-0.0221775
-0.00783388
-0.00818003
-0.000394277
0.0083203
-0.00249908
-0.0167287
-0.00864127
-0.0106234
0.00797268
-0.00446619
0.000998807
-0.00537833
-0.00526753
-0.0224436
-0.00934072
0.00698604
-0.00353716
-0.0107939
-0.0077504
0.00285216
-0.0109417
-0.00412889
-0.0112677
0.00795978
-0.00636484
-0.0130618
0.014439
-0.00300474
-0.0139819
0.0118305
-0.00773801
-0.000254708
-0.0114321
-0.0143355
-0.0109626
-0.0114099
-0.00139017
-0.000321225
-0.0407957
0.00120268
0.000314217
0.0274348
-0.000698845
-0.029431
-0.00326702
0.000223901
0.0678077
0.00217775
-0.000359425
-0.059628
0.000632381
0.0686459
-0.00141402
-0.0402293
0.00127867
0.0279553
-0.0283394
-0.00130318
-2.47979e-05
-0.0450038
0.00104347
-2.57654e-05
0.0251139
-0.000341606
-0.034335
-0.00196609
-8.03728e-05
0.0609721
0.00212111
-1.18778e-05
-0.0638391
0.000174792
0.0597892
-0.00134604
-0.0446419
0.0010871
0.0255185
-0.0334969
-0.00186759
0.000267881
0.00101472
-0.000181194
9.93245e-05
-0.00201464
-0.000343503
0.0016528
0.000147378
-0.000184221
-0.00185935
0.00100003
0.00976861
-0.000413469
-0.00711632
-0.0130217
-0.00066768
0.000533928
-0.00102218
-0.000922818
0.000199831
-0.0111453
0.0108944
-0.00026974
-0.0101089
-0.0139746
0.00793766
-0.000545228
-0.00987288
0.00193644
-0.00125837
-0.00134312
-0.000999188
-0.00234447
-0.00835931
-0.0114099
-0.00107069
-0.00326785
-0.0175877
0.00377889
0.000224562
-0.00237548
-0.00875214
-0.00148341
0.00182481
0.00240939
0.000590333
0.00296635
-0.00480512
0.00676842
-0.000826591
-0.00469736
-0.0111404
0.00375837
-0.00118984
-0.0038205
0.000312415
0.00102145
0.00183708
0.00244233
0.000260289
-0.00589257
-0.00311728
0.00331044
0.0027386
-0.0087958
0.00054251
0.000354302
-0.00329169
0.00120396
0.001721
0.00103994
0.00313756
0.00360473
-0.000626404
-0.00735101
0.00294618
-0.00144838
-0.00102418
0.00611015
-0.000962352
0.000567677
0.000900343
0.00262365
-0.0106755
-0.000155432
-0.000305473
-0.0113926
0.00133462
-0.000618619
0.00217254
-0.00452316
-0.00904378
-0.00480439
0.000618269
0.00268631
-0.00655753
0.0006948
0.00239016
0.000385874
0.00337569
-0.00815967
-0.0174737
0.000500533
-0.0171366
0.000354548
-0.000113707
-0.0166427
-0.00485618
-0.000236869
-1.57693e-05
-0.00562682
0.000575781
-0.000429104
0.00112107
-0.00561481
-0.00566127
0.000111043
0.000931773
0.00324425
-0.00191906
0.00128316
0.00370921
0.000876678
0.00565916
-0.00396852
-0.00891683
0.00155312
-0.00899153
0.00170948
0.00174642
-0.00998836
0.00343435
-0.000317651
0.00302497
-2.68527e-05
0.000291451
-0.00289118
0.00799774
0.00103885
0.00998581
0.00168536
0.00109565
0.0148252
0.00520661
0.00859529
0.0114317
0.0120929
0.00180627
-0.00409342
-0.00980155
0.0120414
0.0013629
-0.00130919
-3.20904e-05
-0.000948317
0.0115488
-0.00170043
0.00122508
-0.00927618
0.0135024
-0.00142437
0.000820699
-0.000165832
-0.000350146
0.00821633
-0.00483827
-0.00508664
0.00790143
-0.00112213
-0.000636952
0.00886237
0.00055878
-0.0046241
-0.00888814
0.00909814
0.00051209
-0.00205635
-8.75773e-05
-0.000516837
0.0104863
-0.000377027
0.0016164
-0.00995053
0.0116526
-0.00055009
0.000704471
-0.000161343
0.000222562
0.00682593
-0.00599592
-0.00605572
0.00621721
-0.00107837
-0.000489137
0.00487297
-0.000984076
-0.00851299
0.00353739
-0.000722104
-0.000274381
0.00736651
0.000646616
-0.00738791
0.00733392
2.37263e-06
-8.35606e-05
0.00111402
-0.00647474
2.26954e-05
0.00429453
0.00170289
-0.00599291
0.00681543
0.00161077
-0.0041272
0.00162711
-0.00460961
0.00326144
-0.00111922
-0.00044209
0.00608582
-0.00125246
3.57899e-05
-0.00102549
-0.000542993
-0.00182698
0.000708597
0.0009784
-0.00405965
-0.00513662
0.00290284
0.00162479
-0.0105177
0.00600221
0.00146885
-0.00869298
0.00112636
-0.0086204
0.00253941
-0.00101048
-0.000348179
0.00670666
-0.00089056
-0.00177344
-0.000478085
-0.00218563
-0.000468913
0.00016662
0.00390204
-0.00932321
-0.00777115
0.00384986
0.00309586
-0.0174628
0.00447584
0.00222042
-0.0115391
0.00125601
-0.0139146
0.00273756
-0.00123446
0.00124494
0.00673519
-0.00223174
-0.00131837
-0.00136167
-0.000221279
-0.000983674
-8.35423e-05
0.00222652
-0.0147683
-0.0133845
-0.00492742
0.0105703
-0.0231041
-0.00174207
0.00902497
-0.0237513
0.00861652
-0.0242781
0.000213483
-0.0100718
0.0217435
-0.000181471
-0.0107095
0.0188432
-0.0103287
0.0185973
0.00582671
-0.0159449
0.00179825
-0.0214172
-0.0218846
0.000656823
0.0054085
-0.0292105
0.00106796
0.00541794
-0.0296224
0.00593981
-0.0291893
0.00136619
-0.00844647
0.0341897
0.000195499
-0.00813859
0.0335339
-0.00834496
0.0330538
0.00328103
-0.0276986
0.00202156
-0.0283204
-0.0282343
0.000149618
0.019229
-0.000100055
0.0192077
0.0192453
0.000812347
-0.0200076
0.000411402
-0.0199521
-0.0199475
0.000324413
0.000123737
-0.00230124
0.00220248
-0.00894746
0.00391537
0.00297328
-0.00919331
0.00296344
0.000949742
-0.00714409
-0.00113484
0.00231351
-0.00442482
-0.00161735
0.00186684
-0.00294383
0.00148116
-0.0167265
-0.00104833
-0.0107798
-0.00757354
-0.0137668
-0.00201289
0.00168943
-0.014289
0.00251868
0.00230702
-0.0160346
0.00243206
0.00103589
-0.00570275
-0.000577661
0.00630471
-0.00520667
-0.000944766
0.00461231
-0.00238525
0.00108185
-0.0114921
-0.000144787
-0.00870173
-0.0113483
-0.024847
-0.00423632
0.00137174
-0.0143208
0.00294726
0.00331554
-0.0265361
0.00196461
0.00201886
0.00760661
0.000238408
0.0146456
0.00125175
-0.000589185
0.0148634
-0.00478648
0.0090769
8.71647e-05
0.0114273
-0.00950361
-0.00234687
-0.0391429
0.000866976
0.0174478
-0.0326844
-0.0115801
0.0172569
-0.0313387
0.0154837
-0.0249795
0.00554977
0.00503851
0.0215257
0.00915901
0.00442474
0.0241274
0.000937167
0.0328635
-0.0144727
0.0309425
-0.00321505
-0.00917749
-0.0413772
-0.00272014
0.00775738
-0.03775
-0.0040418
0.00753135
-0.0375811
0.00786909
-0.0369247
-0.0102125
-0.00146624
0.0409236
-0.00811576
-0.00327579
0.0328014
-0.00237147
0.0349553
-0.00521519
0.0346416
0.00351343
-0.0212107
-0.0402734
-0.00035193
0.0153714
-0.000598013
0.0154226
0.0151855
-0.00232259
-0.0231758
-0.00198274
-0.0230658
-0.0214484
0.0140974
0.0112201
)
;

boundaryField
{
    fuel
    {
        type            calculated;
        value           nonuniform List<scalar> 
36
(
0.000123488
0.000205787
0.000123488
0.000123488
0.000205787
0.000123488
0.000123488
0.000205787
0.000123488
-0.000123489
-0.000205787
-0.000123489
-0.000123489
-0.000205787
-0.000123489
-0.000123489
-0.000205787
-0.000123489
0
0
0
0
0
0
0
0
0
0
0
0
0
0
0
0
0
0
)
;
    }
    primary_air
    {
        type            calculated;
        value           nonuniform List<scalar> 9(-0.00324354 -0.00537977 -0.00324246 -0.00322443 -0.00536397 -0.00322361 -0.0032225 -0.00536697 -0.00322134);
    }
    Secondary_air_RHS
    {
        type            calculated;
        value           nonuniform List<scalar> 9(0.00637917 0.0107213 0.00648195 0.0063093 0.0104997 0.00641793 0.00637235 0.0104855 0.00646823);
    }
    Secondary_air_LHS
    {
        type            calculated;
        value           nonuniform List<scalar> 9(0.00558283 0.0091445 0.0057077 0.0055249 0.00885688 0.00566599 0.00571113 0.00906304 0.00583899);
    }
    outlet
    {
        type            calculated;
        value           nonuniform List<scalar> 
18
(
-0.0528274
0.0817458
-0.00264071
-0.0528096
0.0708887
-0.0414514
-0.0527532
0.0695527
-0.0505587
-0.0486584
0.0724739
-0.0481054
-0.0486506
0.0729832
-0.0481475
-0.0486053
0.0725472
-0.0481337
)
;
    }
    stove_body
    {
        type            calculated;
        value           uniform 0;
    }
    frontAndBack
    {
        type            empty;
        value           nonuniform 0();
    }
}


// ************************************************************************* //
