/*--------------------------------*- C++ -*----------------------------------*\
  =========                 |
  \\      /  F ield         | OpenFOAM: The Open Source CFD Toolbox
   \\    /   O peration     | Website:  https://openfoam.org
    \\  /    A nd           | Version:  6
     \\/     M anipulation  |
\*---------------------------------------------------------------------------*/
FoamFile
{
    version     2.0;
    format      ascii;
    class       volScalarField;
    location    "3";
    object      Qdot;
}
// * * * * * * * * * * * * * * * * * * * * * * * * * * * * * * * * * * * * * //

dimensions      [1 -1 -3 0 0 0 0];

internalField   nonuniform List<scalar> 
297
(
-0.000555251
-0.000555251
-0.000334602
0
0
0
-0.000334602
0
0
0
0
0
0
0
-0.000669203
-0.000334602
0
0
0
-0.000110325
0
6.44346e-09
0
0
-0.000555251
-0.000444926
-0.000220649
0
4.02716e-10
0
0
0
3.22173e-09
0
-2.95988e-11
-1.18395e-10
4.02716e-10
0
0
0
-1.47994e-11
0
0
-1.47994e-11
4.02716e-10
0
-7.39969e-12
0
-1.84992e-12
0
-5.91975e-11
4.02716e-10
4.02716e-10
0
-1.84992e-12
7.98033e-10
4.00866e-10
0
0
4.02716e-10
-1.84992e-12
8.05433e-10
4.02716e-10
4.02716e-10
1.61087e-09
8.05433e-10
0
1.61087e-09
0
-2.25821e-16
0
0
0
-5.64552e-17
0
6.44346e-09
0
0
6.44346e-09
-2.82276e-17
0
2.01358e-10
-7.39969e-12
0
0
0
0
0
4.02716e-10
0
0
0
0
0
0
0
0
0
0
2.01358e-10
4.02716e-10
4.02716e-10
4.02716e-10
-7.39969e-12
0
0
0
4.02716e-10
0
0
0
0
0
-1.10264e-19
0
0
0
6.44346e-09
6.44346e-09
6.44346e-09
0
-1.0768e-22
1.28869e-08
-1.6825e-24
0
0
6.44346e-09
6.44346e-09
0
1.28869e-08
-1.0768e-22
1.28869e-08
-2.69199e-23
0
6.44346e-09
0
0
-2.69199e-23
0
0
-6.72998e-24
6.44346e-09
0
0
6.44346e-09
6.44346e-09
0
-6.8915e-21
-5.38399e-23
1.28869e-08
6.44346e-09
-2.69199e-23
6.44346e-09
-4.30719e-22
0
0
1.28869e-08
0
-3.44575e-21
6.44346e-09
0
0
0
6.44346e-09
-2.10312e-25
0
0
0
0
0
-5.2578e-26
-6.26778e-33
0
6.44346e-09
0
-3.28612e-27
-1.31445e-26
-5.13457e-29
6.44346e-09
-8.41248e-25
0
-1.28364e-29
-4.10766e-28
0
-2.05383e-28
0
0
6.44346e-09
0
0
0
-3.82555e-37
0
-1.25356e-32
0
0
-1.25356e-32
0
-7.47178e-40
6.44346e-09
6.44346e-09
-3.91737e-34
1.28869e-08
1.28869e-08
6.44346e-09
-3.06044e-36
0
0
-2.33493e-41
0
1.28869e-08
0
0
6.44346e-09
0
-1.56695e-33
-7.29666e-43
0
0
0
0
0
0
6.44346e-09
0
6.44346e-09
0
0
0
-1.19548e-38
6.44346e-09
6.44346e-09
0
-1.45933e-42
-4.56041e-44
0
0
0
6.44346e-09
0
-9.12083e-44
0
-3.64833e-43
0
6.44346e-09
0
0
1.28869e-08
0
0
0
-3.36499e-24
0
0
0
1.28869e-08
0
0
0
-6.72998e-24
0
0
0
0
1.28869e-08
1.28869e-08
-2.69199e-23
6.44346e-09
0
-6.72998e-24
0
0
0
0
-2.15359e-22
1.28869e-08
-4.30719e-22
0
0
6.44346e-09
-4.10766e-28
-1.02691e-28
0
-1.0768e-22
6.44346e-09
6.44346e-09
0
6.44346e-09
0
0
0
0
6.44346e-09
6.44346e-09
-2.15359e-22
0
0
)
;

boundaryField
{
    fuel
    {
        type            calculated;
        value           uniform 0;
    }
    primary_air
    {
        type            calculated;
        value           uniform 0;
    }
    Secondary_air_RHS
    {
        type            calculated;
        value           uniform 0;
    }
    Secondary_air_LHS
    {
        type            calculated;
        value           uniform 0;
    }
    outlet
    {
        type            calculated;
        value           uniform 0;
    }
    stove_body
    {
        type            calculated;
        value           uniform 0;
    }
    frontAndBack
    {
        type            empty;
    }
}


// ************************************************************************* //
