/*--------------------------------*- C++ -*----------------------------------*\
  =========                 |
  \\      /  F ield         | OpenFOAM: The Open Source CFD Toolbox
   \\    /   O peration     | Website:  https://openfoam.org
    \\  /    A nd           | Version:  6
     \\/     M anipulation  |
\*---------------------------------------------------------------------------*/
FoamFile
{
    version     2.0;
    format      ascii;
    class       volScalarField;
    location    "3";
    object      T;
}
// * * * * * * * * * * * * * * * * * * * * * * * * * * * * * * * * * * * * * //

dimensions      [0 0 0 1 0 0 0];

internalField   nonuniform List<scalar> 
297
(
292.977
292.977
292.977
292.99
292.99
292.99
292.977
292.977
292.977
292.978
292.981
292.978
293.063
293.032
293.058
292.978
292.981
292.978
292.947
291.546
292.946
300.113
295.699
299.34
292.946
292.188
292.946
4365.99
3497.5
1519.67
3006.36
2098.81
557.669
4271.81
3443.6
1598.41
5000
4419.06
3556.57
5000
4682.09
1682.61
5000
4000.57
2907.36
5000
4189.56
5000
4382.89
2749.07
2709.89
5000
3877.43
5000
4214.61
2610.47
3439.17
5000
2436.85
5000
4076.86
2414.09
3313.85
3671.45
876.724
2510.02
5000
2335.67
4786.88
3456.89
805.048
2406.13
364.284
314.124
308.632
428.997
351.033
345.097
301.76
304.21
315.193
5000
4187.86
5000
4746.64
2451.77
4048.24
5000
3874.67
5000
5000
4183.7
4346.73
4998.75
2440.24
4349.27
4969.09
3870.41
4220.54
4617.31
4178.58
3975.04
5000
2439.19
5000
4472.06
3865.68
3846.19
300.231
300.523
302.357
300.062
300.144
300.595
300.049
301.222
301.152
300.436
300.809
302.514
300.138
300.249
300.727
300.196
300.753
301.456
300.314
300.438
302.045
300.151
300.26
300.96
300.302
300.588
301.186
302.514
302.592
302.825
302.467
302.644
302.693
300.991
300.84
300.637
302.69
302.733
302.827
301.767
302.525
302.641
301.58
301.552
301.233
301.932
301.826
302.646
301.18
301.492
301.617
301.249
301.206
301.153
300.547
300.398
300.299
300.298
300.212
300.123
300.356
300.249
300.117
300.747
300.64
300.608
300.358
300.304
300.188
300.431
300.391
300.316
300.769
300.719
300.564
300.43
300.291
300.184
300.437
300.26
300.198
300.936
300.914
300.706
300.421
300.431
300.375
299.886
300.339
300.367
300.931
300.911
300.757
300.542
300.548
300.496
299.835
300.383
300.412
300.868
300.828
300.725
300.735
300.653
300.623
300.121
300.271
300.366
300.728
300.666
300.61
299.914
300.414
300.319
300.154
300.179
300.316
298.248
298.114
298.159
298.476
298.752
299.604
297.979
297.998
298.087
291.779
291.737
291.768
287.156
287.065
287.161
291.655
291.62
291.659
302.854
303.221
303.356
302.659
302.729
302.626
300.702
301.252
301.112
302.781
303.096
303.595
302.678
302.786
302.732
301.192
301.08
300.453
302.522
302.918
303.953
301.908
302.613
302.721
301.033
301.167
299.724
301.972
302.476
302.711
302.684
302.639
300.939
298.879
298.932
297.967
297.666
299.054
298.882
301.189
301.226
300.042
295.403
294.733
295.643
291.853
292.495
292.559
282.994
288.026
289.201
299.544
290.717
291.464
)
;

boundaryField
{
    fuel
    {
        type            fixedValue;
        value           uniform 293;
    }
    primary_air
    {
        type            fixedValue;
        value           uniform 293;
    }
    Secondary_air_RHS
    {
        type            fixedValue;
        value           uniform 293;
    }
    Secondary_air_LHS
    {
        type            fixedValue;
        value           uniform 293;
    }
    outlet
    {
        type            inletOutlet;
        inletValue      uniform 293;
        value           nonuniform List<scalar> 
18
(
293
282.994
293
293
288.026
293
293
289.2
293
293
287.158
293
293
287.065
293
293
287.161
293
)
;
    }
    stove_body
    {
        type            fixedValue;
        value           uniform 293;
    }
    frontAndBack
    {
        type            empty;
    }
}


// ************************************************************************* //
