/*--------------------------------*- C++ -*----------------------------------*\
  =========                 |
  \\      /  F ield         | OpenFOAM: The Open Source CFD Toolbox
   \\    /   O peration     | Website:  https://openfoam.org
    \\  /    A nd           | Version:  6
     \\/     M anipulation  |
\*---------------------------------------------------------------------------*/
FoamFile
{
    version     2.0;
    format      ascii;
    class       volVectorField;
    location    "3";
    object      U;
}
// * * * * * * * * * * * * * * * * * * * * * * * * * * * * * * * * * * * * * //

dimensions      [0 1 -1 0 0 0 0];

internalField   nonuniform List<vector> 
297
(
(8.11463 -0.0072588 0.253886)
(8.11451 -0.00277814 0.256894)
(8.11463 0.00566535 0.25458)
(2.63977e-06 0.0114348 0.246934)
(1.65738e-06 0.00184244 0.246278)
(3.45796e-06 -0.00902989 0.246082)
(-8.11462 -0.00834731 0.254712)
(-8.11453 -0.00278752 0.2573)
(-8.11462 0.0065726 0.255487)
(8.11464 -0.0077567 0.265398)
(8.1145 0.000447524 0.284733)
(8.11464 0.00531872 0.26673)
(2.69845e-06 0.0123356 0.207981)
(1.37432e-06 0.0241651 0.165553)
(3.46499e-06 -0.00717359 0.206459)
(-8.11463 -0.00999672 0.266836)
(-8.11452 0.000205684 0.286605)
(-8.11463 0.00734139 0.268333)
(8.11394 -0.0415906 0.398431)
(6.80677 0.000416684 0.388605)
(8.11393 0.0338044 0.400728)
(2.34075e-06 0.171489 0.09956)
(7.47237e-07 -0.0351583 0.113454)
(2.95706e-06 -0.121667 0.112145)
(-8.11393 -0.0480196 0.400132)
(-7.32451 -5.77479e-05 0.403454)
(-8.11392 0.0401474 0.402672)
(79.0213 -28.6135 -36.1154)
(63.198 38.8227 4.32132)
(27.2325 36.9384 14.826)
(-0.00410516 9.9605 -21.2037)
(-0.00214731 26.9114 2.94618)
(-0.000809529 13.8232 11.0391)
(-77.3342 -28.821 -31.9102)
(-62.2393 39.3338 9.41421)
(-28.6708 35.8286 18.6458)
(90.7928 -137.12 30.4925)
(80.2343 33.922 161.218)
(64.1905 -1.66894 169.05)
(-0.0268331 -58.8061 266.324)
(-0.00268086 49.813 260.855)
(-0.00689392 20.0154 180.581)
(-90.8765 -134.732 24.6458)
(-72.518 30.3366 144.205)
(-52.3786 -4.17292 149.688)
(88.9466 -265.079 -104.855)
(76.7611 61.9696 285.484)
(89.8317 64.2258 62.7246)
(-0.0307226 -124.674 407.336)
(0.0149814 -36.0909 -14.1425)
(-0.01288 33.3786 281.88)
(-89.0583 -254.665 -120.749)
(-70.8505 57.022 266.618)
(-89.925 62.9853 63.4387)
(78.3174 -103.296 -443.191)
(46.7331 -7.67189 -16.3317)
(63.3114 49.2772 -250.639)
(0.0516928 -267.04 -98.6922)
(-0.00154726 44.7953 -254.759)
(0.026563 60.792 186.265)
(-75.6163 -96.6154 -421.54)
(-43.2042 -9.02322 -15.5199)
(-60.9496 48.5222 -229.578)
(67.3538 -24.9461 -306.289)
(16.0297 4.6694 -113.468)
(46.0414 -40.0301 -177.918)
(0.0198896 -100.143 -264.933)
(0.00712411 -31.7505 -119.401)
(0.00124136 22.2332 -35.6017)
(-63.3992 -11.388 -297.349)
(-14.7161 -3.45028 -105.185)
(-44.1244 -27.8558 -160.655)
(6.68948 17.2488 -13.1235)
(5.76309 4.68877 -13.6665)
(5.66421 -19.984 -20.4149)
(0.00286328 11.0684 -4.62484)
(0.000339272 5.91046 -22.8448)
(-0.00119547 6.01707 -26.9983)
(-5.53635 19.4538 -12.4354)
(-5.58027 -11.9862 -13.8718)
(-5.78612 -11.8799 -22.1481)
(77.4376 -268.857 -780.129)
(75.6752 16.5841 310.886)
(81.9897 114.479 -460.799)
(0.443983 -195.416 628.919)
(0.0242741 -20.9881 -259.25)
(0.270639 47.684 442.265)
(-77.9629 -255.542 -755.735)
(-69.8243 13.6239 290.015)
(-83.4445 109.982 -435.69)
(81.399 -193.816 -765.052)
(71.7308 0.33358 316.724)
(73.9895 83.2699 -462.6)
(0.479558 -230.34 732.619)
(0.0242724 7.09699 -272.91)
(0.302325 42.853 495.414)
(-81.3495 -177.518 -721.78)
(-66.3457 -1.66176 296.392)
(-72.6986 76.4727 -431.524)
(82.5513 -183.332 -658.661)
(69.1739 -31.213 301.859)
(71.8241 70.7016 -393.85)
(0.405453 -303.027 722.042)
(0.0229873 19.1527 -273.443)
(0.285951 65.0283 598.137)
(-78.8731 -176.903 -625.989)
(-64.1158 -30.4869 283.023)
(-68.9096 71.7718 -364.033)
(5.50304 34.1103 -7.16409)
(5.50949 24.0483 -6.82739)
(5.54441 -30.8161 -7.39833)
(0.00116515 22.3492 -6.63909)
(-0.000200902 15.5998 -6.79533)
(-0.00133493 11.269 -1.28174)
(-5.50048 23.7165 -6.27221)
(-5.52454 -25.0915 -7.47449)
(-5.52461 -41.178 -10.3006)
(5.51287 18.1265 -3.25605)
(5.52046 7.3722 2.4604)
(5.55249 -17.9422 5.6943)
(0.000556866 16.3038 -1.26169)
(-9.05888e-05 7.64569 -1.48388)
(-0.000520955 7.42855 0.599514)
(-5.50917 17.0835 -0.484024)
(-5.51945 1.94138 3.55439)
(-5.53404 -18.3194 8.77198)
(5.51367 -0.0195431 -4.4311)
(5.51451 5.01808 0.617006)
(5.54345 2.89261 1.94297)
(0.000536056 8.71133 -3.02761)
(6.48737e-05 4.67092 -2.01191)
(-0.000182092 8.42331 -0.939823)
(-5.51335 -1.90073 1.25157)
(-5.51773 3.56509 2.39835)
(-5.52915 8.0795 -2.3925)
(5.54682 -33.9008 -10.9283)
(5.54819 -31.4118 -14.3508)
(5.53685 -22.4745 -17.8933)
(-0.00167489 -5.97527 -2.04091)
(-0.00414351 -11.3824 -5.48338)
(-0.0093591 -13.1144 -6.51579)
(-5.52195 -47.7098 -12.3783)
(-5.51274 -49.9658 -13.3723)
(-5.50819 -52.4672 -14.5917)
(5.55573 -16.3407 2.42626)
(5.55486 -19.9889 -3.46058)
(5.54109 -12.0434 -15.0187)
(-0.00137019 4.2745 5.35538)
(-0.00351643 -2.3163 6.03343)
(-0.0088125 -5.98532 8.14633)
(-5.53661 -22.8428 9.53704)
(-5.54162 -26.7645 8.90422)
(-5.53813 -36.7066 4.21519)
(5.53866 8.0598 1.74699)
(5.53471 10.8688 7.40467)
(5.54127 -1.3144 -14.3478)
(-0.00128346 14.9475 0.763264)
(-0.00345048 16.4028 2.99838)
(-0.00789349 22.562 5.89669)
(-5.53284 12.354 0.415868)
(-5.5375 17.8641 2.01746)
(-5.53369 25.079 4.44257)
(5.50693 28.5139 -8.64979)
(5.51127 32.9721 -6.81383)
(5.50102 36.0265 -4.48665)
(-0.000324757 17.0526 -4.82694)
(0.000506238 20.9913 -4.28635)
(0.000551048 23.1505 -3.69156)
(-5.50503 15.1113 -11.2471)
(-5.50709 19.6629 -9.02767)
(-5.50012 24.4477 -5.70248)
(5.50955 24.3386 -12.1314)
(5.51901 27.4587 -6.48964)
(5.51184 26.7831 -1.14327)
(0.000286192 16.6331 1.31703)
(0.000748951 19.3244 1.74629)
(0.000526996 19.2942 1.5662)
(-5.50386 17.0367 -13.5937)
(-5.51147 18.3639 -5.9815)
(-5.50993 18.8419 -2.13526)
(5.51268 20.8925 -17.2252)
(5.52279 16.0636 -12.9661)
(5.51997 8.65451 -5.00356)
(0.00174657 12.8879 1.27811)
(0.00189674 12.6369 1.60534)
(0.00120326 12.6034 0.754385)
(-5.50477 14.6069 -17.6993)
(-5.51069 0.725633 0.824779)
(-5.51086 -4.09182 4.68246)
(5.49641 9.53809 -16.1888)
(5.4986 13.2938 -12.2699)
(5.50233 20.6773 -13.0426)
(-0.0067 2.71496 -4.69554)
(-0.00460785 6.27239 -3.47877)
(-0.00233103 12.2864 -5.07038)
(-5.5013 -9.83062 -3.27858)
(-5.50488 1.46089 -9.44542)
(-5.50457 9.8489 -14.9418)
(5.50002 3.64855 -21.7844)
(5.50358 9.89475 -17.2014)
(5.5046 19.4244 -20.1931)
(-0.005729 0.798 1.11639)
(-0.00376394 7.22285 1.08552)
(-0.00157384 12.7722 -0.16165)
(-5.49934 -8.26387 2.62761)
(-5.50373 10.7906 -16.7933)
(-5.50529 12.7369 -16.618)
(5.51171 1.60752 -24.8049)
(5.51095 8.80889 -22.5743)
(5.51239 13.4297 -27.1406)
(-0.00469775 0.747781 0.00353437)
(-0.00292389 8.66767 -3.82418)
(-0.00101783 10.3392 -1.57122)
(-5.50244 -1.38611 5.76281)
(-5.5122 9.39953 -23.9046)
(-5.51088 9.79434 -24.8703)
(5.5103 -3.0188 -38.7463)
(5.50947 -2.32868 -39.1454)
(5.51155 -9.76699 -43.5491)
(0.000317201 1.80151 29.5899)
(0.000301115 1.80484 23.5246)
(0.000702346 -8.03556 24.7654)
(-5.49666 5.01074 -4.35266)
(-5.5006 0.288379 -31.4555)
(-5.50438 -7.16317 -32.7456)
(5.46088 0.853359 -102.32)
(5.45773 -0.474887 -104.382)
(5.45723 4.16309 -102.973)
(0.00446742 0.694822 63.8573)
(0.00391587 0.86225 60.9929)
(0.00358573 -1.28314 60.0588)
(-5.44312 -0.332336 -96.779)
(-5.44473 0.727687 -99.7353)
(-5.44596 3.37613 -99.7354)
(5.24398 0.030364 -141.34)
(5.24342 0.0127341 -141.311)
(5.24391 -0.0219725 -141.144)
(0.00266826 0.248397 184.778)
(0.00263392 0.424481 186.021)
(0.00258634 -0.377564 184.968)
(-5.23495 0.0719318 -139.318)
(-5.23455 0.10773 -139.472)
(-5.23519 0.0339199 -139.422)
(5.52129 -12.8085 -27.9965)
(5.52403 -1.249 -26.8766)
(5.53097 9.06209 -8.968)
(-0.00947453 -14.2238 -8.15065)
(0.000970707 -7.93547 -9.70144)
(0.011975 -5.72304 -9.29771)
(-5.50618 -47.9257 -20.8562)
(-5.46604 -28.6633 -27.9156)
(-5.44737 -21.5199 -35.6668)
(5.51834 -7.17879 -31.1616)
(5.51906 -3.66197 -33.038)
(5.53567 6.54886 5.07032)
(-0.0131086 -11.2245 9.94485)
(-0.00716203 -8.28656 6.184)
(0.00649724 -2.86753 7.8602)
(-5.53152 -36.1848 -7.39274)
(-5.49011 -22.147 -31.0398)
(-5.45395 -5.3274 -52.5514)
(5.52777 -2.05081 -42.6781)
(5.53539 -2.41816 -43.7594)
(5.54037 2.28473 6.11996)
(-0.0135937 19.0416 17.5741)
(-0.00973012 8.53681 16.5586)
(0.00100265 -0.756562 0.979294)
(-5.51527 23.854 18.8086)
(-5.50617 -17.9967 -19.6972)
(-5.48377 -1.16156 -63.5907)
(5.49512 1.94967 -69.7192)
(5.50834 -3.90883 -61.7472)
(5.50652 -2.10458 -28.0359)
(-0.0243481 9.99295 29.3439)
(-0.023016 0.549029 33.0153)
(-0.022856 0.0228574 54.1128)
(-5.50529 7.89071 65.9254)
(-5.50449 -13.1296 26.6839)
(-5.49115 12.1352 -90.9798)
(5.42847 -2.60035 -128.945)
(5.45369 -0.571281 -128.359)
(5.44876 -1.1035 -124.881)
(-0.0104432 0.0778705 67.7676)
(-0.00884883 -3.36596 68.4127)
(-0.00917612 -1.97469 79.8696)
(-5.41754 -0.762066 101.854)
(-5.40316 3.96034 -80.9247)
(-5.41515 -3.75983 -127.882)
(5.27525 -0.0883682 -157.229)
(5.28822 -0.231945 -157.157)
(5.29037 -0.138718 -156.932)
(0.0317144 0.0940887 205.464)
(0.0297382 -0.431291 181.272)
(0.0277358 -0.501301 178.57)
(-5.3274 3.16542 -6.46648)
(-5.1788 6.59262 -116.332)
(-5.19613 2.97722 -148.506)
)
;

boundaryField
{
    fuel
    {
        type            fixedValue;
        value           uniform (0 0 0.25);
    }
    primary_air
    {
        type            fixedValue;
        value           uniform (0 0 2.5);
    }
    Secondary_air_RHS
    {
        type            fixedValue;
        value           uniform (0 58.3333 0);
    }
    Secondary_air_LHS
    {
        type            fixedValue;
        value           uniform (0 -58.3333 0);
    }
    outlet
    {
        type            pressureInletOutletVelocity;
        value           nonuniform List<vector> 
18
(
(0 0 -157.229)
(0.0317144 0.0940887 205.464)
(0 0 -6.46648)
(0 0 -157.157)
(0.0297382 -0.431291 181.272)
(0 0 -116.332)
(0 0 -156.932)
(0.0277358 -0.501301 178.57)
(0 0 -148.506)
(0 0 -141.34)
(0.00266826 0.248397 184.778)
(0 0 -139.318)
(0 0 -141.311)
(0.00263392 0.424481 186.021)
(0 0 -139.472)
(0 0 -141.144)
(0.00258634 -0.377564 184.968)
(0 0 -139.422)
)
;
    }
    stove_body
    {
        type            noSlip;
    }
    frontAndBack
    {
        type            empty;
    }
}


// ************************************************************************* //
