/*--------------------------------*- C++ -*----------------------------------*\
  =========                 |
  \\      /  F ield         | OpenFOAM: The Open Source CFD Toolbox
   \\    /   O peration     | Website:  https://openfoam.org
    \\  /    A nd           | Version:  6
     \\/     M anipulation  |
\*---------------------------------------------------------------------------*/
FoamFile
{
    version     2.0;
    format      ascii;
    class       volScalarField;
    location    "3";
    object      p;
}
// * * * * * * * * * * * * * * * * * * * * * * * * * * * * * * * * * * * * * //

dimensions      [1 -1 -2 0 0 0 0];

internalField   nonuniform List<scalar> 
297
(
120440
120440
120440
199354
199354
199354
120440
120440
120440
120440
120440
120440
199354
199354
199354
120440
120440
120440
120440
120440
120440
199354
199354
199354
120440
120440
120440
97131.8
97137.6
97134.1
160560
160592
160644
97172.2
97196.7
97196.2
97112.5
97071
97059.8
160211
160323
160287
97149.5
97134.7
97136
97040.2
97059.6
96744.3
158247
159451
158310
97032.8
97066.3
96832.9
96085
96454
96199.4
159210
158932
158984
96220.1
96458
96223.4
96415.5
96597.5
96516.3
159930
159694
159733
96540.1
96540.8
96396.7
96409.4
96730.7
96688.5
159888
159879
159886
96740.5
96785.3
96512.8
95517.9
97138.6
95762.6
152655
158005
154883
95052.5
97040.7
95822.2
95302.2
97102.6
95606.3
152048
157943
154423
94776.3
97005.3
95673.3
95275
97024.1
95510
152520
158039
154547
94684.6
96943.2
95590.6
96943.4
97227
97158.4
159881
159980
160087
97114.5
97240.1
97081.8
97059.3
97299.3
97277.3
159908
160054
160175
97214.5
97302.1
97129.7
97148.9
97290.5
97307.8
159931
160098
160215
97247.2
97288.5
97168
96980.1
96847.2
96735.1
159968
159890
159725
97432.7
97621.9
98301
96932.2
96644.8
96340.4
159943
159792
159529
97092.6
97099.5
97606.1
96920.5
96577.3
96212.7
159959
159742
159425
97004.9
96899.1
96895.9
98448.5
97747.8
97494.2
159806
159857
159827
96724
96872.1
96990
97674.3
97163.5
97139.4
159558
159788
159816
96318.8
96643.6
96915.3
96810.9
96838.1
97015.9
159431
159722
159810
96205.7
96586.2
96907.4
98944.9
99129.3
98996.2
159648
159636
159676
99089.8
98279.5
97168.2
98569.5
98689.7
98394.9
159268
159236
159293
98102.8
97108
96381.7
98100.6
98206.7
97746
158632
158735
158781
96955.7
96192.2
95800.3
95355.9
95263
95232.5
154539
154516
154344
92609.8
92554.5
92472.4
90213.2
90133.9
90136.7
146812
146784
146730
88824.5
88794.8
88708.9
84169.6
84152.9
84134.9
134921
134823
134725
86658.5
86813.8
87007
97207.5
98331.3
99151.8
159592
159515
159550
98949.1
99107.6
98826.3
96443
97178.4
98171.9
159246
159123
159234
98310.1
98572.2
98441.2
95892.8
96305.2
97028.9
158839
158783
158741
97605.7
98029.2
98045
92592
92670.6
92711.5
154632
154851
154870
95530.7
95594.9
95685.5
88756.2
88852.9
88888.2
146839
146903
146937
90323.4
90319.6
90386.3
87044.9
86863.6
86712.8
134893
134982
135067
84279.5
84292.9
84307.9
)
;

boundaryField
{
    fuel
    {
        type            zeroGradient;
    }
    primary_air
    {
        type            zeroGradient;
    }
    Secondary_air_RHS
    {
        type            zeroGradient;
    }
    Secondary_air_LHS
    {
        type            zeroGradient;
    }
    outlet
    {
        type            totalPressure;
        rho             rho;
        psi             none;
        gamma           1;
        p0              uniform 100000;
        value           nonuniform List<scalar> 
18
(
99995.5
100000
86706.5
93528.3
100000
86506.8
87829.5
100000
86641.2
86459.2
100000
87808
86249.4
100000
93561.5
86391.7
100000
99998
)
;
    }
    stove_body
    {
        type            zeroGradient;
    }
    frontAndBack
    {
        type            empty;
    }
}


// ************************************************************************* //
