/*--------------------------------*- C++ -*----------------------------------*\
  =========                 |
  \\      /  F ield         | OpenFOAM: The Open Source CFD Toolbox
   \\    /   O peration     | Website:  https://openfoam.org
    \\  /    A nd           | Version:  6
     \\/     M anipulation  |
\*---------------------------------------------------------------------------*/
FoamFile
{
    version     2.0;
    format      ascii;
    class       volVectorField;
    location    "3";
    object      U;
}
// * * * * * * * * * * * * * * * * * * * * * * * * * * * * * * * * * * * * * //

dimensions      [0 1 -1 0 0 0 0];

internalField   nonuniform List<vector> 
297
(
(76.8866 -0.0294308 0.252952)
(76.8841 -0.00312163 0.245816)
(76.8861 0.0287016 0.248303)
(1.20162e-06 0.0477735 0.334775)
(1.18797e-06 0.0060519 0.333964)
(1.20658e-06 -0.0432624 0.338703)
(-76.8866 -0.0291744 0.25285)
(-76.8841 -0.00313195 0.245918)
(-76.8861 0.0283974 0.24821)
(76.9277 -0.00694497 0.271998)
(76.8859 -0.00136737 0.281687)
(76.905 0.00158516 0.273768)
(1.20704e-06 0.127663 -0.165215)
(1.17889e-06 0.0191065 -0.0435234)
(1.20919e-06 -0.143085 -0.151821)
(-76.9277 -0.00684273 0.271944)
(-76.885 -0.00140094 0.282081)
(-76.905 0.00147026 0.273698)
(77.1247 -0.0784583 0.557264)
(76.952 -0.0143973 0.568766)
(77.0719 0.0599937 0.550269)
(1.0514e-06 -0.28428 0.446269)
(1.05466e-06 0.00971708 0.334552)
(1.06603e-06 0.303201 0.448357)
(-77.1241 -0.079303 0.557347)
(-76.9522 -0.0143986 0.568712)
(-77.0713 0.0609021 0.550354)
(65.3179 4.67789 -5.63285)
(63.5925 4.76826 -2.68034)
(57.0318 2.81812 1.11166)
(0.0053521 1.00636 4.47298)
(0.00790452 -0.652659 3.91314)
(0.00792428 0.078435 5.24851)
(-65.5044 6.57199 -5.65969)
(-64.0276 4.82823 -3.12396)
(-58.0454 2.37007 1.53281)
(71.6312 6.97538 -9.25279)
(71.2338 7.16375 -7.71584)
(67.2229 7.87643 13.4792)
(0.00558727 9.74598 37.4739)
(0.00897373 0.662378 26.2709)
(0.010428 0.675297 34.7523)
(-71.4255 11.5838 -9.45251)
(-71.0768 8.67758 -6.96924)
(-67.9427 9.12566 10.6738)
(70.6996 4.45023 -11.8833)
(69.5706 -7.56516 -5.80494)
(80.8897 -23.7608 19.465)
(-0.00118823 -7.77634 52.0769)
(0.00109416 -3.82279 11.3886)
(0.0140774 7.80411 52.1585)
(-70.4882 10.6335 -13.3388)
(-69.5578 -9.6506 -3.95297)
(-84.1759 -12.751 24.7829)
(65.7643 -6.24905 -43.5711)
(60.1767 -2.59263 -28.5711)
(68.3788 -10.3128 -39.5702)
(0.0239027 -2.1275 2.1196)
(0.000697921 8.48888 -32.8848)
(0.00437106 -5.87274 25.2297)
(-64.7163 3.15331 -58.4056)
(-63.5357 -2.20514 -27.5924)
(-69.7281 2.39438 -37.2129)
(67.3872 11.4729 -29.9513)
(60.2864 -0.973795 -36.6461)
(64.1122 -22.9871 -25.7247)
(0.0222125 -0.0735225 -2.59355)
(-0.00962351 5.09814 -14.5844)
(-0.021951 -5.65 20.8706)
(-60.4633 14.7371 -35.2059)
(-63.6527 -3.99822 -36.4266)
(-70.6649 -3.6568 -20.0267)
(61.9413 19.0059 -26.996)
(57.0135 15.0438 -34.0368)
(59.2047 -30.8532 -30.9152)
(0.059011 -2.64363 6.25002)
(0.00820312 0.152551 -17.0195)
(-0.0321948 -2.98418 18.5396)
(-56.0749 14.6281 -31.0288)
(-61.3674 -20.8139 -28.5884)
(-66.7841 -21.5615 -21.177)
(60.8649 6.83872 -51.6299)
(58.6332 -10.2628 -14.5676)
(75.2717 -40.5398 -32.905)
(-0.0812216 -5.954 71.0586)
(-0.0154349 -2.44376 -35.1289)
(0.0106634 0.0654142 69.0631)
(-62.3634 12.6663 -58.7035)
(-61.7405 -14.3654 -16.6139)
(-78.9418 -25.4083 -32.3864)
(60.7514 1.66476 -55.4897)
(57.5215 -6.52946 -12.9131)
(66.7581 -22.2714 -40.1393)
(-0.0773571 -4.91714 79.0925)
(-0.0158759 0.936764 -36.6051)
(0.0112999 0.236079 75.7146)
(-59.017 6.73855 -62.4183)
(-61.6839 -9.65239 -16.6723)
(-69.055 -8.03018 -38.0356)
(62.7536 -1.9469 -52.6605)
(59.3741 -4.17379 -17.0035)
(61.3597 -17.7418 -40.4421)
(-0.0837414 -3.8224 78.145)
(-0.0138307 2.89956 -35.2322)
(0.013178 -5.31877 78.682)
(-52.4645 5.89425 -61.4913)
(-62.8341 -7.97888 -20.6505)
(-63.3635 -4.29318 -38.2638)
(54.1858 40.9149 -7.84553)
(53.8248 15.0061 -9.06572)
(53.459 -41.4297 -8.95363)
(0.0260471 -6.29449 -0.279659)
(0.0019037 -5.46344 -6.77926)
(-0.0139264 2.01994 12.8982)
(-52.6168 38.4045 -9.38463)
(-55.1886 -17.1889 -10.0496)
(-56.2911 -41.6338 -8.28936)
(52.6885 38.1578 -0.888346)
(52.8081 27.0011 -4.43671)
(53.1209 -27.7108 3.8823)
(0.0196728 3.16637 -2.06979)
(0.000390636 -2.90189 -5.2474)
(-0.0259803 0.315283 6.44479)
(-52.4924 28.6586 4.11991)
(-55.1075 -23.0748 -3.51485)
(-55.6599 -35.7045 -1.32896)
(52.8535 4.46908 3.69617)
(53.0159 9.25917 1.76905)
(53.1898 6.0126 -1.13665)
(0.0126293 -6.79 -0.887111)
(-0.000270336 -4.04243 -1.33353)
(-0.0207575 3.4426 -0.621487)
(-53.0269 -4.23907 -0.823691)
(-55.2847 -9.78905 2.06862)
(-55.1731 -0.686158 4.82063)
(51.874 -47.3954 -6.46636)
(51.1765 -50.8674 -9.36913)
(50.9316 -55.6299 -10.7124)
(0.0595069 1.44084 -0.278606)
(0.0967405 -9.30604 -7.65802)
(0.194371 -9.03431 -10.6753)
(-51.0021 -46.364 -5.9673)
(-52.1874 -48.9236 -14.4302)
(-52.2418 -31.7465 -22.5373)
(52.8167 -34.4432 8.78182)
(52.5323 -39.4964 7.16939)
(52.368 -44.3362 4.28695)
(0.0270656 11.828 4.98826)
(0.0688421 8.39593 5.86867)
(0.170998 1.69114 11.4443)
(-53.8496 -37.3702 1.46149)
(-53.0843 -42.9246 -9.53538)
(-51.9852 -26.8188 -23.5747)
(53.0697 7.87438 4.16804)
(53.1416 13.2826 5.22503)
(53.5055 23.124 9.73026)
(0.0126384 15.3367 0.64488)
(0.0476206 20.9317 0.91017)
(0.0960922 30.4899 8.67083)
(-54.7195 -10.4778 14.9443)
(-53.7691 -0.795052 17.9552)
(-52.3641 -23.1228 -32.5668)
(52.0027 30.1503 -23.585)
(51.4329 48.1277 -7.75536)
(51.7207 42.8866 -1.58583)
(-0.213652 10.258 -7.41378)
(-0.121737 -3.64689 -0.0788511)
(-0.0767884 -10.1305 0.632734)
(-50.8374 55.8236 -10.3477)
(-51.542 49.6121 -8.20177)
(-52.2744 44.1362 -4.19658)
(51.4208 26.6448 -24.8984)
(52.5812 44.9263 -6.19653)
(51.6786 38.9185 5.06681)
(-0.171366 1.68412 10.5023)
(-0.0686983 -4.799 2.9265)
(-0.028468 -7.6958 -1.3874)
(-52.1476 44.0846 4.61923)
(-52.3875 38.6299 7.48169)
(-52.1606 35.7158 8.10022)
(51.3244 23.5331 -33.7821)
(52.8745 6.63347 4.73494)
(52.6075 16.1127 12.4097)
(-0.0766065 -24.3726 9.27994)
(-0.0323969 -14.3975 1.78456)
(-0.013951 -12.68 -0.243956)
(-52.4115 -19.9541 11.8516)
(-52.7024 -9.15374 7.86256)
(-52.5875 -3.51234 6.9272)
(51.7117 -9.09055 -13.1661)
(51.5399 1.45308 -33.222)
(51.5867 21.6279 -29.4634)
(0.0179495 4.35655 -7.91483)
(-0.105565 1.32683 -9.82797)
(-0.225488 11.1111 -9.1177)
(-49.8428 25.0063 -33.9235)
(-49.6971 32.2641 -24.9309)
(-51.4473 53.4056 -19.2216)
(51.667 -4.80822 9.14947)
(51.6903 5.5932 -41.154)
(51.4271 22.468 -41.3235)
(-0.0576888 2.19741 13.2306)
(-0.196026 2.42973 8.85687)
(-0.249218 9.91676 10.5201)
(-50.5114 6.10205 -56.8387)
(-50.8402 22.9397 -30.8273)
(-52.4184 41.2666 -5.25194)
(51.4179 -0.322724 5.57812)
(54.3231 6.15119 -50.4302)
(52.2919 11.9386 -53.5963)
(-0.140513 -0.37776 6.42625)
(-0.247757 -8.05162 8.41063)
(-0.237529 -18.2824 17.8129)
(-52.899 3.11796 -73.2167)
(-51.4222 21.6441 -22.0462)
(-51.2962 -13.7201 22.6669)
(51.6993 5.66905 -12.7403)
(52.299 4.25162 -70.6608)
(51.93 -8.97997 -88.4907)
(-0.352193 0.652181 61.1587)
(-0.34996 -1.37217 34.863)
(-0.35887 -12.5236 33.0203)
(-52.57 -9.40369 -102.958)
(-52.5696 11.684 31.8268)
(-52.3825 -3.7892 71.2265)
(50.9065 1.18959 -132.393)
(50.9849 1.74665 -138.893)
(50.832 7.37801 -136.656)
(-0.185352 3.21703 86.2659)
(-0.181006 4.54367 71.9837)
(-0.193408 0.417797 68.4528)
(-51.1164 2.95902 -136.649)
(-51.179 -5.49623 -65.8656)
(-51.2297 0.863618 113.005)
(48.9087 0.176969 -165.045)
(48.9752 0.262534 -166.521)
(48.7843 -0.898994 -165.521)
(0.345647 0.221288 160.645)
(0.366847 1.99914 173.39)
(0.390053 0.161113 200.912)
(-48.0876 -6.14633 -155.402)
(-47.769 -7.33697 -109.403)
(-49.0069 -4.06961 -1.84284)
(51.5923 -53.6723 -19.0235)
(49.8267 -32.3022 -24.9698)
(50.3061 -24.9074 -33.6871)
(0.214937 -11.8579 -11.5843)
(0.0966118 -1.64595 -11.7195)
(-0.0404988 -4.29515 -8.00982)
(-51.7457 -23.8948 -33.5968)
(-51.4908 -2.73353 -36.2618)
(-51.6533 10.8092 -13.5939)
(52.3924 -40.8522 -5.91901)
(50.8127 -23.1886 -31.2239)
(50.8233 -5.97162 -57.0563)
(0.231703 -9.85158 10.965)
(0.172843 -3.6912 9.76637)
(0.0333651 -3.06063 11.9439)
(-51.2655 -18.5173 -41.331)
(-50.9159 -10.4603 -43.5477)
(-51.7339 5.71104 11.1058)
(52.5039 18.4472 22.0505)
(51.3943 -21.1397 -21.9673)
(53.2071 -3.13742 -73.6916)
(0.225263 23.4108 18.4949)
(0.219792 10.3 10.8246)
(0.126381 -0.0949013 4.23404)
(-52.9311 -12.4532 -55.0716)
(-54.0234 -5.75913 -54.7529)
(-51.7533 -1.37262 1.27435)
(53.4647 5.70964 69.9191)
(52.7247 -13.7342 25.8593)
(52.4652 9.04004 -103.432)
(0.396827 14.1997 36.1495)
(0.384051 0.398704 34.8479)
(0.382672 -0.685718 59.4877)
(-51.9805 7.43175 -87.0345)
(-52.3793 -1.80197 -72.9562)
(-51.7692 -6.01636 -16.2946)
(51.8705 0.250817 113.089)
(51.39 5.15614 -67.506)
(51.1919 -2.97057 -136.67)
(0.216385 -0.584703 71.637)
(0.20009 -4.67394 71.8544)
(0.201798 -3.41559 85.0474)
(-50.1984 -6.44396 -135.506)
(-50.523 -1.68914 -137.58)
(-50.735 -1.13688 -131.113)
(49.5564 4.87015 -2.79624)
(47.9509 7.32456 -109.705)
(48.1516 6.17897 -155.247)
(-0.380312 0.0560217 204.49)
(-0.355757 -1.8567 175.493)
(-0.334756 -0.0964663 162.167)
(-48.7109 0.647674 -163.299)
(-48.903 -0.279577 -164.713)
(-48.8827 -0.107409 -163.762)
)
;

boundaryField
{
    fuel
    {
        type            fixedValue;
        value           uniform (0 0 0.25);
    }
    primary_air
    {
        type            fixedValue;
        value           uniform (0 0 2.5);
    }
    Secondary_air_RHS
    {
        type            fixedValue;
        value           uniform (0 47.2222 0);
    }
    Secondary_air_LHS
    {
        type            fixedValue;
        value           uniform (0 -47.2222 0);
    }
    outlet
    {
        type            pressureInletOutletVelocity;
        value           nonuniform List<vector> 
18
(
(0 0 -2.79624)
(-0.380312 0.0560217 204.49)
(0 0 -163.299)
(0 0 -109.705)
(-0.355757 -1.8567 175.493)
(0 0 -164.713)
(0 0 -155.247)
(-0.334756 -0.0964663 162.167)
(0 0 -163.762)
(0 0 -165.045)
(0.345647 0.221288 160.645)
(0 0 -155.402)
(0 0 -166.521)
(0.366847 1.99914 173.39)
(0 0 -109.403)
(0 0 -165.521)
(0.390053 0.161113 200.912)
(0 0 -1.84284)
)
;
    }
    stove_body
    {
        type            noSlip;
    }
    frontAndBack
    {
        type            empty;
    }
}


// ************************************************************************* //
