/*--------------------------------*- C++ -*----------------------------------*\
  =========                 |
  \\      /  F ield         | OpenFOAM: The Open Source CFD Toolbox
   \\    /   O peration     | Website:  https://openfoam.org
    \\  /    A nd           | Version:  6
     \\/     M anipulation  |
\*---------------------------------------------------------------------------*/
FoamFile
{
    version     2.0;
    format      ascii;
    class       volScalarField;
    location    "3";
    object      O2;
}
// * * * * * * * * * * * * * * * * * * * * * * * * * * * * * * * * * * * * * //

dimensions      [0 0 0 0 0 0 0];

internalField   nonuniform List<scalar> 
297
(
0
0
0
0
0
0
0
0
0
0
0
0
0
0
0
0
0
0
0
0
0
0
0
0
0
0
0
0.12702
0.0487709
0.126201
0.186948
0.17149
0.185302
0.127185
0.0486636
0.1267
0.0320161
0.000347827
0.0322162
0.113191
0.116021
0.112904
0.0321684
0.000294493
0.032175
0
0
0
0.0757024
0.0194962
0.0754134
0
0
0
0
0
0
0
0
0
0
0
0
7.30164e-17
3.83281e-15
6.85757e-17
7.3863e-19
2.6419e-14
5.05885e-19
2.34943e-15
4.84125e-15
2.3841e-15
2.677e-15
2.13836e-15
2.76983e-15
6.07109e-15
1.95602e-14
6.18929e-15
2.70907e-15
1.95731e-15
2.75083e-15
0
0
0
0.0296429
2.22233e-07
0.0293411
0
0
0
0
0
0
0.0126001
0
0.012183
0
0
0
0
0
0
0
0
0
0
0
0
1.95469e-15
1.38916e-15
1.98954e-15
5.86776e-15
1.06335e-15
5.9461e-15
1.97464e-15
1.39369e-15
1.98551e-15
1.05458e-15
9.69539e-16
1.05491e-15
5.28174e-15
1.06429e-15
5.43707e-15
1.01636e-15
1.01673e-15
1.05474e-15
8.72279e-16
8.83459e-16
8.94775e-16
1.43583e-15
1.08744e-15
1.33907e-15
8.49147e-16
8.86644e-16
9.10033e-16
1.14551e-15
6.51757e-16
2.34934e-16
5.94105e-15
5.9414e-15
5.94128e-15
1.14639e-15
6.51747e-16
2.34749e-16
1.07059e-15
2.90916e-16
1.69442e-16
4.49032e-15
4.53777e-15
5.30743e-15
1.06379e-15
2.90063e-16
1.6876e-16
8.81076e-16
2.77621e-16
1.94621e-16
1.26811e-15
1.16564e-15
3.16258e-15
8.95781e-16
2.77433e-16
1.94053e-16
3.39167e-16
5.42021e-16
1.13272e-15
5.86701e-15
5.86657e-15
5.86555e-15
2.50319e-16
4.58185e-16
1.15291e-15
1.80085e-16
2.90053e-16
1.0462e-15
5.26199e-15
4.437e-15
4.38959e-15
1.56021e-16
2.69592e-16
1.05027e-15
2.28926e-16
2.89475e-16
8.44492e-16
2.95591e-15
1.13882e-15
1.33457e-15
1.78399e-16
2.49373e-16
8.05068e-16
1.30461e-18
2.09783e-17
2.12016e-17
3.40129e-18
3.40177e-18
2.02753e-15
1.43081e-18
2.49269e-17
2.51412e-17
3.74832e-18
5.55655e-17
6.94564e-17
3.88814e-18
4.53962e-18
3.26943e-15
4.10909e-18
6.64223e-17
7.62572e-17
3.74711e-18
1.00865e-16
2.10214e-16
4.06615e-18
1.37116e-15
3.21901e-15
4.10753e-18
1.21082e-16
1.7293e-16
3.74527e-18
1.84071e-17
1.07883e-16
4.05509e-18
6.06564e-16
2.02747e-15
4.10531e-18
1.28914e-17
8.72324e-17
4.26753e-18
1.97967e-17
4.27812e-17
3.67109e-17
4.95372e-16
1.35207e-15
4.41733e-18
1.37074e-17
3.45199e-17
2.91734e-22
2.12268e-21
4.13372e-21
3.76612e-17
2.43083e-16
5.46672e-16
5.35786e-22
2.10639e-21
4.11143e-21
2.24137e-17
2.22191e-17
4.22387e-18
2.07903e-15
4.57877e-18
4.48424e-18
2.23339e-17
2.21337e-17
4.57974e-18
7.12253e-17
5.8857e-17
4.22656e-18
3.31598e-15
5.00028e-18
4.51072e-18
7.07019e-17
5.73138e-17
4.57912e-18
1.95598e-16
1.11776e-16
4.22584e-18
3.2755e-15
1.39087e-15
4.52442e-18
2.05446e-16
1.03532e-16
4.57723e-18
1.01624e-16
1.58657e-17
4.22389e-18
1.818e-15
4.42139e-16
4.49525e-18
1.0423e-16
1.59662e-17
4.57484e-18
4.01349e-17
1.80058e-17
4.23361e-18
1.40046e-15
4.37418e-16
3.58062e-17
4.13055e-17
1.81038e-17
4.56677e-18
4.38212e-21
2.11101e-21
2.88342e-22
5.84394e-16
2.36368e-16
3.68727e-17
4.38578e-21
2.11175e-21
5.31488e-22
)
;

boundaryField
{
    fuel
    {
        type            fixedValue;
        value           uniform 0;
    }
    primary_air
    {
        type            fixedValue;
        value           uniform 0.23;
    }
    Secondary_air_RHS
    {
        type            fixedValue;
        value           uniform 0.23;
    }
    Secondary_air_LHS
    {
        type            fixedValue;
        value           uniform 0.23;
    }
    outlet
    {
        type            inletOutlet;
        inletValue      uniform 0;
        value           nonuniform List<scalar> 
18
(
0
5.84394e-16
0
0
2.36368e-16
0
0
3.68727e-17
0
0
3.76612e-17
0
0
2.43083e-16
0
0
5.46672e-16
0
)
;
    }
    stove_body
    {
        type            fixedValue;
        value           uniform 0;
    }
    frontAndBack
    {
        type            empty;
    }
}


// ************************************************************************* //
