/*--------------------------------*- C++ -*----------------------------------*\
  =========                 |
  \\      /  F ield         | OpenFOAM: The Open Source CFD Toolbox
   \\    /   O peration     | Website:  https://openfoam.org
    \\  /    A nd           | Version:  6
     \\/     M anipulation  |
\*---------------------------------------------------------------------------*/
FoamFile
{
    version     2.0;
    format      ascii;
    class       volScalarField;
    location    "3";
    object      p;
}
// * * * * * * * * * * * * * * * * * * * * * * * * * * * * * * * * * * * * * //

dimensions      [1 -1 -2 0 0 0 0];

internalField   nonuniform List<scalar> 
297
(
110776
110776
110776
181721
181721
181721
110776
110776
110776
110775
110775
110775
181721
181721
181721
110775
110775
110775
110775
110775
110775
181722
181722
181722
110775
110775
110775
97263.3
97284
97264.7
159756
159742
159757
97263.4
97284
97264.2
97216.9
97237.4
97218.4
159556
159590
159556
97217.2
97235.9
97217.8
97115.8
97253.3
97122.1
158209
158959
158212
97118
97250.9
97120.3
97024.6
97145.9
97019.9
159419
159169
159414
97022.1
97145.6
97020.4
96985.8
97098.4
96979.8
159433
159397
159430
96985.5
97099.3
96983.8
96889.6
97085.4
96884.3
159209
159288
159207
96889.4
97087.8
96888
96760.8
97359.2
96758.2
155514
158402
155510
96759.4
97358.3
96758.5
96696.6
97349.1
96692.7
155219
158482
155214
96695.1
97349.9
96693.3
96662.8
97322.8
96658.3
155490
158665
155485
96661.8
97326.7
96659.1
97335.6
97396.7
97337.1
159242
159291
159243
97337.2
97398.6
97335.6
97429.1
97462.6
97432.4
159328
159311
159330
97431.3
97464.5
97429.7
97471.4
97477.7
97475.9
159374
159346
159376
97473.9
97479.5
97472.7
97489.6
97391.5
97325.1
159020
159161
159348
97480.1
97380
97314.6
97404.4
97256.5
97136
159163
159206
159344
97395.2
97245.5
97126.5
97368.1
97216.6
97105.3
159223
159182
159174
97358.8
97205.9
97096.8
97318
97382.6
97481.5
159345
159159
159017
97318.4
97384
97483.7
97130.2
97248.6
97396.5
159342
159204
159161
97130
97248.9
97397.9
97099.8
97208.9
97359.8
159174
159181
159222
97099.9
97209
97361.2
98601.3
98231
97631.3
159382
159353
159387
98604.3
98233.5
97632.4
98188.4
97709.2
97290.6
159213
159120
159249
98191.8
97711.6
97291.4
97766.3
97319
97042.6
158984
158794
158876
97769.8
97321.1
97043.5
96321.3
96229.5
96210.1
157529
157431
157371
96323
96231
96211.5
94775.5
94835.9
94908
153353
153341
153340
94773.4
94833.9
94906.2
91447.8
91522.8
91592.6
141604
141627
141659
91443.3
91518.2
91588.1
97637.3
98237.7
98608.3
159389
159354
159382
97629.2
98231.3
98602.7
97295.2
97715
98196.1
159250
159121
159213
97288.7
97709.6
98190
97045.1
97322.8
97773.6
158875
158792
158983
97042.1
97321
97769
96199.7
96219.7
96313.1
157363
157423
157521
96219.3
96237.7
96328.1
94907.6
94834.3
94772.2
153332
153332
153344
94890.2
94818.5
94760
91581.6
91511.5
91436.4
141654
141623
141600
91586.8
91516.8
91441.4
)
;

boundaryField
{
    fuel
    {
        type            zeroGradient;
    }
    primary_air
    {
        type            zeroGradient;
    }
    Secondary_air_RHS
    {
        type            zeroGradient;
    }
    Secondary_air_LHS
    {
        type            zeroGradient;
    }
    outlet
    {
        type            totalPressure;
        rho             rho;
        psi             none;
        gamma           1;
        p0              uniform 100000;
        value           nonuniform List<scalar> 
18
(
93088.3
100000
93091.1
92746.3
100000
92750
91820
100000
91838.7
91823.9
100000
91814.7
92758.3
100000
92757.3
93098.5
100000
93095.3
)
;
    }
    stove_body
    {
        type            zeroGradient;
    }
    frontAndBack
    {
        type            empty;
    }
}


// ************************************************************************* //
