/*--------------------------------*- C++ -*----------------------------------*\
  =========                 |
  \\      /  F ield         | OpenFOAM: The Open Source CFD Toolbox
   \\    /   O peration     | Website:  https://openfoam.org
    \\  /    A nd           | Version:  6
     \\/     M anipulation  |
\*---------------------------------------------------------------------------*/
FoamFile
{
    version     2.0;
    format      ascii;
    class       volScalarField;
    location    "0.005";
    object      O2;
}
// * * * * * * * * * * * * * * * * * * * * * * * * * * * * * * * * * * * * * //

dimensions      [0 0 0 0 0 0 0];

internalField   nonuniform List<scalar> 
3773
(
0
0
0
0
0
0
0
0
0
0
0
0
0
0
0
0
0
0
0
0
0
0
0
0
0
0
0
0
0
0
0
0
0
0
0
0
0
0
0
0
0
0
0
0
0
0
0
0
0
0
0
0
0
0
0
0
0
0
0
0
0
0
0
0
0
0
0
0
0
0
0
0
0
0
0
0
0
0
0
0
0
0
0
0
0
0
0
0
0
0
0
0
0
0
0
0
0
0
0
0
0
0
0
0
0
0
0
0
0
0
0
0
0
0
0
0
0
0
0
0
0
0
0
0
0
0
0
0
0
0
0
0
0
0
0
0
0
0
0
0
0
0
0
0
0
0
0
0
0
0
0
0
0
0
0
0
0
0
0
0
0
0
0
0
0
0
0
0
0
0
0
0
0
0
0
0
0
0
0
0
0
0
0
0
0
0
0
0
0
0
0
0
0
0
0
0
0
0
0
0
0
0
0
0
0
0
0
0
0
0
0
0
0
0
0
0
0
0
0
0
0
0
0
0
0
0
0
0
0
0
0
0
0
0
0
0
0
0
0
0
0
0
0
0
0
0
0
0
0
0
0
0
0
0
0
0
0
0
0
0
0
0
0
0
0
0
0
0
0
0
0
0
0
0
0
0
0
0
0
0
0
0
0
0
0
0
0
0
0
0
0
0
0
0
0
0
0
0
0
0
0
0
0
0
0
0
0
0
0
0
0
0
0
0
0
0
0
0
0
0
0
0
0
0
0
0
0
0
0
0
0
0
0
0
0
0
0
0
0
0
0
0
0
0.00299206
0.00292086
0.00274026
0.00263396
0.00275244
0.00291915
0.00299071
0.00413975
0.00409819
0.00401767
0.00397087
0.00402023
0.00410025
0.00414102
0.00516701
0.00516377
0.00515764
0.00515304
0.00515709
0.0051631
0.00516607
0.00560309
0.005597
0.00559276
0.00560902
0.00559073
0.00560864
0.00561116
0.00516821
0.00516436
0.00515831
0.00515382
0.00515622
0.00516046
0.00516187
0.0041215
0.00407297
0.00399777
0.0039471
0.0039941
0.00407702
0.00411935
0.00297784
0.00290555
0.00273893
0.00261877
0.00272968
0.00290607
0.00297727
5.49073e-06
4.99203e-06
3.49677e-06
2.89362e-06
3.5414e-06
4.29576e-06
5.30523e-06
4.66801e-05
4.41583e-05
4.01176e-05
3.93438e-05
4.03196e-05
4.42066e-05
4.8122e-05
0.00051554
0.00050917
0.000504286
0.000505276
0.000506821
0.00051627
0.000524224
0.000659065
0.000669545
0.000676932
0.00066758
0.000679698
0.000663875
0.00066076
0.000531031
0.000522961
0.000516213
0.000513769
0.000513648
0.000508242
0.000512494
4.69458e-05
4.59373e-05
4.27991e-05
4.05734e-05
4.25192e-05
4.48726e-05
4.67066e-05
3.37395e-06
5.14009e-06
3.96455e-06
3.14496e-06
3.80134e-06
5.36728e-06
6.05577e-06
6.59543e-09
4.80226e-09
1.66485e-09
1.04513e-09
1.84446e-09
2.57101e-09
5.89367e-09
1.54816e-06
1.33462e-06
1.22205e-06
1.21748e-06
1.25733e-06
1.37153e-06
1.47068e-06
4.42982e-05
4.32754e-05
4.36932e-05
4.31039e-05
4.32133e-05
4.27553e-05
4.36916e-05
6.39544e-05
6.47501e-05
6.54431e-05
6.35414e-05
6.59229e-05
6.15843e-05
5.9426e-05
3.69337e-05
3.45985e-05
3.40482e-05
3.4102e-05
3.47482e-05
4.35594e-05
4.45155e-05
1.54767e-06
1.35761e-06
1.24358e-06
1.25828e-06
1.38353e-06
1.36117e-06
1.70994e-06
4.20607e-09
5.60465e-09
2.27185e-09
1.33725e-09
2.1485e-09
6.02586e-09
8.16657e-09
8.14816e-12
1.46882e-11
2.07594e-11
1.32525e-11
4.60098e-12
1.31691e-11
6.83554e-12
7.54622e-08
6.31471e-08
4.75332e-08
2.59713e-08
4.42865e-08
6.04364e-08
6.98979e-08
5.36656e-06
5.31268e-06
5.64629e-06
4.3701e-06
5.43601e-06
4.95228e-06
4.98031e-06
1.02608e-05
9.67326e-06
1.02459e-05
9.65523e-06
1.01598e-05
8.1695e-06
7.23006e-06
3.22462e-06
2.5178e-06
2.52933e-06
2.48382e-06
3.19584e-06
5.39816e-06
5.61777e-06
6.87305e-08
5.5552e-08
4.17831e-08
2.22187e-08
4.48591e-08
6.62645e-08
7.06371e-08
1.26968e-11
3.26253e-11
2.99176e-12
9.15341e-12
1.3508e-11
4.0702e-11
1.17582e-11
4.65576e-12
3.74422e-11
5.01784e-11
2.69553e-11
5.28509e-12
5.96092e-11
3.60181e-12
3.25173e-09
1.9175e-09
1.19109e-09
5.22445e-10
1.00046e-09
1.96381e-09
3.43899e-09
6.9659e-07
5.9839e-07
5.96468e-07
4.29647e-07
5.74668e-07
5.57439e-07
5.13806e-07
1.42487e-06
1.30918e-06
1.44812e-06
1.22529e-06
1.45732e-06
1.03756e-06
1.04447e-06
3.75827e-07
2.2693e-07
2.30991e-07
2.27781e-07
3.48181e-07
6.54619e-07
6.47449e-07
3.41087e-09
1.95024e-09
9.88578e-10
4.51179e-10
1.02022e-09
1.9242e-09
2.69361e-09
1.64542e-11
1.09052e-10
2.76415e-12
1.75439e-11
3.18567e-11
2.17128e-10
2.47749e-11
7.26003e-12
7.8378e-11
1.52141e-11
2.42002e-11
9.93057e-12
1.6995e-10
0
3.20756e-11
9.58327e-11
5.44695e-11
1.20284e-10
4.43784e-11
1.04108e-10
4.0198e-11
1.01608e-07
9.46996e-08
7.19708e-08
7.02093e-08
7.14501e-08
7.16683e-08
6.13678e-08
2.24494e-07
2.33385e-07
2.53995e-07
2.23605e-07
2.57729e-07
1.7027e-07
2.14661e-07
5.17379e-08
3.21124e-08
3.2151e-08
3.75692e-08
4.295e-08
8.37276e-08
8.76317e-08
4.54031e-11
8.42291e-11
3.1643e-11
5.44323e-11
3.50495e-11
1.22798e-10
2.41985e-11
0
1.63304e-10
5.23302e-12
1.08247e-11
9.17789e-12
4.76925e-10
1.93864e-11
0
1.5116e-10
2.5994e-11
3.56832e-11
1.35192e-11
3.17986e-10
0
0
5.52337e-10
1.84608e-10
3.96375e-10
1.14865e-10
1.82808e-10
0
5.23866e-08
2.15726e-08
1.37227e-08
1.21568e-08
1.36046e-08
1.38647e-08
8.72917e-09
1.41431e-07
6.23682e-08
4.86723e-08
4.34929e-08
4.91187e-08
4.44148e-08
1.26424e-07
2.44238e-08
6.87078e-09
6.47664e-09
6.80248e-09
7.84872e-09
1.63085e-08
3.8081e-08
0
1.22672e-11
7.57047e-11
1.8803e-10
1.08099e-10
3.63683e-10
0
0
8.56493e-11
7.56159e-12
1.6416e-11
1.62615e-11
6.304e-10
7.65963e-11
0
5.51835e-13
5.695e-14
1.3648e-13
1.13733e-12
1.10541e-11
0
0
1.63812e-11
8.95227e-12
8.56767e-12
3.92491e-12
3.26958e-12
0
0
0
4.08319e-10
4.64124e-10
3.01658e-10
0
0
0
0
3.12312e-09
3.25907e-09
3.18606e-09
0
0
0
0
2.49868e-10
3.611e-10
2.54792e-10
0
0
0
1.84374e-12
5.50668e-12
7.38208e-12
3.58548e-12
3.59044e-12
0
0
1.77675e-13
2.41792e-15
7.06241e-14
6.40768e-14
0
0
1.22442e-13
8.15534e-13
1.28955e-13
1.34461e-13
7.12898e-15
4.70946e-16
1.4028e-15
1.56858e-12
3.73584e-12
1.22415e-12
1.46911e-12
6.3611e-13
1.9578e-13
1.01962e-13
2.18217e-12
7.14815e-11
2.77336e-11
3.14584e-11
1.52155e-11
1.26274e-12
6.87697e-14
8.99939e-14
7.19162e-12
3.87006e-10
3.61787e-10
3.26414e-10
5.23211e-13
2.2043e-14
3.90184e-13
2.77674e-11
1.4404e-11
2.47706e-11
1.48103e-11
2.77919e-11
6.45013e-13
1.92559e-13
1.45997e-12
1.09572e-12
1.3732e-12
4.59303e-13
2.07855e-13
1.98471e-14
1.0799e-14
3.44315e-15
3.366e-15
1.16709e-13
4.2104e-14
3.24498e-14
9.33905e-16
1.18992e-13
4.2842e-13
2.61742e-14
4.51495e-15
1.53595e-15
1.98399e-16
5.74429e-16
1.24829e-12
2.66212e-12
9.6104e-14
3.09864e-14
3.39701e-14
6.96739e-14
5.13397e-14
2.11446e-12
2.1517e-11
1.98509e-12
1.27615e-12
8.32797e-13
1.31127e-12
9.0301e-14
1.76169e-13
1.44271e-11
3.02774e-11
3.25705e-11
2.23546e-11
6.65173e-13
3.014e-14
3.96982e-13
1.49438e-11
6.79466e-13
6.85241e-13
8.24037e-13
8.83049e-12
5.52463e-13
1.22441e-13
1.04398e-12
1.21818e-13
2.88484e-14
3.84854e-14
6.06312e-13
5.20978e-14
5.06031e-15
1.72113e-16
4.45718e-16
2.55892e-15
3.6241e-15
7.61255e-14
1.16422e-15
7.11728e-14
2.07023e-13
1.2697e-14
2.53501e-15
7.69592e-16
2.35988e-16
1.76137e-16
7.65316e-13
1.24823e-12
5.91494e-15
2.2185e-15
4.68074e-15
2.58241e-14
1.26913e-14
1.83705e-12
6.9636e-12
3.56727e-15
1.02679e-15
2.42172e-14
6.99797e-13
8.77173e-14
6.59843e-13
1.1119e-11
3.29543e-12
4.31575e-12
1.88057e-12
3.70509e-13
3.40572e-14
3.76986e-13
5.11254e-12
5.43849e-15
6.63862e-16
4.40475e-16
1.99429e-12
3.92734e-13
4.94033e-14
1.57993e-13
1.75202e-14
3.48234e-15
1.72013e-15
3.9336e-13
4.10302e-14
1.19944e-15
1.68854e-16
3.50406e-16
3.37502e-16
6.58141e-16
4.60496e-14
1.08732e-15
3.179e-14
8.08984e-14
1.63033e-14
3.2389e-15
6.95949e-16
2.62835e-16
1.07283e-16
3.14844e-13
3.5685e-13
2.98438e-14
3.7836e-15
8.33634e-16
1.65055e-15
4.59364e-15
8.14762e-13
1.02783e-12
8.02263e-15
2.14941e-15
2.29042e-14
1.47271e-13
6.97695e-14
6.64844e-13
7.22494e-12
9.07076e-13
9.90643e-13
3.99649e-13
1.52945e-13
2.16132e-14
2.04826e-13
6.83997e-13
7.2515e-14
4.39609e-15
6.27862e-16
1.94442e-13
1.23913e-13
1.42923e-14
8.59742e-15
2.91741e-16
5.73423e-16
5.93703e-15
6.96338e-14
1.82337e-14
4.63285e-16
3.06908e-16
4.33736e-17
1.32182e-16
1.26176e-15
9.94015e-15
6.2625e-16
1.35657e-14
1.80689e-14
7.55205e-15
1.97778e-15
4.54653e-16
2.11453e-16
6.31903e-17
8.60826e-14
8.889e-14
2.73971e-14
6.70568e-15
1.81884e-15
5.73907e-16
1.14721e-15
2.84467e-13
4.01605e-13
4.38005e-14
3.16279e-15
3.405e-15
1.51817e-14
2.349e-14
5.37936e-13
3.45726e-12
1.81843e-13
1.62757e-13
6.24851e-14
4.87385e-14
1.19677e-14
5.97617e-14
3.06977e-13
5.35767e-14
5.89226e-15
1.67375e-15
1.01131e-14
2.86651e-14
3.36076e-15
3.79889e-16
2.51526e-16
6.29421e-16
1.17296e-15
6.0168e-15
4.33331e-15
1.7614e-16
9.6283e-17
2.15359e-17
7.07492e-17
2.07703e-16
1.06685e-15
3.49176e-16
4.55855e-15
2.21698e-15
6.73726e-16
3.91758e-16
2.62158e-16
6.6883e-17
3.41295e-17
2.5942e-14
1.64024e-14
5.96382e-15
2.10097e-15
1.24537e-15
5.05477e-16
4.15306e-16
5.72307e-14
5.35435e-14
1.18441e-14
3.57623e-15
5.84208e-16
1.2857e-15
8.84105e-15
2.6776e-13
6.40948e-13
1.64326e-14
1.99232e-14
4.44394e-15
6.90209e-15
3.52512e-15
3.97773e-14
9.29443e-14
1.89604e-15
5.12516e-16
2.44653e-16
3.75357e-16
4.17797e-15
9.24371e-16
7.25928e-17
7.24392e-17
6.80313e-17
1.13028e-16
4.63997e-16
1.21455e-15
1.14056e-16
4.30823e-17
1.23587e-17
1.80649e-17
2.85762e-17
6.56042e-17
1.44412e-16
0
3.28333e-10
2.73291e-11
1.97861e-11
1.16023e-11
2.09248e-10
0
0
2.35367e-09
4.61721e-10
4.00828e-10
2.8865e-10
5.14836e-10
0
0
2.98589e-10
1.13074e-08
8.35632e-09
1.11377e-08
0
0
0
0
2.43281e-08
3.44132e-08
2.50531e-08
0
0
0
0
5.34342e-09
5.22393e-09
6.76544e-09
0
0
0
0
1.73312e-10
2.35757e-10
2.66256e-10
8.80889e-10
0
0
0
7.71845e-12
1.05408e-11
1.77494e-11
4.23875e-10
0
0
4.93517e-10
1.39171e-11
1.07792e-11
4.49863e-12
1.74899e-11
0
0
1.73531e-09
3.65246e-10
3.01904e-10
1.78252e-10
2.11443e-10
0
0
0
9.78481e-09
7.13146e-09
9.79606e-09
0
0
0
0
2.21321e-08
2.84467e-08
2.28643e-08
0
0
0
0
4.79203e-09
4.30764e-09
6.11772e-09
0
0
0
0
1.24381e-10
1.66678e-10
2.18445e-10
4.18562e-10
0
0
0
4.67896e-12
5.57825e-12
1.02082e-11
9.48198e-10
0
0
1.44907e-09
9.60208e-12
7.7533e-12
2.33768e-12
0
0
0
1.28943e-09
2.87785e-10
2.30912e-10
1.43702e-10
0
0
0
0
8.86589e-09
6.16687e-09
8.67855e-09
0
0
0
0
2.10425e-08
2.2927e-08
2.17732e-08
0
0
0
0
4.29587e-09
3.74328e-09
5.74874e-09
0
0
0
0
1.06251e-10
1.42448e-10
1.53078e-10
2.15184e-10
0
0
0
3.90542e-12
4.23713e-12
7.23216e-12
0
0
0
2.59833e-09
6.88098e-12
5.40069e-12
3.75046e-13
0
0
0
9.10378e-10
1.95984e-10
1.89357e-10
1.01038e-10
0
0
0
0
7.73269e-09
5.71737e-09
7.8933e-09
0
0
0
0
1.93565e-08
1.99855e-08
2.02408e-08
0
0
0
0
3.95953e-09
3.41348e-09
5.25765e-09
0
0
0
0
7.61188e-11
1.04908e-10
1.11864e-10
0
0
0
0
1.85734e-12
3.15878e-12
5.36561e-12
0
0
0
3.09962e-09
3.26533e-12
3.16691e-12
0
0
0
0
5.11565e-10
9.40742e-11
1.11995e-10
7.91036e-11
0
0
0
0
5.4482e-09
5.22233e-09
5.9939e-09
0
0
0
0
1.60527e-08
1.77977e-08
1.70795e-08
0
0
0
0
3.2352e-09
3.01194e-09
4.03043e-09
0
0
0
0
5.47185e-11
7.66397e-11
6.80288e-11
0
0
0
0
1.05844e-12
2.17884e-12
3.72127e-12
0
0
0
2.28136e-09
1.43553e-12
9.57356e-13
0
0
0
0
3.37611e-10
5.87531e-11
6.70986e-11
2.64753e-11
0
0
0
0
4.01664e-09
4.65281e-09
4.76348e-09
0
0
0
0
1.32222e-08
1.47814e-08
1.41941e-08
0
0
0
0
2.82444e-09
2.77765e-09
3.19968e-09
0
0
0
0
3.17039e-11
4.55139e-11
4.8821e-11
0
0
0
0
5.59619e-13
1.27032e-12
1.28396e-12
0
0
0
1.60657e-11
5.4278e-13
2.22559e-13
0
0
0
0
1.51599e-09
2.75216e-11
2.76353e-11
6.2568e-12
0
0
0
0
2.5601e-09
2.95703e-09
2.58073e-09
0
0
0
0
1.19528e-08
1.18231e-08
1.2839e-08
0
0
0
0
1.8234e-09
2.05698e-09
1.84955e-09
0
0
0
0
1.96154e-11
2.96799e-11
2.30944e-11
0
0
0
0
1.88617e-13
4.34308e-13
5.5986e-13
0
0
2.74721e-19
4.05387e-18
1.94445e-17
2.93618e-17
3.11582e-17
2.24003e-17
1.40799e-17
4.57558e-17
6.38785e-17
7.12921e-17
9.12184e-17
1.21782e-16
1.9482e-16
1.59232e-16
1.00662e-15
1.50019e-15
5.50359e-16
2.42334e-16
7.95279e-17
2.01901e-15
8.50157e-15
1.71741e-13
2.83907e-14
1.14106e-15
3.61797e-15
4.81415e-16
1.30665e-15
2.68858e-15
3.58026e-14
6.05977e-14
5.78619e-16
1.46901e-16
3.38083e-17
9.05995e-17
3.77689e-16
2.65689e-16
2.35942e-16
1.62248e-16
6.86926e-17
1.2229e-17
1.03225e-17
1.33114e-17
2.12248e-17
2.52131e-17
3.20435e-17
3.33703e-17
1.76011e-17
9.68763e-18
4.37298e-20
9.71906e-19
1.66489e-17
1.97544e-17
2.03847e-17
1.98624e-17
1.41103e-17
4.03972e-18
2.82181e-17
4.31321e-17
6.00966e-17
9.70988e-17
1.05128e-16
9.63456e-17
4.79994e-17
5.32422e-16
9.11044e-16
3.44359e-16
9.60831e-17
1.86579e-16
1.74129e-15
8.35864e-15
1.43337e-13
6.58987e-17
1.35892e-18
1.76679e-16
8.93088e-18
1.24686e-17
2.17091e-15
3.22975e-14
3.19733e-14
2.81717e-15
5.97926e-17
1.49156e-17
4.49195e-17
1.60426e-16
3.83258e-16
3.88075e-16
3.14026e-16
2.66549e-16
2.41541e-17
6.11781e-18
4.09352e-18
2.69356e-17
4.05261e-17
5.42456e-17
5.2794e-17
5.24998e-17
3.41679e-17
7.01525e-20
1.44121e-17
2.73651e-17
3.16857e-17
3.52391e-17
3.04578e-17
2.44606e-17
1.91337e-17
3.57505e-17
4.88627e-17
8.37465e-17
1.13102e-16
1.2807e-16
1.45291e-16
1.94532e-16
6.49712e-16
6.02722e-16
1.1062e-16
5.0047e-17
1.38468e-16
1.14887e-15
7.91227e-15
9.74795e-14
3.77912e-16
1.52306e-18
7.67309e-19
5.10438e-18
2.22627e-17
1.53337e-15
2.81186e-14
2.09126e-14
1.32251e-15
1.14165e-16
2.76398e-17
2.20138e-17
1.15528e-16
9.55544e-16
9.06906e-16
5.71152e-16
4.51171e-16
1.22718e-16
7.88071e-18
1.70162e-18
7.17458e-17
1.06251e-16
1.07817e-16
1.33094e-16
1.0616e-16
7.65064e-17
1.43916e-17
2.41701e-17
4.20921e-17
5.66721e-17
5.89862e-17
5.82037e-17
5.88411e-17
6.33215e-17
4.11492e-17
5.80819e-17
1.52673e-16
2.06165e-16
2.6097e-16
3.72402e-16
5.80541e-16
1.27462e-15
3.46252e-16
3.85069e-17
4.02899e-17
3.93167e-17
6.88667e-16
6.68329e-15
6.09985e-14
3.54534e-16
6.42464e-18
1.48412e-18
3.91596e-18
3.72167e-17
1.04745e-15
2.26856e-14
8.89936e-15
3.91234e-16
1.3788e-16
6.22245e-17
1.00237e-17
1.15184e-16
2.30827e-15
1.75177e-15
1.1613e-15
7.61297e-16
2.89539e-16
4.40942e-17
6.08567e-18
2.07623e-16
1.70105e-16
1.93235e-16
2.00953e-16
1.47925e-16
9.49357e-17
4.2212e-17
4.11779e-17
5.05492e-17
6.50893e-17
7.69869e-17
6.98824e-17
7.22877e-17
1.18299e-16
4.98649e-17
9.17303e-17
1.71742e-16
2.67109e-16
3.77594e-16
6.35101e-16
1.22554e-15
1.3876e-15
1.39931e-17
3.20026e-17
4.11034e-17
5.3062e-17
2.59395e-16
5.32842e-15
2.7716e-14
7.89408e-17
1.25447e-17
3.91953e-18
6.11176e-18
1.62986e-17
6.96238e-16
1.67894e-14
1.78799e-15
2.17445e-16
1.0816e-16
5.3645e-17
1.53025e-17
7.27091e-17
3.95988e-15
2.07959e-15
1.17529e-15
7.49572e-16
2.86292e-16
8.21237e-17
2.22803e-17
3.14076e-16
1.81746e-16
1.78031e-16
2.07377e-16
1.4699e-16
1.02567e-16
5.63147e-17
4.31593e-17
5.00647e-17
6.25336e-17
7.08363e-17
5.66947e-17
5.73133e-17
1.11165e-16
5.57548e-17
9.64197e-17
1.66898e-16
2.41106e-16
3.47269e-16
5.83545e-16
1.50502e-15
1.04986e-15
1.1254e-17
2.53959e-17
5.67953e-17
7.84538e-17
5.71487e-17
4.00237e-15
8.62107e-15
1.00807e-17
1.10388e-17
6.37871e-18
7.12644e-18
6.08502e-18
6.69403e-16
1.00511e-14
1.81878e-16
1.6005e-16
1.0136e-16
4.11693e-17
1.57212e-17
4.52057e-17
3.39378e-15
1.06309e-15
7.75363e-16
6.05362e-16
2.38053e-16
1.0032e-16
4.33263e-17
1.49639e-16
1.12018e-16
1.02637e-16
1.64989e-16
1.14855e-16
9.5532e-17
5.32926e-17
2.93333e-17
3.04118e-17
2.75922e-17
3.76214e-17
2.98275e-17
2.61101e-17
2.4902e-17
4.05597e-17
6.08314e-17
9.65536e-17
1.43428e-16
1.8128e-16
1.68304e-16
6.34671e-16
4.37365e-16
1.39453e-17
2.62252e-17
3.95986e-17
4.90615e-17
2.36804e-17
2.07119e-15
1.9743e-15
4.82588e-18
7.83513e-18
5.56318e-18
6.37329e-18
3.46662e-18
3.72478e-16
3.92948e-15
3.54525e-17
7.59059e-17
5.30389e-17
2.41177e-17
1.2279e-17
1.55861e-17
1.0446e-15
2.22414e-16
3.10651e-16
2.26759e-16
1.12312e-16
6.13637e-17
2.76049e-17
3.43264e-17
2.97902e-17
3.51639e-17
4.44311e-17
5.8375e-17
5.8978e-17
3.89255e-17
8.98273e-19
2.19482e-19
2.57664e-19
3.26124e-19
3.50311e-19
3.72337e-19
2.60303e-19
3.30055e-17
5.36584e-20
6.40404e-20
6.87827e-20
7.66808e-20
7.9233e-20
6.6825e-20
3.84859e-15
4.83919e-19
4.84722e-19
9.29794e-19
1.15319e-18
1.51966e-18
2.06138e-18
2.09068e-15
8.16909e-16
2.41415e-16
1.33036e-16
8.33791e-17
6.27918e-17
5.24203e-17
2.23055e-19
2.95678e-19
3.37006e-19
4.3758e-19
5.29078e-19
6.44451e-19
9.44576e-19
4.14157e-21
2.00382e-21
2.85975e-21
3.77564e-21
3.93759e-21
2.51276e-21
8.47719e-22
1.39152e-20
1.95003e-20
2.3566e-20
2.72209e-20
2.76638e-20
2.01033e-20
4.69105e-21
2.03571e-18
9.34392e-19
1.1101e-18
1.29777e-18
1.45837e-18
1.5149e-18
1.10414e-18
3.75866e-17
3.21916e-19
4.16612e-19
4.95907e-19
7.05898e-19
8.04548e-19
8.55278e-19
3.15701e-15
4.67008e-19
6.57763e-19
1.14139e-18
1.45727e-18
2.44548e-18
4.49955e-18
1.86367e-15
1.02222e-15
5.05276e-16
2.63328e-16
1.50683e-16
1.22681e-16
9.01072e-17
1.42813e-19
2.15701e-19
2.89016e-19
3.67285e-19
5.14913e-19
7.59312e-19
9.43915e-19
1.8112e-20
2.18431e-20
2.99512e-20
3.29309e-20
3.26505e-20
2.20872e-20
1.03081e-20
1.1962e-19
1.63938e-19
2.09148e-19
2.31689e-19
2.01709e-19
8.83514e-20
2.88435e-20
5.41823e-18
3.07511e-18
3.6408e-18
4.18497e-18
4.66748e-18
4.39671e-18
4.21027e-18
6.99197e-17
1.90978e-18
2.57872e-18
3.17985e-18
4.58065e-18
5.2186e-18
5.87265e-18
3.30495e-15
6.59938e-19
6.02312e-19
1.0996e-18
1.81199e-18
2.4548e-18
3.27594e-18
1.45595e-15
1.02795e-15
6.61099e-16
4.02028e-16
2.3269e-16
1.82389e-16
1.40014e-16
8.09606e-20
1.09007e-19
1.74385e-19
2.29217e-19
3.23272e-19
5.32338e-19
7.6755e-19
7.48635e-20
1.11286e-19
1.73135e-19
2.2655e-19
2.48728e-19
1.54953e-19
9.00189e-20
2.83544e-19
5.67659e-19
8.60404e-19
1.23959e-18
1.35135e-18
5.96479e-19
1.86471e-19
1.65445e-17
6.09403e-18
6.5973e-18
8.60928e-18
1.0306e-17
9.04212e-18
6.87886e-18
1.4703e-16
2.04042e-17
6.98408e-18
1.0139e-17
1.70681e-17
2.0088e-17
2.08242e-17
3.89093e-15
4.78015e-16
1.69369e-18
1.08759e-18
2.2937e-18
3.47867e-18
3.89966e-18
1.02904e-15
8.83836e-16
6.5998e-16
4.82918e-16
3.4916e-16
2.0697e-16
1.66567e-16
1.57496e-18
9.20475e-20
7.34129e-20
1.08956e-19
1.66191e-19
2.177e-19
3.82711e-19
7.35769e-19
1.80505e-19
4.08663e-19
6.24873e-19
8.40158e-19
7.3888e-19
3.89013e-19
1.76753e-17
5.46372e-18
3.65375e-18
2.75277e-18
3.84742e-18
1.66688e-18
7.68291e-19
7.01191e-17
4.26219e-17
2.23338e-17
2.62826e-17
3.09956e-17
2.05414e-17
1.20342e-17
6.55507e-16
3.77665e-16
1.8013e-16
8.98378e-17
7.49959e-17
5.78034e-17
5.67485e-17
4.12122e-15
1.97285e-15
7.5175e-16
2.84468e-16
1.2069e-16
5.53324e-17
1.11315e-17
6.54325e-16
5.99937e-16
5.10287e-16
4.08392e-16
3.3607e-16
2.69121e-16
2.0866e-16
5.02721e-17
1.96335e-17
1.46303e-17
6.93225e-18
3.51014e-18
2.67273e-18
1.22581e-18
9.61158e-18
5.72382e-18
3.77913e-18
3.16224e-18
2.82532e-18
2.40574e-18
1.28321e-18
4.17611e-17
3.04149e-17
2.00449e-17
1.19811e-17
8.93961e-18
3.83502e-18
1.16839e-18
9.57268e-17
1.10776e-16
8.96457e-17
6.59375e-17
5.09721e-17
4.37034e-17
2.14579e-17
1.37702e-15
1.22796e-15
9.21144e-16
6.21278e-16
4.53975e-16
3.39571e-16
2.70375e-16
3.66177e-15
2.94926e-15
2.08926e-15
1.38669e-15
9.22648e-16
5.97198e-16
3.15843e-16
6.7485e-16
5.76858e-16
4.75132e-16
4.08764e-16
3.62129e-16
2.97611e-16
2.41101e-16
4.22185e-17
3.16678e-17
2.74025e-17
1.75666e-17
1.36609e-17
9.96367e-18
6.22608e-18
3.24628e-17
2.1624e-17
1.42513e-17
1.10471e-17
7.86344e-18
5.88682e-18
3.52958e-18
4.61445e-17
3.35787e-17
2.86104e-17
1.82201e-17
1.44311e-17
6.469e-18
1.9562e-18
2.17895e-17
4.01267e-17
4.89912e-17
3.77979e-17
3.11961e-17
2.92751e-17
2.7544e-17
6.35834e-16
6.24965e-16
5.50979e-16
4.51837e-16
3.46317e-16
2.85483e-16
2.05049e-16
2.16454e-15
2.02921e-15
1.73549e-15
1.54587e-15
1.10566e-15
8.67142e-16
6.95967e-16
3.75177e-16
3.53051e-16
3.32699e-16
3.09537e-16
2.71308e-16
2.54491e-16
2.20119e-16
1.53589e-17
1.45202e-17
1.15433e-17
9.86933e-18
8.62849e-18
6.93997e-18
6.23379e-18
2.31837e-17
1.96507e-17
1.23292e-17
9.43046e-18
7.81052e-18
6.04227e-18
3.35553e-18
3.27668e-17
2.76973e-17
2.02693e-17
1.49946e-17
1.23614e-17
6.36937e-18
2.30838e-18
6.21942e-21
1.66466e-20
3.35104e-20
6.91833e-20
7.2821e-20
6.72331e-20
6.43192e-20
3.21158e-20
3.68376e-20
5.8132e-20
7.42649e-20
7.70637e-20
7.63328e-20
9.6983e-20
9.19537e-18
5.70156e-18
4.8466e-18
3.31193e-18
2.8218e-18
2.54521e-18
2.62659e-18
1.43403e-15
1.73679e-15
2.917e-15
4.27177e-15
1.29574e-14
4.11458e-14
1.19296e-13
6.56098e-17
4.9283e-17
2.20495e-17
1.41823e-17
8.54871e-18
4.58374e-18
8.78775e-15
1.19035e-19
1.06808e-19
9.33211e-20
1.26236e-19
1.76549e-19
1.82403e-19
8.85552e-17
3.81006e-19
3.92153e-19
3.79456e-19
3.02728e-19
2.64166e-19
2.01836e-19
1.44853e-18
4.92037e-20
2.41988e-19
7.7658e-19
8.21958e-19
7.96436e-19
7.14651e-19
6.09348e-19
3.9237e-19
4.69438e-19
7.49972e-19
1.18145e-18
1.18284e-18
1.09387e-18
9.54981e-19
1.0251e-17
7.46227e-18
4.34716e-18
3.59339e-18
3.09065e-18
2.2707e-18
2.16781e-18
3.04611e-15
3.98006e-15
5.23871e-15
8.5454e-15
2.35314e-14
5.75168e-14
1.14072e-13
8.20621e-17
5.77213e-17
2.88027e-17
1.64817e-17
9.3014e-18
5.58216e-18
4.39608e-15
1.11686e-18
9.42519e-19
7.95575e-19
5.57115e-19
4.59164e-19
4.35854e-19
6.14892e-17
1.37285e-18
1.83976e-18
1.75844e-18
1.57249e-18
1.30577e-18
9.92933e-19
1.53895e-18
2.10385e-19
1.23673e-18
2.62373e-18
3.11036e-18
2.85867e-18
1.74522e-18
9.29161e-19
1.64229e-18
2.57498e-18
4.00164e-18
5.23378e-18
5.01047e-18
4.26512e-18
3.51409e-18
7.21273e-18
5.00928e-18
3.13584e-18
2.56093e-18
4.57895e-18
3.74266e-18
1.75172e-16
7.35437e-15
9.71669e-15
1.62936e-14
2.07454e-14
4.52983e-14
7.21185e-14
9.4446e-14
5.41324e-17
2.69641e-17
1.82871e-17
1.17884e-17
5.83397e-18
3.73552e-18
5.13471e-15
5.80211e-18
4.42491e-18
3.91271e-18
2.77794e-18
2.50852e-18
1.73281e-18
1.07712e-16
3.43962e-18
4.03361e-18
5.54679e-18
4.95805e-18
4.24585e-18
3.26685e-18
4.60536e-18
1.00568e-18
3.81662e-18
8.44569e-18
7.81562e-18
7.982e-18
9.11002e-18
1.09716e-17
4.7366e-18
8.26308e-18
1.35302e-17
1.51814e-17
1.74502e-17
2.7017e-17
3.02874e-17
3.5108e-18
2.98561e-18
3.65743e-18
6.87375e-18
5.37348e-17
1.37519e-16
1.50693e-15
9.94152e-15
1.43314e-14
2.25702e-14
3.41225e-14
4.97431e-14
6.45822e-14
6.98558e-14
3.07743e-17
1.96179e-17
8.9045e-18
5.13024e-18
3.56177e-18
6.89746e-16
8.83153e-15
2.30312e-17
2.47545e-17
2.10768e-17
1.2885e-17
8.60259e-18
2.31447e-17
3.36309e-16
6.73723e-18
1.12667e-17
1.55215e-17
1.1646e-17
7.06889e-18
5.26309e-18
1.40942e-17
1.77691e-18
8.08223e-18
1.19816e-17
1.38873e-17
1.68099e-17
1.97738e-17
2.42324e-17
8.89619e-18
1.5552e-17
2.0847e-17
2.55537e-17
2.84222e-17
3.29556e-17
3.88332e-17
9.38769e-17
3.25348e-16
6.51142e-16
1.01805e-15
2.44089e-15
3.34324e-15
2.94822e-15
1.05139e-14
1.77032e-14
2.07362e-14
2.5498e-14
3.29065e-14
3.54512e-14
3.53565e-14
3.67355e-17
1.23829e-16
3.40948e-16
7.22982e-16
2.19715e-15
5.75905e-15
1.18566e-14
6.48113e-17
1.447e-16
1.687e-16
3.08615e-16
7.66761e-16
1.32085e-15
2.3838e-15
1.20491e-17
3.31412e-17
4.36189e-17
3.55821e-17
2.90113e-17
9.20753e-17
2.80333e-16
2.94117e-18
1.07335e-17
1.49973e-17
2.00647e-17
2.18747e-17
2.66453e-17
3.28324e-17
9.22763e-18
1.44461e-17
1.7678e-17
2.43867e-17
2.86615e-17
3.9131e-17
4.44613e-17
3.61973e-16
5.27343e-16
7.68699e-16
9.41909e-16
1.29263e-15
1.56156e-15
1.62193e-15
6.7091e-15
7.1675e-15
7.45742e-15
9.00967e-15
1.05819e-14
1.13885e-14
1.10105e-14
7.28138e-16
1.32578e-15
2.14014e-15
3.28076e-15
5.09577e-15
7.64323e-15
9.35532e-15
4.73792e-16
7.35522e-16
9.73655e-16
1.29959e-15
1.84155e-15
2.7177e-15
3.10931e-15
2.28199e-17
5.81845e-17
8.87109e-17
1.16184e-16
1.81112e-16
2.39734e-16
1.25957e-16
2.88447e-18
7.74589e-18
1.1322e-17
1.72318e-17
1.98071e-17
2.3329e-17
2.57146e-17
6.22913e-18
8.04042e-18
1.23134e-17
1.44164e-17
1.61572e-17
1.94685e-17
2.8004e-17
2.87866e-16
3.13683e-16
3.65068e-16
4.26075e-16
4.6772e-16
4.70404e-16
4.56196e-16
1.30973e-15
9.99482e-16
9.67742e-16
1.13005e-15
1.24355e-15
1.48545e-15
1.51317e-15
1.35306e-15
1.76902e-15
2.23153e-15
3.20571e-15
3.74998e-15
4.41064e-15
4.698e-15
3.32411e-16
4.28424e-16
6.00861e-16
7.29751e-16
9.27502e-16
1.02351e-15
1.01764e-15
2.37363e-17
3.51669e-17
5.07139e-17
6.6685e-17
7.22806e-17
5.6719e-17
2.87961e-17
1.92565e-25
3.9009e-25
4.94297e-24
2.80985e-23
8.13409e-23
1.41999e-22
2.36679e-22
2.46889e-22
3.50909e-22
5.78599e-22
1.08576e-21
3.26318e-21
7.27901e-21
1.04851e-20
2.83307e-17
4.91824e-17
5.23954e-17
4.22511e-17
2.10566e-17
1.58301e-17
1.17179e-17
2.44594e-16
4.1542e-16
5.53474e-16
7.37297e-16
8.58386e-16
9.84971e-16
1.24299e-15
4.08168e-17
7.01226e-17
8.56383e-17
8.53874e-17
7.69021e-17
7.3197e-17
7.91683e-17
2.61181e-22
5.45658e-22
1.05303e-21
6.88889e-21
2.09528e-20
6.44964e-20
1.13644e-19
2.20963e-24
8.71612e-24
7.15195e-22
1.7683e-21
8.30902e-21
2.64345e-20
6.64993e-20
1.69456e-25
7.02137e-25
1.06761e-23
1.02822e-22
1.47782e-22
3.84172e-22
9.97962e-22
1.95543e-22
4.92058e-22
1.56405e-21
4.23527e-21
1.74143e-20
3.92925e-20
1.26366e-19
3.11344e-17
5.86555e-17
7.55025e-17
5.85624e-17
3.14877e-17
1.67033e-17
1.44983e-17
2.42475e-16
5.56522e-16
9.33862e-16
1.2931e-15
1.54288e-15
1.97211e-15
2.31992e-15
4.37139e-17
8.23254e-17
1.33563e-16
1.36965e-16
1.35664e-16
1.48266e-16
1.37264e-16
2.75961e-22
5.76129e-22
3.5479e-21
6.38785e-20
2.73834e-19
6.79714e-19
1.13895e-18
2.34291e-24
3.31201e-23
1.40577e-21
7.51831e-21
3.21237e-20
1.31881e-19
3.1146e-19
4.10006e-25
7.92786e-25
1.44327e-23
1.35953e-22
3.1801e-22
9.98882e-22
2.89916e-21
4.14012e-22
6.85119e-22
2.5259e-21
1.21277e-20
1.32102e-19
3.43542e-19
1.086e-18
4.27883e-17
9.88354e-17
1.23821e-16
5.69783e-17
2.65986e-17
1.42258e-17
1.09541e-17
3.71743e-16
1.05168e-15
1.6993e-15
2.61087e-15
3.79105e-15
4.50991e-15
5.70598e-15
5.79044e-17
1.29321e-16
2.10585e-16
2.22784e-16
1.64577e-16
9.10951e-17
6.81914e-17
5.24058e-22
9.52469e-22
1.0753e-20
3.4272e-19
1.58862e-18
3.987e-18
6.56716e-18
5.50117e-24
6.81176e-23
3.49714e-21
2.27972e-20
1.14874e-19
2.99343e-19
1.08629e-18
7.38236e-25
9.22367e-25
2.56282e-23
2.77677e-22
4.85575e-22
1.97466e-21
9.4871e-21
4.39737e-22
7.06442e-22
5.93648e-21
4.27337e-20
3.74289e-19
1.09496e-18
2.63185e-18
5.21185e-17
1.05692e-16
1.0243e-16
5.37865e-17
2.36241e-17
1.06501e-17
5.15675e-18
3.9012e-16
1.08162e-15
1.74104e-15
2.73061e-15
3.68914e-15
4.5581e-15
7.07526e-15
6.43329e-17
1.44575e-16
1.98776e-16
1.78888e-16
1.18608e-16
7.56565e-17
4.96053e-17
5.8537e-22
1.09422e-21
3.86048e-20
9.79067e-19
9.17826e-18
2.18151e-17
2.55979e-17
2.14526e-23
9.01701e-23
6.39049e-21
4.36098e-20
1.76742e-19
5.09143e-19
1.57441e-18
1.18841e-24
1.16888e-24
4.13492e-23
3.47275e-22
9.03553e-22
3.5368e-21
1.27219e-20
4.36045e-22
7.10051e-22
1.19704e-20
8.97501e-20
8.2498e-19
3.14637e-18
5.53325e-18
5.83795e-17
1.10036e-16
8.25415e-17
3.74442e-17
1.23831e-17
1.45287e-17
2.78926e-17
4.44512e-16
1.23015e-15
2.16495e-15
3.39073e-15
4.64222e-15
6.00631e-15
8.85551e-15
7.83972e-17
1.67809e-16
2.02477e-16
1.26921e-16
7.72686e-17
4.6081e-17
3.14318e-17
6.04289e-22
1.36153e-21
1.11033e-19
4.60261e-18
2.82351e-17
5.76783e-17
1.11348e-16
3.29792e-23
1.12467e-22
7.80927e-21
5.14512e-20
2.89386e-19
8.52524e-19
2.10765e-18
1.35269e-24
1.49727e-24
5.12512e-23
4.71543e-22
1.4325e-21
5.3366e-21
1.87324e-20
4.46777e-22
7.14726e-22
2.73177e-20
1.80716e-19
1.54069e-18
4.49905e-18
6.38274e-18
6.72309e-17
1.23671e-16
8.39973e-17
3.42176e-17
2.4036e-17
9.3212e-17
1.67551e-16
4.5524e-16
1.30184e-15
2.50697e-15
3.43101e-15
4.47296e-15
5.46168e-15
6.24019e-15
8.35355e-17
1.67816e-16
1.95443e-16
9.93937e-17
5.86371e-17
7.93809e-17
2.53697e-16
5.92126e-22
1.5321e-21
2.40916e-19
8.95963e-18
5.61227e-17
1.34216e-16
2.56827e-16
3.5815e-23
1.12783e-22
1.08445e-20
7.22806e-20
3.28193e-19
1.22341e-18
3.18645e-18
1.50027e-24
2.07998e-24
7.32859e-23
6.35899e-22
3.10176e-21
8.75369e-21
2.52543e-20
3.90226e-22
5.35079e-22
4.02327e-20
2.63791e-19
1.70961e-18
3.88083e-18
4.71319e-18
6.609e-17
1.28783e-16
7.02396e-17
4.12084e-17
9.39449e-17
1.59205e-16
2.15929e-16
5.89407e-16
1.7103e-15
2.55445e-15
2.90333e-15
2.8233e-15
2.28404e-15
1.61989e-15
7.99358e-17
1.70963e-16
1.69261e-16
1.17093e-16
3.17383e-16
6.78793e-16
1.02577e-15
5.70816e-22
1.66957e-21
4.52586e-19
1.01456e-17
6.84496e-17
1.56437e-16
2.39717e-16
3.29894e-23
1.05064e-22
1.25589e-20
7.94659e-20
3.80196e-19
1.37683e-18
4.08915e-18
2.01966e-24
3.11024e-24
4.95728e-24
9.41379e-22
5.78076e-21
5.96626e-21
3.18978e-20
3.40992e-22
2.94227e-22
4.20588e-22
7.86845e-22
2.92543e-19
4.47135e-19
6.6139e-19
5.01201e-17
5.20303e-17
3.98742e-17
2.43904e-17
3.61646e-17
5.33798e-17
6.84948e-17
5.43535e-16
1.04147e-15
1.16255e-15
1.03929e-15
9.03508e-16
6.56101e-16
4.20213e-16
7.01265e-17
7.88653e-17
6.50591e-17
5.35668e-17
9.59944e-17
2.13409e-16
2.43347e-16
5.26552e-22
1.95481e-21
2.32866e-20
3.14868e-19
2.5924e-18
3.46886e-18
3.44731e-17
2.59582e-24
9.95179e-23
3.88604e-22
8.44608e-20
3.04664e-19
1.47525e-18
5.05909e-18
2.72449e-24
3.60354e-24
4.16829e-24
2.24194e-24
4.95052e-24
3.55137e-23
9.50066e-22
8.69525e-23
1.03253e-22
1.06097e-22
1.16183e-22
2.60235e-22
2.66818e-21
2.65155e-20
1.23305e-17
1.82626e-17
1.70233e-17
1.49492e-17
1.42449e-17
1.8903e-17
2.19378e-17
3.08498e-16
4.42574e-16
4.48172e-16
3.72891e-16
3.26446e-16
2.42707e-16
2.23322e-16
2.03785e-17
2.72431e-17
3.05972e-17
2.2801e-17
3.87225e-17
6.08796e-17
9.16379e-17
1.46838e-22
1.68831e-22
1.70846e-22
1.51883e-22
2.72079e-22
3.98385e-22
7.28997e-22
3.73799e-24
2.98269e-24
3.65638e-24
2.88253e-24
4.08354e-24
5.37914e-24
9.2298e-24
5.53756e-27
1.32478e-27
9.34201e-27
2.57326e-25
1.60623e-25
2.2839e-25
5.58778e-25
6.0722e-23
5.00495e-23
4.36174e-23
3.84191e-23
3.77069e-23
5.43471e-23
8.43487e-23
6.13979e-18
6.04112e-18
7.24375e-18
5.73429e-18
5.48758e-18
7.61747e-18
1.24974e-17
2.13897e-16
2.38667e-16
2.11735e-16
1.75802e-16
1.6248e-16
1.27111e-16
1.31789e-16
1.67613e-17
1.16648e-17
1.08093e-17
9.21198e-18
1.5908e-17
2.41596e-17
5.0418e-17
1.18653e-22
8.96227e-23
6.85005e-23
5.63539e-23
8.48358e-23
1.33004e-22
2.70599e-22
1.45246e-27
1.8797e-27
2.28341e-27
1.40687e-26
5.22847e-26
6.93498e-26
1.62287e-25
3.32957e-27
8.65254e-28
5.5783e-27
8.01499e-26
4.45583e-26
6.65701e-26
1.32439e-25
5.35049e-23
3.96278e-23
2.02105e-23
2.25621e-23
2.2888e-23
3.10755e-23
4.88558e-23
7.02266e-18
5.30705e-18
3.60656e-18
3.79938e-18
3.861e-18
5.42803e-18
8.56219e-18
1.04133e-16
1.21802e-16
1.15471e-16
9.36028e-17
8.1567e-17
6.73675e-17
5.82524e-17
1.12896e-17
9.70441e-18
5.76759e-18
4.7538e-18
7.24696e-18
1.09702e-17