/*--------------------------------*- C++ -*----------------------------------*\
  =========                 |
  \\      /  F ield         | OpenFOAM: The Open Source CFD Toolbox
   \\    /   O peration     | Website:  https://openfoam.org
    \\  /    A nd           | Version:  6
     \\/     M anipulation  |
\*---------------------------------------------------------------------------*/
FoamFile
{
    version     2.0;
    format      ascii;
    class       volScalarField;
    location    "0.005";
    object      p;
}
// * * * * * * * * * * * * * * * * * * * * * * * * * * * * * * * * * * * * * //

dimensions      [1 -1 -2 0 0 0 0];

internalField   nonuniform List<scalar> 
3773
(
40974.2
40974.8
40975.6
40975.9
40975.3
40975.2
40974.9
99559.3
99560.8
99563.7
99565.5
99563.2
99560.6
99559.3
134790
134789
134788
134786
134787
134788
134789
146553
146549
146545
146543
146545
146550
146554
134785
134784
134783
134783
134785
134787
134789
99557.6
99559.3
99562.1
99563.1
99561.6
99558.7
99556.1
40973.1
40972.6
40972.9
40972.2
40971.9
40971.5
40971.1
40972.9
40973.5
40974.1
40974.5
40973.9
40973.8
40973.7
99561.8
99563.1
99566.2
99567.8
99565.6
99562.8
99561.5
134791
134790
134789
134787
134788
134789
134790
146553
146550
146545
146543
146546
146551
146555
134786
134785
134784
134784
134786
134788
134790
99559.9
99561.7
99564.6
99565.7
99564
99561
99558.5
40971.8
40971.2
40971.5
40970.8
40970.6
40970.1
40969.8
40973.3
40973.9
40974.3
40974.7
40974.2
40974.1
40974.1
99565.1
99566.4
99569.7
99571.1
99568.8
99565.9
99564.4
134793
134792
134790
134789
134790
134791
134791
146554
146551
146546
146544
146547
146552
146556
134787
134786
134786
134786
134788
134790
134791
99562.9
99565.1
99568.1
99569.4
99567.4
99564.3
99561.7
40972
40971.5
40971.7
40970.9
40970.8
40970.4
40970.2
40975.3
40975.9
40976.1
40976.5
40976
40975.9
40976
99569
99570.5
99573.9
99575.4
99572.8
99569.7
99567.9
134795
134794
134792
134791
134792
134793
134793
146555
146552
146547
146545
146548
146553
146557
134790
134788
134788
134788
134790
134792
134794
99566.8
99569.3
99572.5
99574.1
99571.8
99568.4
99565.7
40973.9
40973.3
40973.5
40972.6
40972.6
40972.3
40972.1
40977.9
40978.5
40978.7
40979
40978.5
40978.3
40978.5
99573.2
99574.8
99578.5
99580
99577.2
99573.8
99572
134798
134797
134794
134793
134794
134795
134795
146556
146552
146548
146546
146549
146554
146558
134792
134790
134790
134790
134793
134795
134796
99571.1
99573.8
99577.1
99579
99576.6
99572.8
99570.2
40976.4
40975.7
40975.9
40975.1
40975.2
40974.9
40974.7
40980.2
40980.8
40981.1
40981.3
40980.6
40980.3
40980.6
99576.8
99578.7
99582.8
99584.1
99581
99577.4
99575.6
134799
134798
134796
134795
134796
134797
134797
146557
146553
146549
146547
146549
146554
146558
134794
134792
134792
134792
134794
134797
134798
99575
99577.7
99581
99583.2
99580.7
99576.6
99574
40978.6
40977.7
40978
40977.2
40977.5
40977.1
40977
40981.4
40982
40982.4
40982.5
40981.8
40981.4
40981.8
99578.7
99581
99585
99586.6
99583.1
99579.5
99577.6
134801
134800
134798
134796
134797
134798
134798
146557
146554
146549
146547
146550
146555
146559
134795
134793
134793
134793
134795
134798
134799
99577.2
99580.1
99583.3
99585.6
99583.1
99578.9
99576.2
40979.8
40978.8
40979.2
40978.4
40978.7
40978.3
40978.1
62313.3
62358.1
62456.7
62468.1
62283.8
62037.5
61914
149270
149275
149245
149150
148975
148780
148659
200710
200672
200580
200464
200347
200260
200211
217858
217814
217739
217654
217576
217534
217518
200811
200807
200790
200743
200676
200622
200596
149426
149501
149596
149621
149518
149380
149293
62422
62526.2
62715.6
62829.1
62690.5
62476.2
62364.6
62216.1
62363.9
62666
62771.4
62569.1
62201.2
62041.2
148904
148939
148947
148931
148810
148662
148592
200195
200143
200051
199975
199902
199862
199855
217291
217240
217168
217094
217035
216995
216970
200278
200220
200164
200110
200075
200040
200020
149045
149040
149105
149117
149073
148952
148865
62305.9
62411.9
62755.3
62907.6
62776.6
62414.7
62243.3
61875.2
62016.1
62173.1
62242.1
62135.2
61991.4
61823.9
148196
148130
147957
147900
147963
148069
148068
199347
199262
199151
199095
199107
199125
199157
216452
216420
216375
216319
216297
216242
216218
199451
199379
199267
199194
199189
199222
199263
148336
148294
148219
148077
148114
148201
148245
61956
62103.4
62339.5
62392.8
62294.6
62098.6
61957.7
61457.1
61441.2
61406.5
61362.8
61265.2
61320
61284.6
147341
147211
146942
146906
146919
147084
147150
198309
198258
198203
198158
198162
198190
198236
215418
215396
215387
215370
215368
215367
215419
198358
198297
198193
198137
198187
198289
198400
147333
147228
147060
146949
146969
147266
147443
61409.4
61412.8
61435.4
61484.3
61441.1
61528
61536.4
60913.4
60793.8
60661.7
60661.8
60516
60516.6
60722.8
146307
146167
146166
146146
146014
145948
146130
197052
196997
196969
196890
196915
196977
197047
213986
213991
213970
213948
214033
214151
214237
196903
196930
196922
196961
197078
197182
197286
146198
146091
146166
146303
146404
146410
146551
60888.6
60706.5
60713.7
60898.8
60890.4
61003.3
61129.5
60196.6
60024.1
59895.6
59791.9
59619.9
59690.1
60010.5
144925
144832
144733
144465
144334
144486
144735
195368
195267
195138
195012
195080
195269
195423
212161
212157
212108
212094
212213
212374
212492
195150
195153
195054
195113
195337
195489
195560
144793
144575
144501
144761
145073
145071
145123
60244.7
59985.4
60025.8
60282.3
60147.7
60216.6
60363.6
59454.1
59217.7
59162.9
59317.5
59015.2
59041
59405.4
143428
143198
142766
142601
142394
142798
143264
193522
193384
193158
193084
193140
193346
193538
210265
210208
210175
210191
210303
210398
210498
193382
193228
193037
193145
193337
193639
193793
143283
142805
142475
142824
143078
143465
143670
59611.2
59250.5
59332.2
59488.8
59262.8
59346.5
59561.8
58237.1
58154.4
58257.8
58477.4
58779.9
59002.1
59050.8
141405
141320
141260
141318
141195
141635
142088
191392
191410
191444
191496
191516
191658
191797
208255
208308
208335
208371
208397
208370
208464
191564
191553
191373
191383
191506
191616
191610
141910
141747
141384
141483
141668
141806
141732
58743.3
58943.5
59089.1
58817.3
58404
58321.4
58359.8
57618.1
57537.8
57520
57659.9
58250
58701.5
58899.8
140101
140018
140119
140319
140633
141014
141369
189837
189868
190067
190183
190236
190356
190420
206777
206879
206973
206998
206937
206887
206910
190480
190461
190351
190188
190143
190098
190134
141278
140960
140702
140416
140396
140434
140479
58550.7
58635.9
58202.3
57894.4
57734.7
57770
57829.8
57182.3
57124.2
57126.3
57316.3
57811.8
58466.9
58965.5
139008
138917
139027
139421
139826
140388
140680
188371
188469
188664
188741
188781
188913
189017
205325
205329
205407
205451
205331
205169
205134
189367
189204
189157
189024
188852
188531
188359
140705
140347
140210
139780
139236
138991
139038
58541.6
58409.2
57937.7
57457.3
57249.7
57169.1
57185.6
56682.3
56588.7
56500.6
56788.7
57541.3
58353.8
59070.6
137871
137654
137457
137728
138732
139832
140131
186889
186879
186922
186954
187136
187600
187935
203889
203720
203609
203582
203495
203523
203688
188395
188089
187556
187231
187014
186799
186752
140503
140393
139243
138057
137432
137460
137614
58810
58465.5
57843.1
56964
56517.2
56493.9
56571
56382.9
56435.7
56300.2
56608.6
57662.7
58568.5
59016
136865
136672
136203
136133
137817
139834
140364
185474
185240
185166
185326
185916
186794
187244
202533
202269
202062
201983
201932
202110
202375
187650
187269
186094
185352
185121
185127
185348
140771
140619
138112
135841
135837
136371
136547
58927.9
58603.6
57820.1
56590.4
56207.1
56154
56095.3
56195.1
56676.2
56871.2
56860.7
57538.9
58401.5
58848.8
136212
136191
135990
135937
137129
139928
141349
184616
184372
184280
184615
185191
186255
186878
201395
201285
201165
201089
201053
201181
201210
186866
186259
185252
184604
184252
184291
184505
140876
139909
137232
135730
135764
136058
136115
58424.5
58122.3
57583.2
57246.8
56835.1
56485.7
56042.7
56087.6
58274.2
57980.1
56785.4
56980.8
57963.8
58685.1
136227
136870
136717
136647
137156
138759
140369
184727
184945
184632
184380
184583
185152
184974
200411
200658
200664
200634
200526
200701
200661
184740
184659
184489
184668
184573
184864
185314
139478
137945
136664
137266
137583
136777
136113
58122.2
57518.1
57114
58026.4
59323.8
58161.6
55949
59060.3
58929.8
59088.7
59863
59456
59421
59176.1
142636
142548
142196
142380
141939
142631
142811
192681
192552
192494
192496
192580
192726
192897
209445
209405
209476
209493
209561
209587
209706
192623
192589
192421
192541
192548
192832
192931
142730
142594
142024
142664
142564
142966
142891
59228.8
59280.2
59797.3
59910.5
59137.4
59086.4
59169.6
59011.7
58891.7
59078.7
59877.1
59522
59475.6
59149.5
142537
142477
142154
142346
141891
142602
142758
192587
192459
192422
192423
192501
192646
192820
209360
209314
209387
209404
209470
209493
209623
192536
192507
192338
192465
192471
192742
192835
142664
142561
142002
142629
142527
142917
142798
59182.1
59274.6
59864
59931.2
59128.3
59047.5
59122.1
58971.1
58863.7
59076.8
59853.3
59565.6
59495.1
59132.4
142447
142411
142128
142325
141875
142566
142709
192491
192374
192362
192350
192429
192568
192744
209276
209226
209301
209317
209381
209400
209539
192453
192428
192264
192391
192402
192659
192738
142602
142513
142002
142611
142499
142871
142715
59146.1
59263.9
59960.6
59922.2
59133
59020.3
59080.1
58939.8
58840.3
59091.9
59836.7
59608.4
59475.8
59120
142364
142358
142088
142319
141861
142544
142660
192388
192295
192304
192279
192364
192494
192662
209184
209136
209214
209236
209292
209303
209447
192365
192355
192199
192319
192334
192581
192632
142545
142474
142013
142597
142458
142839
142637
59117.1
59272.5
60071.5
59950.1
59149.3
58995.9
59045.8
58907.4
58819.3
59124.5
59896.4
59686.3
59460.2
59109.2
142276
142306
142016
142317
141839
142515
142607
192284
192222
192240
192214
192301
192413
192575
209089
209050
209125
209154
209201
209209
209354
192278
192282
192137
192247
192266
192505
192527
142485
142467
142016
142580
142387
142798
142557
59078.5
59288.2
60158.9
60100.4
59165.5
58977.5
59008.3
58858.1
58783.8
59122.3
59929.8
59769.4
59430.9
59099.3
142184
142228
141925
142288
141829
142466
142553
192181
192139
192158
192148
192236
192322
192485
209000
208973
209039
209074
209114
209123
209260
192196
192203
192066
192169
192185
192417
192422
142423
142468
141975
142549
142302
142723
142473
59021.3
59272.2
60152.3
60222
59156.2
58942.6
58954.7
58793
58709.8
59039.4
59770
59778.9
59338.2
59091.3
142092
142127
141839
142194
141804
142384
142499
192080
192050
192074
192077
192166
192238
192398
208913
208897
208961
208998
209034
209037
209165
192117
192124
191988
192084
192103
192321
192319
142363
142417
141888
142446
142228
142618
142388
58972.5
59207.7
60008.4
60111.7
59084.9
58867
58890.1
63677.4
64094.6
61237.2
57599.9
56520.8
57293
58062.8
139903
141544
139864
136328
136389
137517
138651
184981
186424
185371
184011
183713
184023
183926
199596
200390
200351
200546
200435
200681
200022
183398
183489
183706
184815
185446
186042
185770
137039
136141
136355
138898
141462
141160
139610
57038.3
56745.8
56915.4
59222.4
62418.8
64116.2
62828.9
65265.7
64470
61358.8
58346.7
56745.2
56836.6
56945.3
140855
143241
140959
136653
135825
137014
137182
184990
186910
185720
183964
183484
183588
183271
199500
200218
200194
200474
200340
200560
200024
182885
183120
183510
184928
185888
186516
186072
135599
135640
136282
139443
142862
142935
140751
56007.2
56373.2
57247.7
59385.9
62358.2
65192.9
64417.4
65063.4
63889.9
61190.7
58970.1
57146.5
56275
55757.5
141281
143862
141617
137851
136196
136526
135659
184996
187389
185899
184062
183484
183506
182895
199515
200010
200017
200354
200208
200332
200134
182660
183039
183446
184989
186169
186944
186510
134381
135406
136766
140151
143385
143909
141302
55090.5
55954.2
57566.3
59534.9
62049.8
64933.6
64364.7
64122.8
63040.5
60926.3
59367.7
57557.5
56116.1
55309.8
141456
143920
141839
138636
136963
136094
134870
185289
187612
185892
184211
183621
183722
183062
199563
199866
199862
200239
200091
200194
200277
182757
183160
183452
185037
186296
187279
186862
133812
135377
137045
140446
143195
144258
141665
54833.2
55956.8
57708.6
59550.4
61458.8
64098.1
63851.8
63877.8
62664.9
60800.1
59638.1
57836.3
56201.3
55334.6
142090
144094
141980
139275
137545
136184
134917
185856
187650
185878
184387
183813
183923
183499
199705
199775
199750
200153
200016
200146
200506
183058
183274
183612
185221
186375
187444
187216
134130
135717
137384
140442
143245
144586
142218
55054.3
56281.6
57883.2
59531.7
61150.1
63895.3
63860.4
63907.9
62732.6
60808.2
59725.5
57939.3
56193.6
55286.9
142877
144535
142172
139751
137958
136506
135217
186306
187647
185909
184602
184042
183998
184013
199953
199723
199709
200128
199989
200137
200787
183455
183311
183834
185414
186401
187490
187525
134671
136159
137703
140577
143572
144997
142907
55233.8
56563.1
58035.9
59521.9
61257
64339.9
64380.3
64211.2
62961.5
60912.2
59748.5
57957
56166.4
55232.6
143457
144949
142394
140084
138269
136745
135478
186593
187749
186044
184803
184252
184076
184645
200194
199727
199748
200172
200030
200171
201046
183901
183394
184074
185633
186547
187691
187690
135090
136504
138025
140866
143891
145423
143305
55333.2
56738
58164.4
59594.5
61504.6
64819.7
64949.2
57747.4
57120.5
56890.6
57985.4
61787.1
68958.2
78824.3
136899
135270
134264
133843
134630
137481
142417
181761
181168
179857
178186
176329
174562
173192
195861
194916
193612
191819
189471
186568
183815
183314
181620
180316
179250
178011
176609
175487
139120
138457
138469
139586
141845
145449
150313
62104.1
60916.5
61024.6
63124
67602.4
74497.9
82976.8
56523.1
56077.2
55875.9
56666.6
59334.2
64975.1
73888.3
135590
134468
133509
133061
133699
135959
140141
181869
180991
179681
178038
176262
174494
172944
197039
195466
193837
191958
189684
186908
184123
183349
181580
180150
178957
177736
176536
175508
138296
137392
137284
138238
140301
143503
147794
61151.7
59747
59809.5
61662
65449.3
71454.3
79408
55322.1
55154.9
55103.5
55469.4
56687.9
59751.5
66348
134116
133422
132628
132146
132370
133671
136553
181593
180644
179338
177744
176100
174396
172743
197747
196041
194190
192179
189920
187318
184553
183612
181740
180159
178840
177735
176783
175845
138044
136761
136420
137149
139000
141642
145086
60507.8
58838.5
58871.6
60552.6
63664.5
68061.2
74441.5
55140.6
55026.4
54969.1
55069.4
55541
56753.7
60309.7
133577
132902
132178
131598
131472
132105
133613
181353
180193
178911
177391
175840
174295
172717
198295
196641
194679
192611
190246
187595
184860
183780
181951
180415
179130
178097
177173
176391
138127
136608
136279
137019
138678
140856
143565
60130.6
58507.5
58768.2
60456.3
63180
66244.4
70018.5
55298.7
55215.1
55067.6
54995.6
55264
55956.2
57522
133741
132996
132182
131414
131098
131558
132502
181438
179987
178552
177046
175477
174053
172637
198765
197175
195220
192986
190364
187499
184516
184225
182378
180958
179829
178750
177746
177098
138543
137070
136793
137674
139234
141209
143474
60385.7
59295.5
59782.8
61290.9
63625.2
66142.8
68468.3
55435.7
55381.6
55107.7
54957.6
55283.8
56001.2
56845.5
134021
133259
132293
131379
130927
131350
132197
181906
180352
178656
176922
175208
173643
172109
199194
197648
195623
193204
190370
186925
182798
184835
182969
181552
180616
179568
178223
176898
139264
137791
137624
138791
140352
142067
143571
61326.9
60624.9
61155.1
62467
64552.8
66878.5
68412.7
55579.4
55568.9
55263.1
55140.8
55488
56108.1
56559.9
134289
133504
132448
131411
130936
131273
131851
182529
180975
179113
177188
175314
173544
170928
199474
197945
195835
193353
190426
186506
180400
185176
183414
181959
181165
180182
178416
175380
139717
138300
138447
139978
141616
143025
143483
62123.8
61738.2
62401.1
63678.4
65538.6
67478.7
66827.5
86382.6
78060.7
71220.6
66884.4
64954
64515.8
64719.3
156615
151439
146847
143142
140778
140204
140461
180747
180989
181101
181171
181406
181867
182792
185460
187755
190224
192417
194054
195087
195767
172528
173604
175220
177049
178772
180251
181127
141863
136721
133655
132695
132924
133735
135251
78281.5
68478.7
61322.5
57333
55951.6
55986.3
56613.7
82589.1
74805.3
69130.2
65387
63417.1
62920.4
63652
153888
149286
145225
141972
139725
138961
139098
180556
180814
180931
181012
181027
181237
182234
185619
187985
190368
192465
194138
195423
196687
172167
173464
175146
176970
178670
180135
181337
139016
134804
132434
131682
131927
132777
133877
73306.8
64537.2
58838.8
55946.6
54882.7
54929.7
55422.5
77343
71291.4
67325.3
64172.4
62503.3
62026.4
62979.3
150994
147383
144103
141043
138985
138335
138884
180437
180806
180888
180921
180906
181103
181970
185978
188328
190607
192662
194325
195772
197198
171977
173465
175130
176849
178489
179888
181039
135032
132281
130983
130680
130997
131750
132627
66074.4
59605.6
56295.6
54685.4
54052.5
54067.4
54392
73310.7
69878.7
66980
64151.3
62629.2
62294.6
62815.7
149139
146750
143932
141068
139067
138489
139307
180385
180814
180932
180997
181053
181341
182244
186272
188664
190947
192971
194659
196192
197574
172172
173625
175142
176712
178236
179571
180746
132477
130847
130186
130161
130571
131326
132216
60665.9
56946.2
55277.9
54339.8
53962.3
54026.6
54305.7
71639.5
69814
67800.8
65329
63559.9
62897.3
63317
147796
146429
144336
141968
139908
139156
139904
180091
180635
181025
181290
181465
181858
182935
185990
188701
191228
193351
195083
196646
197979
172468
173761
175146
176630
178054
179465
180914
132253
130898
130220
130231
130737
131545
132512
58477.3
56583.6
55316.3
54567.3
54320.8
54386.3
54591.8
71096.6
69835.9
68461.1
66591.2
64990.1
64126.2
63861.2
146278
145930
144722
143036
141239
140348
140860
178706
180011
181019
181607
181939
182505
183817
184430
188270
191379
193595
195446
197072
198405
172382
173859
175314
176788
178295
179875
181376
132454
131279
130582
130540
131058
131911
132924
57903.9
56997.1
55754.4
54928.6
54675.1
54707.7
54852.5
69371
69831.3
68756.6
67363.6
66087.7
65161.2
64380.6
145274
145855
145149
143830
142355
141345
141461
176532
179484
181123
181801
182209
182996
184324
181998
187899
191424
193701
195592
197293
198669
171541
174081
175685
177218
178764
180429
181960
132453
131628
130996
130870
131331
132233
133299
57838.6
57344.4
56348.5
55474.7
55092
54982.8
55027.1
103028
105281
105381
103881
101125
97224.1
92723.5
173239
173654
173141
171277
168544
165116
161336
184520
183752
182758
181808
181131
180743
180636
187179
185753
183931
182572
182087
182567
183705
176914
175998
174803
173651
172746
172269
172192
164707
165229
164521
161896
157626
152588
147480
99382.4
102433
102727
100796
96982.4
91912.1
86114.9
99247.4
100296
101159
100031
96968
93399.8
89231
170415
169740
169118
167532
164939
161696
158176
183241
182247
181423
180821
180456
180273
180303
186768
185286
183416
182103
181744
182378
183734
175842
174632
173513
172562
171797
171434
171550
162687
161639
160271
157466
153442
148775
143930
96315.2
97389.1
98050
96378.5
92523.9
87437.7
81416.6
96295.1
95801.9
95158.4
93722.6
90860
87953
84330.1
168274
166264
164198
162221
159993
157523
154609
181430
180484
179737
179418
179483
179720
180016
185873
184313
182456
181343
181205
182112
183820
174335
173226
172023
171102
170554
170529
171019
161160
158286
155055
151634
147736
143430
139113
94217
92956.3
91758.7
89742.8
85943.2
80804.4
74361.8
92405.3
90694.8
88801.1
86913.9
84492.9
82094.8
78665.9
164533
161559
158587
156745
155244
153740
151642
179159
178429
177847
177834
178426
179195
179796
184470
182980
181163
180246
180487
181822
183891
172262
171344
170249
169518
169421
170058
170998
157071
153121
149235
146294
142615
138821
135409
90557.3
88015.3
85541.6
82831.3
79071.6
74080.6
67593.8
87555.5
85882
83648.8
81444.8
79351.6
77334.5
74785.8
158757
155955
153505
152174
151252
150470
149223
176172
175752
175586
176035
177130
178333
179315
183015
181446
179460
178576
179189
181022
183433
169530
168841
168076
167913
168616
169896
171182
151331
147792
144688
142453
139373
136396
134037
85599.6
83586.9
80970.2
77902.1
73990.7
69241.2
63474.4
82751.5
82275.1
80264.9
78235.4
75486.5
73854.7
73027.9
152571
150818
149381
148872
147895
147131
146510
173045
172445
172633
173551
175032
176300
177427
181166
179567
177458
176442
176829
178392
180881
166758
165971
165583
166153
167735
169580
171006
145418
143314
141350
139867
138128
136088
133871
80456.9
80143
78204.8
75512
71493.7
67176.5
61800.2
77673.9
78840.1
76886.7
75045.4
71889.2
70543.9
71546
146583
146213
145109
145675
144214
142706
142352
169648
168905
169358
170648
171717
171498
171769
178864
177272
174785
173273
172643
172489
174320
163935
162944
162920
164170
165991
166715
167073
139668
139173
137696
137075
136290
135355
132844
74318.1
76005.7
74478.9
72483.1
68760.1
64953.2
60108.9
59534.9
59255.1
58831.7
58053.7
57720.5
57377.1
56943.5
130161
129563
128562
127388
126028
124527
123024
157442
156961
156120
154938
152749
149487
146043
164566
163169
160736
157893
154640
150618
145661
152720
152215
151518
150617
149047
146492
143309
122497
121983
121385
120845
120514
120227
119781
52170
52170.7
52203.3
51780.1
51830.8
51655.1
51573.5
47442.7
47268.6
47283.6
47354.9
47540.3
47532.3
47463
109329
109373
109458
109570
109855
110148
110418
137747
137757
137910
138262
138553
138612
138408
145545
145108
144708
144381
144159
143930
143495
134375
134267
134189
134223
134319
134389
134301
103481
103639
103824
103969
104103
104220
104408
44446.2
44309.4
44391.8
44570.3
44920.7
45232.3
45523.4
41154.9
41236.7
41356
41341.4
41322.5
41387.7
41444.9
94507.8
94825.5
95297.4
95824.8
96360.7
96847.7
97215
123919
124124
124567
125229
126039
126761
127003
132502
132816
133174
133398
133991
134681
134999
121777
121914
122228
122732
123336
123790
123922
91243.6
91470.3
91761.1
92069.7
92378.1
92640.6
92801.5
39230.7
39316.3
39411.8
39445.5
39442.5
39445.7
39444.5
38614.7
38588.9
38503.1
38504.7
38538.6
38579.3
38581.3
87805.1
87807
87886.8
87982.8
88108.5
88253.2
88366.1
115837
115832
115900
116068
116251
116392
116382
125357
124989
124789
125210
125374
125386
125293
114991
114925
114912
115014
115156
115249
115201
86366.2
86354.9
86391.6
86441.8
86516.1
86587.3
86623.8
37852.8
37827.6
37772.7
37707.5
37663.4
37657.2
37647.7
37945
37965.9
38017.7
38116.8
38158.4
38169.7
38205
86035.4
86015.5
85992.5
85967.3
85952.7
85945.7
85935.3
112634
112522
112449
112363
112292
112285
112218
121207
120918
120582
120360
120287
120216
119937
112212
112080
111968
111862
111795
111809
111734
85397.9
85391.5
85386.9
85394
85393.9
85427.6
85433.7
37402.2
37418.5
37442.5
37478.9
37521.9
37492.2
37505.7
39344.9
39392.9
39506.5
39665.5
39718.1
39749.7
39799.7
87335.1
87336.6
87347.3
87377.9
87422.4
87449.8
87453.6
111044
110998
111039
111064
111063
111092
111070
118085
117904
117735
117558
117542
117600
117287
110705
110653
110660
110672
110667
110707
110682
86887.6
86896.4
86922
86978.6
87017.3
87058.4
87099.8
39002.6
39033.7
39104.2
39207.3
39291.4
39265.4
39276.7
49372.6
49363.7
49337.5
49293.6
49275.6
49260.8
49246.2
86985.3
87025.7
87102.1
87201.1
87283.4
87334.7
87354.2
106699
106729
106856
106994
107071
107136
107137
112943
112835
112826
112739
112691
112909
112563
106387
106404
106487
106595
106635
106668
106676
86706.8
86740.9
86808.8
86900.7
86957.4
86986.1
87021.3
49448.4
49443.7
49432
49406.8
49381.3
49380.2
49361.7
86166.8
90734.1
94145.8
96829
98797.3
100910
103220
147721
152077
156048
159856
163486
167477
170568
172655
172570
173074
174214
175819
177604
178695
182208
181472
181513
182328
183958
185942
187422
175212
175395
175986
176870
177960
179127
180131
155402
159740
163843
167436
170153
171094
171048
90077.4
95570
100413
103854
105813
105796
103160
82195.6
87750.9
91452.2
94246.4
96680.6
97931.2
99084.5
145158
149435
153359
157113
160668
163638
166042
172170
171985
172350
173371
174770
176200
177220
182231
181133
180934
181732
183363
185399
186922
175088
175163
175559
176154
176992
178154
179357
152507
156764
160644
163848
166127
167662
168886
86374.8
91445
95984.5
99674
101220
100862
99834.4
75464.3
82516.8
86821.2
89617.1
92201.7
93046.6
93069.9
140885
145022
148780
152316
155810
158359
159520
171572
171010
171063
171738
172809
173862
174648
182224
180623
180089
180745
182262
184336
186090
175292
175139
175176
175437
176104
177191
178288
149082
152920
156297
159162
161550
164287
166936
81587.6
85830.3
89613.2
92973.6
94709.9
95780.7
96955.6
68169.5
75903.5
81147.9
84076.6
86055.7
86627.1
86480.7
136611
140382
144032
147095
149885
151865
152469
171337
170232
169533
169520
170104
170885
171457
182242
180097
179003
179349
180810
182972
184672
175855
175462
174989
174675
175046
175902
176765
146732
149927
152602
154805
156826
159876
163365
75992.3
80231.7
83231.6
86212.1
88533.2
90424.6
92970.4
62782.5
69636.8
75181.5
78358.4
80266.2
81031.5
80774.9
134201
137387
140651
143022
144734
145793
146243
171041
169461
167976
167109
167142
167736
168185
181810
179367
177646
177473
178822
181200
183020
176462
175691
174681
173685
173516
173966
174696
145613
148168
150443
152272
153526
155922
158919
72162
75359.1
78548
81390.5
83968.5
86318.8
88393.8
60550.4
66271.7
70016.4
72859
75148.7
76346.6
77619
133624
136663
138601
139885
140828
141296
141844
170342
168583
166501
164738
164102
164411
164729
179198
176847
175290
175130
176564
179114
180870
175809
174913
173710
172155
171322
171365
172215
144543
146917
149239
151232
151237
152414
153781
70654.6
71994.2
74858.7
78974.9
81444.5
83827.1
84275.6
59980.5
64865.3
65849.9
68266.5
70931
72163.5
74489
132488
135264
135654
136282
137273
137131
137908
166112
165534
164587
162528
161182
161204
161431
172701
170796
171021
171951
173888
176644
178484
170811
170974
171351
170109
168647
168308
169264
141862
143862
146146
147850
147577
148364
148252
68721.1
67704.7
71082.6
75720.7
78082.3
80404.4
79009.7
52322.8
51956.3
52292.4
52677.2
53024.5
53812.5
53858.5
117793
118162
118403
118762
119320
120031
120482
140872
144022
146454
147976
148922
149727
150312
144027
148962
152959
156200
158910
161344
162952
146359
149742
152741
154758
155954
156814
157376
123759
124756
125992
127199
128301
129148
129581
56831.3
55308.4
54947.3
55255.5
55709.3
55480.2
55061.9
44370.8
44045.9
43825.7
43582.8
43339.2
43272.1
43128.7
102812
102447
102239
102045
101831
101676
101593
132603
132808
132725
132644
132676
132841
133005
141858
142389
142668
142951
143437
143952
144318
135916
136045
135936
135717
135589
135568
135619
107734
107482
107223
107011
107048
107086
107093
46732.2
46710.4
46676.4
46591.6
46671.3
46822.6
47106
39186.8
39096.6
39039.3
38975
38982
38945.9
38959.4
91897.4
91749.1
91527.1
91312.7
91105.5
90906.4
90768.7
122823
122815
122481
122029
121608
121362
121256
133770
133605
133082
132529
132078
131837
131776
124880
124705
124143
123464
122909
122536
122365
94846.7
94592.2
94192.8
93741.1
93323.5
92948.4
92678.8
40409
40378.9
40299
40259.3
40205.2
40097
40003.5
37634.3
37646.1
37618.1
37664.3
37688.5
37728.7
37755.3
86485.5
86469.3
86420.6
86363.6
86336.5
86326.3
86310.4
114890
114924
114831
114740
114665
114639
114657
124669
124722
124619
124438
124301
124350
124498
115541
115545
115378
115195
115064
115017
115045
87335
87266.2
87148.8
87051.6
86992.1
86948.4
86972.7
38246.3
38232.6
38164.6
38096.8
38109.1
38167.9
38217.3
37411.3
37409.9
37427.5
37390.8
37368.8
37365.4
37359.6
85369.4
85362.2
85348.3
85357.6
85362.2
85370.2
85356.8
111555
111642
111631
111700
111790
111868
111952
119636
119897
120018
120077
120261
120566
120812
111818
111914
111897
111949
112040
112125
112239
85453.1
85481.1
85481.8
85464.3
85482.2
85507.8
85533.8
37797.1
37745.7
37739.6
37736
37644.5
37602
37586.5
39156.3
39153.2
39168.1
39104.1
39023.4
38975.2
38950.2
86983.1
86945.1
86932.1
86919.5
86887.6
86871.1
86854.6
110516
110550
110520
110537
110528
110515
110546
117011
117316
117245
117305
117488
117660
117834
110711
110763
110737
110764
110754
110721
110764
87107.7
87103.9
87098
87050.4
87019.4
87008.1
87009.7
39484.7
39404.7
39364.8
39342.4
39221.4
39137.3
39104.7
49404.2
49414.3
49414.9
49427
49442.2
49445
49444.4
86904.1
86874.2
86861.1
86820.2
86745.9
86688
86660.3
106517
106507
106479
106444
106346
106270
106253
112284
112606
112383
112441
112546
112582
112721
106712
106700
106667
106636
106530
106431
106415
86975.3
86949.2
86937.5
86890.7
86813.1
86749.1
86713.9
49301.8
49318
49331.9
49352.4
49378.7
49393.5
49399.7
)
;

boundaryField
{
    fuel
    {
        type            zeroGradient;
    }
    primary_air
    {
        type            zeroGradient;
    }
    Secondary_air_RHS
    {
        type            zeroGradient;
    }
    Secondary_air_LHS
    {
        type            zeroGradient;
    }
    outlet
    {
        type            totalPressure;
        rho             rho;
        psi             none;
        gamma           1;
        p0              uniform 100000;
        value           nonuniform List<scalar> 
98
(
44543.6
75444.4
100000
100000
100000
75589.1
44218.7
44462.7
75543.8
100000
100000
100000
75736
44444.3
44309.6
75392.4
100000
100000
100000
75535.2
44456.7
44453.6
75392.6
100000
100000
100000
75528.5
44084.5
44434.9
75422.9
100000
100000
100000
75630.6
44358.3
44446.5
75326.1
100000
100000
100000
75483.4
44342.7
44419.2
75251.7
100000
100000
100000
75379.6
44335.3
44503.6
75674.4
100000
100000
100000
75335.4
44445.8
44494.4
75792.4
100000
100000
100000
75405.4
44473.8
44539.7
75956.7
100000
100000
100000
75560.2
44455
44370.3
75848
100000
100000
100000
75498
44512.7
44459.9
75914.9
100000
100000
100000
75517.4
44343.9
44727.9
76030.7
100000
100000
100000
75708.4
44550.2
44486.7
75931.9
100000
100000
100000
75588.8
44618.3
)
;
    }
    stove_body
    {
        type            zeroGradient;
    }
    frontAndBack
    {
        type            empty;
    }
}


// ************************************************************************* //
