/*--------------------------------*- C++ -*----------------------------------*\
  =========                 |
  \\      /  F ield         | OpenFOAM: The Open Source CFD Toolbox
   \\    /   O peration     | Website:  https://openfoam.org
    \\  /    A nd           | Version:  6
     \\/     M anipulation  |
\*---------------------------------------------------------------------------*/
FoamFile
{
    version     2.0;
    format      ascii;
    class       surfaceScalarField;
    location    "0.005";
    object      phi;
}
// * * * * * * * * * * * * * * * * * * * * * * * * * * * * * * * * * * * * * //

dimensions      [1 0 -1 0 0 0 0];

internalField   nonuniform List<scalar> 
10143
(
-2.53401e-08
-1.36513e-05
3.09611e-05
5.90227e-08
-1.22026e-05
2.91281e-05
8.48931e-07
-1.22603e-05
2.8374e-05
1.32418e-06
-1.24799e-05
2.88553e-05
1.2738e-06
-1.26418e-05
2.97739e-05
5.24615e-07
-1.32613e-05
3.13997e-05
-1.4507e-05
3.25421e-05
7.29949e-07
-7.25336e-06
5.14471e-06
1.04602e-06
-7.42568e-06
6.96914e-06
-2.90001e-07
-7.70639e-06
8.84667e-06
-1.26367e-06
-7.37994e-06
7.8202e-06
-9.2999e-07
-7.10477e-06
6.13846e-06
-7.41134e-07
-7.30439e-06
6.00765e-06
-6.93183e-06
4.02963e-06
1.9631e-07
-2.05709e-06
1.05989e-05
4.63897e-07
-2.27707e-06
1.02621e-05
-1.83913e-07
-2.68816e-06
1.1305e-05
-1.42743e-07
-2.53992e-06
1.06146e-05
5.49824e-07
-2.49839e-06
1.03602e-05
-5.32816e-07
-2.86441e-06
1.23249e-05
-2.03878e-06
1.04019e-05
3.15373e-07
2.17371e-06
6.67122e-06
1.04481e-06
2.39937e-06
5.55257e-06
3.35107e-07
2.78561e-06
5.92696e-06
-8.9437e-07
2.67567e-06
6.67243e-06
-1.97835e-06
2.52258e-06
6.79742e-06
-1.31665e-06
2.77182e-06
4.71124e-06
2.16643e-06
5.85116e-06
-6.72323e-08
7.33799e-06
1.07339e-05
9.96856e-08
7.53831e-06
1.06589e-05
-4.22242e-07
7.98895e-06
1.11007e-05
-2.35216e-07
7.52617e-06
1.08486e-05
4.33341e-07
7.43076e-06
1.01617e-05
-2.74584e-07
7.70578e-06
1.15697e-05
7.43093e-06
1.05023e-05
5.26111e-07
1.52268e-05
4.01065e-06
1.37848e-06
1.40407e-05
4.89255e-06
-1.21841e-07
1.38169e-05
7.83472e-06
-8.72855e-07
1.36726e-05
6.60093e-06
-5.69807e-07
1.31301e-05
6.12829e-06
-4.84961e-07
1.34251e-05
6.25837e-06
1.51536e-05
3.97817e-06
-3.11497e-07
3.3042e-05
-8.46419e-07
3.20248e-05
-4.44938e-07
3.06038e-05
-4.8869e-07
3.08056e-05
2.44267e-08
2.96955e-05
1.50846e-08
3.0773e-05
3.28226e-05
-8.05743e-07
6.22378e-06
3.50999e-05
-1.82927e-07
5.98481e-06
3.13197e-05
8.15741e-07
6.01681e-06
2.99944e-05
1.72737e-06
5.93302e-06
3.07102e-05
1.9734e-06
5.85732e-06
3.25991e-05
9.43871e-07
5.33937e-06
3.63109e-05
5.63232e-06
3.77058e-05
8.37402e-07
3.58497e-06
3.69649e-06
3.90462e-07
3.17778e-06
7.03124e-06
-3.05845e-07
2.32146e-06
1.01096e-05
-6.11383e-07
2.08543e-06
8.7848e-06
-3.56224e-07
2.38905e-06
6.19467e-06
-3.37879e-07
3.09565e-06
5.26198e-06
3.7468e-06
2.4034e-06
4.55404e-07
2.35114e-06
1.18307e-05
3.40265e-07
3.49145e-06
1.07045e-05
-3.88834e-08
8.74409e-07
1.38821e-05
3.79967e-07
5.40035e-07
1.23133e-05
9.66847e-07
7.56975e-07
1.20545e-05
-2.76232e-07
2.94843e-06
1.45303e-05
2.37783e-06
1.17913e-05
2.19239e-07
-2.78397e-06
6.43648e-06
1.54536e-06
-2.99002e-06
5.16671e-06
4.40752e-07
-1.87046e-06
4.07623e-06
-1.19907e-06
-1.35564e-06
4.48601e-06
-2.60315e-06
-9.30354e-07
4.26366e-06
-1.40982e-06
-2.07638e-06
3.09678e-06
-2.79271e-06
4.60485e-06
1.22575e-08
-3.45272e-06
1.17063e-05
-1.84235e-07
-3.02805e-06
1.1106e-05
-3.85068e-07
-2.42633e-06
1.26822e-05
1.47902e-07
-2.5163e-06
1.23917e-05
7.10617e-07
-2.2048e-06
1.16672e-05
6.19897e-08
-2.59424e-06
1.36191e-05
-3.4062e-06
1.16941e-05
4.16204e-07
-4.9295e-06
2.15521e-06
9.14755e-07
-5.47289e-06
3.83548e-06
-3.31559e-07
-4.53275e-06
8.35825e-06
-2.4496e-07
-4.74121e-06
5.759e-06
-1.6311e-07
-5.2351e-06
6.07673e-06
-1.87617e-07
-4.88772e-06
5.59972e-06
-5.16267e-06
2.30568e-06
-6.36858e-07
3.84726e-05
-1.69098e-06
3.67484e-05
-6.23504e-07
3.39304e-05
-7.72965e-07
3.52546e-05
3.23814e-07
3.23037e-05
3.52814e-07
3.49126e-05
3.79976e-05
-1.82314e-06
1.45004e-05
2.90747e-05
-3.16004e-07
9.29042e-06
2.63907e-05
8.64242e-07
9.52324e-06
2.50114e-05
2.16202e-06
9.71949e-06
2.54551e-05
2.77083e-06
9.21241e-06
2.86744e-05
1.31435e-06
1.33146e-05
3.05864e-05
1.43027e-05
3.12551e-05
1.54337e-06
4.01685e-06
6.5437e-06
4.11487e-07
4.17056e-06
8.27638e-06
-1.66725e-07
2.9344e-06
1.22507e-05
-6.93771e-07
2.20525e-06
1.17409e-05
-1.12416e-06
3.78753e-06
7.18018e-06
-6.55305e-07
5.02902e-06
7.36646e-06
5.65794e-06
4.18282e-06
4.80597e-07
2.58178e-06
1.25831e-05
2.6365e-07
4.51979e-06
1.01242e-05
-5.52487e-09
1.35428e-06
1.52987e-05
4.58981e-07
-1.07391e-07
1.36299e-05
8.45427e-07
1.49561e-06
1.33523e-05
-2.27093e-07
5.99632e-06
1.40372e-05
4.57536e-06
1.21887e-05
-3.43835e-08
-3.90324e-06
7.4305e-06
1.46227e-06
-5.67222e-06
7.82929e-06
4.16538e-07
-3.73904e-06
3.98465e-06
-1.27262e-06
-3.10105e-06
2.93664e-06
-2.72514e-06
-1.09617e-06
2.18651e-06
-1.30753e-06
-2.93919e-06
4.61302e-06
-4.7865e-06
7.27095e-06
5.50479e-08
-4.75898e-06
1.21526e-05
-2.97302e-07
-4.61097e-06
1.01937e-05
-2.27313e-07
-5.14998e-06
1.34362e-05
1.63129e-07
-4.69986e-06
1.30493e-05
5.17828e-07
-2.66612e-06
1.2575e-05
1.90598e-07
-3.78678e-06
1.44333e-05
-5.18361e-06
1.20456e-05
5.38227e-07
-1.38497e-05
4.7378e-06
1.2222e-06
-1.30089e-05
5.43794e-06
-4.78577e-07
-8.92586e-06
8.88424e-06
1.50954e-07
-1.42406e-05
8.67595e-06
-9.14681e-07
-9.21618e-06
8.7477e-06
-5.27631e-07
-1.19939e-05
7.90791e-06
-1.38586e-05
4.20267e-06
-1.01848e-06
3.21004e-05
-2.3954e-06
3.10344e-05
-5.53749e-07
2.89589e-05
-1.3232e-06
2.77735e-05
9.20313e-07
2.6741e-05
8.84125e-07
2.8852e-05
3.17081e-05
-2.34835e-06
1.42726e-05
2.25994e-05
-1.61176e-07
4.03007e-06
2.49138e-05
8.93416e-07
5.03722e-06
2.33932e-05
2.50958e-06
5.21662e-06
2.30868e-05
2.90576e-06
8.79722e-06
2.425e-05
1.54364e-06
1.32997e-05
2.35953e-05
1.45613e-05
2.34393e-05
2.1362e-06
3.99889e-06
7.9065e-06
4.92614e-07
3.2672e-06
5.78922e-06
-2.30704e-08
3.28144e-06
9.76857e-06
-1.21906e-06
3.2696e-06
9.6666e-06
-1.74255e-06
3.54363e-06
7.43483e-06
-1.0413e-06
4.65295e-06
8.51316e-06
4.63422e-06
6.11629e-06
4.91934e-07
3.21825e-06
1.2447e-05
3.993e-07
2.76113e-06
1.03557e-05
1.16072e-08
3.63377e-06
1.473e-05
5.43756e-07
2.41679e-06
1.34359e-05
5.98726e-07
2.93822e-06
1.31747e-05
-2.22774e-07
5.93928e-06
1.30981e-05
4.12746e-06
1.18671e-05
1.04446e-07
-3.73756e-06
8.56208e-06
9.70253e-07
-3.94678e-06
7.59521e-06
2.10356e-07
-2.04871e-06
3.95082e-06
-1.39448e-06
-1.88532e-06
2.35872e-06
-2.28535e-06
-3.08589e-06
2.63494e-06
-1.03156e-06
-3.9123e-06
7.00488e-06
-4.61609e-06
9.40909e-06
6.00441e-08
-4.4683e-06
1.22778e-05
-2.49743e-07
-4.46496e-06
1.04749e-05
-6.92548e-08
-3.15689e-06
1.39082e-05
2.3332e-07
-2.7437e-06
1.31783e-05
4.48067e-07
-3.3976e-06
1.20934e-05
1.32762e-07
-2.89425e-06
1.34085e-05
-4.59246e-06
1.16973e-05
8.27443e-07
-1.41251e-05
6.74876e-06
1.27022e-06
-1.24489e-05
6.29479e-06
-3.04313e-07
-6.66813e-06
8.58012e-06
5.28883e-07
-1.1358e-05
1.01361e-05
-1.65465e-06
-5.82567e-06
8.44697e-06
-8.55643e-07
-1.10522e-05
8.99693e-06
-1.40017e-05
5.76242e-06
-1.22357e-06
2.42575e-05
-2.47767e-06
2.453e-05
-8.75057e-07
2.5177e-05
-1.35987e-06
2.15274e-05
1.26682e-06
2.28903e-05
1.14401e-06
2.27122e-05
2.42088e-05
-2.1937e-06
1.417e-05
1.56076e-05
-1.79205e-07
7.73945e-06
1.97351e-05
7.57545e-07
7.61953e-06
1.92416e-05
2.71194e-06
7.22433e-06
1.82894e-05
2.82241e-06
1.21947e-05
1.64178e-05
1.71268e-06
1.30446e-05
1.61787e-05
1.43577e-05
1.55649e-05
2.12796e-06
3.95336e-06
8.77787e-06
5.02502e-07
3.63707e-06
5.68949e-06
1.88096e-07
4.3766e-06
7.30485e-06
-1.45286e-06
4.96003e-06
7.40132e-06
-2.04917e-06
4.80258e-06
8.30639e-06
-1.2798e-06
4.33489e-06
9.48155e-06
3.68242e-06
8.18401e-06
6.45632e-07
2.79939e-06
1.23176e-05
4.35203e-07
2.72923e-06
1.06744e-05
1.25141e-07
4.91294e-06
1.37506e-05
5.67754e-07
4.26388e-06
1.28011e-05
3.86577e-07
4.96169e-06
1.24334e-05
-2.11747e-07
4.54459e-06
1.25942e-05
2.39789e-06
1.22269e-05
-2.89768e-08
-3.47946e-06
8.96766e-06
4.67609e-07
-3.25902e-06
6.81272e-06
-2.94826e-08
-2.66568e-06
5.37646e-06
-1.3316e-06
-2.91405e-06
4.12704e-06
-1.49239e-06
-4.25156e-06
5.35339e-06
-7.19198e-07
-3.45044e-06
7.77331e-06
-3.04609e-06
8.41547e-06
1.0325e-07
-4.02586e-06
1.20061e-05
-2.59655e-07
-4.45471e-06
1.1218e-05
4.19937e-08
-3.48656e-06
1.38191e-05
1.96227e-07
-3.46274e-06
1.2936e-05
3.2895e-07
-4.65693e-06
1.17081e-05
3.70467e-08
-2.73138e-06
1.24525e-05
-3.82471e-06
1.18933e-05
9.89928e-07
-1.37049e-05
8.2158e-06
9.4648e-07
-1.20832e-05
6.91358e-06
3.13191e-07
-1.07237e-05
9.6348e-06
4.12602e-07
-8.28671e-06
8.55986e-06
-2.11176e-06
-6.98257e-06
7.36818e-06
-1.04546e-06
-1.10041e-05
9.55548e-06
-1.41016e-05
7.55786e-06
-1.18063e-06
1.63387e-05
-2.37639e-06
1.78984e-05
-1.4072e-06
1.77518e-05
-1.12437e-06
1.70265e-05
1.3491e-06
1.78838e-05
1.31532e-06
1.62955e-05
1.63219e-05
-1.7698e-06
1.1943e-05
1.01544e-05
-1.92191e-09
9.44594e-06
1.29027e-05
5.41571e-07
9.89822e-06
1.32157e-05
2.38759e-06
7.35194e-06
1.32198e-05
2.51757e-06
9.08667e-06
1.13683e-05
1.83565e-06
1.06459e-05
1.05275e-05
1.23586e-05
9.67856e-06
1.68445e-06
1.96127e-06
1.01372e-05
2.05067e-07
2.66404e-06
7.49716e-06
4.8749e-07
2.03452e-06
8.04562e-06
-1.23512e-06
2.98308e-06
7.33159e-06
-2.3132e-06
4.06304e-06
7.73052e-06
-1.2502e-06
2.49331e-06
9.89314e-06
2.52011e-06
9.70541e-06
9.25604e-07
2.66649e-07
1.24542e-05
3.0523e-07
2.2806e-06
1.08324e-05
2.23467e-07
2.91002e-06
1.22579e-05
4.66981e-07
2.75419e-06
1.17541e-05
2.57867e-07
4.17141e-06
1.17436e-05
-1.40481e-07
2.48282e-06
1.20859e-05
1.52909e-06
1.23047e-05
-4.4678e-07
-1.3407e-06
5.03548e-06
2.74485e-07
-3.57769e-06
5.50887e-06
-2.10772e-07
-3.17793e-06
5.02871e-06
-1.16132e-06
-3.81474e-06
4.68098e-06
-1.10814e-06
-3.0416e-06
5.55098e-06
-7.78743e-07
-1.3219e-06
4.80838e-06
-1.3362e-06
4.66999e-06
4.43151e-07
-2.41337e-06
1.18948e-05
-4.05745e-07
-2.96018e-06
1.03208e-05
1.14058e-07
-3.27147e-06
1.26314e-05
1.8598e-08
-3.49972e-06
1.17045e-05
1.86362e-07
-3.39735e-06
1.12768e-05
1.42411e-08
-1.75265e-06
1.22081e-05
-2.26907e-06
1.21731e-05
7.75318e-07
-1.14812e-05
9.57551e-06
8.48784e-07
-1.07806e-05
7.88502e-06
6.79542e-07
-9.31051e-06
9.07305e-06
2.25522e-07
-8.33187e-06
7.56564e-06
-2.02186e-06
-6.20472e-06
6.43102e-06
-8.78457e-07
-9.29157e-06
9.62737e-06
-1.20363e-05
9.31058e-06
-1.02901e-06
1.03329e-05
-2.26761e-06
1.25639e-05
-1.46618e-06
1.16362e-05
-1.06308e-06
1.23784e-05
1.14138e-06
1.36168e-05
1.27412e-06
1.11264e-05
1.02755e-05
-1.62502e-06
1.25093e-05
2.26667e-07
1.2062e-05
5.01286e-07
1.34901e-05
2.22651e-06
1.2157e-05
2.32111e-06
1.19522e-05
1.98936e-06
1.16132e-05
1.24335e-05
1.54571e-06
5.65155e-06
2.64452e-07
5.45378e-06
8.13886e-07
5.52235e-06
-9.60582e-07
5.77602e-06
-2.21608e-06
5.70037e-06
-1.0306e-06
5.30375e-06
5.71322e-06
1.17132e-06
5.8002e-06
1.7071e-07
6.15031e-06
4.59559e-07
6.10419e-06
5.8048e-07
6.04609e-06
3.08979e-07
6.30327e-06
-8.33847e-08
6.52735e-06
6.55054e-06
-4.48079e-07
-5.70586e-06
2.41257e-07
-6.13885e-06
-3.21972e-07
-5.79088e-06
-1.14381e-06
-5.99661e-06
-1.29414e-06
-5.38035e-06
-1.00071e-06
-6.19941e-06
-6.37414e-06
6.26951e-07
-5.63761e-06
-5.23155e-07
-5.94486e-06
2.73772e-07
-5.21594e-06
9.98144e-08
-5.60844e-06
3.82353e-07
-5.33981e-06
8.67885e-08
-4.84049e-06
-5.38488e-06
4.57517e-07
-1.18439e-05
9.30885e-07
-1.44725e-05
8.65512e-07
-1.11835e-05
-3.23363e-08
-1.22605e-05
-1.91259e-06
-1.27725e-05
-6.89339e-07
-1.14264e-05
-1.22702e-05
-9.49971e-07
-2.36398e-06
-1.47992e-06
-1.05749e-06
8.16228e-07
1.18591e-06
-0.000608328
0.00224462
-0.00148395
-0.00104439
0.00240896
-0.00186135
-0.000539633
0.00271434
-0.00301558
0.00069566
0.00286928
-0.00378307
0.00110442
0.00266517
-0.00291854
0.000643069
0.00235906
-0.00185574
0.00219091
-0.00152098
-0.000467773
0.00267631
-0.00040372
-0.000679711
0.00274102
-0.000633587
-0.000288516
0.0028366
-0.00108563
0.00045943
0.0028656
-0.00136653
0.000806723
0.00281414
-0.00109203
0.000548073
0.00270178
-0.000668808
0.0026198
-0.000468184
-8.71706e-05
0.00106967
0.00173013
-0.000106061
0.00107635
0.00171388
-1.8801e-05
0.00107078
0.00170754
0.00010589
0.00106225
0.00169562
0.000188265
0.00106345
0.00168323
0.000147385
0.0010545
0.00167044
0.00103777
0.00166938
2.07813e-05
-0.00117537
0.00239066
4.35681e-05
-0.00119036
0.00242058
3.23797e-05
-0.00119679
0.00246312
-8.42386e-06
-0.00119045
0.00247909
-2.17597e-05
-0.00119933
0.00244831
-6.96921e-06
-0.00120045
0.00238607
-0.0011916
0.00234498
-0.000146209
-0.00273546
0.00168692
-0.000174496
-0.00282792
0.00167413
-8.01485e-05
-0.00294324
0.00166627
6.31487e-05
-0.00298852
0.00166125
0.000149505
-0.00295208
0.00165171
0.000118664
-0.00284193
0.00163774
-0.00275861
0.00163484
-0.00057385
-0.00225004
-0.000491269
-0.000815711
-0.0024277
-0.000709869
-0.000448281
-0.00274281
-0.00115699
0.000366061
-0.00295669
-0.00146768
0.00075264
-0.00278266
-0.00119693
0.000518767
-0.00245532
-0.000765681
-0.00227626
-0.00055523
-0.000669773
-0.00155333
-0.00113175
-0.00189845
-0.0007121
-0.00297771
0.000607284
-0.00391451
0.00111026
-0.00310471
0.000651299
-0.00195842
-0.0015977
-0.00146978
0.00243895
-0.00225198
-0.00273832
0.00293665
-0.00314694
-0.00134372
0.00357962
-0.00681974
0.00153222
0.00374028
-0.0088098
0.00271734
0.00348551
-0.00640523
0.00141761
0.00287505
-0.00307917
0.00238091
-0.00225528
-0.00095232
0.00293403
-0.000237194
-0.0014105
0.00308291
-0.000629822
-0.000667119
0.00314586
-0.00164319
0.000790304
0.0031376
-0.00233441
0.0014934
0.0031473
-0.00170293
0.000971089
0.00307146
-0.000665655
0.00289779
-0.000265808
-0.000117578
0.00110418
0.00353228
-0.000107363
0.00109589
0.0035458
-3.57624e-05
0.00103568
0.0035842
6.93883e-05
0.000999994
0.00357878
0.000141924
0.00103727
0.00353919
0.000136998
0.00109211
0.0035124
0.0010982
0.0035066
8.81422e-05
-0.0012176
0.00467983
0.000141174
-0.0012165
0.00472085
6.85094e-05
-0.00116556
0.00477361
-7.58922e-05
-0.00111952
0.00478747
-0.000158553
-0.00115815
0.0047574
-9.89275e-05
-0.00121464
0.00469844
-0.00122701
0.0046577
-0.000163916
-0.00301153
0.00344432
-0.000178112
-0.0031843
0.00343834
-8.27653e-05
-0.00325328
0.00344661
2.93715e-05
-0.00324197
0.00347072
0.000101021
-0.00325121
0.00346034
0.00010667
-0.00319817
0.00341621
-0.00306
0.00339945
-0.00102077
-0.00244678
-0.000399472
-0.00155688
-0.00294601
-0.000840214
-0.000841627
-0.00354126
-0.00195511
0.000692602
-0.00383958
-0.00261047
0.00143472
-0.00366345
-0.00187411
0.000959714
-0.00301085
-0.000863282
-0.00249948
-0.00048962
-0.00146207
-0.00234109
-0.00277818
-0.00324211
-0.00163702
-0.00655354
0.00139194
-0.00917993
0.00279737
-0.00699641
0.0014872
-0.00330029
-0.00244133
-0.00265219
0.00266144
-0.00199739
-0.00404485
0.00340827
-0.00414031
-0.00161508
0.00343495
-0.011154
0.0014744
0.00315332
-0.013731
0.00410133
0.00366484
-0.0108948
0.0025397
0.00330157
-0.00386169
0.00257706
-0.00183821
-0.00153008
0.00310393
0.000597609
-0.00207466
0.00323443
-6.74165e-05
-0.00102839
0.002984
-0.00192051
0.000822882
0.00284238
-0.00323024
0.00231247
0.00309437
-0.00214798
0.00158003
0.00326034
8.92858e-05
0.00312636
0.000799348
-5.91903e-05
0.00111835
0.00539946
1.9353e-05
0.00105552
0.00543123
-2.16398e-05
0.000923866
0.00548022
-4.37966e-05
0.000862041
0.00545813
4.14954e-05
0.000904336
0.00548769
9.3012e-05
0.00106542
0.0055142
0.00113854
0.00551764
0.000181859
-0.00124798
0.00682009
0.000260946
-0.00119585
0.00684174
0.00010258
-0.00103253
0.00685962
-0.0001413
-0.000996498
0.00687346
-0.000288138
-0.00106404
0.00686123
-0.000193149
-0.00118892
0.00686365
-0.00125763
0.00685155
-0.000141701
-0.00322267
0.00537624
-0.000116394
-0.00340602
0.00537337
1.42208e-06
-0.00325518
0.00534471
-2.6924e-05
-0.00296474
0.00533904
-3.35198e-05
-0.00312566
0.00536684
4.67103e-05
-0.00338555
0.00532426
-0.00327577
0.00528215
-0.00168974
-0.00269012
0.000625595
-0.00252331
-0.00342822
-0.000150945
-0.000855989
-0.00386087
-0.00263277
0.00099925
-0.00323767
-0.00357362
0.00209342
-0.00353704
-0.00213281
0.00152645
-0.0035035
-0.000261078
-0.00274685
0.00036843
-0.00268844
-0.00189782
-0.00426666
-0.00404775
-0.00159343
-0.0113267
0.00159285
-0.0142863
0.00413272
-0.0114157
0.00264899
-0.00420484
-0.00216638
-0.00282812
0.0026759
-0.0015905
-0.00286477
0.00301944
-0.00579014
-0.00099952
0.00111563
-0.013809
0.000556995
0.000928258
-0.0160829
0.00274517
0.00198065
-0.0143599
0.00264221
0.00281051
-0.00558082
0.0025312
-0.00128308
-0.00147892
0.00311725
0.00137998
-0.0014649
0.00297356
-5.88037e-06
-0.00120193
0.00220837
-0.00298984
0.000740974
0.0020554
-0.00584058
0.00206612
0.00244259
-0.00340435
0.00166499
0.0029857
0.00045885
0.00309397
0.00188508
0.000123366
0.00107961
0.00703613
0.00027233
0.000987793
0.00697918
4.90178e-05
0.000906849
0.00685071
-7.08702e-05
0.000774473
0.0067618
-6.3142e-05
0.00081682
0.00700023
-9.08974e-06
0.000977445
0.00725011
0.00108403
0.00732684
0.000233225
-0.00124212
0.00876253
0.0002999
-0.00114038
0.00877771
0.00013638
-0.00094201
0.00879986
-0.00016913
-0.000926025
0.00883418
-0.000287472
-0.00105571
0.00880043
-0.00021408
-0.00115218
0.00878668
-0.00125934
0.00877729
-2.68524e-05
-0.00322098
0.00721922
1.64813e-05
-0.00317105
0.00715174
7.53175e-05
-0.00267387
0.00690381
-8.5911e-05
-0.00219052
0.00671205
-0.000277799
-0.00236951
0.0067902
-0.000137174
-0.0031373
0.00692147
-0.00327511
0.00694609
-0.00184834
-0.00263748
0.00182359
-0.00244583
-0.00289727
0.000324422
-0.000612269
-0.00245025
-0.00405144
0.00116145
-0.000945007
-0.00597246
0.00149048
-0.00118711
-0.00315337
0.00143159
-0.00308082
-0.00017563
-0.00276933
0.00119154
-0.00282742
-0.00121475
-0.00296849
-0.00568832
-0.000588482
-0.0153747
0.0010036
-0.0166052
0.00309256
-0.0140958
0.00273994
-0.00589369
-0.00172515
-0.00243751
0.00245322
-0.00138151
-0.00205071
0.00144389
-0.00707527
-0.000798457
-0.0011349
-0.0140463
0.000263614
-0.000936908
-0.0164198
0.00109708
-5.58989e-05
-0.0151868
0.00202779
0.00124388
-0.00744338
0.00222471
-0.00122883
-0.00128819
0.00300765
0.00167197
-0.0020278
0.00267393
-0.000485251
-0.00158419
0.00236615
-0.00658166
0.00221372
0.0024528
-0.0123585
0.00269598
0.00242804
-0.00620835
0.00139451
0.00257522
0.000302278
0.00284441
0.00219774
0.000227621
0.00106008
0.00825476
0.000233104
0.00102473
0.00820695
0.000168045
0.000970324
0.00801906
0.00025421
0.000768576
0.00809859
0.000115814
0.000906048
0.00829312
-5.83223e-05
0.00096858
0.00856815
0.000992414
0.00855606
0.000278709
-0.00117899
0.0103775
0.000403479
-0.00113883
0.0104582
0.000230617
-0.00100926
0.0106397
-0.000256475
-0.000907203
0.0107348
-0.000387917
-0.0011113
0.0106202
-0.000269309
-0.00117283
0.0103994
-0.00123573
0.0102994
6.60978e-05
-0.00305947
0.00867489
-0.000105866
-0.00280978
0.00861899
-0.000202008
-0.00263346
0.00827183
-0.00022284
-0.00257781
0.00806606
-0.000274423
-0.00255841
0.00790192
-0.000278368
-0.00285451
0.00814662
-0.00318414
0.00820457
-0.00161802
-0.00222743
0.00239115
-0.00305833
-0.00139132
0.000318337
-0.00199592
-0.00043957
-0.00708903
0.00153019
0.000864883
-0.0122913
0.00194113
0.000924713
-0.00684841
0.00120978
-0.00153599
-0.000685053
-0.00254964
0.00149848
-0.00205647
-0.00108157
-0.00118756
-0.00769611
-8.03851e-05
-0.0169115
0.00104216
-0.0171072
0.00215675
-0.0143613
0.00237963
-0.00719357
-0.00153946
-0.00245029
0.00190665
-0.000868996
-0.00258534
1.77486e-05
-0.00703136
-0.00160695
-0.00193324
-0.0133621
-0.000329976
-0.0024868
-0.0155493
0.000607159
-0.00133532
-0.0152441
0.0019058
-0.000950263
-0.00794929
0.00173343
-0.00105652
-0.00174551
0.00297978
0.00191413
-0.00352624
0.00279664
-0.00166442
-0.000897694
0.0025468
-0.0133134
0.0024257
0.00117743
-0.0192765
0.0038747
0.00207208
-0.0108428
0.00111346
0.00215434
-0.00028033
0.00250103
0.00202099
0.000353872
0.00121319
0.00906361
0.000438908
0.00118548
0.00903187
0.000888607
0.000800516
0.00873333
0.000146631
0.000537978
0.00894749
-0.000133942
0.000889215
0.00915061
-0.000354515
0.0010626
0.00921035
0.00101244
0.00897218
0.000374926
-0.00115832
0.0116232
0.000780632
-0.00120072
0.0117462
0.000435286
-0.000954262
0.0120899
-0.000574576
-0.000614932
0.0122624
-0.000800251
-0.000912729
0.0120076
-0.000397598
-0.00122853
0.011639
-0.00131602
0.011565
0.000190436
-0.0027655
0.00928512
1.66033e-05
-0.00246004
0.00944199
-0.000270606
-0.00207967
0.00917932
-0.00107004
-0.00119651
0.00894376
-0.000408077
-0.00281237
0.00854706
-0.000363206
-0.00282419
0.00897781
-0.00313497
0.00897449
-0.00147238
-0.00183464
0.00245123
-0.00417202
0.000487502
-0.000104995
-0.00255211
0.00130694
-0.0118797
0.000698465
0.00267123
-0.0192352
0.00348084
0.00159378
-0.0137707
0.00167125
-3.97739e-05
-0.00192087
-0.00208269
0.00166871
-0.00195572
-0.000981986
-0.000744526
-0.00859082
0.000627825
-0.0173395
0.00224356
-0.0162899
0.00268706
-0.0133912
0.00243307
-0.00704967
-0.00105845
-0.00253227
0.00131834
0.000341351
-0.00369752
-0.000909129
-0.00509391
-0.00315399
-0.00275234
-0.0114834
-0.00187614
-0.0025442
-0.01462
0.000865583
-0.00229927
-0.0162252
0.00178021
-0.00185548
-0.00744696
0.00120354
-0.000688421
-0.00280421
0.00292607
0.002735
-0.0039891
0.00222285
-0.00372809
-0.00103215
0.000234703
-0.0194072
-0.000502429
-0.001712
-0.0215227
0.00236579
-0.000542081
-0.0160777
0.000931269
0.00112176
-0.00229443
0.00224529
0.00123544
0.000533314
0.00127045
0.00947584
0.000886762
0.00104962
0.00921056
0.00106037
3.24429e-07
0.00819016
9.94619e-06
-0.000428553
0.00808751
-0.000754907
0.000536244
0.00812144
-0.000789886
0.0012529
0.0083168
0.00123236
0.00834128
0.00084032
-0.00129285
0.0123601
0.00173233
-0.00136469
0.0123799
0.000922081
-0.00041884
0.0124858
-0.00118876
0.000469792
0.0126835
-0.00181591
-6.29642e-05
0.0123792
-0.000899266
-0.00113297
0.0122023
-0.00128667
0.0121985
0.000721679
-0.00232743
0.00873039
0.000575107
-0.0012077
0.00863795
-0.000524973
0.000881492
0.00835894
-0.00148188
0.00156523
0.00814765
-0.000891449
-0.0005785
0.00789592
-0.000533492
-0.00219506
0.00894461
-0.00294173
0.00919472
-0.000803485
-0.00163994
0.00192509
-0.00304968
0.00113579
-0.000726485
-0.00026101
0.00200781
-0.0163229
0.00054898
0.00269222
-0.0218826
0.00387578
0.00282766
-0.0205246
0.00270431
0.000944859
-0.00414013
-0.00142029
0.00235614
-0.00191957
-0.000801277
-0.00132737
-0.00836449
0.00145345
-0.0185044
0.00292063
-0.0152865
0.00364035
-0.0115129
0.002593
-0.00528985
9.51701e-05
-0.00104097
-0.000620562
0.0038367
-0.00216046
-0.00267921
-0.000124684
-0.00188044
0.00348951
-0.00347273
-0.000107756
-0.00906023
0.00967315
-0.00175298
0.000364422
-0.0150375
0.0126469
-0.00159372
0.00139311
-0.0173101
0.0155288
0.000547314
0.00311922
-0.012293
0.00731961
0.00138775
-0.00106623
0.000246806
-0.00330222
0.000748946
0.00647065
-0.00457529
-0.00408189
0.000310897
-0.00456968
0.0050074
-0.00520147
-0.0017469
-0.017223
0.019674
-0.00450316
-0.00157619
-0.0204231
0.021053
-0.00489778
-0.00179588
-0.0144938
0.0176025
-3.52452e-05
-0.000446159
-0.00655819
0.00519233
0.00140041
0.00193628
-0.00231924
-0.000301274
0.000155355
0.00944409
-0.00877892
-0.000185908
-6.1605e-05
0.00848503
-0.00834734
-0.000669631
-0.000938612
0.00681173
-0.00721336
6.67407e-05
-0.00141093
0.00611633
-0.00711283
-0.000702708
-9.63649e-05
0.0059398
-0.00695993
-0.00103646
0.000312775
0.00670074
-0.00741756
0.000330296
0.00702631
-0.00746583
0.000672643
-0.000362521
0.00987255
-0.0108197
0.00125643
-0.000229075
0.00977864
-0.010869
0.000608472
0.000458557
0.00962504
-0.0110254
-0.00117122
0.0013227
0.00956302
-0.0110897
-0.00145304
0.000801613
0.00957376
-0.0108682
-0.000814117
1.23119e-05
0.00963445
-0.0107533
-0.000226036
0.00968457
-0.0106824
0.000728667
-0.00117882
0.0073698
-0.0076682
0.000815005
-8.40261e-05
0.00704086
-0.0074934
-0.00092474
0.00312783
0.00604767
-0.0071698
-0.000331194
0.00179043
0.00577417
-0.0071089
-0.000362964
0.00118208
0.00639769
-0.006963
0.000282417
-0.000951791
0.00785168
-0.00796078
-0.00108842
0.00909262
-0.00837279
-0.000824107
-0.000818455
0.00303672
-0.00296084
0.0026431
-0.00235717
-0.0044961
0.002965
0.00404128
-0.0020781
-0.0145299
0.0175042
0.00468858
0.000300271
-0.0215136
0.0216046
0.00360997
0.000687269
-0.0198479
0.0210208
0.00352433
0.000172002
-0.00676993
0.00580603
0.000519715
0.00567911
-0.00401502
-0.000333627
-7.76454e-05
-0.000568817
-0.000517062
-0.0102937
0.00805421
-0.00024379
-0.0208416
0.0179913
0.0020757
-0.0158589
0.0136091
0.00204233
-0.00957523
0.0100175
0.00103337
-0.00292503
0.00388714
0.00340384
-0.00185141
0.000160647
-0.00070294
0.00430278
0.000228718
-0.00153463
-0.000619496
-0.000830048
-0.00257454
-0.0055553
-0.000424988
-0.0033956
-0.0119796
-0.00145579
-0.000472791
-0.015927
-0.000232548
0.00125304
-0.0146832
0.00207698
-0.00339784
-0.00209334
0.000433135
0.00736354
-0.00433156
-0.000488073
-0.00323831
-0.00718991
-0.00249973
-0.0147359
-0.00874499
-0.00314037
-0.0195375
-0.00565365
-0.00303301
-0.015406
-0.00158477
-0.000363301
-0.00914969
0.00182054
0.000209427
-0.000618871
0.000305636
0.00998056
-0.00119051
0.000135605
0.00822952
-0.00154008
-0.000680041
0.00515912
-0.000662947
-0.00140362
0.00330783
-0.00158711
-0.000429959
0.00396832
-0.00157978
0.00026122
0.00580526
0.000393189
0.00644396
0.000286735
-0.000386124
0.00955488
0.00077695
-0.000253822
0.00908647
0.000533226
0.000277472
0.00845017
-0.00108496
0.00114702
0.00824589
-0.00118203
0.00048676
0.00835059
-0.000541561
-0.000243803
0.00900367
-0.000547807
0.00947021
0.00107001
-0.00139074
0.0069088
0.000773735
0.000864564
0.00601529
-0.000351148
0.0037327
0.00347342
0.00041615
0.00379991
0.00215821
0.000790774
0.00200984
0.00429244
0.000544237
7.93257e-05
0.00766105
-0.000876822
0.00977009
0.000629418
-0.0015368
0.00213084
0.00417858
-0.000962815
-0.00629865
0.00721313
0.000187777
-0.0142668
0.00729903
0.00327554
-0.0216548
0.00519657
0.00235392
-0.0185732
0.00292304
0.00170186
-0.00590738
0.00071656
0.00682865
-0.000340557
-0.00137068
0.00142188
-0.01298
-0.000820668
-0.0186368
0.000845511
-0.0143953
9.34312e-05
-0.00663129
8.62548e-05
-0.00142211
0.00413203
0.000181506
-0.000600249
0.00464602
5.78843e-05
-0.00146437
0.000913403
0.000846633
-0.00346191
-0.00292625
0.00263732
-0.0035812
-0.0102778
0.00115969
-0.000774683
-0.0137374
-5.83202e-05
0.00135748
-0.014826
0.00297035
-0.00614005
-0.00151754
1.10068e-05
0.00828124
-0.00433435
-0.0024121
0.000635912
-0.00815417
-0.00381314
-0.0107449
-0.0101763
-0.00207502
-0.0192599
-0.00539154
-0.00154902
-0.0192821
-0.00170343
3.88084e-05
-0.0113704
0.00260195
-0.00144705
-0.00135582
0.000463902
0.0107953
-0.00444294
0.000772271
0.00810421
-0.0046236
0.00101192
0.000334193
-0.00140726
0.00018318
-0.00239693
-0.000818359
0.000326262
0.00138153
-0.00177076
0.000495998
0.00615045
0.000491602
0.00633878
2.39404e-05
-0.000695372
0.0100034
0.000111832
-0.000793863
0.00995113
0.000202731
-0.000727347
0.00959197
-0.000793067
-0.000391913
0.00940769
-0.00056648
-0.00151234
0.00951548
-0.000282393
-0.00123784
0.00993876
-0.000913708
0.0099904
0.00098313
-0.00210127
0.00680697
-0.00129423
0.00121846
0.00616935
-0.000362285
0.00193608
-0.000246752
0.00389191
0.00246712
-0.00498203
0.00471968
0.00332177
-0.00141309
0.00144121
0.00178695
0.00788766
-0.000576976
0.0107339
0.000782754
-0.00201986
0.000899733
0.00383491
-0.000324996
-0.00769043
0.0102063
0.000133156
-0.0185628
0.00942651
0.00357553
-0.0221947
0.00628976
0.00288101
-0.0152479
0.00235767
0.00129387
-0.00134149
0.000526282
0.00814733
-0.000504763
-0.0028548
0.000238179
-0.0140205
-0.00253428
-0.0158392
0.000419824
-0.0137849
0.000672411
-0.00408419
5.71654e-05
0.000461615
0.00463011
0.000463746
-0.000734927
0.0047856
0.000274651
-0.00123378
0.00217088
0.00192505
-0.00292881
-0.00167791
0.0038207
-0.00205302
-0.0102605
0.00428967
-0.000579013
-0.0137906
0.00201573
0.00125016
-0.0139102
0.0029167
-0.00676636
-0.000723123
-0.00136314
0.00947285
-0.00107933
-0.00496228
0.00462527
-0.00384222
-0.00555178
-0.00547068
-0.00618309
-0.00192503
-0.0171606
-0.0042439
-0.000113826
-0.0218286
-0.00082362
0.00106891
-0.0143968
0.00309735
-0.00245185
-0.00399342
0.000863757
0.0124942
-0.00839766
0.00150761
0.00602005
-0.00871817
0.00236555
-0.00717366
-0.00528078
0.00148831
-0.0092953
-0.0020369
0.000914584
-0.00304105
-0.00133889
0.000686418
0.00556584
0.00101515
0.00671878
-0.000217962
-0.00149916
0.0120893
-0.000918874
-0.00121598
0.012932
-0.000370256
-0.00119196
0.012273
-0.000578421
-0.00135741
0.0122324
0.000607401
-0.00256289
0.0115965
1.15042e-05
-0.00196559
0.0127697
-0.00139309
0.0118925
0.000294121
-0.00282233
0.00736877
-0.000330576
-0.000250167
0.00556835
0.00348215
-0.000166439
-0.00507961
0.00808358
0.00156151
-0.0124423
0.00857989
0.00538887
-0.00961684
0.00406215
0.00469891
0.005864
0.000959728
0.0123944
-0.000249397
-0.00207416
0.000357009
0.00350156
-7.87405e-05
-0.0113607
0.00858751
0.00047715
-0.0242244
0.00619162
0.00278429
-0.0210255
0.00234281
0.00238412
-0.00843064
0.00101521
0.000903677
0.00388759
0.000529472
0.00957083
-0.00136423
-0.00330018
-0.00188125
-0.0136305
-0.00228147
-0.0150238
-0.000395814
-0.012889
0.000457804
-0.00263552
-0.000263361
0.00208597
0.0048978
0.000508156
-0.000577562
0.00473405
0.002377
-0.00147379
0.00156944
0.0057005
-0.000263577
-0.00501655
0.00709986
0.000390541
-0.0123106
0.00693814
-0.000472917
-0.013306
0.00453265
-0.00074148
-0.0108396
0.00185209
-0.00398884
1.71429e-05
-0.00242544
0.0111772
0.00238804
-0.00447801
0.00509972
0.00574528
-0.00602815
-0.00311713
0.00679392
-0.00423365
-0.0138978
0.00334189
0.000379186
-0.019474
0.00211806
0.00301768
-0.0166899
0.00420865
-0.00254865
-0.00358298
0.000166655
0.0132533
-0.00537526
0.000195448
0.00310535
-0.00814059
0.000195137
-0.0106041
-0.0102014
0.00051806
-0.0120657
-0.00636871
-0.000639953
-0.0061532
-0.000978326
0.000206279
0.00278369
0.00158597
0.00805663
0.000336686
-0.00196346
0.013561
-0.00034581
-0.000327944
0.0137519
-0.00105867
0.00116902
0.0117202
-0.000296239
-9.16565e-05
0.0119236
1.53517e-05
-0.000556987
0.0109621
-0.000531355
-0.000501815
0.01368
-0.000652221
0.0133861
-0.000114268
-0.00403566
0.00896894
0.00514164
-0.00325338
0.00303981
0.00855728
-0.000937729
-0.00653327
0.00722889