/*--------------------------------*- C++ -*----------------------------------*\
  =========                 |
  \\      /  F ield         | OpenFOAM: The Open Source CFD Toolbox
   \\    /   O peration     | Website:  https://openfoam.org
    \\  /    A nd           | Version:  6
     \\/     M anipulation  |
\*---------------------------------------------------------------------------*/
FoamFile
{
    version     2.0;
    format      ascii;
    class       volVectorField;
    location    "0.005";
    object      U;
}
// * * * * * * * * * * * * * * * * * * * * * * * * * * * * * * * * * * * * * //

dimensions      [0 1 -1 0 0 0 0];

internalField   nonuniform List<vector> 
3773
(
(29.9863 -0.0664678 0.217935)
(29.5487 0.0104048 0.192288)
(29.5341 0.0444667 0.175104)
(29.6083 0.0393255 0.182048)
(29.6188 0.047045 0.192592)
(29.6597 0.0391448 0.205769)
(30.1437 0.062985 0.227859)
(9.71073 0.016438 0.0210021)
(9.68476 -0.0349177 0.0311702)
(9.68921 -0.0267232 0.0457887)
(9.68098 0.00120189 0.0430422)
(9.67504 -0.00226212 0.0409085)
(9.6836 0.0138872 0.0551235)
(9.70762 -0.00756696 0.0628224)
(3.95068 0.0354063 0.0410738)
(3.94441 -0.00932284 0.0466424)
(3.94432 -0.0288837 0.0567234)
(3.94365 0.00967957 0.0540391)
(3.94375 0.0202455 0.0557774)
(3.94472 0.0101169 0.0726246)
(3.95103 -0.0158362 0.0622099)
(-0.000419917 0.00913284 0.0510861)
(-0.000439197 0.0227141 0.0498259)
(-0.000337517 0.0239561 0.0505523)
(-0.000203973 -0.00725213 0.0515235)
(-0.000113888 -0.0354295 0.049703)
(-9.17191e-05 -0.0400881 0.0391358)
(-4.94708e-06 -0.0214767 0.0422226)
(-3.95203 0.0281605 0.0437283)
(-3.94723 -0.0146886 0.0473503)
(-3.94562 -0.0308335 0.051282)
(-3.94485 0.00532114 0.051231)
(-3.94482 0.0158463 0.0516395)
(-3.9458 0.00932303 0.065595)
(-3.95227 -0.0125318 0.0572102)
(-9.71766 0.00966696 0.00794047)
(-9.71399 -0.0375139 0.0216579)
(-9.69882 -0.0183419 0.0427076)
(-9.68433 0.00679943 0.0377916)
(-9.68338 0.00566984 0.0409642)
(-9.69308 0.0266716 0.055977)
(-9.71591 -0.00101912 0.0633721)
(-30.1469 -0.0536593 0.24003)
(-29.7097 -0.0188741 0.217195)
(-29.7204 -0.0186977 0.203774)
(-29.7691 -0.02416 0.206962)
(-29.6982 -0.0149475 0.193623)
(-29.6626 -0.00520201 0.204576)
(-30.1954 0.0391781 0.237844)
(25.6803 -0.0809483 0.51028)
(25.4118 -0.00946664 0.466882)
(25.3674 0.0309406 0.444412)
(25.3878 0.0458592 0.453283)
(25.4341 0.0611794 0.472768)
(25.5064 0.0512499 0.503141)
(25.653 0.0740187 0.528522)
(8.60233 0.0126731 -0.00386108)
(8.72622 -0.040773 0.0210297)
(8.7344 -0.0369565 0.0515134)
(8.73022 0.00509709 0.0434954)
(8.72562 0.0170012 0.0313156)
(8.73702 0.0329853 0.0464405)
(8.63824 0.00269727 0.0389091)
(3.67995 0.0399534 0.055389)
(3.65416 -0.00505765 0.0558228)
(3.65778 -0.0298968 0.079248)
(3.65697 0.0110086 0.0717203)
(3.65849 0.0332409 0.0711633)
(3.65809 0.0186509 0.0955339)
(3.68008 -0.0191966 0.0763088)
(-0.000402373 0.00817679 0.0517651)
(-0.000417301 0.0263232 0.0455699)
(-0.000320279 0.0291353 0.0424955)
(-0.000209913 -0.00952227 0.0451323)
(-0.000106955 -0.0433564 0.04276)
(-7.38984e-05 -0.0446261 0.027395)
(4.49655e-06 -0.0210269 0.0346872)
(-3.68318 0.0318602 0.0546539)
(-3.67467 -0.0157413 0.0563954)
(-3.66218 -0.0344476 0.0685668)
(-3.66055 0.00664455 0.0675349)
(-3.65903 0.026831 0.0653264)
(-3.66028 0.0162789 0.0853307)
(-3.68388 -0.0155765 0.0703858)
(-8.62284 0.0127271 -0.0211545)
(-8.60333 -0.0405164 0.00182083)
(-8.73107 -0.0317528 0.042268)
(-8.72966 0.00790103 0.0255923)
(-8.72443 0.0221511 0.0328905)
(-8.74463 0.0417009 0.0517639)
(-8.62789 0.00617924 0.0391174)
(-25.7188 -0.0598904 0.549529)
(-25.4982 -0.03721 0.520054)
(-25.4935 -0.0378888 0.492262)
(-25.5284 -0.0273682 0.493578)
(-25.4452 -0.0120224 0.472448)
(-25.473 0.00395151 0.498401)
(-25.6753 0.0486093 0.539727)
(24.7247 -0.0996372 0.512831)
(24.7198 -0.0342445 0.45159)
(24.6135 0.0275372 0.424067)
(24.5966 0.0571962 0.432543)
(24.6647 0.0801929 0.473872)
(24.7318 0.0714501 0.53654)
(24.7228 0.0869143 0.559498)
(8.45342 0.0131784 0.0567056)
(8.5843 -0.0283123 0.0778073)
(8.58326 -0.0307306 0.102835)
(8.52124 -0.0019419 0.0963497)
(8.52083 0.0113754 0.0674857)
(8.56831 0.0267596 0.0653797)
(8.45997 0.00250593 0.0367087)
(3.6709 0.0377169 0.0951376)
(3.63819 -0.00382183 0.0792262)
(3.65027 -0.0276284 0.107458)
(3.66264 0.00748759 0.0961549)
(3.65864 0.0354674 0.0927158)
(3.6324 0.0206874 0.101989)
(3.66803 -0.0223366 0.0858498)
(-0.000416521 0.00769907 0.049894)
(-0.000436324 0.0225566 0.0463991)
(-0.000326739 0.0266981 0.0295241)
(-0.000227886 -0.0091704 0.0276657)
(-0.000105388 -0.0460691 0.0242146)
(-5.54476e-05 -0.0446484 0.0273349)
(1.84869e-05 -0.020157 0.0404273)
(-3.66988 0.0309106 0.0889202)
(-3.64085 -0.0149922 0.078913)
(-3.64518 -0.0335794 0.0960793)
(-3.65296 0.00484057 0.0931859)
(-3.66126 0.0283173 0.087084)
(-3.64603 0.0172419 0.0983079)
(-3.6686 -0.0181005 0.0841917)
(-8.46045 0.0078267 0.0508569)
(-8.54299 -0.0303764 0.0555732)
(-8.56794 -0.0264167 0.0868361)
(-8.4807 0.00110254 0.0797582)
(-8.53996 0.0220124 0.0755788)
(-8.57908 0.0338507 0.0695464)
(-8.46244 0.00330292 0.0368234)
(-24.727 -0.0752865 0.566298)
(-24.7244 -0.0592125 0.539278)
(-24.6431 -0.0443115 0.486517)
(-24.5347 -0.0348313 0.498108)
(-24.6182 -0.015886 0.4573)
(-24.7575 0.0269065 0.503788)
(-24.7279 0.0677906 0.56611)
(24.5761 -0.11013 0.376259)
(24.7906 -0.0404015 0.375429)
(24.7508 0.0288359 0.352083)
(24.7454 0.0650785 0.351963)
(24.6636 0.0897731 0.391127)
(24.6232 0.0770351 0.398298)
(24.582 0.0925311 0.407498)
(8.45838 0.0164115 0.0636957)
(8.64505 -0.0161764 0.061163)
(8.62483 -0.0260689 0.0920448)
(8.59561 -0.0110103 0.0880037)
(8.54027 0.00207436 0.060372)
(8.56261 0.0182317 0.063023)
(8.459 -0.00202867 0.0391384)
(3.67056 0.0341518 0.0934877)
(3.63503 -0.000825077 0.0762672)
(3.63999 -0.0238535 0.110049)
(3.64705 0.00497199 0.100579)
(3.65436 0.0365516 0.0977233)
(3.62817 0.0186283 0.0966884)
(3.66863 -0.0243092 0.0865633)
(-0.000427916 0.0102444 0.0535486)
(-0.00044403 0.0193026 0.0516512)
(-0.000336012 0.0192789 0.0282825)
(-0.000235027 -0.0113411 0.019079)
(-9.62816e-05 -0.0435024 0.017317)
(-3.25915e-05 -0.0388339 0.0392012)
(3.66394e-05 -0.0180527 0.0547652)
(-3.67015 0.0283107 0.0887639)
(-3.62625 -0.0122567 0.075655)
(-3.6558 -0.0291718 0.0990517)
(-3.66874 0.00345468 0.0946306)
(-3.65866 0.0304659 0.0890741)
(-3.63096 0.0176131 0.0980906)
(-3.66868 -0.0211726 0.0838823)
(-8.46043 0.00714666 0.0563675)
(-8.57341 -0.0213935 0.0556535)
(-8.5479 -0.0194776 0.074472)
(-8.46129 -7.96705e-05 0.080717)
(-8.56531 0.0206083 0.0722374)
(-8.61353 0.0233212 0.0681088)
(-8.46149 -0.0029486 0.040123)
(-24.5732 -0.0850503 0.415627)
(-24.6354 -0.0648649 0.411133)
(-24.6861 -0.0481847 0.399189)
(-24.425 -0.0436409 0.351532)
(-24.7219 -0.0130628 0.364682)
(-24.7272 0.038752 0.381527)
(-24.5831 0.080062 0.415479)
(24.5619 -0.100759 0.27676)
(24.747 -0.038822 0.330959)
(24.7056 0.0234128 0.309969)
(24.6946 0.0660283 0.297867)
(24.6232 0.0944456 0.289278)
(24.5977 0.0768938 0.286781)
(24.5607 0.092922 0.286533)
(8.46111 0.0157326 0.0733306)
(8.63593 -0.0119782 0.0511475)
(8.61275 -0.0208414 0.0746436)
(8.61993 -0.0167003 0.0749771)
(8.5887 -0.000641352 0.0687673)
(8.59228 0.0146721 0.075093)
(8.46842 -0.00744575 0.059113)
(3.67117 0.0307931 0.0894805)
(3.63231 0.00277307 0.0761041)
(3.62985 -0.0193351 0.105352)
(3.64057 0.0029522 0.0964482)
(3.63443 0.0365359 0.0941382)
(3.61559 0.0160428 0.0923307)
(3.67154 -0.0256153 0.0869613)
(-0.000431735 0.00901433 0.0585108)
(-0.000451078 0.013523 0.0475628)
(-0.000335349 0.012122 0.0310696)
(-0.000233503 -0.0128331 0.0214947)
(-8.81282e-05 -0.0360076 0.0266646)
(-9.37461e-06 -0.0296773 0.047968)
(5.65099e-05 -0.0138883 0.0573809)
(-3.67087 0.0251968 0.0871748)
(-3.62653 -0.0100513 0.0783058)
(-3.64062 -0.0259262 0.100321)
(-3.65276 0.00134841 0.0948438)
(-3.64915 0.0307786 0.0852212)
(-3.62539 0.0157789 0.0910901)
(-3.67114 -0.0236631 0.0830127)
(-8.46827 0.00845027 0.0660873)
(-8.60234 -0.0169344 0.05622)
(-8.57887 -0.0148003 0.0805797)
(-8.54268 0.00131364 0.0785011)
(-8.57537 0.0171597 0.0706721)
(-8.604 0.0170384 0.081265)
(-8.46919 -0.00987018 0.0587437)
(-24.5688 -0.0820268 0.292753)
(-24.6156 -0.0619699 0.301122)
(-24.631 -0.0567099 0.30995)
(-24.5332 -0.0477014 0.269735)
(-24.6899 -0.0101023 0.294874)
(-24.6098 0.0444059 0.284399)
(-24.5638 0.0845009 0.297216)
(24.595 -0.0870057 0.152801)
(24.7216 -0.0270286 0.213283)
(24.4828 0.0188482 0.208957)
(24.7426 0.058567 0.205177)
(24.7182 0.083098 0.172707)
(24.6537 0.0742788 0.164267)
(24.5864 0.0923262 0.150969)
(8.49909 0.0119483 0.0888788)
(8.63916 -0.0134815 0.0788806)
(8.68471 -0.0154887 0.0985945)
(8.65215 -0.0143851 0.101469)
(8.6387 -0.00376868 0.10674)
(8.63233 0.0117366 0.117143)
(8.49519 -0.0105551 0.104305)
(3.67544 0.028228 0.0983167)
(3.63049 0.00640157 0.0846468)
(3.62931 -0.0155047 0.10567)
(3.62179 0.000465361 0.101466)
(3.62136 0.0341014 0.101193)
(3.62019 0.0148162 0.100287)
(3.67352 -0.0266839 0.0982057)
(-0.000428615 0.00477659 0.0522975)
(-0.000447068 0.00701188 0.0455876)
(-0.000333003 0.00844948 0.0374042)
(-0.000219956 -0.0124148 0.031315)
(-8.46002e-05 -0.0315773 0.0371954)
(1.66394e-05 -0.0263673 0.04263)
(7.32845e-05 -0.0120808 0.0473824)
(-3.67447 0.024045 0.0928565)
(-3.63452 -0.00671507 0.0816117)
(-3.62552 -0.0228839 0.105193)
(-3.62798 -0.00256518 0.101081)
(-3.62494 0.0279899 0.0958053)
(-3.63539 0.013938 0.0993338)
(-3.67396 -0.0247014 0.0976425)
(-8.50445 0.00554863 0.0845464)
(-8.66289 -0.0114251 0.0839441)
(-8.63778 -0.00920057 0.112197)
(-8.68795 -0.00168632 0.104929)
(-8.65755 0.019843 0.0986382)
(-8.6048 0.015325 0.115168)
(-8.49785 -0.0136209 0.0960867)
(-24.6027 -0.0790394 0.16334)
(-24.5373 -0.0560854 0.193709)
(-24.6608 -0.0579503 0.181474)
(-24.4923 -0.0457475 0.184423)
(-24.8075 -0.0120276 0.204282)
(-24.6571 0.0369255 0.167181)
(-24.5913 0.0857852 0.159116)
(24.4826 -0.0840228 0.166286)
(24.1724 -0.0167641 0.191031)
(24.4288 0.0204897 0.197118)
(24.459 0.0532608 0.193893)
(24.4612 0.0757778 0.178392)
(24.4784 0.0729656 0.180658)
(24.488 0.0932376 0.167624)
(8.57196 0.0113148 0.0259928)
(8.63432 -0.00919622 0.0289274)
(8.58801 -0.0105155 0.0465325)
(8.57652 -0.0131287 0.0440301)
(8.57858 0.00230347 0.0457914)
(8.59017 0.0174181 0.0592933)
(8.57123 -0.0115967 0.0500039)
(3.6393 0.027499 0.0403685)
(3.64287 0.00721558 0.0291232)
(3.62861 -0.0125954 0.0393699)
(3.63374 0.00166374 0.0406399)
(3.6261 0.0378449 0.0409964)
(3.63477 0.0160528 0.0407149)
(3.63053 -0.0298131 0.0399466)
(-0.000426743 0.00511092 0.00365266)
(-0.000454314 0.00609853 0.0046355)
(-0.000343476 0.0071956 0.000351535)
(-0.000201368 -0.0132407 -0.00173803)
(-8.59947e-05 -0.0345366 0.000572297)
(2.91699e-05 -0.0285636 -0.00154182)
(8.29335e-05 -0.0132564 0.000655905)
(-3.63944 0.0223278 0.0343657)
(-3.6822 -0.00642738 0.0212328)
(-3.63571 -0.0198019 0.0391359)
(-3.62831 -0.00282341 0.0371714)
(-3.69119 0.032979 0.0378735)
(-3.63799 0.0181465 0.0417494)
(-3.63112 -0.0272188 0.041887)
(-8.57808 0.00696778 0.0244073)
(-8.39404 -0.0100762 0.0386646)
(-8.58752 -0.00603413 0.0475961)
(-8.59139 -0.00496495 0.0459038)
(-8.45116 0.0219471 0.0415698)
(-8.591 0.016633 0.0510895)
(-8.57456 -0.0165832 0.0390214)
(-24.512 -0.076653 0.17457)
(-24.3617 -0.0571224 0.199819)
(-24.4772 -0.0598547 0.184878)
(-24.4467 -0.042077 0.189959)
(-24.1411 -0.0202403 0.197848)
(-24.4913 0.0267747 0.177954)
(-24.5007 0.088402 0.17016)
(27.3367 -1.19778 -4.27789)
(27.3402 -3.15039 -5.23088)
(27.4478 -3.13481 -7.82382)
(27.6234 0.300104 -9.41586)
(27.4397 3.56399 -7.66993)
(27.3234 3.32316 -5.22653)
(27.3366 1.22639 -4.37107)
(9.00669 -0.443681 -0.555258)
(8.99107 -1.10054 -0.837471)
(8.96307 -0.972127 -1.34636)
(8.95887 0.154515 -1.6404)
(8.97063 1.25708 -1.36585)
(9.00426 1.30837 -0.888708)
(9.03023 0.51972 -0.648664)
(3.94326 -0.0626162 2.09327)
(3.93985 -0.16607 2.07304)
(3.93772 -0.116817 2.0713)
(3.93793 0.074724 2.05911)
(3.94695 0.252119 2.04136)
(3.95778 0.285813 2.01798)
(3.96372 0.121776 2.00893)
(0.00557835 0.0107648 2.78749)
(0.00746135 0.046749 2.82577)
(0.0116172 0.0634728 2.87586)
(0.0155127 0.0187573 2.89469)
(0.0182994 -0.023933 2.85885)
(0.0201396 -0.0198928 2.78562)
(0.0213877 -0.00474977 2.73819)
(-3.93126 -0.117284 2.03526)
(-3.92356 -0.270117 2.02862)
(-3.91275 -0.219714 2.02356)
(-3.90626 -0.0157921 2.01791)
(-3.90924 0.183423 2.00154)
(-3.91738 0.231829 1.97888)
(-3.92266 0.0993446 1.96789)
(-8.9932 -0.523911 -0.68786)
(-8.97535 -1.33624 -0.964948)
(-8.94563 -1.26404 -1.46557)
(-8.92779 -0.0686434 -1.78354)
(-8.94313 1.11382 -1.51801)
(-8.96779 1.22074 -1.04103)
(-8.98638 0.490037 -0.784365)
(-27.2741 -1.25594 -4.45559)
(-27.3381 -3.41608 -5.34103)
(-27.4332 -3.64286 -7.83986)
(-27.6093 -0.19798 -9.72856)
(-27.4398 3.39709 -8.0853)
(-27.3139 3.33987 -5.50599)
(-27.3099 1.25106 -4.57291)
(27.4396 -2.91562 -11.0295)
(27.6389 -8.37946 -13.8385)
(28.8274 -8.70796 -23.8416)
(30.0204 0.391442 -31.7425)
(28.7743 9.04115 -23.1698)
(27.6627 8.25616 -13.7955)
(27.4613 2.8007 -11.2172)
(9.03649 -0.900967 -1.09321)
(8.99312 -2.3208 -1.77917)
(8.94776 -2.22942 -3.23549)
(8.97895 0.119069 -4.27401)
(8.95514 2.42501 -3.37031)
(9.00036 2.42237 -1.884)
(9.06402 0.919667 -1.23441)
(3.89388 -0.0943649 6.29747)
(3.88504 -0.201729 6.29476)
(3.87999 -0.142401 6.34426)
(3.87397 0.0311548 6.32554)
(3.88161 0.19736 6.26262)
(3.8918 0.241029 6.20949)
(3.89403 0.109311 6.18381)
(0.00458863 0.06729 8.30281)
(0.00431246 0.1783 8.3888)
(0.006294 0.166804 8.50435)
(0.00754575 -0.00659647 8.53992)
(0.00959502 -0.187012 8.47103)
(0.00989909 -0.200454 8.32678)
(0.00922939 -0.0756579 8.23107)
(-3.8855 -0.129545 6.13624)
(-3.87556 -0.291765 6.11196)
(-3.86522 -0.239916 6.12151)
(-3.86043 -0.0468632 6.15008)
(-3.86112 0.131824 6.11748)
(-3.87166 0.185776 6.04294)
(-3.87843 0.0846762 6.01151)
(-9.03599 -0.969999 -1.45359)
(-9.01388 -2.54065 -2.19132)
(-8.96985 -2.53898 -3.81598)
(-8.9733 -0.145252 -4.77459)
(-8.96493 2.29175 -3.74167)
(-8.97731 2.35105 -2.31311)
(-9.01167 0.901912 -1.67153)
(-27.3626 -2.88297 -11.4973)
(-27.6513 -8.4876 -14.3215)
(-28.8 -9.30448 -23.9432)
(-30.0601 -0.573077 -33.0302)
(-28.8731 8.97985 -24.6095)
(-27.5999 8.5059 -14.5751)
(-27.361 2.94433 -11.8597)
(27.8237 -5.62276 -12.6583)
(28.9854 -15.6098 -19.8518)
(32.6802 -12.4251 -60.2624)
(34.6893 -0.420798 -85.2603)
(32.8029 12.1019 -54.6402)
(29.1609 15.6595 -18.952)
(27.9472 5.42054 -12.3202)
(8.93805 -1.41515 0.250302)
(8.88291 -3.74786 -0.96435)
(8.9462 -3.56657 -4.8977)
(9.0806 -0.215115 -8.10984)
(8.95756 3.61558 -4.88366)
(8.89077 4.02573 -0.814262)
(8.96108 1.45836 0.475627)
(3.86039 -0.0467632 10.7166)
(3.8535 -0.0745917 10.7563)
(3.86367 -0.0618131 10.8718)
(3.86077 -0.0498732 10.8494)
(3.85823 0.0564517 10.8419)
(3.84843 0.145331 10.8278)
(3.85397 0.0752111 10.8478)
(0.00579043 0.140691 13.6737)
(0.00656122 0.34657 13.744)
(0.00645947 0.290504 13.8367)
(0.00551021 -0.0319682 13.8764)
(0.00454058 -0.344201 13.8216)
(0.00543922 -0.377304 13.7356)
(0.00592086 -0.149066 13.6702)
(-3.8519 -0.113052 10.5755)
(-3.83948 -0.249493 10.5375)
(-3.84144 -0.154345 10.5381)
(-3.84904 -0.0223129 10.561)
(-3.84779 0.0105698 10.5751)
(-3.84157 0.0507725 10.4633)
(-3.84807 0.0369708 10.4268)
(-8.94235 -1.57662 0.0239429)
(-8.91949 -4.36889 -1.39757)
(-8.96942 -3.83621 -5.76028)
(-9.07747 0.119357 -9.04381)
(-8.97877 3.61556 -5.54851)
(-8.87687 3.76089 -1.56382)
(-8.91548 1.40588 -0.440285)
(-27.9077 -5.67989 -12.7233)
(-29.0366 -16.4023 -19.8291)
(-33.0236 -12.3399 -55.5846)
(-34.849 -0.53627 -89.3493)
(-32.8494 13.0407 -61.7734)
(-29.0076 15.7312 -20.5671)
(-27.7192 5.57082 -13.7124)
(28.8785 -7.07135 -11.1971)
(31.3764 -16.97 -33.0869)
(35.7244 -6.89037 -104.707)
(37.0525 -0.608712 -126.198)
(36.3704 3.8616 -107.522)
(31.9004 16.9194 -30.6217)
(29.1521 6.85885 -9.76365)
(8.95204 -1.32252 2.61137)
(8.95488 -3.7676 -0.345693)
(9.20216 -3.12814 -8.81837)
(9.40914 -0.496666 -13.8398)
(9.24215 3.28959 -9.55875)
(9.00116 4.51594 0.604365)
(8.99258 1.56692 3.59579)
(3.82624 0.100742 15.0667)
(3.82269 0.24147 15.0027)
(3.85137 0.188649 14.9726)
(3.85696 -0.0234869 14.9013)
(3.84925 -0.0342802 15.1663)
(3.82856 0.0223892 15.4123)
(3.83715 -0.0028568 15.5337)
(0.00274602 0.180601 18.8602)
(0.00215677 0.415732 18.904)
(-0.000547537 0.346281 18.9977)
(-0.00117218 -0.0277922 19.0936)
(0.00140473 -0.362074 19.0155)
(0.00552088 -0.390291 18.9334)
(0.00915031 -0.165602 18.8512)
(-3.82431 -0.0236944 15.2445)
(-3.82253 -0.100021 15.1373)
(-3.83678 -0.00121694 14.8469)
(-3.85025 -0.00212843 14.6635)
(-3.84141 -0.2172 14.7193)
(-3.82137 -0.25862 14.8087)
(-3.82266 -0.111657 14.8064)
(-8.96756 -1.73329 3.19906)
(-9.01022 -5.16256 0.0214166)
(-9.24987 -3.44641 -11.2138)
(-9.40244 0.475202 -14.7826)
(-9.25893 3.2197 -9.39393)
(-8.95665 3.73696 -0.846564)
(-8.95802 1.27487 2.02346)
(-29.0969 -7.4275 -9.75)
(-31.9728 -18.3271 -31.7971)
(-36.7812 -2.91499 -113.897)
(-37.1044 -1.11633 -131.08)
(-35.8402 8.62099 -107.493)
(-31.4974 17.1151 -33.5491)
(-28.8655 6.81958 -12.0755)
(30.6532 -6.99345 -10.3042)
(34.7917 -16.8097 -50.2249)
(36.7516 -4.56498 -109.719)
(37.4737 -0.451152 -131.335)
(37.6519 -2.8811 -122.221)
(34.8407 15.2812 -51.4364)
(30.8185 6.16932 -8.69751)
(9.08865 -1.31686 3.97133)
(9.23212 -4.65706 -1.23472)
(9.51925 -4.12297 -9.92713)
(9.86181 0.607355 -21.6784)
(9.53737 5.54351 -11.8446)
(9.29183 5.33456 0.529598)
(9.13867 1.46663 5.64115)
(3.79961 0.17987 18.6121)
(3.80641 0.264445 18.4634)
(3.82644 0.228168 18.3863)
(3.84156 0.323415 18.4537)
(3.83652 0.410411 18.7778)
(3.83119 0.173125 19.1853)
(3.81803 -0.0363828 19.2574)
(-0.00836519 0.215366 23.3316)
(-0.00379919 0.528636 23.4128)
(-0.00263409 0.494765 23.6501)
(0.00398551 -0.02259 23.8566)
(0.00910612 -0.500665 23.5845)
(0.0115051 -0.509241 23.3332)
(0.013387 -0.215092 23.2905)
(-3.81037 0.0412439 19.3142)
(-3.82007 -0.175866 19.1289)
(-3.82548 -0.359232 18.6228)
(-3.82995 -0.323311 18.3317)
(-3.81318 -0.297242 18.1705)
(-3.80071 -0.34139 18.3408)
(-3.79511 -0.232353 18.4294)
(-9.0996 -1.76992 5.83029)
(-9.30615 -6.03573 0.368965)
(-9.5613 -5.5809 -14.1814)
(-9.82926 -0.511398 -21.6781)
(-9.52659 4.01399 -10.5915)
(-9.22421 4.49537 -1.67647)
(-9.10416 1.23732 3.52288)
(-31.0171 -6.73038 -7.97469)
(-35.1331 -16.5687 -52.4873)
(-38.1091 6.33572 -134.787)
(-37.4424 -1.36175 -136.066)
(-36.8751 7.22588 -112.708)
(-34.9336 16.4501 -51.338)
(-30.7119 6.76288 -11.2254)
(32.3693 -8.06609 -8.49567)
(35.8488 -20.9143 -57.2552)
(37.1024 -7.05405 -111.352)
(37.4877 -4.41699 -132.802)
(37.4493 -9.95949 -126.644)
(35.5569 19.5498 -62.6629)
(32.1945 6.31402 -9.09586)
(9.33078 -2.18767 5.38949)
(9.53087 -7.31453 -1.6388)
(9.89876 -4.93731 -31.571)
(10.4278 0.751742 -62.9292)
(9.86342 8.05443 -28.018)
(9.52889 6.82309 0.649901)
(9.32612 1.52083 6.19013)
(3.80693 0.258777 22.1121)
(3.81525 0.479814 22.3464)
(3.83368 0.925475 21.864)
(3.87678 0.834674 21.8458)
(3.86075 0.232279 22.3976)
(3.83836 -0.256373 22.9465)
(3.81678 -0.307544 22.4798)
(-0.0123042 0.305868 27.5861)
(-0.00643139 0.843401 27.9409)
(-0.00470353 0.876964 28.6658)
(0.00570314 -0.100347 29.0217)
(0.01445 -1.00493 28.638)
(0.0123673 -0.904155 27.7295)
(0.00768839 -0.319288 27.2761)
(-3.80575 0.165993 23.0122)
(-3.8343 0.0127089 23.4249)
(-3.8483 -0.456792 22.5775)
(-3.85847 -1.07504 21.8628)
(-3.81223 -1.03962 21.5001)
(-3.80059 -0.471457 22.0956)
(-3.8104 -0.267939 21.9889)
(-9.28664 -1.95872 7.16456)
(-9.5486 -7.6614 1.34929)
(-9.87946 -8.37902 -31.3564)
(-10.3718 -1.0455 -62.2039)
(-9.86544 4.40721 -32.5403)
(-9.50887 7.35568 -2.45532)
(-9.32723 2.0407 4.73448)
(-32.1856 -6.53605 -8.24366)
(-35.5902 -22.4542 -66.2311)
(-37.5741 14.9925 -143.372)
(-37.1654 1.54872 -136.742)
(-37.356 12.1277 -113.798)
(-36.0109 20.6476 -58.1936)
(-32.429 7.79503 -9.83174)
(33.0477 -12.0969 -3.30431)
(35.9839 -25.8663 -55.1711)
(36.8766 -13.4363 -107.982)
(36.9111 -11.0115 -131.901)
(36.7854 -17.3516 -133.663)
(35.3303 22.0525 -66.1815)
(32.9222 10.5634 -7.43562)
(9.38854 -4.27817 5.95205)
(9.73149 -12.8306 -13.1549)
(10.4078 -1.48514 -64.9126)
(10.6028 -2.39953 -78.6833)
(10.199 -2.84838 -53.0263)
(9.63062 10.6982 -11.5035)
(9.32221 2.07666 2.61401)
(3.78165 0.277263 23.5005)
(3.81406 0.543787 22.5191)
(3.87684 1.55481 20.3842)
(3.91547 0.894753 21.0887)
(3.90067 -0.388273 20.5878)
(3.84433 -0.755605 21.3364)
(3.80588 -0.668088 21.4945)
(-0.00791647 0.645913 30.6249)
(-0.00878439 1.92961 30.6349)
(-0.006886 2.02911 31.1498)
(0.00342276 -0.1533 31.8352)
(0.0111696 -2.34797 30.8949)
(0.0165309 -2.12195 30.2077)
(0.0142984 -0.699272 30.1783)
(-3.78401 0.711267 22.2135)
(-3.85023 0.584246 22.1122)
(-3.8895 -0.263939 21.2958)
(-3.89966 -1.68158 21.0374)
(-3.84535 -1.84096 19.4948)
(-3.79516 -0.624369 21.797)
(-3.78086 -0.363295 22.8493)
(-9.28046 -2.02894 4.74033)
(-9.61166 -11.1516 -10.225)
(-10.2092 0.578193 -55.4097)
(-10.5918 2.09826 -79.104)
(-10.4225 -0.19439 -67.8648)
(-9.70885 12.8697 -14.6796)
(-9.36392 4.21644 4.3072)
(-32.831 -10.2375 -6.69071)
(-35.2031 -26.5055 -70.6865)
(-36.6171 19.6367 -150.795)
(-36.8464 2.60106 -136.707)
(-37.3478 17.476 -107.451)
(-36.2141 25.2348 -56.0036)
(-33.1089 12.2414 -5.74775)
(31.9687 -14.6888 22.6797)
(35.8592 -17.3657 -29.5874)
(37.0349 -1.42301 -77.9514)
(37.2837 -10.7573 -106.87)
(36.6402 -24.4167 -124.774)
(35.9727 4.39003 -93.5821)
(30.7656 12.1724 -7.28701)
(9.15909 -7.89023 14.8678)
(9.71647 -12.9854 -17.7874)
(10.4914 -5.23916 -67.8654)
(10.5872 -13.0024 -74.424)
(10.1256 -25.1092 -52.644)
(9.34669 5.75653 -16.8319)
(8.85174 3.4309 4.72387)
(3.77663 -0.525863 20.6523)
(3.80055 -1.10254 18.251)
(3.83441 -0.761606 14.2168)
(3.89282 -0.608915 12.6667)
(3.83274 -0.531707 13.0181)
(3.76179 -0.814888 15.3019)
(3.72956 -0.632651 15.869)
(0.00976944 0.464814 23.2673)
(0.00804032 1.73539 22.9893)
(-0.00399714 2.0203 22.7499)
(-0.00639666 -0.566953 22.6793)
(-0.000577866 -2.65115 22.4261)
(-0.00235747 -1.98734 22.6565)
(-0.010552 -0.619405 22.9538)
(-3.7324 0.39423 16.5722)
(-3.77231 0.740531 15.4708)
(-3.82653 -0.186999 13.1738)
(-3.88284 -1.15336 11.8851)
(-3.81354 -0.739795 13.198)
(-3.75677 0.806926 16.9092)
(-3.80599 0.598862 19.9651)
(-8.89462 -4.06943 6.88442)
(-9.27926 -6.7385 -15.1086)
(-10.055 15.4742 -58.7191)
(-10.5512 13.3687 -76.7133)
(-10.5536 4.29124 -73.0965)
(-9.69686 12.0034 -22.5432)
(-8.96805 8.02007 12.4522)
(-30.9431 -11.5079 2.65979)
(-35.5583 -11.1117 -66.8013)
(-37.2368 25.0734 -148.247)
(-37.1627 -9.08169 -115.078)
(-37.753 7.03891 -81.7459)
(-36.3102 15.7871 -32.2278)
(-32.2814 14.8234 20.0155)
(30.9293 -8.27526 26.3635)
(34.755 -9.31534 -8.35583)
(36.8353 1.35248 -52.1915)
(36.782 1.59499 -106.005)
(36.8021 -7.91681 -133.72)
(36.4964 -2.72738 -111.553)
(30.4725 5.28939 -15.312)
(9.11929 -6.43663 18.4458)
(9.92268 -11.707 -15.41)
(10.5568 -11.2469 -53.53)
(10.492 -20.1893 -65.422)
(10.1018 -26.3045 -42.6959)
(9.41825 2.83888 -24.3675)
(8.69496 0.628541 2.35385)
(3.73836 -0.868607 21.9191)
(3.73458 -2.54321 18.5638)
(3.77562 -2.43821 14.1366)
(3.8334 -2.04733 11.9703)
(3.72439 -1.7175 11.5548)
(3.67597 -1.93895 13.5207)
(3.63421 -0.991507 14.8037)
(0.0363964 0.18771 22.449)
(0.0332704 0.724177 21.7927)
(0.0159724 1.45245 20.8598)
(0.000265677 -0.54178 20.548)
(-0.00520135 -2.26593 20.5957)
(-0.0143804 -1.28568 21.4374)
(-0.0161579 -0.422375 22.1885)
(-3.66127 0.523798 15.8444)
(-3.68693 0.837294 14.3039)
(-3.7263 0.15203 11.1973)
(-3.81621 0.0597287 10.7255)
(-3.74917 0.994857 12.837)
(-3.71065 2.25499 17.0614)
(-3.76018 0.852858 21.2993)
(-8.66307 -1.60354 6.23517)
(-9.45418 -4.44407 -17.8847)
(-10.0879 18.8981 -40.7987)
(-10.4323 20.3987 -70.8575)
(-10.5893 13.6449 -65.089)
(-9.98402 12.3069 -24.2696)
(-8.98555 7.10203 15.952)
(-30.5849 -7.04256 -6.15755)
(-35.6462 -2.63704 -92.9851)
(-36.8653 9.9404 -154.492)
(-36.9053 -10.2923 -119.952)
(-37.4633 5.57109 -60.1694)
(-35.0736 8.95017 -16.9936)
(-31.2265 9.34053 23.9707)
(30.317 -4.88408 29.7316)
(34.369 -9.61758 1.88062)
(36.615 0.0478508 -29.2386)
(36.6944 20.4502 -84.764)
(36.8761 19.0631 -117.01)
(36.7871 0.607938 -119.831)
(30.9981 1.99162 -30.2908)
(9.09889 -6.26371 24.2669)
(10.0746 -12.3887 -5.69513)
(10.5657 -12.0829 -43.3225)
(10.5674 -21.8012 -66.5788)
(10.3623 -31.7079 -57.0621)
(9.74818 4.09537 -33.2692)
(8.54753 -0.0883696 -0.884941)
(3.7471 -2.08446 26.0916)
(3.72327 -5.01963 21.774)
(3.78012 -8.57285 15.1416)
(3.83692 -6.10479 9.78999)
(3.71318 -0.94356 11.7871)
(3.63451 -2.22394 15.4498)
(3.59001 -0.887785 16.068)
(0.0563227 -0.338609 24.7409)
(0.0412255 0.346363 23.5603)
(0.0277049 0.712499 23.2558)
(0.0160894 -0.576491 23.688)
(0.0039818 -1.58019 22.8655)
(-0.0212933 -0.93924 23.2601)
(-0.0371028 0.0895524 24.5697)
(-3.61513 0.132395 17.254)
(-3.64577 -0.173895 15.7556)
(-3.70638 -2.62245 10.7453)
(-3.82081 3.80554 6.55164)
(-3.75806 8.1055 13.1285)
(-3.71772 5.26916 20.9159)
(-3.76519 2.25305 26.0137)
(-8.55211 -1.07011 4.96957)
(-9.70572 -8.16709 -22.8251)
(-10.3059 30.3654 -47.3765)
(-10.5389 23.4812 -74.1839)
(-10.6 16.9988 -58.4901)
(-10.1522 15.3322 -15.1857)
(-9.10936 7.20589 23.0241)
(-30.4539 -6.56384 -13.273)
(-36.0859 2.5523 -109.548)
(-36.9263 -6.24908 -136.565)
(-37.2055 -18.2175 -112.507)
(-37.3201 7.88008 -39.5642)
(-34.8047 10.9157 -3.48971)
(-30.439 6.51519 28.8749)
(30.0457 -3.66166 31.0387)
(34.0784 -8.31537 9.95261)
(36.3977 -2.64555 -20.4187)
(36.3995 31.7173 -83.826)
(36.984 31.4459 -111.548)
(36.7081 24.0084 -117.678)
(32.8206 5.194 -48.0562)
(9.18739 -4.2545 27.6964)
(10.1153 -11.2055 13.6652)
(10.6518 -2.65186 -30.4112)
(10.7589 -4.54578 -69.8361)
(10.6929 -25.2959 -79.2202)
(10.2143 2.55152 -41.0733)
(8.7247 1.01656 -4.6768)
(3.77786 -2.22212 31.3785)
(3.8091 -13.1976 23.5676)
(3.96263 -16.5557 -9.36444)
(3.98138 -14.3808 -19.5395)
(3.83185 -6.24989 -1.06515)
(3.65022 -1.29858 18.2174)
(3.58528 -1.86822 18.4222)
(0.0857059 -0.165052 28.0638)
(0.0681075 -0.476115 28.7676)
(0.0356859 -1.21492 27.7112)
(0.0157522 -0.93592 25.9572)
(-0.00684909 0.231221 27.3585)
(-0.0447166 0.079166 28.5469)
(-0.0668753 -0.0436321 27.8525)
(-3.57239 0.895335 19.8998)
(-3.63561 -2.0806 18.3631)
(-3.81672 2.10815 -8.39136)
(-3.9753 13.1546 -29.9911)
(-3.97234 14.9238 -16.1252)
(-3.81436 13.853 23.167)
(-3.80786 2.51529 31.345)
(-8.64343 -2.29601 2.95501)
(-10.0212 -7.93476 -25.6238)
(-10.5638 32.3699 -79.4994)
(-10.6579 11.5052 -81.3291)
(-10.6736 6.12872 -47.3911)
(-10.2238 13.1921 8.47019)
(-9.25415 5.14719 27.3131)
(-31.287 -6.65377 -20.9047)
(-36.5196 -5.28389 -113.076)
(-36.9181 -16.551 -124.274)
(-36.8031 -24.5646 -112.228)
(-36.8992 8.58791 -30.0814)
(-34.4304 10.3965 6.86172)
(-30.1213 5.39752 31.5762)
(29.938 -2.18401 31.8491)
(34.1424 -4.24606 17.6783)
(35.139 9.86786 -19.6076)
(35.3201 58.9979 -95.5991)
(36.6573 42.2918 -110.802)
(36.6292 38.1094 -101.279)
(34.1937 15.9988 -48.9855)
(9.45963 -4.30324 32.2086)
(10.2651 -7.90762 14.2626)
(10.5838 6.12496 -21.1798)
(10.6842 33.9088 -66.0668)
(10.6815 18.9685 -83.1019)
(10.3367 2.06733 -54.7962)
(9.20811 4.78177 -5.79353)
(3.8387 -4.4563 32.3333)
(3.94587 -13.8601 3.74717)
(4.06464 -9.05325 -35.2276)
(4.07676 -18.1842 -36.1654)
(3.87688 -20.5915 -18.4864)
(3.67624 -1.28923 11.9911)
(3.54619 -1.31152 21.3899)
(0.124731 0.954299 34.196)
(0.115048 -0.747944 33.6745)
(0.052667 -1.60753 27.8661)
(0.00149557 -1.35459 28.6739)
(-0.0450411 0.261135 25.7544)
(-0.0939522 0.19114 32.9802)
(-0.107866 -1.07118 33.6254)
(-3.55405 -0.048109 22.9929)
(-3.65396 -1.16899 11.6424)
(-3.88148 17.0261 -23.3872)
(-4.1104 17.938 -43.0369)
(-4.08212 5.6161 -42.6373)
(-3.95105 13.2517 2.67796)
(-3.8471 4.34256 32.1954)
(-9.04228 -6.2204 4.87187)
(-10.1918 -6.87141 -45.632)
(-10.5301 -11.4769 -98.5249)
(-10.6616 -36.2558 -83.4725)
(-10.6119 -6.70108 -28.2555)
(-10.3449 7.32616 13.1954)
(-9.49219 3.59707 32.85)
(-32.2535 -9.65607 -20.716)
(-36.7056 -21.6121 -98.7105)
(-36.4367 -34.5204 -116.661)
(-35.7203 -50.8289 -114.538)
(-35.2984 -0.703462 -28.5015)
(-33.8126 3.38189 17.8113)
(-30.0617 1.78942 32.9138)
(30.0499 0.266658 37.1127)
(34.1328 1.942 -17.7663)
(34.6903 80.353 -81.2935)
(35.9069 74.3869 -98.7144)
(37.1626 58.3456 -102.32)
(37.0583 36.813 -79.0709)
(34.3513 18.5312 -20.3245)
(9.55909 0.143719 35.5836)
(10.285 -5.93468 7.55826)
(10.389 25.9263 -25.2801)
(10.5345 62.7313 -51.3585)
(10.5191 76.4772 -58.746)
(10.3515 46.5535 -58.6037)
(9.52895 11.4663 -4.33074)
(3.92446 -2.35779 31.1391)
(4.04465 -2.44818 1.20869)
(4.07207 13.6295 -32.3479)
(4.06874 -7.35416 -34.5618)
(3.93627 -24.2052 -17.2011)
(3.73091 -0.626687 1.70196)
(3.48828 4.00234 29.0934)
(0.129935 0.630782 36.7055)
(0.108251 -1.08247 32.1984)
(0.0558134 -1.5071 26.7039)
(-0.000649943 -1.19846 28.3646)
(-0.0540476 0.121985 26.1574)
(-0.112567 0.726541 32.3906)
(-0.136548 -1.27025 36.753)
(-3.55304 -4.3208 30.704)
(-3.74822 -0.419091 2.48756)
(-3.936 24.5344 -16.4122)
(-4.09513 12.2076 -45.1713)
(-4.07839 -16.5056 -41.6271)
(-4.0594 3.61958 -1.09679)
(-3.89917 2.7715 30.2341)
(-9.34278 -9.91776 8.229)
(-10.2773 -33.1057 -59.0576)
(-10.4102 -72.3634 -73.9965)
(-10.4335 -66.6852 -66.1195)
(-10.3977 -18.3002 -26.7351)
(-10.3005 5.94629 4.51327)
(-9.56316 1.18979 33.7237)
(-32.3417 -7.57719 -1.02822)
(-36.8223 -25.5395 -72.8968)
(-36.7014 -40.8168 -110.969)
(-35.7924 -60.5412 -119.446)
(-35.2269 -73.3314 -92.8232)
(-33.5514 8.86697 -9.87878)
(-30.3046 0.668811 34.8955)
(35.1332 101.943 -61.2105)
(34.9482 128.836 -107.73)
(35.6913 108.096 -109.294)
(37.4781 73.2338 -96.563)
(37.7603 59.0607 -89.8097)
(35.4884 -3.69777 24.7936)
(31.6004 -9.90809 57.6158)
(10.2991 42.9469 3.38944)
(10.329 66.6883 -33.106)
(10.2638 120.806 -55.3276)
(10.2562 119.483 -57.2747)
(10.4239 105.169 -57.931)
(10.4391 66.0787 -46.3401)
(9.44832 6.6918 38.8958)
(3.9215 0.692327 16.789)
(3.98279 1.15052 -18.8934)
(3.98382 24.7429 -24.8438)
(3.99628 28.7199 -28.2339)
(3.94516 -3.66984 -17.1727)
(3.81563 9.2384 6.45007)
(3.56305 -1.16669 45.5594)
(0.000772602 -2.22632 44.5589)
(-0.0165752 -5.68117 20.877)
(-0.00827073 -1.54536 16.167)
(0.0167294 -0.378231 19.0977)
(-0.000568228 1.36317 16.4607)
(-0.0167389 4.91653 22.2539)
(0.0196591 1.37367 44.9263)