/*--------------------------------*- C++ -*----------------------------------*\
  =========                 |
  \\      /  F ield         | OpenFOAM: The Open Source CFD Toolbox
   \\    /   O peration     | Website:  https://openfoam.org
    \\  /    A nd           | Version:  6
     \\/     M anipulation  |
\*---------------------------------------------------------------------------*/
FoamFile
{
    version     2.0;
    format      ascii;
    class       volScalarField;
    location    "3.5";
    object      p;
}
// * * * * * * * * * * * * * * * * * * * * * * * * * * * * * * * * * * * * * //

dimensions      [1 -1 -2 0 0 0 0];

internalField   nonuniform List<scalar> 
297
(
120442
120441
120441
199347
199348
199348
120440
120441
120440
120442
120441
120441
199347
199348
199348
120440
120440
120440
120442
120441
120441
199348
199348
199348
120440
120440
120440
97089.8
97091.2
97081.7
160487
160515
160561
97129.7
97152
97150.2
97088.7
97048.3
97042.9
160164
160279
160253
97122.2
97108.8
97114.3
97039.3
97054.9
96741
158235
159441
158295
97026.8
97062.9
96829.1
96129.5
96500.1
96237.2
159276
158995
159045
96256.5
96492.1
96262.2
96496.9
96673.6
96577.4
160061
159815
159832
96620.5
96602.5
96450.5
96529
96826.5
96743.2
160065
160011
159968
96846.9
96843.3
96548.1
95533.6
97151.2
95772.2
152683
158029
154895
95085.9
97052.6
95832.1
95319.9
97117.9
95617.9
152079
157971
154439
94812.7
97020.5
95685.3
95295
97043.1
95524.6
152554
158071
154567
94722.1
96960.6
95605.9
97062.1
97312.6
97166.5
160037
160078
160092
97192.4
97276.6
97069.4
97176.6
97381.8
97276.4
160057
160142
160160
97285.7
97336.6
97106.5
97263.3
97369.3
97301.8
160077
160183
160191
97316
97319.7
97137
96897.7
96723.4
96576.9
159864
159725
159519
97351.8
97525.3
98166.7
96844
96511.8
96178
159825
159622
159315
97016.6
97001.1
97470.2
96830.2
96442.9
96057.5
159833
159565
159197
96923.2
96791.7
96767.7
98487.6
97826.4
97597.5
159871
159953
159949
96748.7
96916.2
97049.8
97721.9
97244.1
97237
159623
159882
159936
96345.4
96687.1
96972.5
96883.4
96920
97110.9
159487
159810
159927
96228.1
96628.1
96963.8
98929
99139.8
99019.6
159643
159649
159712
99082.4
98278.4
97178.8
98549.2
98694.2
98418.2
159253
159245
159326
98087.8
97104.6
96391.7
98083.5
98199.5
97739.3
158592
158722
158795
96930.6
96179.2
95800.6
95309.8
95191.6
95138.5
154426
154398
154221
92554.9
92499.9
92419.3
90137.8
90061.3
90066.9
146719
146693
146641
88777
88747.1
88662.4
84166.3
84149.6
84131.6
134917
134821
134724
86657.9
86813.2
87007.2
97031.7
98141.3
98953.3
159382
159319
159347
98811.7
98951.2
98680.2
96271.8
97001
97987.6
158991
158879
158991
98209.6
98451.9
98283.9
95730.1
96135.1
96859.7
158520
158452
158451
97535.9
97947.7
97867.3
92454.4
92534.5
92577.1
154432
154644
154662
95457.4
95554.3
95629.5
88634.6
88731
88767
146684
146742
146772
90250.9
90245.8
90313.6
87035.1
86854.5
86700.5
134827
134919
135001
84235.6
84250.6
84264.7
)
;

boundaryField
{
    fuel
    {
        type            zeroGradient;
    }
    primary_air
    {
        type            zeroGradient;
    }
    Secondary_air_RHS
    {
        type            zeroGradient;
    }
    Secondary_air_LHS
    {
        type            zeroGradient;
    }
    outlet
    {
        type            totalPressure;
        rho             rho;
        psi             none;
        gamma           1;
        p0              uniform 100000;
        value           nonuniform List<scalar> 
18
(
99995.7
100000
86564.4
93527.9
100000
86477.3
87914.9
100000
86609.7
86455.5
100000
87807.5
86241.6
100000
93543.4
86395.4
100000
99997.3
)
;
    }
    stove_body
    {
        type            zeroGradient;
    }
    frontAndBack
    {
        type            empty;
    }
}


// ************************************************************************* //
