/*--------------------------------*- C++ -*----------------------------------*\
  =========                 |
  \\      /  F ield         | OpenFOAM: The Open Source CFD Toolbox
   \\    /   O peration     | Website:  https://openfoam.org
    \\  /    A nd           | Version:  6
     \\/     M anipulation  |
\*---------------------------------------------------------------------------*/
FoamFile
{
    version     2.0;
    format      ascii;
    class       volScalarField;
    location    "4.5";
    object      O2;
}
// * * * * * * * * * * * * * * * * * * * * * * * * * * * * * * * * * * * * * //

dimensions      [0 0 0 0 0 0 0];

internalField   nonuniform List<scalar> 
297
(
0
0
0
0
0
0
0
0
0
0
0
0
0
0
0
0
0
0
0
0
0
0
0
0
0
0
0
0.127002
0.048764
0.126218
0.186959
0.171503
0.185317
0.127228
0.0486845
0.126709
0.0320995
0.000344253
0.0322482
0.113211
0.116045
0.112908
0.0321027
0.000301536
0.0321189
0
0
0
0.075717
0.0194983
0.0754141
0
0
0
0
1.51315e-11
0
0
0
0
0
0
0
3.69754e-17
3.96254e-15
1.89702e-17
7.46549e-19
2.75982e-14
5.16047e-19
2.35238e-15
4.86512e-15
2.39152e-15
2.68136e-15
2.13738e-15
2.77501e-15
6.07194e-15
1.96274e-14
6.19252e-15
2.71143e-15
1.96136e-15
2.75786e-15
0
0
0
0.0296516
2.22223e-07
0.0293375
0
0
0
0
0
0
0.0126089
0
0.0121763
0
0
0
0
0
0
0
0
0
0
0
0
1.95548e-15
1.38809e-15
1.99123e-15
5.86707e-15
1.06789e-15
5.95045e-15
1.97539e-15
1.39578e-15
1.98784e-15
1.05472e-15
9.73427e-16
1.0596e-15
5.28466e-15
1.06902e-15
5.44619e-15
1.01803e-15
1.01912e-15
1.05707e-15
8.72935e-16
8.88127e-16
9.01409e-16
1.43919e-15
1.09239e-15
1.34711e-15
8.50849e-16
8.89762e-16
9.14636e-16
1.14804e-15
6.53062e-16
2.35434e-16
5.94707e-15
5.94892e-15
5.95315e-15
1.14867e-15
6.53362e-16
2.35323e-16
1.07311e-15
2.91791e-16
1.70079e-16
4.50021e-15
4.55074e-15
5.36056e-15
1.06591e-15
2.90617e-16
1.69224e-16
8.85008e-16
2.77497e-16
1.9543e-16
1.27682e-15
1.16564e-15
3.17749e-15
8.98717e-16
2.77578e-16
1.94687e-16
3.39808e-16
5.4291e-16
1.13375e-15
5.87156e-15
5.86864e-15
5.86577e-15
2.50599e-16
4.58607e-16
1.15361e-15
1.80176e-16
2.90335e-16
1.0479e-15
5.2685e-15
4.44287e-15
4.39447e-15
1.56323e-16
2.70096e-16
1.05168e-15
2.2926e-16
2.90083e-16
8.46318e-16
2.96442e-15
1.1429e-15
1.33969e-15
1.78758e-16
2.49905e-16
8.06825e-16
1.27111e-18
2.07505e-17
2.12965e-17
3.40658e-18
3.41157e-18
2.02679e-15
1.43493e-18
2.49871e-17
2.52051e-17
3.7379e-18
5.57274e-17
6.93639e-17
3.89496e-18
4.54991e-18
3.27258e-15
4.12085e-18
6.65669e-17
7.64357e-17
3.75824e-18
1.00909e-16
2.1099e-16
4.07672e-18
1.37398e-15
3.22333e-15
4.11938e-18
1.21333e-16
1.7324e-16
3.75625e-18
1.84567e-17
1.08276e-16
4.06496e-18
6.08111e-16
2.03229e-15
4.11719e-18
1.29271e-17
8.74653e-17
4.28083e-18
1.98616e-17
4.29312e-17
3.68396e-17
4.96782e-16
1.35571e-15
4.43023e-18
1.37472e-17
3.46192e-17
2.92576e-22
2.12867e-21
4.14513e-21
3.77759e-17
2.4378e-16
5.48178e-16
5.37304e-22
2.1123e-21
4.12272e-21
2.21915e-17
2.09968e-17
4.17028e-18
2.07629e-15
4.54098e-18
4.44689e-18
2.2219e-17
2.20149e-17
4.55983e-18
7.1611e-17
5.92141e-17
4.17297e-18
3.33744e-15
4.96536e-18
4.47307e-18
7.05462e-17
5.70295e-17
4.55985e-18
2.02621e-16
1.0484e-16
4.17322e-18
3.27454e-15
1.39167e-15
4.48695e-18
2.06423e-16
1.03093e-16
4.55792e-18
1.01632e-16
1.59064e-17
4.17306e-18
1.74906e-15
5.29618e-16
4.45939e-18
1.04799e-16
1.60714e-17
4.55645e-18
4.01415e-17
1.81298e-17
4.18271e-18
1.38641e-15
4.56547e-16
3.59681e-17
4.15337e-17
1.82583e-17
4.56444e-18
4.42325e-21
2.06398e-21
2.82671e-22
5.85072e-16
2.26208e-16
3.58026e-17
4.42742e-21
2.06488e-21
5.248e-22
)
;

boundaryField
{
    fuel
    {
        type            fixedValue;
        value           uniform 0;
    }
    primary_air
    {
        type            fixedValue;
        value           uniform 0.23;
    }
    Secondary_air_RHS
    {
        type            fixedValue;
        value           uniform 0.23;
    }
    Secondary_air_LHS
    {
        type            fixedValue;
        value           uniform 0.23;
    }
    outlet
    {
        type            inletOutlet;
        inletValue      uniform 0;
        value           nonuniform List<scalar> 
18
(
0
5.85072e-16
0
0
2.26208e-16
0
0
3.58026e-17
0
0
3.77759e-17
0
0
2.4378e-16
0
0
5.48178e-16
0
)
;
    }
    stove_body
    {
        type            fixedValue;
        value           uniform 0;
    }
    frontAndBack
    {
        type            empty;
    }
}


// ************************************************************************* //
