/*--------------------------------*- C++ -*----------------------------------*\
  =========                 |
  \\      /  F ield         | OpenFOAM: The Open Source CFD Toolbox
   \\    /   O peration     | Website:  https://openfoam.org
    \\  /    A nd           | Version:  6
     \\/     M anipulation  |
\*---------------------------------------------------------------------------*/
FoamFile
{
    version     2.0;
    format      ascii;
    class       volScalarField;
    location    "4.5";
    object      p;
}
// * * * * * * * * * * * * * * * * * * * * * * * * * * * * * * * * * * * * * //

dimensions      [1 -1 -2 0 0 0 0];

internalField   nonuniform List<scalar> 
297
(
110562
110562
110562
181378
181378
181378
110562
110562
110562
110562
110562
110562
181378
181378
181378
110562
110562
110562
110562
110562
110562
181379
181379
181379
110562
110562
110562
97264.2
97284.7
97265.1
159758
159744
159758
97264.5
97285
97265
97218
97238.6
97219.3
159558
159591
159557
97218.3
97237.1
97218.7
97116.8
97254.6
97123.3
158211
158961
158214
97118.8
97252.4
97121.7
97023.1
97146.1
97020.3
159420
159171
159416
97023
97146.9
97021.7
96987.6
97100
96983.1
159435
159400
159433
96986.8
97100.4
96984.9
96892.3
97088.1
96886.1
159212
159290
159209
96890.3
97087.6
96887.5
96761
97360
96759.3
155515
158403
155512
96760.4
97359.6
96759.7
96696.6
97349.8
96693.7
155220
158483
155216
96696.1
97351.2
96694.4
96662.7
97323.4
96659.2
155491
158667
155487
96662.7
97327.9
96660.2
97337.5
97397.8
97334.7
159243
159292
159243
97337.3
97398.2
97337.6
97430.9
97463.5
97429
159329
159311
159329
97431.1
97464.1
97432.3
97473.1
97478.4
97472.2
159375
159346
159375
97473.6
97479
97475.4
97480.7
97381.4
97316.9
159020
159162
159349
97487.2
97388.6
97323.2
97395.5
97246.4
97127.8
159163
159206
159346
97402.2
97253.8
97134.1
97359.1
97206.5
97097.6
159222
159183
159176
97365.7
97213.9
97103.1
97317
97382.3
97482
159344
159159
159018
97318.1
97383.7
97483.5
97129.2
97248.3
97396.9
159342
159204
159162
97129.7
97248.6
97397.7
97098.8
97208.5
97360.3
159173
159181
159222
97099.6
97208.7
97360.9
98599.7
98229.4
97629.8
159380
159352
159386
98604
98233.1
97632
98186.6
97707.5
97289.2
159212
159119
159248
98191.3
97711.1
97291
97764.6
97317.5
97041.2
158982
158792
158875
97769.2
97320.6
97043
96320.7
96228.9
96209.5
157528
157430
157370
96322.1
96230.1
96210.7
94774.8
94835.1
94907.2
153352
153340
153339
94772.1
94832.6
94904.9
91447.3
91522.4
91592.2
141603
141627
141658
91442.7
91517.7
91587.6
97632.2
98234.6
98606
159391
159357
159384
97636.7
98238.3
98609.8
97290.1
97711.4
98191.9
159251
159122
159214
97293.7
97713
98193.5
97041.2
97319.6
97768.8
158874
158792
158981
97042.5
97318.2
97766.6
96208.1
96227
96318.9
157358
157417
157515
96196.8
96214.5
96306.1
94902.4
94830.7
94770.9
153336
153337
153351
94912.5
94842.6
94783.1
91589.2
91519.1
91443.8
141663
141632
141608
91589.5
91519.6
91444.6
)
;

boundaryField
{
    fuel
    {
        type            zeroGradient;
    }
    primary_air
    {
        type            zeroGradient;
    }
    Secondary_air_RHS
    {
        type            zeroGradient;
    }
    Secondary_air_LHS
    {
        type            zeroGradient;
    }
    outlet
    {
        type            totalPressure;
        rho             rho;
        psi             none;
        gamma           1;
        p0              uniform 100000;
        value           nonuniform List<scalar> 
18
(
93092.5
100000
93093.4
92750.5
100000
92752.8
91822.3
100000
91840.5
91824
100000
91814.7
92758.3
100000
92757.2
93098.5
100000
93095.2
)
;
    }
    stove_body
    {
        type            zeroGradient;
    }
    frontAndBack
    {
        type            empty;
    }
}


// ************************************************************************* //
