/*--------------------------------*- C++ -*----------------------------------*\
  =========                 |
  \\      /  F ield         | OpenFOAM: The Open Source CFD Toolbox
   \\    /   O peration     | Website:  https://openfoam.org
    \\  /    A nd           | Version:  6
     \\/     M anipulation  |
\*---------------------------------------------------------------------------*/
FoamFile
{
    version     2.0;
    format      ascii;
    class       surfaceScalarField;
    location    "4.5";
    object      phi;
}
// * * * * * * * * * * * * * * * * * * * * * * * * * * * * * * * * * * * * * //

dimensions      [1 0 -1 0 0 0 0];

internalField   nonuniform List<scalar> 
675
(
8.53751e-07
-0.000212328
0.000328565
-7.5602e-07
-0.000215416
0.000334098
-0.000212007
0.000328343
5.7303e-06
0.000212329
-0.00023829
-6.70382e-06
0.000215417
-0.000226357
0.000212008
-0.00023862
8.53683e-07
0.000328567
-7.56025e-07
0.0003341
0.000328345
4.06888e-07
1.36225e-05
0.000314549
-2.70247e-07
1.65473e-05
0.000318222
1.37871e-05
0.000314298
-2.16398e-06
-1.36201e-05
-0.000208826
1.96666e-06
-1.65446e-05
-0.000197526
-1.37844e-05
-0.000209027
4.0684e-07
0.000314553
-2.70172e-07
0.000318226
0.000314303
-2.02567e-06
0.000199505
2.34024e-06
0.000196755
0.000199568
-1.84319e-06
-0.000199509
1.92009e-06
-0.000196759
-0.000199572
-2.02568e-06
2.34043e-06
-0.00618042
0.00600818
0.00337057
0.00623377
0.00276603
-0.0119812
0.00600966
0.00342167
0.000826284
-0.00600327
0.0164385
-0.00082312
-0.00273655
0.0124044
-0.0060028
0.0164415
-0.0062113
0.00340638
0.00624796
-0.0119977
0.0034427
-0.000167262
0.00852018
-0.00498489
-0.000169016
0.00435576
-0.0163765
0.00853238
-0.00528211
-0.00168969
-0.0085312
0.0351777
0.00144075
-0.00447224
0.0180978
-0.00852978
0.0349428
-0.000113171
-0.00501073
-0.000149718
-0.0163922
-0.00523594
0.00423395
0.0168999
-0.0261227
-0.00366535
0.00843307
-0.0169811
0.0170779
-0.0260301
-0.0364749
-0.0169556
0.105507
0.036431
-0.00851863
-0.0378599
-0.0170161
0.105466
0.00410866
-0.0260724
-0.00384111
-0.0168915
-0.0260906
-0.00411155
-0.00895548
-0.0211066
0.0341726
0.00422904
0.00800795
-0.0307839
0.0144192
-0.00893946
-0.0208876
0.0340561
0.0193049
0.00893981
0.0429685
-0.0801731
-0.0193965
-0.00801292
0.00278609
0.0519339
0.00894212
0.0429263
-0.0802069
-0.00415999
-0.0210191
0.0341155
0.00420433
-0.0307738
0.0144061
-0.0209728
0.0341174
0.00153316
-0.00578922
-0.0168567
-0.0014757
-0.0027708
-0.0250056
-0.00573843
-0.0166249
0.00882037
0.00575409
0.0225983
-0.00883213
0.00275836
0.0149073
0.00575515
0.0226019
0.00151045
-0.0167786
-0.00149258
-0.0250135
-0.0167093
0.00243869
-0.00288158
-0.0164133
-0.00295313
-0.00100307
-0.0186079
-0.00309688
-0.0164757
-0.0101202
0.00294993
0.0268891
0.0104104
0.00100253
-0.00762614
0.00303089
0.0268871
0.00261606
-0.0164411
-0.00277855
-0.0186153
-0.0164586
0.000699004
-0.00245281
-0.0286131
-0.000661968
-0.00183212
-0.0137873
-0.0024148
-0.0285215
-0.00327661
0.00244243
0.0970698
0.0032722
0.00174878
-0.0479899
0.00242653
0.0970782
0.000692581
-0.0285638
-0.000674633
-0.0137741
-0.0285798
0.000193788
-0.00128163
-0.0317662
-0.000166441
-0.0010775
-0.0123428
-0.00126358
-0.031665
-0.00151198
0.00127794
0.0892163
0.00150739
0.00104333
-0.0531272
0.00126763
0.0892488
0.000189162
-0.0317139
-0.000175246
-0.012372
-0.0317262
9.70893e-05
-0.00192889
-7.55654e-05
0.00225238
-0.00192253
-0.00162916
0.00192561
0.00162341
-0.0021962
0.00192529
8.87709e-05
-7.82307e-05
0.00452561
-0.00352707
-0.0047988
-0.0126131
-0.00462894
-0.000945348
-0.00850753
-0.00358696
-0.0048663
-0.0126501
-0.00129047
0.00354554
0.00945641
0.0116506
0.00133355
0.000946269
-0.0121421
0.00357081
0.00934989
0.0117123
0.00455829
-0.00481821
-0.0126354
-0.00460044
-0.00851132
-0.00484676
-0.0126433
0.00436858
0.000168887
0.00101747
-0.0103536
-0.00449974
0.00164437
-0.00128285
0.000150877
0.000882297
-0.0103977
-0.000827556
-0.000165807
0.000737093
0.00988134
0.00085067
-0.00164381
-0.0105329
-0.000154835
0.00059233
0.00991283
0.00439712
0.000994257
-0.0103753
-0.00447838
-0.001281
0.000910635
-0.010393
0.00226542
0.00242952
-0.00367752
-0.00214099
0.00312407
0.00244112
-0.00369809
0.00218902
-0.00243363
0.00341108
-0.00209513
-0.00312566
-0.00244029
0.00337719
0.00224293
-0.00368232
-0.00216533
-0.00369764
-0.0122838
-0.00190195
0.00153583
-0.0131283
-0.000737441
0.00158104
-0.00078785
0.00141522
-0.0137563
0.00798271
0.00189871
-7.10573e-05
0.00649578
0.000736546
1.34796e-05
0.000788161
0.00345422
0.00146651
-0.0122823
0.00153756
-0.0131279
0.00158276
0.00141692
-0.0137551
-0.0100705
-0.00188169
0.00309071
-0.0103089
-0.00044656
0.00226558
-0.000162667
0.000825379
-0.00955688
0.00898371
0.00187841
-0.00290199
0.00747087
0.000444686
0.000635528
0.000163011
0.00620318
0.00439739
-0.0100708
0.00309358
-0.0103108
0.00226803
0.000831794
-0.00956084
-0.000924231
0.000317677
0.000508977
0.000832275
0.000480386
0.000853363
0.00111156
-0.000318416
0.00341236
-0.000832631
-0.000477687
0.0105758
-0.000922766
0.000513277
0.00086941
0.0130971
-0.000789776
0.00141067
-0.0137184
0.0122577
-0.000733131
0.00157219
-0.0018933
0.00153767
-0.00644473
0.000786322
0.00341431
0.00145401
-0.00790324
0.000732105
-6.98439e-06
0.00189851
-4.45766e-05
0.0131231
0.00140586
-0.0137428
0.0122797
0.00157548
0.00154284
0.0102822
-0.000163236
0.000828752
-0.00953737
0.0100393
-0.000443015
0.00225767
-0.00187365
0.00309686
-0.00745437
0.000157148
0.00616623
0.00438168
-0.00895705
0.000441739
0.000610687
0.00187908
-0.00287315
0.0102969
0.000815681
-0.00954971
0.0100554
0.00225862
0.00310205
-0.000529151
0.000475831
0.000881784
0.000898463
0.000829808
0.000317649
-0.00344342
-0.000480363
0.0105656
-0.00117325
-0.00082989
-0.000317773
-0.000530687
0.00086589
0.000898008
0.00845422
0.000575048
-0.00902963
0.0138063
-0.000764345
-0.00458811
0.000189921
-0.000102394
0.00603965
-0.000576113
-0.00488892
0.0023866
0.000757782
0.0021306
-0.000190254
0.00422042
0.0084629
-0.00903917
0.0138241
-0.00460362
-0.000109059
0.00607148
0.000446339
-0.0155475
0.00926949
-0.000413511
-0.00737274
0.000527367
-0.00089788
0.00494048
-0.000452218
-0.00893111
3.28551e-05
0.000413488
0.00621083
-0.000528233
0.00969024
0.0060711
-0.0155627
0.00927314
-0.00739235
-0.00091401
0.00550573
0.00275753
-0.0238109
0.00494178
-0.00100968
-0.0057992
-8.79789e-05
0.00501354
0.00186861
-0.00276806
-0.00527436
-0.00598497
0.00101995
0.0120345
8.29073e-05
0.0140997
0.00550246
-0.0238334
0.0049636
-0.00583371
0.00499827
0.00242388
0.00776253
-0.0339976
0.00571836
0.0034398
-0.0125337
0.00291126
0.00782039
0.0102114
-0.0077752
5.14577e-05
0.0106214
-0.00344529
0.018509
-0.0029224
0.0305543
0.00240288
-0.0340119
0.00573394
-0.0126105
0.00780942
-0.0141752
0.00994763
-0.0297702
-0.0132271
0.00658112
-0.0200631
0.00648538
-0.0118924
-0.00140843
-0.00995313
0.0213603
-0.00481193
-0.0065685
0.0350618
-0.0064779
0.0387052
-0.0141714
-0.0297939
-0.0132427
-0.0201079
-0.0119114
-0.00750969
0.021809
-0.00672489
0.0209663
0.0223249
-0.00809492
-0.0217996
-0.0082358
-0.0209377
-0.0223107
-0.00750176
-0.00672957
-0.0138386
0.000189624
-0.000107141
-0.00847185
-0.000756104
-0.00461023
0.00057647
-0.00904782
-0.0023857
-0.000190507
0.00423333
-0.00605198
0.000761437
0.00215047
-0.000576966
-0.00489625
-0.0138402
-0.000103427
-0.00847358
-0.00460227
-0.00904705
-0.00927991
0.000527929
-0.000912081
-0.0060712
-0.00041441
-0.0074047
0.000451454
-0.0155727
-4.15407e-05
-0.000528414
0.00973066
-0.00495404
0.000413956
0.0062373
-0.000448215
-0.00894812
-0.00928845
-0.000901677
-0.00608068
-0.00739274
-0.0155723
-0.00497728
-8.22464e-05
0.00500051
-0.00550121
-0.00102492
-0.00585681
0.00277034
-0.0238486
0.00597531
8.55478e-05
0.0141633
-0.00188442
0.00101517
0.0120604
-0.00276543
-0.0052941
-0.00496125
0.00501739
-0.00551013
-0.00582546
-0.0238501
-0.00575972
0.00294456
0.00781376
-0.0024186
0.00343001
-0.0126277
0.00777921
-0.0340557
-0.0105932
-0.00293739
0.0306599
-0.010195
-0.00342714
0.018526
-0.00776671
7.60968e-05
-0.00571519
0.00782664
-0.00238218
-0.0125704
-0.0340582
0.0132457
0.00649326
-0.0119122
0.0141601
0.00658321
-0.0201143
0.00994186
-0.0298106
0.00488587
-0.00648541
0.0387303
0.00154539
-0.00658125
0.0350779
-0.00991529
0.0214317
0.0132168
-0.0119104
0.0141318
-0.0200882
-0.0297818
0.00675235
0.022297
0.00751918
0.0209566
0.0217857
0.00822886
-0.0223011
0.00813496
-0.0209694
-0.0217693
0.00674463
0.00751743
)
;

boundaryField
{
    fuel
    {
        type            calculated;
        value           nonuniform List<scalar> 
36
(
0.000117079
0.00019207
0.000117079
0.000117079
0.00019207
0.000117079
0.000117079
0.00019207
0.000117079
-0.000117079
-0.000192069
-0.000117079
-0.000117079
-0.000192069
-0.000117079
-0.000117079
-0.000192069
-0.000117079
0
0
0
0
0
0
0
0
0
0
0
0
0
0
0
0
0
0
)
;
    }
    primary_air
    {
        type            calculated;
        value           nonuniform List<scalar> 9(-0.00319843 -0.00525348 -0.00319844 -0.0031991 -0.00525301 -0.00319911 -0.00319846 -0.00525348 -0.00319846);
    }
    Secondary_air_RHS
    {
        type            calculated;
        value           nonuniform List<scalar> 9(0.00424243 0.00681844 0.00424245 0.00423956 0.00680547 0.00423959 0.00423805 0.00681736 0.00423809);
    }
    Secondary_air_LHS
    {
        type            calculated;
        value           nonuniform List<scalar> 9(0.00424251 0.00681859 0.00424248 0.00423969 0.00680565 0.00423966 0.0042382 0.00681755 0.0042382);
    }
    outlet
    {
        type            calculated;
        value           nonuniform List<scalar> 
18
(
-0.0409581
0.0751011
-0.0409562
-0.0418341
0.0771413
-0.0418291
-0.044074
0.0731415
-0.0440325
-0.0440696
0.0730637
-0.0440918
-0.0418143
0.0771065
-0.0418178
-0.0409422
0.0751049
-0.0409516
)
;
    }
    stove_body
    {
        type            calculated;
        value           uniform 0;
    }
    frontAndBack
    {
        type            empty;
        value           nonuniform 0();
    }
}


// ************************************************************************* //
