/*--------------------------------*- C++ -*----------------------------------*\
  =========                 |
  \\      /  F ield         | OpenFOAM: The Open Source CFD Toolbox
   \\    /   O peration     | Website:  https://openfoam.org
    \\  /    A nd           | Version:  6
     \\/     M anipulation  |
\*---------------------------------------------------------------------------*/
FoamFile
{
    version     2.0;
    format      ascii;
    class       volVectorField;
    location    "4.5";
    object      U;
}
// * * * * * * * * * * * * * * * * * * * * * * * * * * * * * * * * * * * * * //

dimensions      [0 1 -1 0 0 0 0];

internalField   nonuniform List<vector> 
297
(
(118.297 0.0113696 0.262675)
(118.267 -0.000323807 0.26822)
(118.295 -0.0104533 0.262718)
(-2.88129e-07 0.0915052 -0.556102)
(-2.88281e-07 -0.0024085 -0.560095)
(-2.88015e-07 -0.0913362 -0.555385)
(-118.297 0.0113695 0.262676)
(-118.267 -0.00032398 0.268221)
(-118.295 -0.0104535 0.262719)
(118.168 -0.00582338 0.602076)
(118.174 -2.86897e-05 0.612939)
(118.165 0.00702073 0.60156)
(-2.44882e-07 -0.000181739 -0.311539)
(-2.43818e-07 -0.000972204 -0.296372)
(-2.45014e-07 0.00285078 -0.31154)
(-118.168 -0.0058235 0.60208)
(-118.174 -2.86322e-05 0.612943)
(-118.165 0.00702078 0.601565)
(111.068 -0.0373265 0.930632)
(111.587 0.00029872 0.942482)
(111.064 0.0394777 0.929951)
(-2.41424e-07 -0.0108816 0.520415)
(-2.40889e-07 -0.000656327 0.535576)
(-2.41607e-07 0.0136174 0.51957)
(-111.068 -0.0373258 0.930632)
(-111.587 0.000299199 0.942483)
(-111.063 0.0394772 0.929953)
(79.4857 -3.05355 -5.42858)
(81.5714 0.0260482 -8.94166)
(79.4927 3.10968 -5.47396)
(6.1403e-05 -1.50909 2.96665)
(4.43e-05 -0.0105505 3.11583)
(-1.95423e-05 1.53984 2.98864)
(-79.4986 -3.07503 -5.50868)
(-81.6103 0.0118036 -8.97243)
(-79.5032 3.12076 -5.52401)
(83.3044 3.85571 12.0567)
(82.9577 0.115833 -14.9879)
(83.3784 -4.39924 11.8027)
(4.61008e-05 2.34244 29.3088)
(-0.000280373 0.0679116 16.7953)
(-0.000104906 -2.67588 29.2525)
(-83.3335 3.93814 12.0635)
(-82.8033 0.0614721 -15.0282)
(-83.3837 -4.33007 11.9116)
(83.661 15.4572 -7.24248)
(82.4299 0.244998 -15.9396)
(83.7312 -15.2204 -6.95451)
(0.000387598 -1.48817 36.1025)
(-0.000432041 0.0302223 0.342854)
(-0.000321819 1.43637 36.0922)
(-83.6791 15.377 -7.13298)
(-82.3106 0.133661 -15.9685)
(-83.7218 -15.3061 -7.1245)
(81.9801 5.3692 -27.9409)
(81.5993 -0.167044 -18.971)
(82.0211 -4.97782 -27.8479)
(-1.91979e-05 3.03924 -1.22672)
(0.00014341 -0.0419315 -10.0613)
(0.000276049 -3.08154 -1.20131)
(-81.9934 5.23613 -27.8941)
(-81.5877 -0.0565748 -18.9733)
(-82.0167 -5.10032 -27.9021)
(82.0213 11.4649 -18.6065)
(81.3201 -0.230485 -24.7597)
(82.0691 -11.058 -18.4286)
(-0.000164793 3.12652 2.53145)
(9.49926e-05 0.00934948 1.16089)
(0.000360338 -3.20444 2.52936)
(-82.0293 11.3372 -18.5438)
(-81.3202 -0.0776026 -24.7681)
(-82.054 -11.1962 -18.4991)
(81.5521 18.0901 -26.595)
(80.9111 -0.437239 -26.3129)
(81.5894 -17.8732 -26.5161)
(-0.000399807 0.325698 11.271)
(-8.44186e-05 0.0905108 3.04029)
(0.00027878 -0.300444 11.2567)
(-81.5749 18.038 -26.5833)
(-80.9119 -0.148705 -26.3244)
(-81.5866 -17.9441 -26.5544)
(76.3736 18.9318 -22.7295)
(78.0039 0.0734341 -12.7915)
(76.4894 -18.503 -22.6753)
(-0.000134351 -0.483022 45.6618)
(-8.31974e-05 0.00617045 -24.8271)
(8.89644e-05 0.433938 45.6854)
(-76.4039 18.7912 -22.7024)
(-75.6691 0.0570887 -12.7499)
(-76.4597 -18.6246 -22.7113)
(74.2506 11.3533 -27.5019)
(79.0506 -0.0113264 -10.3314)
(74.1545 -10.9008 -27.3893)
(-9.85861e-05 0.229462 49.2902)
(0.000264352 0.00193919 -23.6895)
(0.000119836 -0.278234 49.3294)
(-74.2779 11.2101 -27.4594)
(-77.8781 0.0260747 -10.3724)
(-74.1296 -11.0318 -27.445)
(69.6026 9.08919 -27.3187)
(80.5568 -0.0399331 -11.7843)
(69.6773 -8.68083 -27.2194)
(-4.21583e-06 0.789919 47.9711)
(0.000947435 -0.00210107 -19.8708)
(0.000162049 -0.838691 48.015)
(-69.6225 8.95183 -27.2759)
(-82.324 0.0104684 -11.802)
(-69.6418 -8.80395 -27.2705)
(79.3055 29.9226 -6.70194)
(79.9491 -0.274771 -9.08844)
(79.3073 -29.9995 -6.78607)
(-5.0847e-05 -7.81488 11.3263)
(8.34105e-05 0.0163539 -6.64593)
(0.000584329 7.95141 11.3091)
(-79.3184 29.9796 -6.73447)
(-79.9486 -0.124885 -9.09276)
(-79.3158 -29.9855 -6.75928)
(79.9947 25.3754 -1.71664)
(80.324 -0.344305 -4.2572)
(79.9978 -25.4844 -1.75118)
(3.46655e-05 -9.43181 3.0452)
(0.000111929 0.00453546 -5.16697)
(0.000640616 9.5441 2.99408)
(-79.9775 25.4248 -1.71845)
(-80.3602 -0.230084 -4.25767)
(-80.0032 -25.4697 -1.74391)
(80.5539 5.9008 2.53508)
(80.7225 0.208237 -1.26353)
(80.5807 -5.68493 2.43935)
(9.87383e-05 -1.69319 -1.70461)
(0.000121147 0.244655 -1.29513)
(0.000628304 1.54875 -1.84857)
(-80.5413 5.84348 2.52258)
(-80.7249 0.126667 -1.2648)
(-80.5898 -5.73161 2.45694)
(77.7244 -31.823 -1.3228)
(78.9281 -39.301 -5.22765)
(79.0244 -41.6579 -7.37811)
(0.00128545 17.8778 9.05476)
(0.00142615 15.0225 7.93616)
(0.00125112 12.6686 10.3421)
(-77.7326 -31.8122 -1.31232)
(-78.9448 -39.303 -5.21227)
(-79.0449 -41.6622 -7.36013)
(78.0038 -26.3877 4.43859)
(79.3544 -32.0831 3.59257)
(79.9404 -33.387 0.71938)
(0.00130186 16.3917 -3.8893)
(0.00145665 15.1909 -4.75623)
(0.00121576 15.7419 2.8589)
(-78.0056 -26.3798 4.44095)
(-79.3662 -32.0879 3.59415)
(-79.954 -33.3933 0.720807)
(80.1283 -7.89365 8.59493)
(80.4546 -4.29882 9.3426)
(80.4189 6.81226 10.6853)
(0.00128788 2.36636 -4.34167)
(0.00143115 2.16511 3.37246)
(0.00105169 16.6365 6.95679)
(-80.1379 -7.88028 8.59336)
(-80.4591 -4.28534 9.33365)
(-80.42 6.77417 10.6785)
(79.0918 41.548 -7.33806)
(78.8627 39.2067 -5.21175)
(77.7222 31.7324 -1.30957)
(0.000213217 -12.6086 10.3257)
(0.000274314 -14.8895 7.94656)
(0.000299403 -17.7817 9.10123)
(-79.0333 41.6109 -7.38117)
(-78.821 39.2707 -5.24627)
(-77.7399 31.789 -1.32246)
(79.9406 33.2946 0.71542)
(79.353 31.9906 3.57539)
(77.9988 26.2877 4.43603)
(8.31361e-05 -15.7024 2.81593)
(7.06533e-05 -15.1533 -4.76298)
(0.000147453 -16.3495 -3.84269)
(-79.9248 33.3448 0.693335)
(-79.3423 32.0466 3.5756)
(-77.9934 26.3371 4.44659)
(80.4281 -6.78319 10.6432)
(80.4465 4.20451 9.29522)
(80.1037 7.79127 8.59292)
(0.000135851 -16.6104 6.88064)
(3.37533e-05 -2.2465 3.30406)
(0.000115549 -2.44388 -4.27421)
(-80.3891 -6.8611 10.6723)
(-80.4276 4.2329 9.33054)
(-80.0903 7.81225 8.61754)
(77.6915 18.2551 -22.1701)
(76.797 23.2194 -15.7937)
(79.1088 37.8256 -12.7505)
(0.000821131 9.40122 -7.51715)
(0.000718733 7.70002 -0.48311)
(0.000430137 5.65814 6.26153)
(-77.7161 18.2869 -22.2085)
(-76.8178 23.2547 -15.8375)
(-79.124 37.8658 -12.7918)
(78.1813 5.33114 -36.6074)
(78.0541 14.0653 -21.7739)
(80.1121 27.4236 -3.33551)
(0.000882888 4.06252 -11.5371)
(0.000692946 6.12718 3.58007)
(0.000350631 1.11293 12.7493)
(-78.2121 5.35392 -36.6222)
(-78.0554 14.0384 -21.8147)
(-80.1155 27.4378 -3.34439)
(81.3509 2.30937 -46.066)
(77.6235 7.75939 -15.9445)
(79.5959 13.6961 4.37692)
(0.000865145 3.45311 -15.4925)
(0.00058894 -4.55507 17.0359)
(0.000323746 -14.3472 17.4478)
(-81.3696 2.32567 -46.078)
(-77.5911 7.71521 -16.0241)
(-79.5808 13.8522 4.32539)
(80.508 -8.35817 -60.9881)
(79.9595 -0.600676 -5.5289)
(79.4092 10.5336 63.5519)
(0.000285869 -7.585 9.74289)
(0.000229453 7.30342 35.8058)
(0.000232626 -2.63194 58.9029)
(-80.5321 -8.3681 -60.9969)
(-79.9126 -0.636845 -5.72941)
(-79.3755 10.5983 63.5365)
(78.7565 -1.59431 -83.6609)
(78.185 -9.28096 -38.8744)
(78.1302 0.0260425 -0.446917)
(-0.00053141 -0.849019 29.6431)
(-0.000505404 -1.18225 66.5738)
(-0.000449776 -1.16994 86.5107)
(-78.7815 -1.58434 -83.729)
(-78.1342 -9.28245 -39.0949)
(-78.1188 0.0351968 -0.545989)
(74.3818 -1.783 -124.444)
(73.9233 -2.89379 -116.527)
(74.1576 -1.51615 -113.549)
(-0.00092311 -1.98091 177.405)
(-0.000929718 -2.9275 186.36)
(-0.000922485 -1.73026 181.916)
(-74.3854 -1.78441 -124.521)
(-73.9221 -2.89324 -116.536)
(-74.16 -1.51745 -113.579)
(79.1206 -37.9049 -12.801)
(76.8146 -23.278 -15.8521)
(77.7095 -18.3068 -22.227)
(0.000890306 -5.65192 6.24951)
(0.000711065 -7.73111 -0.443146)
(0.000723376 -9.42922 -7.51544)
(-79.1342 -37.9258 -12.7847)
(-76.8197 -23.2825 -15.8394)
(-77.7199 -18.3035 -22.2252)
(80.1247 -27.4642 -3.34047)
(78.0604 -14.0313 -21.8466)
(78.2091 -5.36703 -36.6596)
(0.000708244 -1.10994 12.8116)
(0.000317906 -6.16382 3.60936)
(0.000305651 -4.08285 -11.5624)
(-80.1318 -27.4904 -3.34257)
(-78.0681 -14.0808 -21.8347)
(-78.2176 -5.35075 -36.6817)
(79.6051 -13.9196 4.32475)
(77.6017 -7.70326 -16.0824)
(81.3792 -2.34353 -46.1263)
(0.000252446 14.3634 17.5267)
(-0.000278005 4.52152 17.084)
(-0.000411561 -3.47986 -15.5431)
(-79.6059 -13.7971 4.37029)
(-77.618 -7.74817 -16.0129)
(-81.3756 -2.32065 -46.1506)
(79.4014 -10.6334 63.5422)
(79.9458 0.64107 -5.8655)
(80.5074 8.36571 -61.1016)
(-0.00221415 2.64215 58.9275)
(-0.00244333 -7.31655 35.8397)
(-0.00250782 7.59552 9.72963)
(-79.4087 -10.5716 63.6031)
(-79.9584 0.63292 -5.6435)
(-80.5397 8.37924 -61.1067)
(78.1326 -0.055129 -0.500446)
(78.1876 9.29368 -39.0757)
(78.7276 1.58671 -83.8545)
(0.00200361 1.1805 86.5064)
(0.00235721 1.21326 66.6105)
(0.00242403 0.871756 29.7639)
(-78.1314 -0.0472216 -0.471391)
(-78.1849 9.27818 -38.9558)
(-78.6406 1.57906 -83.8387)
(74.1626 1.52234 -113.603)
(73.9305 2.89956 -116.595)
(74.3886 1.78756 -124.459)
(5.81165e-05 1.72884 181.969)
(9.83314e-05 2.93406 186.218)
(0.00015739 1.98963 177.529)
(-74.1617 1.5198 -113.594)
(-73.9316 2.89879 -116.575)
(-74.3792 1.78664 -124.308)
)
;

boundaryField
{
    fuel
    {
        type            fixedValue;
        value           uniform (0 0 0.25);
    }
    primary_air
    {
        type            fixedValue;
        value           uniform (0 0 2.5);
    }
    Secondary_air_RHS
    {
        type            fixedValue;
        value           uniform (0 33.3333 0);
    }
    Secondary_air_LHS
    {
        type            fixedValue;
        value           uniform (0 -33.3333 0);
    }
    outlet
    {
        type            pressureInletOutletVelocity;
        value           nonuniform List<vector> 
18
(
(0 0 -113.603)
(5.81165e-05 1.72884 181.969)
(0 0 -113.594)
(0 0 -116.595)
(9.83314e-05 2.93406 186.218)
(0 0 -116.575)
(0 0 -124.459)
(0.00015739 1.98963 177.529)
(0 0 -124.308)
(0 0 -124.444)
(-0.00092311 -1.98091 177.405)
(0 0 -124.521)
(0 0 -116.527)
(-0.000929718 -2.9275 186.36)
(0 0 -116.536)
(0 0 -113.549)
(-0.000922485 -1.73026 181.916)
(0 0 -113.579)
)
;
    }
    stove_body
    {
        type            noSlip;
    }
    frontAndBack
    {
        type            empty;
    }
}


// ************************************************************************* //
