/*--------------------------------*- C++ -*----------------------------------*\
  =========                 |
  \\      /  F ield         | OpenFOAM: The Open Source CFD Toolbox
   \\    /   O peration     | Website:  https://openfoam.org
    \\  /    A nd           | Version:  6
     \\/     M anipulation  |
\*---------------------------------------------------------------------------*/
FoamFile
{
    version     2.0;
    format      ascii;
    class       volScalarField;
    location    "2.5";
    object      O2;
}
// * * * * * * * * * * * * * * * * * * * * * * * * * * * * * * * * * * * * * //

dimensions      [0 0 0 0 0 0 0];

internalField   nonuniform List<scalar> 
297
(
0
0
0
0
0
0
0
0
0
0
0
0
0
0
0
0
0
0
0
0
0
0
0
0
0
0
0
0.127049
0.0487794
0.126238
0.186942
0.171472
0.185304
0.127169
0.0486556
0.12669
0.0319942
0.000342558
0.0322397
0.113198
0.11607
0.112899
0.0321856
0.000296391
0.0321243
0
0
0
0.0757153
0.0195212
0.075415
0
0
0
0
2.44211e-11
0
0
0
0
0
0
0
3.66514e-17
4.00958e-15
0
4.89195e-19
2.81075e-14
7.92079e-19
2.33211e-15
4.84741e-15
2.37188e-15
2.65972e-15
2.12784e-15
2.74983e-15
6.02355e-15
1.95422e-14
6.14712e-15
2.68717e-15
1.95326e-15
2.73453e-15
0
0
0
0.0296605
2.22511e-07
0.0293498
0
0
0
0
0
0
0.0126242
0
0.0121973
0
0
0
0
0
0
0
0
0
0
0
0
1.93877e-15
1.38721e-15
1.97594e-15
5.81984e-15
1.06464e-15
5.90241e-15
1.95859e-15
1.38796e-15
1.96827e-15
1.05081e-15
9.66775e-16
1.05486e-15
5.26884e-15
1.06109e-15
5.39685e-15
1.01212e-15
1.00194e-15
1.05477e-15
8.71239e-16
8.85766e-16
8.91879e-16
1.38696e-15
1.08239e-15
1.34091e-15
8.48549e-16
8.88228e-16
9.0818e-16
1.13829e-15
6.47939e-16
2.35163e-16
5.89706e-15
5.89667e-15
5.8954e-15
1.13864e-15
6.46321e-16
2.32625e-16
1.07006e-15
2.92649e-16
1.72513e-16
4.46126e-15
4.50856e-15
5.27235e-15
1.05686e-15
2.8853e-16
1.68122e-16
8.67763e-16
2.77614e-16
1.95677e-16
1.27162e-15
1.16543e-15
3.16392e-15
8.89869e-16
2.77527e-16
1.94041e-16
3.36416e-16
5.37708e-16
1.12366e-15
5.81668e-15
5.81606e-15
5.8162e-15
2.48292e-16
4.54353e-16
1.14315e-15
1.78974e-16
2.88488e-16
1.04143e-15
5.22886e-15
4.42283e-15
4.37393e-15
1.55098e-16
2.68147e-16
1.04486e-15
2.29011e-16
2.8871e-16
8.43465e-16
2.95613e-15
1.1327e-15
1.3029e-15
1.7842e-16
2.48683e-16
8.04343e-16
1.29777e-18
2.04566e-17
2.08938e-17
3.41187e-18
3.4201e-18
2.00892e-15
1.43884e-18
2.48626e-17
2.50832e-17
3.75173e-18
5.58392e-17
6.9362e-17
3.90466e-18
4.56221e-18
3.24766e-15
4.13145e-18
6.61656e-17
7.60156e-17
3.75358e-18
1.00483e-16
2.09455e-16
4.08598e-18
1.36488e-15
3.20136e-15
4.12867e-18
1.20558e-16
1.72531e-16
3.75077e-18
1.84466e-17
1.07753e-16
4.07667e-18
6.04114e-16
2.02017e-15
4.12584e-18
1.29608e-17
8.73624e-17
4.27237e-18
1.98092e-17
4.27791e-17
3.6753e-17
4.94751e-16
1.34963e-15
4.43681e-18
1.37592e-17
3.46233e-17
2.91816e-22
2.12225e-21
4.13098e-21
3.76718e-17
2.42896e-16
5.45958e-16
5.36083e-22
2.1061e-21
4.10903e-21
2.46574e-17
2.44348e-17
4.3352e-18
2.06786e-15
4.64087e-18
4.54314e-18
2.22317e-17
2.20389e-17
4.56497e-18
7.57052e-17
6.47523e-17
4.33104e-18
3.29896e-15
5.05937e-18
4.56545e-18
7.04296e-17
5.70776e-17
4.56412e-18
1.83157e-16
1.19595e-16
4.32653e-18
3.26145e-15
1.38505e-15
4.57668e-18
2.04776e-16
1.03128e-16
4.56247e-18
9.60073e-17
1.52701e-17
4.32054e-18
1.79771e-15
4.64902e-16
4.55158e-18
1.03939e-16
1.58807e-17
4.56059e-18
3.85014e-17
1.70307e-17
4.31835e-18
1.37821e-15
4.55419e-16
3.66256e-17
4.11833e-17
1.8027e-17
4.55499e-18
4.34251e-21
2.07971e-21
2.84629e-22
5.75934e-16
2.35752e-16
3.6666e-17
4.34916e-21
2.08255e-21
5.24715e-22
)
;

boundaryField
{
    fuel
    {
        type            fixedValue;
        value           uniform 0;
    }
    primary_air
    {
        type            fixedValue;
        value           uniform 0.23;
    }
    Secondary_air_RHS
    {
        type            fixedValue;
        value           uniform 0.23;
    }
    Secondary_air_LHS
    {
        type            fixedValue;
        value           uniform 0.23;
    }
    outlet
    {
        type            inletOutlet;
        inletValue      uniform 0;
        value           nonuniform List<scalar> 
18
(
0
5.75934e-16
0
0
2.35752e-16
0
0
3.6666e-17
0
0
3.76718e-17
0
0
2.42896e-16
0
0
5.45958e-16
0
)
;
    }
    stove_body
    {
        type            fixedValue;
        value           uniform 0;
    }
    frontAndBack
    {
        type            empty;
    }
}


// ************************************************************************* //
