/*--------------------------------*- C++ -*----------------------------------*\
  =========                 |
  \\      /  F ield         | OpenFOAM: The Open Source CFD Toolbox
   \\    /   O peration     | Website:  https://openfoam.org
    \\  /    A nd           | Version:  6
     \\/     M anipulation  |
\*---------------------------------------------------------------------------*/
FoamFile
{
    version     2.0;
    format      ascii;
    class       volVectorField;
    location    "2.5";
    object      U;
}
// * * * * * * * * * * * * * * * * * * * * * * * * * * * * * * * * * * * * * //

dimensions      [0 1 -1 0 0 0 0];

internalField   nonuniform List<vector> 
297
(
(118.22 0.00620506 0.268259)
(118.392 0.000309989 0.262239)
(118.225 -0.00691768 0.268306)
(-5.53857e-07 0.106152 -0.533627)
(-1.50904e-06 0.00276279 -0.552824)
(2.90773e-06 -0.105398 -0.533927)
(-118.22 0.00620102 0.26824)
(-118.392 0.000302055 0.262221)
(-118.225 -0.00692158 0.268288)
(118.111 -0.0153383 0.597063)
(118.301 -0.000159078 0.609152)
(118.116 0.0141823 0.597624)
(-1.13198e-06 -0.00674665 -0.306061)
(-2.56188e-07 0.00061271 -0.308627)
(1.75525e-06 0.00439468 -0.306037)
(-118.111 -0.0153421 0.597034)
(-118.301 -0.000166871 0.60912)
(-118.116 0.0141783 0.597594)
(111.27 -0.0545558 0.921235)
(111.55 -0.000917099 0.939572)
(111.29 0.052196 0.921982)
(-2.10851e-06 -0.0217494 0.518301)
(8.77923e-07 0.000234137 0.544666)
(9.41214e-07 0.0192821 0.519598)
(-111.27 -0.0545605 0.921223)
(-111.549 -0.000925601 0.939557)
(-111.289 0.0521921 0.921969)
(79.4915 -3.04657 -5.40371)
(81.576 0.027155 -8.93485)
(79.4984 3.11155 -5.4623)
(4.37229e-05 -1.50821 2.96814)
(3.74828e-05 -0.00995418 3.11649)
(-2.02073e-05 1.54022 2.99016)
(-79.5065 -3.08135 -5.5256)
(-81.6184 0.0124128 -8.97986)
(-79.5107 3.12137 -5.53014)
(83.3157 3.85827 12.0365)
(82.963 0.111803 -14.9818)
(83.3834 -4.39759 11.8123)
(2.27512e-05 2.34387 29.3109)
(-0.000271432 0.0684457 16.8)
(-8.60207e-05 -2.67656 29.2559)
(-83.3396 3.93875 12.0827)
(-82.8114 0.0661967 -15.0344)
(-83.392 -4.3305 11.9157)
(83.6707 15.4468 -7.22193)
(82.4366 0.225824 -15.9331)
(83.7374 -15.2281 -6.96623)
(0.000339645 -1.48879 36.1049)
(-0.000398859 0.0299255 0.349658)
(-0.000223351 1.43592 36.0968)
(-83.6863 15.3861 -7.15182)
(-82.319 0.147426 -15.9721)
(-83.7317 -15.3004 -7.10321)
(81.9884 5.35506 -27.9314)
(81.6072 -0.157477 -18.9676)
(82.0287 -4.99166 -27.848)
(-4.58072e-05 3.03952 -1.22329)
(9.18102e-05 -0.0433178 -10.0524)
(0.000191779 -3.08165 -1.19277)
(-82.0008 5.25457 -27.8972)
(-81.5966 -0.0679662 -18.9689)
(-82.026 -5.08453 -27.8879)
(82.0293 11.453 -18.5932)
(81.3287 -0.217607 -24.7556)
(82.0779 -11.0714 -18.4302)
(-0.00028583 3.12715 2.53728)
(1.43224e-05 0.015177 1.16946)
(0.000370877 -3.20409 2.53952)
(-82.0359 11.3572 -18.5487)
(-81.3295 -0.0932238 -24.7619)
(-82.0651 -11.1806 -18.4794)
(81.5593 18.0866 -26.5894)
(80.9237 -0.40633 -26.3103)
(81.6033 -17.8802 -26.5148)
(-0.000387867 0.331313 11.2721)
(9.72313e-05 0.0980776 3.04888)
(0.000507241 -0.295142 11.2764)
(-81.5808 18.0499 -26.5878)
(-80.9222 -0.177487 -26.3204)
(-81.5978 -17.9368 -26.5406)
(76.3853 18.9195 -22.7221)
(78.0121 0.0692325 -12.7875)
(76.4959 -18.521 -22.6722)
(-0.000125138 -0.483857 45.6648)
(-7.83055e-05 0.0064434 -24.8228)
(6.77479e-05 0.434117 45.6915)
(-76.409 18.8125 -22.7018)
(-75.6771 0.0650985 -12.7482)
(-76.4734 -18.6129 -22.6996)
(74.2612 11.3388 -27.4928)
(79.0591 -0.0099566 -10.3272)
(74.1609 -10.9175 -27.389)
(-9.34866e-05 0.228673 49.2935)
(0.000259806 0.00209032 -23.6845)
(9.91024e-05 -0.277892 49.3362)
(-74.2826 11.2306 -27.4626)
(-77.8889 0.0268446 -10.3701)
(-74.1419 -11.0169 -27.4316)
(69.6128 9.07522 -27.3097)
(80.5636 -0.0370038 -11.7804)
(69.683 -8.69604 -27.2187)
(-1.1169e-05 0.789165 47.9747)
(0.000924937 -0.00197306 -19.8649)
(0.000144655 -0.838281 48.0223)
(-69.6266 8.971 -27.2787)
(-82.3336 0.00860246 -11.7991)
(-69.6542 -8.78904 -27.2568)
(79.3112 29.9308 -6.7046)
(79.9634 -0.256608 -9.08622)
(79.332 -29.9941 -6.77679)
(-2.61364e-06 -7.79921 11.3292)
(0.000267467 0.0376088 -6.64214)
(0.000440635 7.97488 11.3223)
(-79.3249 29.9828 -6.73373)
(-79.9594 -0.121897 -9.09025)
(-79.3272 -29.9764 -6.75545)
(80.0033 25.3835 -1.71727)
(80.336 -0.321416 -4.25542)
(80.0188 -25.4781 -1.74691)
(9.90725e-05 -9.41822 3.04676)
(0.000322917 0.0160888 -5.16534)
(0.000471092 9.57419 3.00658)
(-79.9852 25.4267 -1.7196)
(-80.3599 -0.237522 -4.2563)
(-80.0136 -25.4601 -1.74148)
(80.5624 5.90471 2.53801)
(80.7323 0.213194 -1.26291)
(80.5936 -5.67975 2.43794)
(0.000162717 -1.68409 -1.70647)
(0.000329121 0.247269 -1.29408)
(0.000417722 1.5736 -1.84471)
(-80.5494 5.83956 2.51668)
(-80.7323 0.114738 -1.26403)
(-80.5976 -5.72913 2.46523)
(77.7519 -31.8239 -1.31895)
(78.97 -39.3111 -5.2297)
(79.0766 -41.6602 -7.38557)
(0.000205424 17.9047 9.0612)
(5.88858e-05 15.0496 7.93644)
(-0.000211174 12.6926 10.3441)
(-77.7467 -31.8036 -1.31256)
(-78.961 -39.294 -5.21887)
(-79.0641 -41.647 -7.37138)
(78.0237 -26.3804 4.44032)
(79.3854 -32.0767 3.58811)
(79.9747 -33.373 0.717481)
(0.000218813 16.4391 -3.88693)
(8.03875e-05 15.2417 -4.75128)
(-0.000187378 15.7831 2.855)
(-78.0117 -26.3615 4.4411)
(-79.3703 -32.0611 3.58982)
(-79.9579 -33.3597 0.724496)
(80.1418 -7.8804 8.59775)
(80.4737 -4.28467 9.34304)
(80.4322 6.82952 10.6843)
(0.00018293 2.39465 -4.34289)
(4.85499e-05 2.20273 3.36671)
(-0.000219832 16.6652 6.94877)
(-80.146 -7.86159 8.59833)
(-80.4665 -4.26162 9.3386)
(-80.4227 6.81886 10.6829)
(79.0976 41.5526 -7.34065)
(78.8683 39.2125 -5.21338)
(77.7271 31.7399 -1.31019)
(0.00010049 -12.6043 10.3267)
(0.00018586 -14.8845 7.94793)
(0.000242344 -17.7752 9.10236)
(-79.0396 41.612 -7.37932)
(-78.8271 39.2723 -5.2444)
(-77.746 31.7914 -1.3215)
(79.9479 33.2987 0.714542)
(79.3595 31.9963 3.57539)
(78.005 26.2949 4.43626)
(-1.92055e-05 -15.6965 2.81631)
(-7.45222e-06 -15.1463 -4.76299)
(0.000105453 -16.3404 -3.84469)
(-79.9321 33.3473 0.691414)
(-79.3493 32.0493 3.57492)
(-78.0005 26.3399 4.4459)
(80.4359 -6.7833 10.6436)
(80.4534 4.21232 9.29677)
(80.1118 7.79949 8.59417)
(3.19137e-05 -16.6048 6.87788)
(-4.48437e-05 -2.24085 3.30266)
(7.62075e-05 -2.43643 -4.27482)
(-80.3961 -6.85146 10.6706)
(-80.4346 4.23521 9.32831)
(-80.0989 7.81429 8.61615)
(77.697 18.2566 -22.1704)
(76.8039 23.2212 -15.7943)
(79.1146 37.8262 -12.7526)
(0.000684341 9.40082 -7.51583)
(0.000581822 7.69982 -0.482533)
(0.000297331 5.65921 6.26488)
(-77.7226 18.2851 -22.2053)
(-76.824 23.2542 -15.8342)
(-79.1309 37.8658 -12.7893)
(78.1884 5.333 -36.6069)
(78.0614 14.0615 -21.7743)
(80.1192 27.4236 -3.33449)
(0.000747918 4.0631 -11.5345)
(0.000554159 6.12805 3.58131)
(0.000229501 1.11322 12.7468)
(-78.2182 5.35264 -36.6207)
(-78.0621 14.0437 -21.8123)
(-80.1223 27.44 -3.34542)
(81.3575 2.31252 -46.0661)
(77.6289 7.75479 -15.9518)
(79.6047 13.7156 4.37109)
(0.000752707 3.45423 -15.4914)
(0.000481083 -4.55461 17.0361)
(0.000225436 -14.3445 17.445)
(-81.3756 2.32462 -46.0766)
(-77.5988 7.72124 -16.0197)
(-79.5878 13.8423 4.32679)
(80.5148 -8.35582 -60.9875)
(79.9662 -0.603027 -5.55343)
(79.4162 10.5401 63.5443)
(0.000300624 -7.58426 9.74263)
(0.000254626 7.30275 35.803)
(0.000252811 -2.6316 58.9002)
(-80.5388 -8.36725 -60.9936)
(-79.9194 -0.63391 -5.71714)
(-79.3824 10.5914 63.5342)
(78.7635 -1.59507 -83.6586)
(78.1918 -9.2801 -38.8703)
(78.1369 0.0276346 -0.448452)
(-0.000462449 -0.849126 29.6435)
(-0.000435684 -1.18178 66.5726)
(-0.000390908 -1.1698 86.51)
(-78.7881 -1.58461 -83.7207)
(-78.1407 -9.28179 -39.0875)
(-78.1253 0.0334677 -0.543663)
(74.3881 -1.78291 -124.443)
(73.9295 -2.89377 -116.525)
(74.1638 -1.5161 -113.547)
(-0.000870688 -1.98078 177.406)
(-0.000879153 -2.92722 186.362)
(-0.00087226 -1.73016 181.919)
(-74.3915 -1.78419 -124.516)
(-73.9281 -2.89304 -116.532)
(-74.1661 -1.51728 -113.574)
(79.1615 -37.8951 -12.8015)
(76.8561 -23.2749 -15.8481)
(77.7671 -18.309 -22.2223)
(-0.000453605 -5.60253 6.25539)
(-0.000517003 -7.71395 -0.421021)
(-0.000492694 -9.42172 -7.50253)
(-79.1499 -37.8984 -12.7861)
(-76.8386 -23.2723 -15.8343)
(-77.751 -18.3025 -22.217)
(80.1488 -27.4494 -3.33576)
(78.0899 -14.0179 -21.8409)
(78.255 -5.37288 -36.6531)
(-0.000434479 -1.05618 12.8285)
(-0.000565432 -6.15273 3.64001)
(-0.000566974 -4.08399 -11.5381)
(-80.1331 -27.4588 -3.32579)
(-78.0696 -14.0546 -21.8202)
(-78.2102 -5.35691 -36.659)
(79.6249 -13.8982 4.33061)
(77.6278 -7.69594 -16.0869)
(81.4094 -2.35456 -46.1368)
(-0.000354496 14.4025 17.5491)
(-0.000435766 4.54074 17.1249)
(-0.00065351 -3.48504 -15.5159)
(-79.6089 -13.7851 4.38867)
(-77.6244 -7.73612 -16.0174)
(-81.3879 -2.33149 -46.1461)
(79.4132 -10.6258 63.5675)
(79.9539 0.641978 -5.896)
(80.4962 8.36785 -61.1693)
(2.30095e-05 2.64333 58.985)
(0.000372142 -7.31759 35.8691)
(0.00117959 7.59401 9.73271)
(-79.4155 -10.5927 63.6062)
(-79.9628 0.620966 -5.70999)
(-80.5297 8.37014 -61.1502)
(78.1429 -0.0631594 -0.547126)
(78.1981 9.28179 -39.041)
(78.6519 1.58628 -83.9316)
(-0.000540563 1.19011 86.4764)
(-0.000929364 1.22063 66.6368)
(-0.00181843 0.874559 29.7193)
(-78.1425 -0.0480293 -0.541073)
(-78.1979 9.30121 -39.0494)
(-78.6643 1.59311 -83.9058)
(74.167 1.52015 -113.647)
(73.9379 2.90221 -116.63)
(74.3866 1.7885 -124.356)
(0.000495033 1.73151 181.93)
(0.000468874 2.94971 186.297)
(0.000420296 2.00229 177.626)
(-74.166 1.51981 -113.631)
(-73.9373 2.90075 -116.614)
(-74.389 1.7879 -124.33)
)
;

boundaryField
{
    fuel
    {
        type            fixedValue;
        value           uniform (0 0 0.25);
    }
    primary_air
    {
        type            fixedValue;
        value           uniform (0 0 2.5);
    }
    Secondary_air_RHS
    {
        type            fixedValue;
        value           uniform (0 33.3333 0);
    }
    Secondary_air_LHS
    {
        type            fixedValue;
        value           uniform (0 -33.3333 0);
    }
    outlet
    {
        type            pressureInletOutletVelocity;
        value           nonuniform List<vector> 
18
(
(0 0 -113.647)
(0.000495033 1.73151 181.93)
(0 0 -113.631)
(0 0 -116.63)
(0.000468874 2.94971 186.297)
(0 0 -116.614)
(0 0 -124.356)
(0.000420296 2.00229 177.626)
(0 0 -124.33)
(0 0 -124.443)
(-0.000870688 -1.98078 177.406)
(0 0 -124.516)
(0 0 -116.525)
(-0.000879153 -2.92722 186.362)
(0 0 -116.532)
(0 0 -113.547)
(-0.00087226 -1.73016 181.919)
(0 0 -113.574)
)
;
    }
    stove_body
    {
        type            noSlip;
    }
    frontAndBack
    {
        type            empty;
    }
}


// ************************************************************************* //
