/*--------------------------------*- C++ -*----------------------------------*\
  =========                 |
  \\      /  F ield         | OpenFOAM: The Open Source CFD Toolbox
   \\    /   O peration     | Website:  https://openfoam.org
    \\  /    A nd           | Version:  6
     \\/     M anipulation  |
\*---------------------------------------------------------------------------*/
FoamFile
{
    version     2.0;
    format      ascii;
    class       volScalarField;
    location    "3";
    object      p;
}
// * * * * * * * * * * * * * * * * * * * * * * * * * * * * * * * * * * * * * //

dimensions      [1 -1 -2 0 0 0 0];

internalField   nonuniform List<scalar> 
297
(
119937
119937
119936
198812
198809
198812
119943
119944
119946
119937
119937
119936
198812
198809
198812
119943
119944
119946
119937
119937
119936
198811
198810
198812
119943
119945
119946
97397.3
97412.6
97404.2
161055
161091
161155
97391.6
97406.5
97399.3
97347.2
97304
97304.7
160682
160804
160767
97341.5
97296.6
97295.6
97224.8
97234.5
96946.5
158644
159902
158699
97226.4
97225.5
96940.7
96279.4
96648.7
96418.1
159812
159473
159588
96273.3
96667.1
96451.5
96799.9
96876.2
96718.1
160637
160386
160483
96797.1
96885.4
96766.4
96950.9
97101.1
96850.1
160698
160606
160543
96951.7
97104.6
96881.9
95271.6
97328.3
96033.1
152803
158396
155385
95314.2
97354.5
96025.7
95015.7
97294.4
95867.4
152238
158323
154861
95058.1
97322.2
95860.7
95011.1
97218
95746.5
152801
158426
154919
95047.7
97246
95743.1
97392.3
97519
97413.6
160725
160747
160820
97364.9
97529.1
97427.7
97467.5
97576.1
97508.1
160747
160832
160926
97478.1
97579.6
97487
97494.6
97565.2
97518
160770
160881
160975
97514.8
97574.1
97519.5
97371.1
97256.2
97105.6
160767
160706
160519
97669.8
97592.7
97796.2
97282.1
97068.3
96763.6
160747
160694
160469
97436
97328.6
97480.2
97271.7
97022.9
96656.9
160792
160677
160342
97372.4
97265.3
97224.8
97770.7
97541.2
97619.1
160508
160667
160695
97109.3
97249.5
97346.5
97424.8
97256.5
97375.1
160456
160648
160651
96768.3
97064.9
97280.3
97161.4
97200.3
97312
160327
160626
160672
96648.4
97011.6
97271.2
99151.3
98829.2
98315.5
160532
160417
160367
99308
98561.6
97528.2
98757.4
98388.4
97900.9
160045
159841
160006
98359.6
97455
96799.4
98189.6
97799.7
97407.3
159274
159075
159357
97227.6
96560.1
96206.8
95638.9
95621.7
95588.4
154974
154885
154720
92857.4
92795.2
92694
89848.1
89897.1
89938.6
146767
146764
146686
88687
88643.1
88551.1
83839.5
83838.5
83838.8
134620
134552
134492
86229.3
86386.7
86597.7
97519.9
98552.3
99292.6
160382
160433
160545
98297.9
98776.8
99082
96780.2
97436.4
98345.8
160038
159872
160074
97912.9
98363.9
98713.8
96185.4
96538.6
97224.3
159398
159129
159329
97449.7
97812.3
98177.4
92757.7
92858.3
92927.2
154823
155007
155101
95702.6
95731.3
95745.6
88683.5
88769.6
88815.9
146833
146901
146917
90070
90028.8
89982.2
86693
86476.4
86314.7
134626
134700
134748
83945.9
83945.9
83946.1
)
;

boundaryField
{
    fuel
    {
        type            zeroGradient;
    }
    primary_air
    {
        type            zeroGradient;
    }
    Secondary_air_RHS
    {
        type            zeroGradient;
    }
    Secondary_air_LHS
    {
        type            zeroGradient;
    }
    outlet
    {
        type            totalPressure;
        rho             rho;
        psi             none;
        gamma           1;
        p0              uniform 100000;
        value           nonuniform List<scalar> 
18
(
99991.9
100000
86474.6
93207.5
100000
86337.6
87798.7
100000
86296.7
86160.8
100000
87633.6
86201
100000
93189
86236.1
100000
99992.2
)
;
    }
    stove_body
    {
        type            zeroGradient;
    }
    frontAndBack
    {
        type            empty;
    }
}


// ************************************************************************* //
