/*--------------------------------*- C++ -*----------------------------------*\
  =========                 |
  \\      /  F ield         | OpenFOAM: The Open Source CFD Toolbox
   \\    /   O peration     | Website:  https://openfoam.org
    \\  /    A nd           | Version:  6
     \\/     M anipulation  |
\*---------------------------------------------------------------------------*/
FoamFile
{
    version     2.0;
    format      ascii;
    class       volScalarField;
    location    "3";
    object      T;
}
// * * * * * * * * * * * * * * * * * * * * * * * * * * * * * * * * * * * * * //

dimensions      [0 0 0 1 0 0 0];

internalField   nonuniform List<scalar> 
297
(
291.813
291.809
291.814
293.009
293.009
293.011
291.816
291.813
291.819
291.854
291.872
291.878
293.292
293.506
293.442
291.858
291.876
291.882
292.109
292.212
292.232
293.873
333.117
294.259
292.112
292.216
292.237
413.481
403.733
360.794
356.831
355.099
338.086
413.508
403.847
360.384
450.897
453.236
414.478
400.552
372.096
357.937
451.133
455.05
414.59
451.037
465.201
600.991
432.59
456.253
440.178
451.278
477.696
612.053
403.741
387.746
463.713
502.004
489.06
530.714
402.303
389.967
471.122
370.506
386.135
447.121
501.839
465.408
530.801
367.63
389.485
464.6
319.313
364.998
405.783
396.655
413.846
530.705
315.065
355.294
412.794
449.066
411.033
661.13
456.767
485.14
483
448.223
423.272
681.406
430.302
385.915
538.365
477.053
485.048
493.381
429.246
392.556
550.033
415.393
384.221
507.426
498.834
485.134
527.314
414.124
390.521
517.078
308.406
323.131
328.418
341.465
424.644
515.802
305.167
330.336
337.473
305.045
314.477
320.412
324.243
379.733
510.807
303.28
321.909
328.485
305.093
314.969
320.027
327.988
358.635
419.019
313.457
323.016
323.787
301.915
301.749
301.082
301.916
304.689
304.663
301.708
302.939
302.993
320.243
307.343
301.781
455.965
426.012
311.621
321.316
302.972
303.109
320.322
312.584
317.714
406.213
394.187
368.574
319.93
303.152
302.817
303.052
302.997
303.318
304.291
305.15
305.16
300.207
300.655
300.936
303.07
302.952
305.042
304.92
319.188
319.809
301.712
302.511
303.232
302.883
302.97
303.686
314.456
319.561
324.543
304.673
304.04
304.916
303.948
303.837
303.347
304.029
304.271
304.14
299.728
300.837
300.079
303.799
303.628
303.196
304.365
304.51
304.301
299.84
301.754
301.585
303.342
303.225
302.762
304.398
305.737
308.598
299.364
302.049
304.292
302.982
302.665
302.026
305.427
305.108
305.627
299.005
299.607
299.993
298.887
298.966
298.3
304.104
302.69
302.741
295.195
294.675
295.776
292.082
292.059
291.453
293.074
290.367
286.955
291.149
290.748
299.302
300.587
301.143
300.868
304.579
304.692
304.527
303.255
303.603
303.776
301.209
301.292
300.42
304.639
304.861
304.634
303.217
303.59
303.625
315.102
301.551
299.786
334.858
313.771
304.565
302.712
303.146
303.224
303.733
300.909
298.513
318.824
312.275
305.61
302.126
302.674
302.869
301.439
296.161
293.524
310.823
305.336
304.021
295.913
298.858
298.853
304.526
292.244
291.443
292.182
292.469
293.093
291.332
292.022
292.068
)
;

boundaryField
{
    fuel
    {
        type            fixedValue;
        value           uniform 293;
    }
    primary_air
    {
        type            fixedValue;
        value           uniform 293;
    }
    Secondary_air_RHS
    {
        type            fixedValue;
        value           uniform 293;
    }
    Secondary_air_LHS
    {
        type            fixedValue;
        value           uniform 293;
    }
    outlet
    {
        type            inletOutlet;
        inletValue      uniform 293;
        value           nonuniform List<scalar> 
18
(
293
292.182
293
293
292.469
293
293
293.093
293
293
293.078
293
293
290.397
293
293
286.96
293
)
;
    }
    stove_body
    {
        type            fixedValue;
        value           uniform 293;
    }
    frontAndBack
    {
        type            empty;
    }
}


// ************************************************************************* //
