/*--------------------------------*- C++ -*----------------------------------*\
  =========                 |
  \\      /  F ield         | OpenFOAM: The Open Source CFD Toolbox
   \\    /   O peration     | Website:  https://openfoam.org
    \\  /    A nd           | Version:  6
     \\/     M anipulation  |
\*---------------------------------------------------------------------------*/
FoamFile
{
    version     2.0;
    format      ascii;
    class       volVectorField;
    location    "3";
    object      U;
}
// * * * * * * * * * * * * * * * * * * * * * * * * * * * * * * * * * * * * * //

dimensions      [0 1 -1 0 0 0 0];

internalField   nonuniform List<vector> 
297
(
(68.6933 -0.0139638 0.267059)
(68.6919 0.0178153 0.250444)
(68.6946 0.0317451 0.260322)
(0.000697378 0.0267013 0.332335)
(0.00100302 -0.0308893 0.32535)
(0.00123104 -0.0559742 0.332495)
(-68.6918 -0.00754716 0.267943)
(-68.6898 0.0280227 0.25065)
(-68.6924 0.0355753 0.260371)
(68.6938 0.00383911 0.295436)
(68.7011 0.0176148 0.28014)
(68.6997 0.0160278 0.287535)
(0.000715038 0.105186 -0.238447)
(0.00101088 -0.0453941 -0.0663599)
(0.00123239 -0.135973 -0.225381)
(-68.6929 0.0099443 0.298333)
(-68.6992 0.0275192 0.280574)
(-68.6973 0.019805 0.28764)
(68.7534 -0.0599339 0.567438)
(68.7889 0.0265615 0.548387)
(68.7827 0.0883851 0.559322)
(0.000621036 -0.125464 0.489969)
(0.000920819 -0.0289971 0.355889)
(0.00103383 0.102617 0.483453)
(-68.7524 -0.0545106 0.5695)
(-68.7871 0.0357069 0.548658)
(-68.7807 0.0921083 0.559394)
(63.7927 7.18138 -7.88632)
(62.186 6.70149 -3.95111)
(55.1882 3.54853 3.16077)
(-0.00072744 1.95637 4.21967)
(-0.00077997 -0.31003 4.06256)
(-0.000586942 0.406086 6.30664)
(-63.8004 7.10081 -7.79863)
(-62.2039 6.72294 -3.7821)
(-55.1192 3.51136 3.40156)
(69.879 11.5479 -15.0276)
(70.2568 10.2998 -10.6676)
(64.2078 11.2315 11.2277)
(-0.000822087 11.3187 38.3183)
(-0.000978718 1.43903 29.3103)
(-0.00117925 0.288356 35.9779)
(-69.9209 11.4125 -15.0976)
(-70.5429 10.4637 -10.7186)
(-64.2246 11.2976 11.0526)
(68.9761 8.80808 -20.074)
(71.8658 -11.7677 -2.87392)
(92.2353 -16.0218 35.4314)
(0.000238887 -8.44826 54.2228)
(-0.00148149 -4.53896 12.4753)
(-0.000933564 10.5983 57.1309)
(-69.0108 8.61133 -20.2704)
(-73.8025 -11.936 -3.08772)
(-93.9353 -16.0269 37.0605)
(62.6405 -0.816035 -53.8583)
(59.8334 -6.16738 -30.6111)
(71.66 -0.0150324 -38.1099)
(-0.00110884 0.598096 -1.76669)
(0.00330069 8.63549 -38.2951)
(0.00643605 -5.22862 32.3509)
(-62.4014 -0.953138 -53.5208)
(-60.1694 -6.56934 -30.6346)
(-72.7365 -0.0379398 -37.8868)
(57.7292 20.4686 -39.091)
(59.7535 -5.15117 -38.6752)
(69.7774 -9.14598 -22.0693)
(-0.000503668 -1.62801 -11.6075)
(0.00156693 3.66156 -17.7638)
(0.00932695 -8.15376 23.8186)
(-57.2742 20.885 -38.5902)
(-60.2934 -5.12933 -38.7062)
(-72.4228 -7.19995 -21.9592)
(49.7333 21.5183 -30.5052)
(56.5927 -15.689 -29.8298)
(63.0057 -24.2724 -23.9085)
(0.00011056 1.34632 -4.08231)
(0.000533362 2.91799 -21.9367)
(0.00614793 -4.84994 22.4744)
(-49.0714 22.2317 -30.5495)
(-55.0982 -16.7254 -29.2758)
(-64.087 -21.7767 -24.374)
(58.1604 11.4884 -64.9354)
(59.9057 -19.8149 -16.2596)
(93.9676 -42.8347 -30.2215)
(0.00741288 -6.28363 75.1776)
(0.00428206 -3.12818 -40.2629)
(-0.00136354 1.314 76.5105)
(-58.2168 11.3666 -64.7341)
(-61.6 -20.4544 -16.1034)
(-96.8927 -44.1652 -30.1163)
(58.2793 6.59766 -68.0778)
(57.4311 -13.8192 -15.2189)
(76.0559 -15.4928 -41.5837)
(0.00640486 -4.61629 84.0361)
(0.00472053 0.934864 -41.9421)
(-0.00117737 1.64374 83.4827)
(-58.454 6.48497 -67.779)
(-58.3512 -14.3838 -14.9292)
(-77.7309 -15.7881 -41.6868)
(59.8805 3.04665 -64.5594)
(58.787 -11.0187 -20.2044)
(68.296 -8.74728 -39.9958)
(0.0054249 -2.88493 83.3309)
(0.00491101 3.07899 -40.6729)
(-0.000598341 -5.31011 90.3734)
(-59.61 2.93454 -64.2249)
(-59.7588 -11.3642 -19.8539)
(-69.6158 -8.89749 -39.9597)
(47.022 38.0661 -8.23471)
(49.5224 -0.755554 -9.65241)
(50.1944 -40.3314 -9.09757)
(-0.00339945 -3.52531 -4.91263)
(0.00155253 -8.64221 -5.74859)
(0.00263295 -2.59404 15.9243)
(-46.6776 40.4514 -9.93235)
(-50.4871 -5.15345 -10.7692)
(-51.4357 -37.0944 -7.1419)
(47.0426 29.7486 -0.499402)
(48.5226 -5.20124 -1.71292)
(49.5447 -29.9011 3.22682)
(0.00124867 0.10783 -3.40555)
(0.000478266 -7.89853 -5.17001)
(-0.00389304 -0.797751 7.72545)
(-46.8723 28.4302 3.75115)
(-49.6161 -14.7527 -2.46642)
(-50.6571 -29.8489 -0.401381)
(47.3186 1.59307 2.18465)
(48.8613 -2.37196 0.296964)
(49.6895 2.58424 -1.61351)
(0.00240744 -8.33762 -1.72569)
(0.00116185 -6.87774 -0.890567)
(0.00022717 2.69979 -0.243767)
(-48.5653 -7.67382 -2.5831)
(-49.9997 -9.28414 1.82569)
(-50.1894 -4.92597 3.61748)
(46.1733 -46.0896 -4.71516)
(45.9071 -50.7687 -8.55949)
(45.6843 -53.9685 -9.53325)
(0.0328138 -2.53244 -1.74989)
(0.0373854 -13.0822 -2.97558)
(0.0759498 -18.3863 -3.3136)
(-45.1541 -39.624 -2.98736)
(-46.392 -45.2848 -7.56667)
(-46.7703 -41.2272 -14.1705)
(49.2022 -32.8772 7.55418)
(47.3546 -35.1468 7.11647)
(46.4348 -41.5185 5.07064)
(0.0253845 7.58865 1.50507)
(0.0403843 17.1976 4.68008)
(0.0808943 -7.28878 10.2814)
(-48.7823 -30.8808 3.90541)
(-46.8473 -34.7248 -1.76655)
(-46.9402 -26.403 -10.3085)
(49.7178 2.16921 8.62917)
(48.6293 7.76257 9.67711)
(48.9313 18.5867 11.8348)
(0.0149074 9.49342 -1.62725)
(0.0348487 18.6945 1.1343)
(0.0754159 25.8534 5.02377)
(-49.5723 -8.76063 12.6631)
(-47.1287 0.830035 13.8301)
(-47.02 -14.6348 -16.0691)
(46.7835 42.8166 -14.4085)
(46.41 47.1835 -7.76382)
(45.3557 41.6271 -2.80686)
(-0.0725516 18.9492 -3.03237)
(-0.0324215 12.6113 -4.03423)
(-0.0302966 5.29122 0.375612)
(-45.5326 53.8906 -9.66654)
(-45.7085 50.4736 -8.62971)
(-45.9651 45.9666 -5.07048)
(46.9471 28.1669 -11.2116)
(46.7991 36.2119 -2.15447)
(46.2603 31.9575 3.07768)
(-0.072528 8.34421 9.75337)
(-0.0222646 -15.0201 1.78075)
(-0.0109991 -4.41163 -1.63397)
(-46.4899 41.5984 5.30708)
(-46.6794 35.5396 7.58684)
(-46.5532 33.3639 8.14907)
(47.0438 16.4753 -14.6088)
(47.1174 -2.77893 15.069)
(47.1006 8.59934 12.3036)
(-0.0582685 -22.1392 5.36154)
(-0.0219255 -13.0928 1.30332)
(-0.00479341 -8.36468 -0.235991)
(-46.9508 -20.0198 9.3084)
(-47.1962 -11.0767 5.34865)
(-47.1503 -6.46073 3.78947)
(46.4886 7.76442 -24.9215)
(46.5636 20.9465 -22.425)
(46.5483 32.3302 -17.6715)
(0.017112 13.0681 -9.65016)
(-0.0293555 14.8432 -6.41697)
(-0.0860615 20.7014 -2.95646)
(-44.9851 24.3081 -31.928)
(-44.7228 31.2368 -23.6373)
(-46.0937 51.5858 -17.9079)
(46.1758 5.42063 -36.8333)
(46.2261 13.9541 -31.8632)
(46.6486 21.8899 -25.1756)
(-0.0433109 7.27471 -8.56912)
(-0.103106 11.0146 2.86304)
(-0.121148 15.5081 12.0557)
(-45.4403 6.01689 -55.1896)
(-45.5362 22.0395 -30.2964)
(-46.7697 39.5989 -4.93084)
(47.4548 -0.524789 -49.0332)
(46.9445 7.71849 -44.7003)
(47.2508 9.34452 -33.7491)
(-0.105714 4.54454 -18.295)
(-0.136412 -5.82809 16.2292)
(-0.130511 -17.7432 19.3576)
(-47.2643 3.44363 -71.6655)
(-45.8507 20.6876 -21.7896)
(-45.9505 -15.2484 22.2495)
(46.5001 -4.1168 -77.7392)
(46.2207 -6.3628 -71.3276)
(46.1902 -3.86047 -72.2573)
(-0.32056 -2.69434 34.4727)
(-0.32503 -0.346592 48.3229)
(-0.333692 -10.7993 44.2174)
(-46.9795 -8.75899 -103.836)
(-46.7413 11.2616 14.0556)
(-46.8921 -2.90161 68.9131)
(45.6888 1.04184 -137.865)
(45.6501 0.394689 -137.105)
(45.5396 0.780719 -136.675)
(-0.140913 0.966759 72.1664)
(-0.150898 3.53577 78.121)
(-0.166895 -1.70314 75.9182)
(-45.6442 2.70014 -138.412)
(-45.6649 -5.48476 -76.8853)
(-45.593 1.68714 111.721)
(43.7845 -0.163184 -167.141)
(43.7617 -0.0473906 -166.859)
(43.6582 -0.115496 -166.613)
(0.298477 -1.18376 162.933)
(0.314729 0.584269 173.466)
(0.335694 -0.905073 199.011)
(-42.9785 -5.50929 -156.664)
(-42.7395 -7.58541 -112.747)
(-43.7712 -3.62303 -3.69264)
(46.171 -51.6801 -17.7554)
(44.7694 -31.3258 -23.6681)
(45.1634 -24.4734 -31.9751)
(0.0851757 -20.3128 -2.84244)
(0.02466 -14.594 -6.17092)
(-0.0230379 -12.9502 -9.46302)
(-46.5501 -31.3554 -17.1302)
(-46.5649 -20.0188 -22.1182)
(-46.5037 -7.28168 -24.0616)
(46.7203 -39.9971 -4.91313)
(45.4747 -21.9214 -30.3561)
(45.5373 -6.20713 -55.3066)
(0.124674 -15.1452 12.4771)
(0.102503 -10.9379 2.7606)
(0.0401153 -7.29495 -8.47137)
(-46.6616 -21.4669 -23.8167)
(-46.2496 -13.2743 -31.0498)
(-46.1828 -5.13209 -35.7873)
(47.5508 12.9803 23.3683)
(45.759 -20.7453 -22.0113)
(47.3282 -3.47684 -71.7066)
(0.14886 20.7431 19.571)
(0.143829 7.27335 17.2678)
(0.1048 -4.62104 -18.0218)
(-47.2168 -8.71845 -32.1029)
(-46.921 -7.56528 -43.0545)
(-47.4292 0.765683 -47.4893)
(47.4763 1.76872 69.5673)
(46.9382 -10.3686 14.8025)
(46.8938 8.89381 -103.338)
(0.353906 11.7578 44.401)
(0.337799 0.314894 48.9659)
(0.324739 2.01205 35.0626)
(-46.1893 3.70298 -72.2435)
(-46.2104 6.3461 -70.1817)
(-46.4672 3.9203 -75.9917)
(46.4483 -2.35974 112.167)
(45.8797 5.6021 -76.4301)
(45.3313 -2.47413 -137.668)
(0.171003 1.7697 76.6953)
(0.15265 -3.66455 77.6868)
(0.141327 -1.30238 71.8825)
(-45.1392 -0.725887 -135.416)
(-45.627 -0.466239 -135.827)
(-45.6753 -0.916306 -136.573)
(44.5251 3.21307 -3.76269)
(42.9597 7.67764 -112.582)
(42.9853 5.33517 -155.468)
(-0.339882 0.779662 201.903)
(-0.314341 -0.533863 173.523)
(-0.295511 1.06029 163.682)
(-43.6044 0.0905517 -164.935)
(-43.7493 0.066838 -165.9)
(-43.7718 0.144445 -166.187)
)
;

boundaryField
{
    fuel
    {
        type            fixedValue;
        value           uniform (0 0 0.25);
    }
    primary_air
    {
        type            fixedValue;
        value           uniform (0 0 2.5);
    }
    Secondary_air_RHS
    {
        type            fixedValue;
        value           uniform (0 50 0);
    }
    Secondary_air_LHS
    {
        type            fixedValue;
        value           uniform (0 -50 0);
    }
    outlet
    {
        type            pressureInletOutletVelocity;
        value           nonuniform List<vector> 
18
(
(0 0 -3.76269)
(-0.339882 0.779662 201.903)
(0 0 -164.935)
(0 0 -112.582)
(-0.314341 -0.533863 173.523)
(0 0 -165.9)
(0 0 -155.468)
(-0.295511 1.06029 163.682)
(0 0 -166.187)
(0 0 -167.141)
(0.298477 -1.18376 162.933)
(0 0 -156.664)
(0 0 -166.859)
(0.314729 0.584269 173.466)
(0 0 -112.747)
(0 0 -166.613)
(0.335694 -0.905073 199.011)
(0 0 -3.69264)
)
;
    }
    stove_body
    {
        type            noSlip;
    }
    frontAndBack
    {
        type            empty;
    }
}


// ************************************************************************* //
