/*--------------------------------*- C++ -*----------------------------------*\
  =========                 |
  \\      /  F ield         | OpenFOAM: The Open Source CFD Toolbox
   \\    /   O peration     | Website:  https://openfoam.org
    \\  /    A nd           | Version:  6
     \\/     M anipulation  |
\*---------------------------------------------------------------------------*/
FoamFile
{
    version     2.0;
    format      ascii;
    class       volScalarField;
    location    "0.02";
    object      N2;
}
// * * * * * * * * * * * * * * * * * * * * * * * * * * * * * * * * * * * * * //

dimensions      [0 0 0 0 0 0 0];

internalField   nonuniform List<scalar> 
3773
(
0.48379
0.497202
0.489703
0.493625
0.496824
0.492143
0.488259
0.525261
0.537028
0.527811
0.533041
0.536695
0.530209
0.53153
0.416017
0.435024
0.422289
0.422876
0.426921
0.425258
0.421633
0.393078
0.40355
0.407219
0.405507
0.404351
0.408838
0.393351
0.416843
0.429827
0.422778
0.421118
0.427315
0.427183
0.422637
0.529572
0.536127
0.532903
0.534692
0.540499
0.529283
0.530229
0.48726
0.495968
0.493773
0.49542
0.499656
0.491366
0.487751
0.570123
0.589344
0.584779
0.584895
0.583817
0.582714
0.571415
0.965428
0.980606
0.979966
0.979981
0.979758
0.979434
0.965334
0.963913
0.967542
0.961148
0.964344
0.96707
0.958936
0.965382
0.963051
0.976643
0.977545
0.97677
0.976907
0.979187
0.964685
0.964286
0.977526
0.964768
0.964089
0.968289
0.963537
0.965658
0.965796
0.980506
0.979537
0.979772
0.980232
0.979958
0.965898
0.574825
0.583965
0.585252
0.582605
0.587622
0.584531
0.572768
0.617405
0.638579
0.635124
0.635174
0.633833
0.632722
0.62044
0.942535
0.961943
0.962115
0.961252
0.958311
0.958028
0.942256
0.984194
0.996397
0.994999
0.995582
0.995605
0.994759
0.983838
0.98697
0.998724
0.999082
0.999079
0.99913
0.998927
0.98715
0.983905
0.996653
0.9954
0.995621
0.995877
0.995007
0.983931
0.943965
0.958897
0.959297
0.958157
0.960329
0.959333
0.943199
0.622113
0.634093
0.635479
0.633137
0.637508
0.634356
0.621969
0.641035
0.667298
0.664805
0.665205
0.662544
0.662159
0.644787
0.952632
0.96956
0.970057
0.970359
0.968489
0.967578
0.952114
0.985549
0.998038
0.997975
0.998178
0.998204
0.997992
0.98532
0.988046
0.999844
0.999927
0.999918
0.999919
0.99979
0.98802
0.985465
0.99797
0.998127
0.998363
0.998414
0.997839
0.985415
0.952961
0.967765
0.968464
0.967809
0.970238
0.968023
0.952659
0.646615
0.660593
0.665261
0.663874
0.667209
0.66437
0.646538
0.67735
0.699447
0.699581
0.701347
0.69912
0.696874
0.681231
0.955697
0.971178
0.9715
0.972342
0.971923
0.971207
0.955398
0.985925
0.998432
0.998584
0.998737
0.998709
0.998546
0.985806
0.988139
0.999939
0.999983
0.999983
0.999984
0.999867
0.988072
0.985853
0.998451
0.99865
0.998724
0.99884
0.99847
0.985842
0.956176
0.971443
0.971874
0.971953
0.972886
0.971566
0.956071
0.682495
0.692579
0.699716
0.699825
0.701863
0.697673
0.681495
0.785127
0.819383
0.828055
0.833014
0.833245
0.824927
0.789537
0.964113
0.981277
0.982051
0.982672
0.982432
0.981534
0.964415
0.986927
0.999286
0.999482
0.999522
0.999505
0.999406
0.986908
0.988366
0.999964
0.999998
0.999998
0.999998
0.999862
0.988257
0.986875
0.999269
0.99946
0.999474
0.999496
0.999389
0.986885
0.964296
0.980412
0.982001
0.982132
0.982325
0.981401
0.9638
0.78187
0.808298
0.826324
0.828304
0.827142
0.819614
0.778181
0.992305
0.997691
0.998714
0.999138
0.999193
0.998435
0.993388
1
1
1
1
1
1
1
1
1
1
1
1
1
1
1
1
1
1
1
1
1
1
1
1
1
1
1
1
1
1
1
1
1
1
1
0.991688
0.995895
0.998692
0.998781
0.998338
0.99791
0.990802
0.998415
0.999471
0.999445
0.999295
0.999144
0.998686
0.99723
0.997681
0.999079
0.999021
0.998894
0.99873
0.998255
0.996878
0.99577
0.996736
0.996752
0.996686
0.996689
0.99648
0.995599
0.992459
0.992446
0.992018
0.992254
0.992924
0.99316
0.992877
0.995282
0.995833
0.996119
0.996386
0.9964
0.996343
0.996169
0.99714
0.998365
0.99865
0.998497
0.998344
0.998348
0.997452
0.997654
0.99906
0.999237
0.999236
0.999146
0.998882
0.997885
0.999824
0.999894
0.999895
0.999913
0.999928
0.99982
0.998339
0.999081
0.999856
0.999905
0.999908
0.999916
0.999872
0.998375
0.99725
0.998939
0.999151
0.999366
0.99962
0.999238
0.997132
0.993166
0.993076
0.992696
0.993118
0.994138
0.994557
0.993524
0.996412
0.997539
0.997712
0.997699
0.997737
0.997972
0.998206
0.99846
0.999864
0.999876
0.999796
0.999744
0.999871
0.999858
0.998712
0.999719
0.999889
0.999911
0.999915
0.999925
0.999673
0.999908
0.999884
0.999884
0.999893
0.999917
0.999911
0.998981
0.999356
0.999777
0.999863
0.999829
0.999856
0.999879
0.998695
0.998389
0.999487
0.999677
0.999781
0.999785
0.999639
0.997914
0.994184
0.994605
0.994435
0.994418
0.995824
0.996336
0.994982
0.997011
0.998197
0.998523
0.998531
0.998367
0.998322
0.998437
0.99872
0.999824
0.999838
0.999731
0.99966
0.999848
0.999906
0.998677
0.999622
0.999869
0.999906
0.999913
0.999928
0.999964
0.999911
0.999866
0.999875
0.999879
0.999893
0.999803
0.998992
0.999387
0.999727
0.999807
0.999749
0.999786
0.999789
0.999398
0.998824
0.999604
0.999704
0.999713
0.999698
0.999692
0.99932
0.994613
0.995191
0.995374
0.995507
0.996758
0.997087
0.996668
0.996988
0.998599
0.998999
0.99894
0.998795
0.998661
0.998548
0.998701
0.999472
0.999815
0.999721
0.999639
0.999835
0.999903
0.999388
0.999734
0.99988
0.999907
0.999909
0.999926
0.999977
0.999914
0.999858
0.999871
0.999864
0.999865
0.999756
0.999201
0.999341
0.999661
0.999743
0.999721
0.999734
0.999776
0.999905
0.999115
0.999595
0.999636
0.999515
0.999433
0.999563
0.999718
0.99565
0.996011
0.995828
0.995717
0.99678
0.997208
0.997257
0.997081
0.998567
0.999278
0.999251
0.999144
0.998988
0.998837
0.998791
0.999234
0.999715
0.999724
0.999649
0.99982
0.999905
0.99997
0.999958
0.999944
0.999909
0.999901
0.999919
0.999974
0.999915
0.999849
0.999862
0.999856
0.999846
0.999863
0.999766
0.999184
0.999309
0.999619
0.999667
0.999666
0.9997
0.999922
0.999149
0.999534
0.99951
0.999158
0.99897
0.999185
0.999531
0.996169
0.996219
0.995995
0.995646
0.996585
0.997074
0.997249
0.997776
0.998603
0.999281
0.999299
0.999281
0.999221
0.998979
0.999627
0.999799
0.999849
0.999732
0.999649
0.999785
0.999952
0.999984
0.999956
0.999937
0.999897
0.999891
0.999909
0.999972
0.999964
0.999882
0.999858
0.999836
0.999819
0.999831
0.99997
0.999338
0.99962
0.999542
0.999557
0.999605
0.999653
0.99993
0.999226
0.999531
0.999443
0.999031
0.998795
0.998731
0.99933
0.99657
0.996763
0.996467
0.995702
0.996306
0.997014
0.997006
0.99878
0.998881
0.999274
0.999345
0.999349
0.99937
0.999132
1
0.999941
0.999889
0.999725
0.999678
0.999746
0.999975
1
0.99994
0.999917
0.999886
0.99988
0.999907
0.999977
0.999748
0.99989
0.999912
0.999841
0.999838
0.999867
0.999929
0.999833
0.999734
0.999492
0.999468
0.999483
0.999635
0.999814
0.999475
0.999159
0.998944
0.998928
0.999027
0.99927
0.99989
0.997261
0.996636
0.996322
0.995764
0.996218
0.996952
0.997423
0.999907
0.99928
0.99918
0.999217
0.999313
0.999423
0.999742
0.99993
0.999923
0.999911
0.999877
0.999833
0.99984
0.999869
0.999942
0.999913
0.999908
0.999891
0.99989
0.999917
0.999939
0.999728
0.999887
0.999893
0.99982
0.999824
0.999859
0.99992
0.999649
0.999353
0.999259
0.999346
0.999383
0.999557
0.999799
0.999399
0.999078
0.998709
0.99834
0.998448
0.999213
0.999895
0.997032
0.996446
0.996323
0.995923
0.996571
0.997044
0.997295
0.999865
0.999334
0.999208
0.999241
0.999309
0.999475
0.999606
0.999899
0.99982
0.999794
0.99981
0.999788
0.999777
0.999821
0.999939
0.999903
0.99989
0.99988
0.999874
0.999872
0.99991
0.99971
0.999895
0.999881
0.999802
0.999809
0.999873
0.999919
0.99962
0.999166
0.999182
0.999269
0.999337
0.99951
0.999773
0.999236
0.998821
0.998531
0.99812
0.998461
0.999515
0.999892
0.996731
0.996431
0.996559
0.996367
0.996636
0.997004
0.997371
0.999771
0.999522
0.999344
0.999244
0.999264
0.999586
0.999704
0.999831
0.999671
0.999586
0.999582
0.999662
0.999663
0.999743
0.999933
0.999899
0.999885
0.999876
0.999875
0.999831
0.999861
0.999714
0.999931
0.999877
0.999797
0.999799
0.999853
0.999921
0.999457
0.998828
0.999203
0.99935
0.999356
0.999503
0.999761
0.998836
0.998317
0.998488
0.998116
0.998285
0.999395
0.999893
0.996649
0.996539
0.996847
0.996705
0.996569
0.996992
0.997506
0.999756
0.999646
0.999484
0.999185
0.999101
0.99938
0.999853
0.999803
0.999615
0.999479
0.999303
0.999282
0.999431
0.999721
0.999928
0.999898
0.999882
0.999872
0.999871
0.999803
0.999863
0.999758
0.999967
0.999917
0.999867
0.999826
0.999869
0.999935
0.99917
0.999098
0.999632
0.99957
0.999372
0.999542
0.999786
0.99864
0.998269
0.998574
0.998219
0.99815
0.999122
0.999858
0.996653
0.996515
0.99694
0.996869
0.996582
0.997052
0.997779
0.999607
0.999527
0.999433
0.999143
0.998728
0.998994
0.999908
0.999794
0.999609
0.99944
0.999268
0.999117
0.999414
0.999788
0.999924
0.999909
0.999895
0.999883
0.999907
0.999902
0.999874
0.999867
0.999976
0.999953
0.999909
0.999821
0.999909
0.999942
0.998911
0.999524
0.99986
0.999697
0.999298
0.999541
0.999845
0.998548
0.99846
0.998856
0.998672
0.998488
0.998764
0.999727
0.996816
0.996699
0.997475
0.997393
0.99695
0.997311
0.998344
0.999171
0.999092
0.999302
0.999149
0.998797
0.998881
0.999467
0.999847
0.999743
0.999629
0.999506
0.99938
0.999316
0.999648
0.999909
0.999912
0.999928
0.99993
0.999931
0.999894
0.999855
0.999912
0.999982
0.999975
0.999954
0.999944
0.999947
0.999956
0.999349
0.999736
0.999946
0.9998
0.999554
0.999658
0.999896
0.998954
0.999011
0.999169
0.99942
0.999167
0.999088
0.999589
0.997279
0.996953
0.997796
0.997705
0.997395
0.997683
0.998612
0.999376
0.999386
0.99945
0.999289
0.999035
0.999066
0.999532
0.999899
0.999859
0.999847
0.999858
0.999883
0.999831
0.99981
0.999937
0.999946
0.999954
0.999944
0.999951
0.999947
0.999939
1
0.999886
0.999879
0.999817
0.999798
0.999813
1
1
0.999685
0.999468
0.999492
0.999561
0.999631
1
0.999179
0.999487
0.99924
0.998707
0.999334
0.998847
1
0.996833
0.996736
0.996415
0.995699
0.996197
0.996947
0.997058
0.999082
0.998868
0.9992
0.999276
0.999333
0.999357
0.999366
1
0.999931
0.999885
0.999766
0.999708
0.999747
1
1
0.999929
0.999914
0.999889
0.999884
0.999905
1
1
0.999887
0.999889
0.999827
0.999808
0.999824
1
1
0.999692
0.999479
0.999517
0.999564
0.999658
1
0.999222
0.999481
0.999202
0.998905
0.999341
0.998922
1
0.996884
0.99673
0.996411
0.995697
0.996172
0.996927
0.997094
0.999148
0.998873
0.999183
0.999261
0.99931
0.999344
0.999428
1
0.999934
0.999898
0.999793
0.999744
0.999776
1
1
0.999928
0.999914
0.999893
0.999891
0.999918
1
0.999962
0.999888
0.999891
0.999829
0.99981
0.999828
1
1
0.9997
0.999482
0.999524
0.999563
0.999668
1
0.999272
0.99947
0.9992
0.999021
0.999305
0.999082
1
0.996936
0.996722
0.996401
0.995698
0.996158
0.996925
0.997158
0.999274
0.99889
0.999134
0.999208
0.999288
0.999345
0.999552
1
0.999933
0.999901
0.999804
0.999765
0.999786
1
1
0.999926
0.999914
0.999894
0.999892
0.999919
1
0.999922
0.999889
0.999891
0.999831
0.999809
0.999835
1
1
0.999706
0.99948
0.999528
0.999558
0.99968
1
0.999378
0.999465
0.999203
0.999045
0.999252
0.999223
1
0.997002
0.996719
0.996398
0.995703
0.996159
0.996913
0.99722
0.999362
0.998934
0.99911
0.999204
0.999285
0.999347
0.999636
1
0.999925
0.999902
0.999828
0.999778
0.999787
1
1
0.999925
0.999912
0.999894
0.999891
0.999917
1
0.999895
0.999889
0.999891
0.99983
0.999808
0.99984
1
1
0.999711
0.999475
0.999526
0.999548
0.999686
1
0.999427
0.999448
0.999196
0.99904
0.999226
0.99926
1
0.9971
0.996709
0.996389
0.995706
0.996166
0.996908
0.997274
0.999554
0.998956
0.999107
0.999198
0.999285
0.99935
0.99976
1
0.999922
0.999902
0.999852
0.99979
0.999791
1
1
0.999925
0.999911
0.999894
0.999889
0.999917
1
0.99986
0.99989
0.999903
0.999838
0.999817
0.999849
1
1
0.999724
0.999475
0.99953
0.999543
0.999695
1
0.999514
0.999402
0.999168
0.999066
0.999216
0.999273
1
0.997147
0.9967
0.99638
0.995719
0.996164
0.996909
0.997345
0.999619
0.998955
0.999096
0.999196
0.999287
0.999361
0.99984
1
0.999919
0.999901
0.999859
0.999796
0.999812
1
1
0.999924
0.99991
0.999894
0.999888
0.999926
1
0.999805
0.999891
0.999909
0.999845
0.999823
0.999855
1
1
0.999732
0.999485
0.999541
0.999539
0.9997
0.999944
0.999586
0.999381
0.99915
0.999076
0.999238
0.999288
1
0.997257
0.996689
0.996365
0.99572
0.996149
0.996894
0.99745
0.999787
0.998958
0.999069
0.999172
0.999272
0.999354
0.99998
1
0.999921
0.999908
0.999871
0.999818
0.999832
1
0.999985
0.999921
0.99991
0.999894
0.99989
0.999934
1
0.999999
0.999996
0.999992
0.999993
0.999996
0.999997
0.999999
0.999996
0.999997
0.999978
0.999958
0.999954
0.999952
0.999992
0.999002
0.998876
0.999242
0.999275
0.999384
0.999328
0.99948
0.997321
0.997078
0.998005
0.997813
0.997552
0.997796
0.998597
0.999391
0.99953
0.999453
0.999268
0.999228
0.999172
0.999922
0.99999
0.999977
0.999947
0.99995
0.999981
0.999991
0.999998
0.999999
0.999996
0.99999
0.999985
0.999986
0.999991
0.999998
0.999997
0.99999
0.99999
0.999993
0.999994
0.999996
0.999997
0.999998
0.999998
0.999972
0.999971
0.999972
0.999973
0.999989
0.999038
0.999156
0.999425
0.99929
0.99925
0.999323
0.999473
0.997334
0.997262
0.998097
0.997858
0.997615
0.997836
0.998573
0.999424
0.99953
0.999386
0.999243
0.99939
0.999223
0.999698
0.999988
0.999981
0.999959
0.999957
0.999959
0.999978
0.999998
0.999996
0.999995
0.999993
0.99999
0.99999
0.99999
0.999994
0.999993
0.999988
0.999984
0.999987
0.999988
0.999989
0.99999
0.999998
0.999998
0.999968
0.999963
0.999963
0.999962
0.99997
0.998945
0.999154
0.999391
0.999272
0.999187
0.999304
0.999435
0.997377
0.997393
0.998142
0.997887
0.997653
0.99792
0.998499
0.999449
0.999448
0.999186
0.998982
0.99923
0.999257
0.999491
0.999978
0.999973
0.999952
0.999953
0.999955
0.999964
0.999989
0.99999
0.999991
0.99999
0.999988
0.999988
0.999988
0.999992
0.999991
0.999984
0.999977
0.999975
0.999976
0.999975
0.999973
0.999996
0.999998
0.99997
0.999941
0.999939
0.99994
0.999937
0.998832
0.999201
0.999457
0.999401
0.999226
0.999337
0.999443
0.99745
0.997617
0.998147
0.997976
0.997724
0.997958
0.998473
0.999415
0.999184
0.999074
0.99894
0.998923
0.999202
0.999486
0.999941
0.999945
0.999939
0.999938
0.999943
0.999951
0.999981
0.99998
0.999983
0.999985
0.999983
0.999982
0.999984
0.999989
0.999988
0.999982
0.999978
0.999978
0.999978
0.999978
0.999971
0.999993
0.999997
0.999978
0.99996
0.999942
0.999942
0.999948
0.999005
0.99935
0.999553
0.9995
0.99936
0.999378
0.999501
0.997532
0.997801
0.998171
0.998111
0.997808
0.998002
0.998405
0.999296
0.999236
0.999237
0.9991
0.99891
0.999133
0.999288
0.999848
0.999886
0.999908
0.99992
0.999938
0.99995
0.999974
0.999964
0.999974
0.999978
0.999982
0.999983
0.999983
0.999987
0.999986
0.999982
0.99998
0.999979
0.999979
0.999979
0.999979
0.999991
0.999996
0.999985
0.999974
0.99996
0.999956
0.999954
0.999306
0.999473
0.999566
0.999568
0.999514
0.999463
0.999458
0.99773
0.998167
0.998241
0.998436
0.998019
0.998121
0.998327
0.999289
0.999322
0.999313
0.99932
0.999151
0.999202
0.999272
0.999795
0.999886
0.999911
0.999925
0.999939
0.999949
0.999968
0.999979
0.999979
0.99998
0.999983
0.999984
0.999984
0.999986
0.999985
0.999983
0.999982
0.999982
0.999982
0.999982
0.999982
0.999989
0.999992
0.999987
0.999982
0.999975
0.999973
0.999972
0.999472
0.999619
0.99971
0.999737
0.999645
0.999585
0.999558
0.998243
0.998412
0.998358
0.998775
0.998323
0.998371
0.998405
0.999446
0.999412
0.99937
0.999422
0.999352
0.99943
0.999429
0.999915
0.999938
0.999943
0.999948
0.999953
0.999957
0.999973
0.999982
0.999987
0.999987
0.999987
0.999987
0.999986
0.999987
1
1
1
1
1
1
1
0.999997
1
1
1
1
1
1
0.999567
0.999991
0.999991
0.999991
0.999991
0.999991
0.99999
0.999057
0.999524
0.999767
0.999873
0.999913
0.999944
0.999949
0.999999
0.999999
0.999999
0.999999
0.999999
0.999998
0.999998
1
1
1
1
1
1
1
0.999999
0.999999
0.999999
0.999999
1
1
1
0.999997
0.999998
0.999998
0.999998
0.999998
0.999999
0.999999
0.999993
0.999998
0.999999
0.999999
0.999999
0.999999
0.999999
0.999532
0.999703
0.99999
0.999991
0.99999
0.99999
0.999988
0.999016
0.999301
0.999596
0.999782
0.999864
0.99988
0.999889
0.999998
0.999998
0.999998
0.999998
0.999998
0.999998
0.999997
0.999998
0.999998
0.999997
0.999998
0.999999
0.999999
0.999999
0.999996
0.999996
0.999996
0.999996
0.999997
0.999999
1
0.999989
0.999989
0.999989
0.99999
0.999991
0.999995
0.999997
0.999979
0.999987
0.999994
0.999996
0.999996
0.999997
0.999997
0.999547
0.999583
0.999771
0.999969
0.99999
0.999989
0.999987
0.998958
0.999262
0.999444
0.999638
0.999754
0.999783
0.99984
0.999602
0.999968
0.999996
0.999996
0.999996
0.999996
0.999996
0.999995
0.999994
0.999993
0.999992
0.999993
0.999996
0.999997
0.999995
0.999994
0.999993
0.999992
0.999992
0.999996
0.999999
0.999972
0.999975
0.999977
0.999979
0.999983
0.999986
0.999993
0.999953
0.99997
0.999978
0.999987
0.999991
0.999991
0.999991
0.999521
0.999577
0.999622
0.999701
0.999866
0.999965
0.999988
0.998821
0.999086
0.999225
0.999307
0.999421
0.999521
0.999632
0.999576
0.9997
0.999821
0.999856
0.999897
0.999942
0.999978
0.99999
0.999991
0.999992
0.99999
0.999988
0.99999
0.999994
0.999991
0.999992
0.999992
0.999991
0.99999
0.999991
0.999997
0.999972
0.999973
0.999975
0.999976
0.999978
0.999982
0.999988
0.999964
0.999977
0.999983
0.999987
0.999988
0.999989
0.99999
0.999529
0.999564
0.999595
0.999666
0.999716
0.999789
0.999903
0.998744
0.998891
0.998999
0.999188
0.99927
0.99933
0.999421
0.999491
0.999522
0.99959
0.999615
0.999661
0.999719
0.999837
0.999988
0.999989
0.999988
0.999985
0.999984
0.999985
0.999986
0.999988
0.999989
0.999989
0.999989
0.999989
0.999989
0.999996
0.999979
0.999979
0.99998
0.99998
0.999981
0.999982
0.999985
0.999959
0.999968
0.999975
0.999979
0.999982
0.999985
0.999984
0.999478
0.999488
0.999512
0.999551
0.999638
0.999698
0.999787
0.998462
0.998633
0.998705
0.998893
0.998943
0.999099
0.999218
0.999334
0.999419
0.999484
0.99956
0.99959
0.999655
0.9997
0.99998
0.999981
0.999981
0.999981
0.999982
0.999983
0.999985
0.999987
0.999988
0.999988
0.999988
0.999988
0.999989
0.999996
0.999982
0.999981
0.999981
0.999982
0.999982
0.999983
0.999984
0.999972
0.99997
0.99997
0.999971
0.999972
0.999975
0.999974
0.999516
0.999502
0.999507
0.999523
0.999574
0.999616
0.999637
0.998452
0.998518
0.998547
0.998614
0.99865
0.998748
0.998803
0.999446
0.999455
0.999488
0.999506
0.99957
0.999607
0.999629
0.999976
0.999978
0.999981
0.999981
0.999985
0.999987
0.999987
0.999987
0.999988
0.999988
0.999989
0.99999
0.999989
0.999996
1
1
1
1
1
1
1
1
1
1
1
1
1
0.999997
0.999547
0.999413
0.999347
0.999267
0.999201
0.999155
0.999092
0.999485
0.999431
0.999375
0.999131
0.998878
0.998257
0.997508
0.999954
0.999964
0.999972
0.999977
0.999968
0.999875
0.999415
1
1
1
1
0.999999
0.999999
0.999998
0.999999
0.999999
0.999999
0.999999
0.999999
0.999999
0.999999
0.999999
0.999999
0.999998
0.999998
0.999998
0.999998
0.999998
1
1
1
1
1
1
0.999998
0.99957
0.999412
0.99936
0.999258
0.999211
0.999124
0.999085
0.999366
0.999288
0.999014
0.998772
0.998384
0.997783
0.997472
0.999946
0.999962
0.99997
0.999974
0.999801
0.999504
0.999427
0.999999
0.999999
0.999999
0.999998
0.999997
0.999997
0.999993
0.999997
0.999996
0.999996
0.999995
0.999996
0.999996
0.999996
0.999998
0.999996
0.999994
0.999994
0.999995
0.999995
0.999995
0.999999
0.999999
0.999998
0.999998
0.999998
0.999998
0.999998
0.999614
0.999477
0.999381
0.999251
0.999192
0.9991
0.99902
0.999066
0.998878
0.998621
0.998173
0.997798
0.997555
0.997439
0.999946
0.999962
0.999965
0.999805
0.999606
0.999481
0.99945
0.999995
0.999995
0.999995
0.999992
0.999992
0.999991
0.999988
0.999995
0.999992
0.999987
0.999986
0.999986
0.999987
0.999989
0.999996
0.999993
0.999993
0.999994
0.999994
0.999995
0.999996
0.999995
0.999995
0.999994
0.999994
0.999992
0.999992
0.999994
0.999661
0.999479
0.999367
0.999282
0.999132
0.999061
0.998921
0.998621
0.998279
0.998009
0.997736
0.997618
0.99755
0.997481
0.999941
0.999865
0.999716
0.999574
0.999517
0.999461
0.999438
0.999977
0.999979
0.99998
0.999978
0.999978
0.999978
0.999969
0.999992
0.999981
0.999974
0.999974
0.999975
0.999977
0.99998
0.999995
0.999992
0.999993
0.999994
0.999994
0.999994
0.999993
0.999987
0.999988
0.999988
0.999989
0.999988
0.999989
0.999989
0.999638
0.999512
0.999348
0.99927
0.999181
0.999148
0.99911
0.998377
0.998078
0.997969
0.997778
0.997717
0.997652
0.997638
0.999845
0.999703
0.999622
0.999565
0.999479
0.999433
0.999406
0.99996
0.999963
0.999962
0.999964
0.999969
0.999916
0.999844
0.999981
0.999966
0.999965
0.999968
0.999969
0.99996
0.999953
0.999993
0.99999
0.999991
0.999992
0.999992
0.999992
0.99999
0.999989
0.99999
0.99999
0.99999
0.99999
0.99999
0.999991
0.999533
0.999385
0.999325
0.999239
0.999212
0.999211
0.999236
0.99823
0.998082
0.997908
0.997806
0.997749
0.997725
0.997712
0.999577
0.999508
0.999394
0.999357
0.999271
0.999219
0.999189
0.999904
0.999906
0.999903
0.999894
0.999876
0.999843
0.99982
0.999973
0.999965
0.999964
0.999966
0.99997
0.999974
0.99998
0.999993
0.999988
0.999988
0.999988
0.999988
0.999987
0.999986
0.999988
0.99999
0.999989
0.999989
0.999989
0.999989
0.999989
0.999364
0.999322
0.999268
0.999226
0.999218
0.999225
0.999261
0.998194
0.998151
0.998079
0.998055
0.998049
0.998065
0.998137
0.999504
0.999482
0.999421
0.999369
0.999338
0.999324
0.999335
0.999911
0.999912
0.999908
0.999906
0.999906
0.999907
0.999914
0.999971
0.999971
0.999969
0.999968
0.999967
0.999969
0.999975
1
1
1
1
1
1
1
1
1
1
1
1
1
1
0.99988
0.999861
0.99987
0.99989
0.999921
0.999949
0.99996
0.999616
0.99958
0.999569
0.99956
0.999557
0.99954
0.999531
0.999871
0.999849
0.999856
0.999873
0.999909
0.999918
0.99994
1
1
1
1
1
1
1
1
1
1
1
1
1
1
1
1
1
1
1
1
1
1
1
1
1
1
1
1
0.99987
0.999838
0.999841
0.999884
0.999909
0.999933
0.999959
0.999571
0.999492
0.999473
0.999467
0.999462
0.999442
0.999429
0.999862
0.999827
0.999833
0.999871
0.999889
0.999911
0.99992
1
1
1
1
1
1
0.999999
1
1
1
1
1
0.999999
0.999999
1
1
1
1
1
1
1
1
1
1
1
0.999999
0.999999
0.999999
0.999854
0.999814
0.99981
0.999855
0.999909
0.999936
0.999951
0.999541
0.999455
0.999424
0.9994
0.999376
0.999317
0.999226
0.999849
0.999795
0.999793
0.999838
0.999894
0.999912
0.999926
1
1
1
0.999999
0.999999
0.999998
0.999996
1
1
1
1
0.999999
0.999999
0.999996
1
1
1
1
1
1
0.999999
1
1
1
0.999999
0.999998
0.999998
0.999997
0.999843
0.999811
0.999806
0.999851
0.999904
0.999947
0.999893
0.999513
0.999375
0.999331
0.999275
0.999213
0.999086
0.998922
0.999837
0.999795
0.999789
0.999814
0.999859
0.999897
0.999919
1
1
1
0.999998
0.999996
0.999986
0.999977
1
1
1
1
0.999999
0.999998
0.999995
1
1
1
1
1
1
0.999999
1
1
0.999999
0.999997
0.999997
0.999997
0.999992
0.999822
0.999799
0.999801
0.99986
0.999918
0.99992
0.999791
0.999449
0.999285
0.99913
0.999012
0.998907
0.998784
0.99856
0.999815
0.999785
0.999781
0.999821
0.99987
0.999915
0.999909
1
1
1
0.999996
0.999982
0.999958
0.999952
1
1
1
1
0.999999
0.999997
0.999994
1
1
1
1
1
1
0.999999
1
1
0.999999
0.999996
0.999997
0.999991
0.999984
0.999774
0.999768
0.999787
0.999862
0.999918
0.999872
0.999655
0.999418
0.999155
0.999011
0.998923
0.998795
0.998539
0.998359
0.999766
0.999755
0.999761
0.999821
0.999881
0.999861
0.999739
1
1
0.999999
0.999996
0.999963
0.999932
0.999908
1
1
1
1
0.999999
0.999997
0.999992
1
1
1
1
1
1
0.999999
1
1
0.999999
0.999995
0.999987
0.999985
0.999986
0.999769
0.999735
0.999793
0.999848
0.999784
0.999598
0.999469
0.9993
0.998948
0.998787
0.99864
0.998475
0.998356
0.998285
0.999767
0.99972
0.999765
0.999805
0.999757
0.999659
0.999569
1
1
0.999999
0.999996
0.999947
0.999919
0.99991
1
1
1
1
0.999999
0.999997
0.999991
1
1
1
1
1
1
0.999999
1
1
1
0.999999
0.999995
0.999989
0.999988
0.999783
0.999782
0.999812
0.99986
0.999858
0.999787
0.99976
0.999156
0.998973
0.999005
0.999088
0.999067
0.999014
0.998976
0.999775
0.999762
0.999799
0.999837
0.99983
0.999824
0.999825
1
1
1
1
0.999997
0.99999
0.999967
1
1
1
1
0.999999
0.999997
0.999993
1
1
1
1
1
1
0.999999
1
1
1
0.999999
0.999998
0.999997
0.999997
0.999875
0.999861
0.999858
0.999878
0.999899
0.999878
0.999864
0.999193
0.999117
0.999253
0.99924
0.99926
0.999225
0.999285
0.999853
0.999848
0.999852
0.999862
0.999868
0.999894
0.999873
1
1
1
1
1
1
1
1
1
1
1
1
1
1
1
1
1
1
1
1
1
1
1
1
1
1
1
1
0.999937
0.999918
0.999899
0.999902
0.99992
0.999901
0.99988
0.999239
0.999193
0.999338
0.999363
0.999368
0.999305
0.999321
0.999837
0.999843
0.999884
0.999894
0.999898
0.999911
0.999892
1
1
1
1
0.999999
1
1
1
1
1
1
1
1
1
1
1
1
1
1
1
1
1
1
1
1
1
1
1
0.99995
0.999926
0.999915
0.999919
0.999927
0.999916
0.999898
0.999289
0.99927
0.999402
0.999424
0.99942
0.999367
0.999387
0.999768
0.999795
0.999854
0.999877
0.999886
0.999891
0.999887
1
1
1
0.999999
0.999999
1
1
1
1
1
1
1
1
1
1
1
1
1
1
1
1
1
1
1
1
1
1
1
0.999953
0.999929
0.99992
0.999924
0.99993
0.99992
0.999901
0.999305
0.99929
0.99942
0.99944
0.999437
0.999383
0.999403
0.999777
0.999793
0.999856
0.999881
0.999893
0.999894
0.999895
1
1
1
1
1
1
1
1
1
1
1
1
1
1
1
1
1
1
1
1
1
1
1
1
1
1
1
1
0.999961
0.999941
0.999933
0.999935
0.99994
0.999931
0.999914
0.999346
0.999335
0.999463
0.999483
0.999481
0.999423
0.999449
0.999809
0.999813
0.999865
0.999893
0.999902
0.999904
0.999913
1
1
1
1
1
1
1
1
1
1
1
1
1
1
1
1
1
1
1
1
1
1
1
1
1
1
1
1
0.999961
0.999948
0.999941
0.999941
0.999944
0.999935
0.999921
0.999367
0.99935
0.999476
0.999501
0.999498
0.999441
0.999474
0.99983
0.999829
0.999872
0.999897
0.999907
0.999909
0.999924
1
1
1
1
1
1
1
1
1
1
1
1
1
1
1
1
1
1
1
1
1
1
1
1
1
1
1
1
0.999989
0.999989
0.999988
0.999985
0.999984
0.999982
0.999982
0.999953
0.999954
0.999956
0.999957
0.999957
0.999958
0.999958
0.999997
0.999997
0.999995
0.999993
0.999988
0.999987
0.999987
1
1
1
1
1
1
1
1
1
1
1
1
1
1
1
1
1
1
1
1
1
1
1
1
1
1
1
1
0.999986
0.999985
0.999985
0.999981
0.999979
0.999978
0.999979
0.999897
0.999906
0.99991
0.999914
0.999921
0.999934
0.999947
0.999997
0.999996
0.999994
0.999991
0.999985
0.999984
0.999985
1
1
1
1
1
1
1
1
1
1
1
1
1
1
0.999999
1
1
1
1
1
1
0.999997
0.999998
0.999999
1
1
1
1
0.999985
0.999984
0.999981
0.999973
0.999971
0.999973
0.999975
0.999846
0.999864
0.99987
0.999881
0.999886
0.999901
0.99993
0.999996
0.999995
0.999994
0.999987
0.999976
0.999977
0.999981
0.999998
0.999999
1
1
1
1
1
1
1
1
1
1
1
1
0.999999
1
1
1
1
1
1
0.999991
0.999992
0.999995
0.999998
1
1
1
0.999985
0.999982
0.999978
0.99997
0.999968
0.99997
0.999973
0.999693
0.999754
0.999799
0.999831
0.999858
0.999873
0.999921
0.999993
0.999995
0.99999
0.999984
0.999975
0.999974
0.99998
0.999994
0.999997
0.999999
1
1
1
1
1
1
1
1
1
1
1
0.999999
1
1
1
1
1
1
0.999989
0.999988
0.999989
0.999994
1
1
1
0.999965
0.99998
0.999978
0.999969
0.999958
0.999961
0.999967
0.999498
0.99958
0.999642
0.9997
0.999765
0.99982
0.999892
0.999945
0.99998
0.999988
0.999986
0.999972
0.999968
0.999975
0.999991
0.999994
0.999998
1
1
1
1
1
1
1
1
1
1
1
0.999998
1
1
1
1
1
1
0.999981
0.999981
0.999986
0.999992
1
1
1
0.999872
0.999945
0.999976
0.99997
0.999952
0.999955
0.999962
0.999302
0.999438
0.999567
0.999645
0.999722
0.999792
0.999881
0.999795
0.999925
0.99998
0.999985
0.999971
0.999964
0.99997
0.999987
0.99999
0.999995
1
1
1
1
1
1
1
1
1
1
1
0.999998
1
1
1
1
1
1
0.999974
0.999978
0.999984
0.999992
1
1
1
0.999693
0.999764
0.999847
0.999935
0.99994
0.999939
0.999951
0.998923
0.999028
0.999179
0.999351
0.999507
0.999645
0.999829
0.99968
0.99975
0.999852
0.999946
0.999967
0.999954
0.999964
0.999989
0.999991
0.999995
1
1
1
1
1
1
1
1
1
1
1
0.999998
1
1
1
1
1
1
0.999988
0.999998
0.999999
1
1
1
1
0.999862
0.999875
0.999895
0.999952
0.999955
0.99995
0.999937
0.999418
0.999415
0.999459
0.999554
0.999572
0.999611
0.999734
0.999868
0.999856
0.999901
0.999962
0.999974
0.999966
0.999962
0.999997
0.999998
0.999999
1
1
1
1
1
1
1
1
1
1
1
1
1
1
1
1
1
1
0.999998
0.999999
1
1
1
1
1
0.99992
0.999922
0.999946
0.999962
0.999962
0.999957
0.999943
0.99954
0.999556
0.999617
0.999655
0.999666
0.999652
0.999758
0.999916
0.999922
0.999951
0.999974
0.999976
0.999972
0.99997
1
1
1
1
1
1
1
1
1
1
1
1
1
1
1
1
1
1
1
1
1
1
1
1
1
1
1
1
0.99993
0.999937
0.999954
0.999966
0.999964
0.999955
0.99994
0.999565
0.999595
0.999664
0.999718
0.999712
0.999679
0.999758
0.999925
0.999935
0.999963
0.999979
0.999978
0.999977
0.999977
1
1
1
1
1
1
1
1
1
1
1
1
1
1
1
1
1
1
1
1
1
1
1
1
1
1
1
1
0.999926
0.999932
0.999952
0.999962
0.99996
0.999945
0.999928
0.999573
0.999599
0.999677
0.999722
0.999719
0.999688
0.999754
0.999929
0.999936
0.999963
0.999979
0.999979
0.999971
0.99997
1
1
1
1
1
1
1
1
1
1
1
1
1
1
1
1
1
1
1
1
1
1
1
1
1
1
1
1
0.999927
0.999933
0.999951
0.999962
0.999958
0.999944
0.999928
0.999586
0.99961
0.999687
0.999729
0.999726
0.999697
0.999753
0.999934
0.999939
0.999964
0.99998
0.999979
0.999963
0.999957
1
1
1
1
1
1
1
1
1
1
1
1
1
1
1
1
1
1
1
1
1
1
1
1
1
1
1
1
0.999929
0.999937
0.999952
0.999963
0.999959
0.999946
0.999932
0.999619
0.999641
0.999713
0.99975
0.999744
0.999716
0.999757
0.999939
0.999943
0.999967
0.999981
0.999979
0.999966
0.99996
1
1
1
1
1
1
1
1
1
1
1
1
1
1
1
1
1
1
1
1
1
1
1
1
1
1
1
1
0.99993
0.999937
0.999953
0.999963
0.999959
0.999945
0.999931
0.999634
0.999651
0.99972
0.999756
0.999749
0.999717
0.999756
0.999942
0.999945
0.999967
0.999981
0.999979
0.999967
0.999961
1
1
1
1
1
1
1
1
1
1
1
1
1
1
)
;

boundaryField
{
    fuel
    {
        type            fixedValue;
        value           uniform 0;
    }
    primary_air
    {
        type            fixedValue;
        value           uniform 0.77;
    }
    Secondary_air_RHS
    {
        type            fixedValue;
        value           uniform 0.77;
    }
    Secondary_air_LHS
    {
        type            fixedValue;
        value           uniform 0.77;
    }
    outlet
    {
        type            inletOutlet;
        inletValue      uniform 0;
        value           nonuniform List<scalar> 
98
(
1
1
0.99993
0.999634
0.999942
1
1
1
1
0.999937
0.999651
0.999945
1
1
1
1
0.999953
0.99972
0.999967
1
1
1
1
0.999963
0.999756
0.999981
1
1
1
1
0.999959
0.999749
0.999979
1
1
1
1
0.999945
0.999717
0.999967
1
1
1
1
0.999931
0.999756
0.999961
1
1
1
1
0.999961
0.999367
0.99983
1
1
1
1
0.999948
0.99935
0.999829
1
1
1
1
0.999941
0.999476
0.999872
1
1
1
1
0.999941
0.999501
0.999897
1
1
1
1
0.999944
0.999498
0.999907
1
1
1
1
0.999935
0.999441
0.999909
1
1
1
1
0.999921
0.999474
0.999924
1
1
)
;
    }
    stove_body
    {
        type            fixedValue;
        value           uniform 0;
    }
    frontAndBack
    {
        type            empty;