/*--------------------------------*- C++ -*----------------------------------*\
  =========                 |
  \\      /  F ield         | OpenFOAM: The Open Source CFD Toolbox
   \\    /   O peration     | Website:  https://openfoam.org
    \\  /    A nd           | Version:  6
     \\/     M anipulation  |
\*---------------------------------------------------------------------------*/
FoamFile
{
    version     2.0;
    format      ascii;
    class       volScalarField;
    location    "0.02";
    object      O2;
}
// * * * * * * * * * * * * * * * * * * * * * * * * * * * * * * * * * * * * * //

dimensions      [0 0 0 0 0 0 0];

internalField   nonuniform List<scalar> 
3773
(
0
0
0
0
0
0
0
0
0
0
0
0
0
0
0
0
0
0
0
0
0
0
0
0
0
0
0
0
0
0
0
0
0
0
0
0
0
0
0
0
0
0
0
0
0
0
0
0
0
0
0
0
0
0
0
0
0
0
0
0
0
0
0
0
0
0
0
0
0
0
0
0
0
0
0
0
0
0
0
0
0
0
0
0
0
0
0
0
0
0
0
0
0
0
0
0
0
0
0
0
0
0
0
0
0
0
0
0
0
0
0
0
0
0
0
0
0
0
0
0
0
0
0
0
0
0
0
0
0
0
0
0
0
0
0
0
0
0
0
0
0
0
0
0
0
0
0
0
0
0
0
0
0
0
0
0
0
0
0
0
0
0
0
0
0
0
0
0
0
0
0
0
0
0
0
0
0
0
0
0
0
0
0
0
0
0
0
0
0
0
0
0
0
0
0
0
0
0
0
0
0
0
0
0
0
0
0
0
0
0
0
0
0
0
0
0
0
0
0
0
0
0
0
0
0
0
0
0
0
0
0
0
0
0
0
0
0
0
0
0
0
0
0
0
0
0
0
0
0
0
0
0
0
0
0
0
0
0
0
0
0
0
0
0
0
0
0
0
0
0
0
0
0
0
0
0
0
0
0
0
0
0
0
0
0
0
0
0
0
0
0
0
0
0
0
0
0
0
0
0
0
0
0
0
0
0
0
0
0
0
0
0
0
0
0
0
0
0
0
0
0
0
0
0
0
0
0
0
0
0
0
0
0
0
0
0
0
0
0
0
0
0
0
0.0015848
0.000528714
0.000555084
0.000705041
0.000855526
0.00131408
0.00277041
0.00231941
0.00092116
0.000978519
0.00110628
0.00126969
0.00174494
0.00312151
0.00423012
0.00326387
0.00324784
0.00331447
0.00331106
0.00351991
0.00440134
0.00754109
0.00755422
0.00798228
0.0077459
0.00707593
0.0068404
0.00712256
0.00471819
0.00416704
0.00388126
0.00361435
0.00359956
0.00365713
0.00383137
0.00285987
0.00163483
0.0013499
0.00150349
0.00165613
0.00165231
0.00254843
0.00234592
0.000940051
0.000762717
0.000763665
0.00085443
0.00111839
0.00211538
0.000176484
0.000105862
0.000104862
8.74358e-05
7.23602e-05
0.000180155
0.00166132
0.000918952
0.000143718
9.48123e-05
9.23766e-05
8.40242e-05
0.000128228
0.00162546
0.00274977
0.00106076
0.000848746
0.00063431
0.000379848
0.00076181
0.00286849
0.00683382
0.00692371
0.00730351
0.00688247
0.00586216
0.00544268
0.00647618
0.00358808
0.00246086
0.00228809
0.0023014
0.00226287
0.00202776
0.00179386
0.00154036
0.000136444
0.000123597
0.000203507
0.000255527
0.000129076
0.000141887
0.0012883
0.000281359
0.000111008
8.90103e-05
8.53843e-05
7.48543e-05
0.000327297
9.16441e-05
0.00011591
0.000116383
0.000107086
8.25956e-05
8.90921e-05
0.00101893
0.000644205
0.000222661
0.000137154
0.00017125
0.000144096
0.000121459
0.00130453
0.00161144
0.000512948
0.000323263
0.000218935
0.000215317
0.00036091
0.00208582
0.00581565
0.0053946
0.00556511
0.00558223
0.00417645
0.00366421
0.00501823
0.00298927
0.00180273
0.00147723
0.00146918
0.00163345
0.00167826
0.00156274
0.00127979
0.000175948
0.000162497
0.000269435
0.000340015
0.000152499
9.36817e-05
0.00132293
0.000378045
0.000131275
9.35809e-05
8.69417e-05
7.21029e-05
3.56783e-05
8.94996e-05
0.000134134
0.000124583
0.000121251
0.000107166
0.000196963
0.00100802
0.000612681
0.00027251
0.000193488
0.000250935
0.000214244
0.000211286
0.000601646
0.00117641
0.000396431
0.000296172
0.00028679
0.000302103
0.000307915
0.000679616
0.00538715
0.00480949
0.00462572
0.00449312
0.00324213
0.00291341
0.0033323
0.00301202
0.00140131
0.00100052
0.00105976
0.00120522
0.00133936
0.00145238
0.00129896
0.000527724
0.00018476
0.000279311
0.000361201
0.000165051
9.71981e-05
0.000612013
0.000265856
0.000120324
9.33874e-05
9.13062e-05
7.39826e-05
2.26158e-05
8.58418e-05
0.000142141
0.000129055
0.000135552
0.000135243
0.000244284
0.0007987
0.000659288
0.000338802
0.000256954
0.000279443
0.000266434
0.000224314
9.51644e-05
0.000885167
0.000405158
0.000363951
0.000485239
0.000566848
0.000436683
0.00028219
0.00435042
0.0039893
0.00417239
0.00428329
0.00321963
0.00279152
0.00274297
0.00291931
0.00143285
0.000721545
0.000749283
0.000856369
0.00101243
0.00116273
0.00120884
0.000765524
0.000285148
0.000275693
0.00035108
0.000180012
9.47464e-05
3.01116e-05
4.19676e-05
5.63362e-05
9.08401e-05
9.85524e-05
8.09733e-05
2.56538e-05
8.46242e-05
0.000151294
0.000138327
0.000144272
0.000154109
0.000136566
0.000234233
0.000815716
0.000690596
0.000381131
0.000333045
0.000333721
0.000299754
7.7901e-05
0.000851361
0.000465923
0.000490398
0.000841974
0.00102956
0.00081534
0.000468946
0.00383079
0.00378054
0.00400477
0.0043535
0.00341476
0.00292555
0.00275144
0.00222439
0.00139719
0.000719157
0.000700702
0.00071921
0.000779316
0.0010212
0.000372733
0.000200701
0.000151447
0.000268213
0.000350525
0.000214603
4.80606e-05
1.59874e-05
4.40097e-05
6.31474e-05
0.000103436
0.000109273
9.05997e-05
2.83262e-05
3.60174e-05
0.000118447
0.000142259
0.00016435
0.000181261
0.000168975
2.96023e-05
0.00066189
0.000379981
0.000458189
0.000443003
0.000394973
0.000346501
7.0158e-05
0.000773698
0.000469338
0.000556733
0.000969497
0.00120493
0.00126915
0.000669826
0.0034298
0.00323733
0.00353283
0.00429806
0.00369448
0.0029858
0.00299383
0.00122032
0.00111924
0.000725842
0.000654897
0.000651374
0.000629648
0.000867863
0
5.8692e-05
0.000111483
0.000274557
0.000322432
0.000253854
2.48761e-05
0
5.95244e-05
8.27323e-05
0.000114011
0.000119777
9.32363e-05
2.33492e-05
0.0002516
0.000109503
8.77416e-05
0.000158939
0.000162363
0.000132968
7.07001e-05
0.000167221
0.000265841
0.000507907
0.000531577
0.000517171
0.000365303
0.000185912
0.000525372
0.000840893
0.00105583
0.00107221
0.000972677
0.000730231
0.00010951
0.00273876
0.00336433
0.0036776
0.00423605
0.00378185
0.00304807
0.00257716
9.31432e-05
0.000720351
0.000819843
0.000783152
0.000687337
0.000577002
0.000258038
6.99913e-05
7.72384e-05
8.93256e-05
0.000123142
0.000167187
0.00015981
0.000130631
5.80274e-05
8.65586e-05
9.19384e-05
0.000108839
0.000109991
8.27603e-05
6.12634e-05
0.000271851
0.000113073
0.00010655
0.000179931
0.000175602
0.000140574
7.96446e-05
0.00035136
0.000647303
0.000740752
0.000653869
0.000616778
0.000442788
0.000201092
0.0006014
0.000922281
0.00129117
0.00165975
0.00155168
0.000787419
0.000104604
0.00296793
0.00355364
0.00367749
0.00407681
0.00342891
0.00295586
0.00270458
0.00013522
0.000665539
0.000791616
0.000759034
0.000690601
0.000524894
0.000394445
0.000100526
0.000180169
0.00020642
0.000189998
0.000211534
0.000223171
0.000178863
6.14746e-05
9.73179e-05
0.000110289
0.000119733
0.000125722
0.000128324
8.98757e-05
0.000290177
0.00010511
0.000118917
0.000197634
0.000190529
0.000127332
8.13769e-05
0.000380496
0.000834449
0.000817514
0.000731204
0.000663257
0.00049038
0.00022683
0.00076426
0.00117891
0.00146894
0.00187965
0.00153861
0.000485225
0.000107643
0.00326867
0.00356892
0.00344127
0.00363305
0.00336382
0.00299571
0.00262882
0.000229461
0.000478476
0.000656427
0.000755674
0.00073631
0.000413934
0.000296085
0.000169262
0.000329346
0.000414004
0.000418263
0.000337953
0.000337442
0.000257376
6.66022e-05
0.000101141
0.000114554
0.000123892
0.000125332
0.000169369
0.000138588
0.000285577
6.87513e-05
0.000123045
0.000203019
0.00020085
0.000146568
7.85967e-05
0.000542893
0.00117185
0.000797043
0.000649613
0.000643604
0.000497473
0.00023907
0.00116367
0.0016831
0.00151239
0.00188393
0.00171501
0.000604749
0.000107204
0.00335112
0.00346114
0.00315275
0.00329474
0.00343068
0.00300756
0.00249444
0.000243916
0.000354397
0.000515809
0.000815042
0.000898809
0.000620304
0.000146559
0.000196851
0.000385117
0.000521335
0.000697119
0.000718443
0.000568664
0.000278694
7.16514e-05
0.000101785
0.000117519
0.000128371
0.000128768
0.000196681
0.000137094
0.000241604
3.32155e-05
8.34554e-05
0.000132736
0.000173883
0.000130543
6.51337e-05
0.000829784
0.000902223
0.000367739
0.000430004
0.000627952
0.000457956
0.000213516
0.00136025
0.00173127
0.00142608
0.00178136
0.00184962
0.000877675
0.000141697
0.0033473
0.00348486
0.0030597
0.00313121
0.0034182
0.00294782
0.00222096
0.000392638
0.000473122
0.000566632
0.000857408
0.00127205
0.00100598
9.15528e-05
0.000205998
0.000391324
0.000560194
0.000731685
0.000883215
0.000585883
0.000211728
7.61618e-05
9.10269e-05
0.0001053
0.000117157
9.32629e-05
9.75008e-05
0.000126253
0.000133061
2.41178e-05
4.72313e-05
9.07612e-05
0.000178681
9.11128e-05
5.84769e-05
0.00108854
0.000475573
0.000140344
0.000302765
0.000701592
0.000458748
0.000154798
0.0014517
0.00154037
0.00114435
0.00132759
0.00151152
0.00123553
0.000273114
0.00318416
0.0033006
0.00252477
0.00260722
0.00304969
0.0026887
0.00165605
0.00082905
0.000908118
0.000697828
0.000850706
0.0012034
0.00111909
0.000532927
0.00015349
0.000256687
0.000370735
0.000494044
0.000619534
0.000683886
0.000352393
9.12751e-05
8.80678e-05
7.20245e-05
7.04607e-05
6.87365e-05
0.000105819
0.000145378
8.82187e-05
1.79037e-05
2.54385e-05
4.58655e-05
5.56242e-05
5.28752e-05
4.41141e-05
0.000651169
0.000263675
5.44744e-05
0.000199591
0.000445612
0.000341631
0.000103915
0.00104599
0.000989134
0.000830796
0.000579849
0.000832842
0.000911804
0.000411209
0.0027209
0.00304714
0.0022043
0.0022947
0.00260474
0.00231739
0.00138821
0.00062387
0.000614478
0.000549748
0.000711451
0.000964581
0.000934283
0.000467946
0.000100575
0.000141419
0.000153058
0.000142345
0.000116583
0.00016933
0.000190188
6.29189e-05
5.36307e-05
4.62295e-05
5.5773e-05
4.93778e-05
5.25312e-05
6.13405e-05
0
0.000113824
0.000120752
0.000182773
0.000201664
0.000186877
0
0
0.000315025
0.000531901
0.000507813
0.000438693
0.000368797
0
0.000820918
0.000512629
0.000759737
0.00129326
0.000666138
0.00115299
0
0.00316676
0.00326382
0.00358475
0.00430126
0.00380342
0.00305337
0.0029423
0.000918437
0.00113183
0.000800223
0.000724328
0.00066696
0.000642513
0.000633623
0
6.88733e-05
0.000114621
0.000234015
0.000292335
0.000253333
0
0
7.14252e-05
8.55224e-05
0.000111429
0.00011648
9.49566e-05
0
0
0.000112697
0.000111229
0.000173108
0.00019186
0.000175528
0
0
0.000308026
0.000520665
0.00048254
0.000436453
0.000341803
0
0.000778488
0.000519389
0.000798467
0.00109495
0.00065922
0.00107799
0
0.00311607
0.00326983
0.00358947
0.004303
0.00382782
0.00307267
0.00290556
0.000851819
0.00112721
0.000817201
0.000739436
0.00068992
0.000656293
0.00057188
0
6.56683e-05
0.000102304
0.00020727
0.000255646
0.000224141
0
0
7.2237e-05
8.56221e-05
0.000107338
0.000108644
8.18487e-05
0
3.81633e-05
0.000112366
0.000108587
0.000170699
0.000189774
0.000172048
0
0
0.000299519
0.000517518
0.000475635
0.00043663
0.00033228
0
0.000728052
0.000529718
0.000800158
0.000979351
0.000694717
0.000917813
0
0.00306397
0.00327816
0.00359943
0.00430155
0.00384231
0.00307533
0.00284205
0.000725944
0.00110962
0.000866316
0.000791864
0.00071169
0.000655359
0.000447542
0
6.68696e-05
9.89164e-05
0.000196429
0.000234617
0.000213817
0
0
7.36528e-05
8.62948e-05
0.000106483
0.000107971
8.07997e-05
0
7.82642e-05
0.000111392
0.000108755
0.000169385
0.000190716
0.000165121
0
0
0.000294142
0.000520159
0.000471935
0.000442051
0.000319995
0
0.000621901
0.000534735
0.000797391
0.000954767
0.000747534
0.000777299
0
0.00299768
0.00328133
0.003602
0.004297
0.0038408
0.00308695
0.00278023
0.000637639
0.00106551
0.000890301
0.000796488
0.0007145
0.000653275
0.000364202
0
7.53222e-05
9.78354e-05
0.0001724
0.000222198
0.000213338
0
0
7.45104e-05
8.78793e-05
0.000106296
0.000109484
8.2855e-05
0
0.000104558
0.000110721
0.000108636
0.000169826
0.000191521
0.000159848
0
0
0.000289173
0.000525366
0.000473534
0.000452118
0.000314341
0
0.000572656
0.000552247
0.000803678
0.000959625
0.000773894
0.000740018
0
0.00289959
0.00329056
0.00361105
0.0042941
0.00383417
0.00309211
0.00272638
0.000445585
0.00104435
0.000893185
0.000802028
0.000715299
0.000650076
0.00023995
0
7.76765e-05
9.81928e-05
0.000147993
0.000209892
0.000208823
0
0
7.52039e-05
8.85798e-05
0.000105685
0.00011069
8.34084e-05
0
0.000140172
0.000109894
9.71738e-05
0.000161786
0.00018349
0.000150732
0
0
0.000275583
0.000525446
0.000470297
0.000456745
0.000304718
0
0.000485653
0.000597778
0.000832233
0.000934141
0.000783731
0.000727182
0
0.00285289
0.00329964
0.00361959
0.00428097
0.00383626
0.00309085
0.00265525
0.000380581
0.00104545
0.00090409
0.000803821
0.000712709
0.00063898
0.000160441
0
8.11247e-05
9.88924e-05
0.000140659
0.000204499
0.000187796
0
0
7.62677e-05
8.98136e-05
0.00010564
0.000111524
7.38112e-05
0
0.000195489
0.00010896
9.11041e-05
0.000155315
0.000177448
0.000145236
0
0
0.000268165
0.000514634
0.000459214
0.000460629
0.000300486
5.59303e-05
0.000413999
0.000619022
0.000849721
0.000924226
0.000762361
0.000712422
0
0.00274346
0.00331064
0.00363521
0.00427974
0.00385142
0.00310621
0.00255023
0.000213156
0.00104155
0.000931198
0.000828437
0.000727892
0.000646182
2.02644e-05
0
7.91973e-05
9.23247e-05
0.000128979
0.000181773
0.000168107
0
1.45652e-05
7.91542e-05
9.03794e-05
0.000106038
0.000110328
6.56213e-05
0
8.47708e-07
4.25119e-06
8.44566e-06
6.65428e-06
4.04122e-06
3.33885e-06
6.21928e-07
3.52735e-06
2.72729e-06
2.20655e-05
4.21583e-05
4.56457e-05
4.83484e-05
7.72522e-06
0.000997979
0.00112404
0.000758228
0.000724827
0.000615672
0.000671508
0.000519584
0.00267896
0.00292206
0.00199473
0.00218692
0.00244789
0.00220398
0.00140289
0.000609333
0.000469502
0.000546911
0.000731963
0.00077218
0.000827638
7.81912e-05
9.71038e-06
2.33875e-05
5.25545e-05
5.00088e-05
1.90719e-05
8.58025e-06
1.54392e-06
1.30859e-06
4.36197e-06
1.03497e-05
1.52326e-05
1.44693e-05
9.16165e-06
1.82839e-06
3.29945e-06
1.00627e-05
9.74817e-06
6.68501e-06
6.04708e-06
3.8596e-06
2.95655e-06
2.47182e-06
2.25217e-06
2.83661e-05
2.87303e-05
2.82536e-05
2.6616e-05
1.13195e-05
0.000962369
0.000844086
0.000574631
0.000710131
0.000749531
0.000676578
0.000527079
0.00266562
0.00273792
0.00190291
0.00214247
0.00238502
0.00216364
0.00142717
0.000575643
0.000470355
0.000614368
0.000757424
0.000610025
0.000777313
0.000302223
1.23132e-05
1.93901e-05
4.13244e-05
4.26215e-05
4.06878e-05
2.2196e-05
2.44667e-06
3.60696e-06
4.64366e-06
7.1224e-06
1.04592e-05
1.04537e-05
1.01769e-05
6.197e-06
7.45732e-06
1.20713e-05
1.61627e-05
1.31445e-05
1.1888e-05
1.08586e-05
1.03546e-05
2.47658e-06
2.09913e-06
3.18051e-05
3.66489e-05
3.70547e-05
3.75319e-05
3.02454e-05
0.00105493
0.000845905
0.000609188
0.000727928
0.000812986
0.000696424
0.000564872
0.00262253
0.00260652
0.00185772
0.00211326
0.00234672
0.0020798
0.00150072
0.000550877
0.000552137
0.000814466
0.00101789
0.000770259
0.00074338
0.00050887
2.24074e-05
2.74074e-05
4.77203e-05
4.69038e-05
4.46047e-05
3.56458e-05
1.05177e-05
1.03125e-05
8.80219e-06
1.04403e-05
1.2388e-05
1.2211e-05
1.16291e-05
7.51435e-06
8.64636e-06
1.63113e-05
2.28296e-05
2.50396e-05
2.43873e-05
2.46915e-05
2.67009e-05
3.89579e-06
2.43426e-06
2.99131e-05
5.90094e-05
6.09349e-05
5.98944e-05
6.28595e-05
0.00116772
0.000798507
0.000543259
0.000599392
0.00077396
0.000663029
0.000557053
0.00254976
0.00238324
0.00185311
0.002024
0.00227614
0.00204169
0.00152663
0.000585109
0.000815587
0.000925609
0.00105968
0.00107703
0.000798307
0.000514164
5.86211e-05
5.52993e-05
6.08952e-05
6.17986e-05
5.73822e-05
4.92528e-05
1.87299e-05
1.95711e-05
1.6876e-05
1.52097e-05
1.71576e-05
1.77048e-05
1.6105e-05
1.14604e-05
1.18922e-05
1.78519e-05
2.19175e-05
2.22016e-05
2.22178e-05
2.24379e-05
2.9016e-05
7.36628e-06
3.144e-06
2.23466e-05
3.96362e-05
5.7517e-05
5.84789e-05
5.1923e-05
0.000995375
0.000649501
0.000447275
0.000500037
0.00064038
0.000622086
0.000498523
0.00246798
0.00219899
0.00182938
0.00188891
0.00219245
0.00199788
0.00159536
0.000703941
0.000763731
0.000762887
0.000899522
0.00109039
0.000867371
0.000712334
0.000152042
0.000114423
9.15041e-05
7.96565e-05
6.15339e-05
4.97702e-05
2.56264e-05
3.55964e-05
2.62578e-05
2.16307e-05
1.76855e-05
1.72091e-05
1.65128e-05
1.34101e-05
1.3807e-05
1.79919e-05
2.03881e-05
2.0864e-05
2.05888e-05
2.10308e-05
2.05715e-05
8.5565e-06
4.36524e-06
1.54462e-05
2.5553e-05
3.99875e-05
4.36943e-05
4.64894e-05
0.000693945
0.000527093
0.000434087
0.000431929
0.00048637
0.000537223
0.000542258
0.00226965
0.00183263
0.00175942
0.00156449
0.00198084
0.00187857
0.00167296
0.000710671
0.000677552
0.000686966
0.000680061
0.000848979
0.000797618
0.000727544
0.000205334
0.00011389
8.90459e-05
7.50091e-05
6.12178e-05
5.09751e-05
3.16348e-05
2.06903e-05
2.06042e-05
1.95384e-05
1.67368e-05
1.61317e-05
1.5885e-05
1.41229e-05
1.53708e-05
1.72655e-05
1.77022e-05
1.81163e-05
1.82615e-05
1.81748e-05
1.79414e-05
1.07555e-05
8.39503e-06
1.27352e-05
1.84575e-05
2.4546e-05
2.67031e-05
2.7949e-05
0.000527845
0.000380648
0.000289902
0.000263016
0.000355169
0.000415295
0.000442435
0.00175737
0.00158783
0.00164164
0.00122489
0.00167723
0.00162949
0.00159532
0.00055356
0.000587875
0.000629555
0.000577856
0.000647833
0.000569535
0.000571225
8.49789e-05
6.15883e-05
5.67074e-05
5.1982e-05
4.6788e-05
4.26285e-05
2.6657e-05
1.75341e-05
1.27039e-05
1.31674e-05
1.28869e-05
1.31744e-05
1.36045e-05
1.32601e-05
2.8626e-07
2.51111e-07
2.47825e-07
2.20144e-07
2.13419e-07
2.09427e-07
1.29667e-07
2.75757e-06
2.97731e-07
2.54262e-07
1.70096e-07
8.78258e-08
8.73676e-08
7.70991e-08
0.000433282
9.19574e-06
9.16958e-06
9.01383e-06
8.87537e-06
8.96856e-06
1.04058e-05
0.000942955
0.000475707
0.000232966
0.0001272
8.71544e-05
5.63284e-05
5.13492e-05
1.0117e-06
9.92367e-07
1.04893e-06
1.1421e-06
1.40608e-06
1.72119e-06
2.22405e-06
2.88835e-07
2.83273e-07
2.85153e-07
2.42964e-07
1.63305e-07
1.2637e-07
9.70598e-08
5.59484e-07
5.83846e-07
5.9998e-07
5.03678e-07
2.28874e-07
1.04109e-07
5.71012e-08
2.63108e-06
2.49873e-06
2.33829e-06
2.15405e-06
1.60155e-06
1.27624e-06
5.70487e-07
6.90962e-06
1.69647e-06
6.988e-07
6.40588e-07
5.81562e-07
5.57144e-07
5.00794e-07
0.000467775
0.000296506
1.03142e-05
9.4781e-06
9.65078e-06
1.0373e-05
1.17154e-05
0.000984414
0.000699349
0.00040412
0.000218233
0.00013626
0.000120344
0.000110868
2.12074e-06
1.82718e-06
1.92058e-06
2.08572e-06
2.26596e-06
2.43669e-06
2.81353e-06
2.30221e-06
2.47113e-06
2.58318e-06
2.49256e-06
1.39114e-06
8.2348e-07
5.91436e-07
3.93394e-06
4.2105e-06
4.48623e-06
4.17803e-06
3.29066e-06
8.29673e-07
2.93563e-07
1.08469e-05
1.11567e-05
1.08016e-05
9.80322e-06
8.76223e-06
5.25203e-06
2.58524e-06
2.07469e-05
1.27888e-05
6.28942e-06
4.23088e-06
3.55178e-06
3.32748e-06
3.21778e-06
0.00045322
0.000416787
0.000229135
3.09891e-05
1.03435e-05
1.09376e-05
1.28e-05
0.00104197
0.000738438
0.000555849
0.000361848
0.000246069
0.000216852
0.000160428
0.000397759
3.15957e-05
4.1026e-06
4.09608e-06
3.81608e-06
3.83716e-06
4.1916e-06
5.03345e-06
6.35641e-06
7.30225e-06
7.52672e-06
6.95904e-06
4.35338e-06
2.82275e-06
4.7555e-06
5.87004e-06
7.14035e-06
7.61243e-06
7.57212e-06
4.44517e-06
1.16533e-06
2.79583e-05
2.46064e-05
2.32283e-05
2.06998e-05
1.65871e-05
1.4346e-05
7.01922e-06
4.68077e-05
3.03321e-05
2.21034e-05
1.33444e-05
9.26815e-06
9.14795e-06
8.88149e-06
0.000478938
0.000422677
0.000377516
0.000298872
0.000134176
3.53543e-05
1.18144e-05
0.00117921
0.000913652
0.000775032
0.000692573
0.000579366
0.000479344
0.000368079
0.000424246
0.000299541
0.000178853
0.000143751
0.000102977
5.83572e-05
2.1874e-05
1.01633e-05
8.58894e-06
8.38647e-06
9.96212e-06
1.21362e-05
1.00191e-05
5.62246e-06
9.16796e-06
7.88903e-06
8.066e-06
8.8749e-06
9.83925e-06
8.56204e-06
2.84778e-06
2.83348e-05
2.65067e-05
2.49719e-05
2.37873e-05
2.2225e-05
1.82863e-05
1.19811e-05
3.60959e-05
2.30625e-05
1.74388e-05
1.26424e-05
1.18786e-05
1.11281e-05
1.04549e-05
0.000470797
0.000435715
0.000405213
0.000333553
0.000284142
0.000210855
9.67902e-05
0.00125632
0.00110877
0.00100138
0.00081202
0.000730324
0.000669771
0.000578594
0.000509451
0.000477971
0.00040996
0.000384548
0.000339256
0.000281219
0.000163107
1.24198e-05
1.08028e-05
1.15043e-05
1.4568e-05
1.62519e-05
1.51923e-05
1.36554e-05
1.23023e-05
1.14503e-05
1.12739e-05
1.13239e-05
1.12157e-05
1.06998e-05
4.02067e-06
2.07088e-05
2.08685e-05
2.04636e-05
1.95703e-05
1.89263e-05
1.76249e-05
1.53616e-05
4.11076e-05
3.17403e-05
2.49424e-05
2.11286e-05
1.8391e-05
1.54076e-05
1.61601e-05
0.00052184
0.000512386
0.000487722
0.000448942
0.000362374
0.000302093
0.000213038
0.00153848
0.00136686
0.00129529
0.00110718
0.00105734
0.000901288
0.000782362
0.000666025
0.000580719
0.00051645
0.000440106
0.000410431
0.000345083
0.000299576
2.00358e-05
1.9223e-05
1.91624e-05
1.89935e-05
1.76588e-05
1.65164e-05
1.48351e-05
1.27459e-05
1.23853e-05
1.20546e-05
1.17805e-05
1.1576e-05
1.098e-05
4.3741e-06
1.8225e-05
1.851e-05
1.85563e-05
1.83792e-05
1.79534e-05
1.74539e-05
1.60475e-05
2.76042e-05
2.97214e-05
2.96972e-05
2.93656e-05
2.76957e-05
2.54907e-05
2.56643e-05
0.000484016
0.000497636
0.000492867
0.000476992
0.000426453
0.000383983
0.000363019
0.00154846
0.00148225
0.00145325
0.00138609
0.00134962
0.00125221
0.00119745
0.000554477
0.000544548
0.000512143
0.000494383
0.000430211
0.000393107
0.000371242
2.42666e-05
2.20742e-05
1.94835e-05
1.8639e-05
1.51686e-05
1.32149e-05
1.34827e-05
1.26841e-05
1.21532e-05
1.19499e-05
1.13692e-05
9.7354e-06
1.05121e-05
3.79874e-06
1.51434e-07
2.28632e-07
2.64516e-07
3.52003e-07
3.6251e-07
3.54797e-07
3.66142e-07
7.17245e-08
8.84322e-08
9.80774e-08
1.06839e-07
1.07485e-07
1.08572e-07
3.47043e-06
0.000452573
0.000587452
0.00065297
0.000732922
0.000798815
0.000844611
0.00090823
0.000515222
0.00056937
0.00062484
0.00086945
0.0011223
0.00174342
0.00249156
4.59103e-05
3.56416e-05
2.816e-05
2.33777e-05
3.196e-05
0.000124923
0.000584543
2.42189e-07
3.12028e-07
3.80079e-07
4.98243e-07
7.37982e-07
7.08161e-07
1.63876e-06
6.17302e-07
9.66155e-07
1.10076e-06
1.11683e-06
1.10336e-06
1.03188e-06
9.76205e-07
5.24227e-07
9.92829e-07
1.92008e-06
2.28803e-06
2.32848e-06
2.27697e-06
1.97396e-06
2.11704e-07
2.68619e-07
3.39943e-07
4.13972e-07
4.23932e-07
4.38342e-07
2.33544e-06
0.000429509
0.000587937
0.000640347
0.000742352
0.000789336
0.00087588
0.000915496
0.00063373
0.000711909
0.000985691
0.00122842
0.00161593
0.00221669
0.00252832
5.43221e-05
3.77078e-05
3.04386e-05
2.59398e-05
0.000198937
0.000495882
0.00057267
1.17472e-06
1.44043e-06
1.49443e-06
1.54475e-06
2.57644e-06
3.33862e-06
6.98111e-06
2.74429e-06
3.5383e-06
4.3167e-06
4.5466e-06
4.48491e-06
4.20304e-06
3.78499e-06
1.51637e-06
4.46832e-06
5.53669e-06
5.67592e-06
5.47912e-06
5.32933e-06
4.51784e-06
8.93343e-07
1.2158e-06
1.57809e-06
1.6426e-06
2.07788e-06
2.19083e-06
2.25139e-06
0.000385763
0.000522774
0.000619254
0.000748554
0.000807906
0.0009002
0.000979712
0.000933666
0.00112189
0.00137852
0.00182687
0.00220231
0.00244475
0.00256085
5.36649e-05
3.77372e-05
3.53406e-05
0.000194544
0.000393629
0.000519196
0.000550419
4.92167e-06
5.10606e-06
5.12159e-06
7.74058e-06
7.58847e-06
8.78503e-06
1.19149e-05
5.11882e-06
8.16938e-06
1.31653e-05
1.41079e-05
1.37675e-05
1.30641e-05
1.12154e-05
4.09555e-06
6.97959e-06
6.86195e-06
6.20454e-06
5.97099e-06
5.49294e-06
4.48482e-06
4.83261e-06
5.25059e-06
5.53308e-06
6.08218e-06
7.55918e-06
7.54177e-06
6.21626e-06
0.00033943
0.000521042
0.000632518
0.000717632
0.000867708
0.0009385
0.00107902
0.00137868
0.00172144
0.00199101
0.00226351
0.00238178
0.00245025
0.00251863
5.93367e-05
0.000135152
0.000284472
0.00042574
0.000482565
0.000538551
0.000562341
2.26545e-05
2.09548e-05
2.03654e-05
2.15185e-05
2.2419e-05
2.18716e-05
3.13378e-05
8.13382e-06
1.94612e-05
2.64425e-05
2.6356e-05
2.46707e-05
2.30853e-05
1.97241e-05
5.34277e-06
8.17827e-06
7.39168e-06
6.16623e-06
5.96143e-06
6.26495e-06
7.24327e-06
1.26032e-05
1.20976e-05
1.15259e-05
1.14721e-05
1.15017e-05
1.14936e-05
1.09109e-05
0.000361632
0.000487756
0.000652378
0.00072984
0.000819304
0.000852345
0.000889909
0.00162275
0.00192222
0.00203134
0.00222174
0.00228349
0.00234797
0.0023616
0.000155452
0.000296787
0.000378362
0.000434925
0.000521262
0.000566947
0.000594151
3.98907e-05
3.71746e-05
3.84331e-05
3.56176e-05
3.07837e-05
8.42786e-05
0.000155544
1.88498e-05
3.4029e-05
3.45599e-05
3.16612e-05
3.06491e-05
4.04123e-05
4.68812e-05
6.58482e-06
1.01295e-05
9.05437e-06
8.42658e-06
8.19182e-06
8.20906e-06
9.54553e-06
1.09616e-05
1.01923e-05
1.03875e-05
1.03137e-05
1.01519e-05
9.83184e-06
9.10434e-06
0.000467433
0.000615462
0.000675263
0.000760945
0.000788401
0.00078905
0.000763507
0.0017699
0.00191777
0.00209164
0.00219387
0.00225096
0.00227469
0.00228799
0.000423245
0.000492183
0.000605643
0.000643143
0.000728502
0.000780847
0.000810762
9.60828e-05
9.4286e-05
9.73686e-05
0.000105705
0.00012433
0.000156879
0.00018031
2.65206e-05
3.5384e-05
3.63247e-05
3.39974e-05
2.9709e-05
2.63849e-05
2.04345e-05
6.60263e-06
1.15137e-05
1.18306e-05
1.19812e-05
1.21447e-05
1.25753e-05
1.35224e-05
1.18766e-05
1.04439e-05
1.06496e-05
1.08043e-05
1.10198e-05
1.11071e-05
1.11304e-05
0.000636147
0.000677658
0.000731746
0.000774394
0.000782244
0.000775367
0.000739052
0.00180624
0.00184927
0.00192096
0.00194484
0.00195074
0.00193499
0.00186262
0.000495622
0.000518371
0.000578754
0.00063139
0.000662315
0.000676102
0.000664519
8.9004e-05
8.84369e-05
9.21627e-05
9.36819e-05
9.40475e-05
9.31507e-05
8.63996e-05
2.85417e-05
2.93929e-05
3.11807e-05
3.23593e-05
3.30692e-05
3.10577e-05
2.48136e-05
1.17535e-08
1.44249e-08
2.54921e-08
3.59553e-08
4.69822e-08
7.08732e-08
1.22205e-07
9.47349e-09
1.52299e-08
2.63163e-08
3.68766e-08
4.84257e-08
5.27746e-08
6.51352e-08
0.000120244
0.000138824
0.000130437
0.000110083
7.92461e-05
5.11856e-05
3.96518e-05
0.000383865
0.000420011
0.000431495
0.000440042
0.000443422
0.000459921
0.000468987
0.00012923
0.000150545
0.000144235
0.000127151
9.08755e-05
8.17892e-05
6.01259e-05
3.30671e-09
3.99893e-09
9.44699e-09
1.73045e-08
4.98314e-08
7.93184e-08
1.18891e-07
2.34831e-09
2.69046e-09
1.49668e-08
3.50656e-08
1.26141e-07
1.70404e-07
2.98406e-07
8.79387e-09
1.52259e-08
3.4463e-08
5.83142e-08
9.27499e-08
1.71941e-07
2.60667e-07
1.53516e-08
2.82689e-08
5.98128e-08
1.02364e-07
1.39512e-07
1.57988e-07
1.87673e-07
0.000129846
0.000161854
0.000158727
0.000116146
9.11896e-05
6.66035e-05
4.12809e-05
0.000429324
0.000508037
0.000527069
0.000533367
0.00053761
0.000557806
0.000570908
0.000138414
0.000173223
0.000166906
0.000129223
0.00011092
8.94661e-05
7.95074e-05
3.46607e-09
4.9175e-09
1.65585e-08
1.00318e-07
3.67698e-07
4.95793e-07
8.08218e-07
1.65189e-09
2.53731e-09
1.71229e-08
1.22518e-07
3.67641e-07
5.04305e-07
1.07911e-06
6.86103e-09
1.47451e-08
4.10129e-08
8.59254e-08
1.27582e-07
3.07313e-07
4.51544e-07
3.01225e-08
4.94413e-08
7.67635e-08
2.2395e-07
5.21698e-07
6.68382e-07
7.68925e-07
0.000146184
0.000185759
0.000190379
0.000144752
9.11482e-05
6.40782e-05
4.94476e-05
0.000459296
0.000545099
0.000576421
0.000599991
0.000623726
0.000683175
0.000774017
0.000150916
0.000204724
0.000207291
0.000162038
0.000106498
8.83481e-05
7.40455e-05
5.71798e-09
7.1315e-09
5.47319e-08
5.71119e-07
1.44602e-06
2.064e-06
3.67316e-06
1.40894e-09
2.57832e-09
3.58192e-08
1.96956e-07
6.19808e-07
1.15211e-06
3.9065e-06
7.24251e-09
1.70501e-08
4.73979e-08
1.0189e-07
1.37112e-07
3.96341e-07
5.31734e-07
3.78434e-08
6.32404e-08
2.01742e-07
1.26639e-06
1.57216e-06
1.73929e-06
3.28082e-06
0.000156889
0.000189404
0.000193571
0.000148824
9.62569e-05
5.25361e-05
0.000106765
0.000486704
0.000625261
0.000669335
0.000724844
0.000787051
0.000914426
0.00107765
0.000163347
0.000205366
0.000211104
0.000185898
0.000140915
0.000103357
8.06701e-05
6.7577e-09
8.31004e-09
1.51117e-07
2.01411e-06
4.42843e-06
1.37165e-05
2.27406e-05
1.27383e-09
2.6907e-09
4.5384e-08
2.09197e-07
7.81843e-07
1.79326e-06
5.25188e-06
7.23929e-09
1.8056e-08
5.10625e-08
1.05991e-07
1.58484e-07
4.36676e-07
5.48769e-07
4.19681e-08
8.29933e-08
5.51375e-07
2.71347e-06
2.59199e-06
3.20095e-06
8.27522e-06
0.000177586
0.00020122
0.000198561
0.00013994
8.24473e-05
8.01097e-05
0.000209356
0.000550797
0.000715168
0.000869987
0.000987661
0.00109313
0.00121572
0.00143977
0.000184626
0.000214983
0.000218614
0.000178604
0.000130485
8.45664e-05
9.06969e-05
7.51308e-09
1.08659e-08
3.49689e-07
3.58119e-06
1.76299e-05
4.22903e-05
4.76942e-05
1.04341e-09
3.01418e-09
5.28475e-08
2.0746e-07
9.03799e-07
2.67542e-06
6.25387e-06
7.2109e-09
1.81385e-08
5.23046e-08
1.07435e-07
1.67331e-07
4.49946e-07
5.52784e-07
4.53326e-08
1.09385e-07
9.31264e-07
4.17749e-06
3.17281e-06
9.02084e-06
1.59693e-05
0.000225933
0.000232276
0.000213236
0.000138459
8.24893e-05
0.000128367
0.000345083
0.0005817
0.000845188
0.000988632
0.00107693
0.00120539
0.00146114
0.0016411
0.000233694
0.000244569
0.000238825
0.000179436
0.000118797
0.000138984
0.000261246
7.93367e-09
1.44655e-08
5.39006e-07
4.05198e-06
3.69009e-05
6.84688e-05
9.23857e-05
1.08555e-09
3.23746e-09
5.29107e-08
1.96086e-07
9.77431e-07
3.22996e-06
8.2543e-06
6.8958e-09
1.80263e-08
5.25959e-08
1.07756e-07
1.76755e-07
4.53986e-07
5.4834e-07
4.62542e-08
1.18535e-07
1.48314e-06
4.95871e-06
1.33258e-05
1.50831e-05
1.4361e-05
0.000230553
0.000264512
0.000206744
0.000151897
0.000215661
0.000401701
0.000530764
0.000700262
0.00105227
0.00121277
0.0013604
0.00152496
0.00164376
0.0017148
0.000232877
0.000279997
0.000234753
0.000194814
0.000243463
0.000341136
0.000430662
8.09391e-09
1.66319e-08
5.78794e-07
4.0149e-06
5.32564e-05
8.06117e-05
8.96509e-05
1.11194e-09
3.50165e-09
5.18994e-08
1.81205e-07
1.00641e-06
3.33414e-06
9.05205e-06
3.55365e-09
1.70608e-08
4.33071e-08
1.08363e-07
1.96647e-07
4.12305e-07
5.45205e-07
4.9392e-08
1.41799e-07
3.46196e-07
5.40835e-07
4.51613e-06
1.14551e-05
1.24277e-05
0.000216635
0.000218052
0.000188451
0.000140096
0.000142459
0.000213421
0.000239768
0.000844223
0.00102704
0.000995378
0.000912235
0.000933176
0.000985992
0.00102416
0.000224581
0.000237695
0.000201019
0.000163159
0.000170382
0.000175708
0.000174586
1.11755e-08
2.11037e-08
1.16886e-07
4.2053e-07
2.77017e-06
9.8439e-06
3.25478e-05
3.69671e-10
3.69329e-09
1.64367e-08
1.66287e-07
6.89995e-07
3.35581e-06
6.56528e-06
3.56698e-09
1.62477e-08
4.01622e-08
8.15262e-08
1.7077e-07
4.15365e-07
5.59667e-07
5.13478e-08
1.50481e-07
3.95171e-07
8.80042e-07
1.58947e-06
2.75283e-06
3.04783e-06
0.000124684
0.000138607
0.000142254
0.000121637
0.000100977
0.000122254
0.00013559
0.000807257
0.000882635
0.00074698
0.00076029
0.000739528
0.000775245
0.000714873
0.000146769
0.000151738
0.000148383
0.000138102
0.00013221
0.000106388
0.000126994
1.8386e-08
1.54814e-08
8.87703e-08
2.98445e-07