/*--------------------------------*- C++ -*----------------------------------*\
  =========                 |
  \\      /  F ield         | OpenFOAM: The Open Source CFD Toolbox
   \\    /   O peration     | Website:  https://openfoam.org
    \\  /    A nd           | Version:  6
     \\/     M anipulation  |
\*---------------------------------------------------------------------------*/
FoamFile
{
    version     2.0;
    format      ascii;
    class       surfaceScalarField;
    location    "0.02";
    object      phi;
}
// * * * * * * * * * * * * * * * * * * * * * * * * * * * * * * * * * * * * * //

dimensions      [1 0 -1 0 0 0 0];

internalField   nonuniform List<scalar> 
10143
(
1.45441e-07
-4.27292e-05
4.78076e-05
-1.42596e-07
-4.22852e-05
4.78975e-05
2.83085e-07
-4.31891e-05
4.81184e-05
4.38565e-07
-4.26921e-05
4.78622e-05
1.38937e-07
-4.21829e-05
4.7776e-05
1.83024e-07
-4.28264e-05
4.802e-05
-4.23344e-05
4.75847e-05
1.87592e-07
-1.71292e-05
-1.22416e-05
7.83331e-08
-1.68614e-05
-1.16132e-05
-7.18106e-07
-1.72111e-05
-1.15983e-05
-5.25342e-07
-1.72003e-05
-1.20307e-05
-1.14341e-07
-1.69989e-05
-1.17783e-05
-9.35649e-07
-1.69279e-05
-1.12883e-05
-1.70102e-05
-1.24748e-05
-3.25832e-07
-7.10582e-06
-1.72736e-06
7.30078e-07
-7.1229e-06
-3.19782e-06
-2.69339e-08
-6.95921e-06
-1.60758e-06
-5.46377e-07
-7.02412e-06
-1.756e-06
-3.73272e-07
-7.01653e-06
-2.36529e-06
-6.39833e-07
-6.76507e-06
-2.1132e-06
-7.03059e-06
-2.82017e-06
-4.32221e-07
7.01313e-06
-1.54798e-06
-7.03203e-07
7.06523e-06
-1.82445e-06
-3.37479e-07
6.93921e-06
-2.22559e-06
-2.09915e-07
6.83643e-06
-1.91498e-06
-1.98962e-07
6.84279e-06
-1.79198e-06
4.26894e-07
6.70232e-06
-2.03303e-06
6.92006e-06
-1.40858e-06
-1.42941e-07
1.70803e-05
-1.92653e-06
5.03899e-07
1.67657e-05
-2.41141e-06
-1.56322e-08
1.70156e-05
-1.65965e-06
-6.27388e-07
1.6907e-05
-1.50553e-06
-5.07455e-07
1.70266e-05
-2.51182e-06
-7.1365e-07
1.71098e-05
-2.46178e-06
1.69739e-05
-3.03915e-06
5.23354e-07
4.27611e-05
-1.29402e-05
3.13455e-07
4.24747e-05
-1.21329e-05
6.50787e-08
4.30046e-05
-1.23273e-05
2.16556e-07
4.26438e-05
-1.24158e-05
1.0694e-06
4.23257e-05
-1.25972e-05
-2.74053e-07
4.34091e-05
-1.14238e-05
4.27851e-05
-1.24919e-05
3.01704e-07
4.78254e-05
8.79351e-08
4.79905e-05
3.31058e-07
4.81516e-05
3.40565e-07
4.80307e-05
3.4319e-08
4.79966e-05
2.18979e-07
4.85694e-05
4.82082e-05
5.38886e-08
-6.44996e-06
5.78261e-05
-2.66375e-08
-6.70795e-06
5.83894e-05
3.28161e-07
-6.88264e-06
5.84516e-05
5.59407e-07
-6.43627e-06
5.78735e-05
3.09176e-07
-5.72929e-06
5.76056e-05
2.11837e-07
-6.05126e-06
5.79558e-05
-5.77052e-06
5.71844e-05
-3.12996e-07
8.90167e-06
-2.25177e-05
-3.48335e-07
9.85279e-06
-2.37412e-05
-8.5977e-07
1.0383e-05
-2.4018e-05
-2.0335e-07
1.03589e-05
-2.50924e-05
2.87129e-07
1.04645e-05
-2.40704e-05
-4.89902e-07
1.07037e-05
-2.28138e-05
1.02125e-05
-2.4135e-05
-4.43764e-07
1.15231e-06
-1.51516e-06
1.4324e-07
9.96952e-07
-3.00789e-06
-2.06079e-07
1.73166e-06
-6.53084e-07
-7.27038e-08
1.73964e-06
-1.33321e-06
2.10703e-07
1.305e-06
-1.62154e-06
-2.91602e-07
1.57388e-06
-6.71654e-07
1.12241e-06
-2.13527e-06
-2.70786e-07
-1.20527e-06
-1.10393e-06
-4.67066e-07
-1.54992e-06
-1.34031e-06
-3.93104e-07
-1.43889e-06
-1.46361e-06
-5.65192e-07
-1.44394e-06
-9.11135e-07
-6.55159e-07
-1.25481e-06
-1.48242e-06
5.99227e-08
-1.79417e-06
-1.70763e-06
-1.20261e-06
-1.27362e-06
-2.63091e-07
-8.80857e-06
-1.94432e-06
-2.90689e-07
-8.96211e-06
-2.9854e-06
-8.29904e-08
-1.03882e-05
-9.89642e-07
1.11842e-08
-9.99243e-06
-1.07689e-06
3.6771e-07
-1.02904e-05
-1.89964e-06
-1.00651e-07
-1.07738e-05
-1.19691e-06
-1.00268e-05
-2.44185e-06
1.37168e-07
6.81528e-06
-2.41635e-05
1.11078e-07
6.67893e-06
-2.32708e-05
-5.84426e-08
6.52752e-06
-2.4851e-05
6.04851e-07
6.19535e-06
-2.50203e-05
1.82883e-06
6.21708e-06
-2.60688e-05
3.34142e-07
6.65543e-06
-2.30247e-05
6.34918e-06
-2.37913e-05
2.77242e-07
5.81451e-05
1.67986e-07
5.84286e-05
3.42713e-07
5.83672e-05
3.05357e-07
5.81174e-05
1.32504e-07
5.82175e-05
1.7376e-07
5.89991e-05
5.83912e-05
3.39969e-07
1.05618e-05
5.06727e-05
3.64757e-08
1.04723e-05
5.21412e-05
3.82974e-07
1.06708e-05
5.14665e-05
8.09966e-07
1.08176e-05
5.06575e-05
5.95569e-07
1.12196e-05
5.05459e-05
-1.06999e-07
1.12216e-05
5.13283e-05
1.1082e-05
4.96772e-05
4.20467e-07
1.23635e-05
-1.80437e-05
3.9968e-07
1.40092e-05
-2.1243e-05
-4.96408e-07
1.45217e-05
-2.09443e-05
-4.27787e-07
1.41938e-05
-2.23829e-05
-3.06037e-07
1.4051e-05
-2.05463e-05
-5.85681e-07
1.48378e-05
-1.95747e-05
1.38025e-05
-2.05669e-05
-6.27521e-07
2.24588e-06
1.81928e-07
-1.29886e-08
2.26716e-06
-1.05193e-06
-9.32111e-08
2.84568e-06
1.87633e-06
2.72696e-08
2.68243e-06
8.27413e-07
9.60823e-09
2.58219e-06
5.80976e-07
8.2227e-08
2.99642e-06
1.74266e-06
2.45948e-06
6.45481e-08
-3.19558e-07
-2.38863e-06
1.5647e-06
-4.63376e-07
-2.37825e-06
1.13358e-06
-4.0793e-07
-2.36366e-06
1.35037e-06
-6.37337e-07
-1.85427e-06
1.51529e-06
-5.30199e-07
-2.49538e-06
1.13543e-06
4.96075e-08
-2.89384e-06
1.24448e-06
-2.53838e-06
1.50684e-06
-3.86428e-07
-1.25891e-05
-3.22501e-07
-3.50236e-07
-1.26043e-05
-1.86855e-06
-1.03253e-08
-1.44817e-05
1.56223e-06
1.02101e-07
-1.31789e-05
1.01787e-06
1.54937e-07
-1.40997e-05
4.09068e-07
2.58154e-07
-1.49268e-05
1.39751e-06
-1.3848e-05
-1.06747e-07
2.33876e-07
-1.03155e-05
-2.02825e-05
6.39895e-07
-1.01884e-05
-1.98984e-05
-9.60522e-08
-1.09538e-05
-2.14194e-05
5.12826e-07
-1.10899e-05
-2.13436e-05
7.52894e-07
-1.10679e-05
-2.31329e-05
-1.38725e-07
-1.09382e-05
-1.97711e-05
-1.07616e-05
-2.02922e-05
5.37685e-07
5.08839e-05
1.71608e-07
5.24047e-05
2.5947e-07
5.1359e-05
4.42668e-08
5.12912e-05
9.241e-08
5.10929e-05
-2.77114e-07
5.24067e-05
5.11328e-05
5.20078e-07
1.23481e-05
4.28191e-05
2.2134e-07
1.25748e-05
4.49583e-05
4.09566e-07
1.23847e-05
4.41281e-05
5.84701e-07
1.2479e-05
4.32802e-05
5.02279e-07
1.29133e-05
4.29051e-05
-1.1973e-07
1.34893e-05
4.35209e-05
1.26201e-05
4.18734e-05
1.19931e-06
1.61301e-05
-1.66695e-05
3.13783e-07
1.65389e-05
-1.869e-05
-6.21752e-07
1.65808e-05
-1.86527e-05
-9.14987e-07
1.6285e-05
-2.02875e-05
-4.51175e-07
1.62724e-05
-1.84211e-05
-5.29086e-07
1.67967e-05
-1.66178e-05
1.63586e-05
-1.84281e-05
-4.28519e-07
2.86758e-06
3.24026e-06
-1.46946e-07
3.18822e-06
1.44441e-06
-2.61958e-08
3.25381e-06
4.51463e-06
4.15947e-08
3.01647e-06
3.46178e-06
-1.59792e-07
3.17296e-06
3.17702e-06
1.58829e-07
3.43334e-06
4.03036e-06
3.11972e-06
2.77797e-06
-3.15499e-07
-3.01162e-06
5.43039e-06
-3.15976e-07
-2.83376e-06
4.78419e-06
-3.99425e-07
-2.69484e-06
5.03288e-06
-6.83389e-07
-2.10401e-06
4.58201e-06
-4.53268e-07
-3.19566e-06
4.91155e-06
-2.4956e-08
-3.25853e-06
5.14163e-06
-3.20956e-06
5.53201e-06
-3.47466e-07
-1.63721e-05
2.82382e-06
-2.18475e-07
-1.69797e-05
1.43402e-06
1.15693e-08
-1.65381e-05
4.50376e-06
2.41074e-07
-1.55205e-05
3.63442e-06
-4.52263e-09
-1.61183e-05
2.93175e-06
3.35441e-07
-1.68127e-05
3.90811e-06
-1.6416e-05
2.76501e-06
4.12806e-07
-1.25311e-05
-1.84043e-05
1.50356e-07
-1.30838e-05
-1.75197e-05
-2.52398e-07
-1.35039e-05
-1.812e-05
7.97949e-07
-1.38091e-05
-1.80727e-05
6.06537e-07
-1.3003e-05
-2.02124e-05
-1.43953e-07
-1.34895e-05
-1.62947e-05
-1.27854e-05
-1.76826e-05
5.21625e-07
4.27608e-05
3.5186e-07
4.45877e-05
2.06073e-07
4.31953e-05
-4.9306e-08
4.30006e-05
-1.63816e-07
4.34238e-05
-4.56158e-07
4.43027e-05
4.28594e-05
5.20448e-07
1.08356e-05
3.90694e-05
3.77086e-07
1.19175e-05
4.12779e-05
4.67478e-07
1.20957e-05
4.03443e-05
5.26634e-07
1.18463e-05
3.99192e-05
4.52259e-07
1.17561e-05
3.96863e-05
5.45498e-09
1.20134e-05
4.00314e-05
1.12725e-05
3.81521e-05
1.00787e-06
1.71041e-05
-1.91518e-05
2.03158e-07
1.74461e-05
-1.90641e-05
-2.30918e-07
1.74192e-05
-1.92601e-05
-6.93168e-07
1.704e-05
-2.08711e-05
-4.09267e-07
1.73446e-05
-1.99539e-05
-3.67571e-07
1.76988e-05
-1.77417e-05
1.72716e-05
-1.99096e-05
-1.73064e-07
2.48752e-06
6.08409e-06
-2.76278e-07
2.87318e-06
4.14971e-06
7.98695e-08
2.83281e-06
6.78242e-06
5.03789e-08
2.78553e-06
5.80262e-06
-1.97322e-07
2.97243e-06
5.77445e-06
1.85488e-07
2.91807e-06
6.32888e-06
2.72062e-06
5.50106e-06
-3.52118e-07
-2.67756e-06
8.48937e-06
-2.20692e-07
-3.02862e-06
8.00548e-06
-4.53664e-07
-2.61808e-06
8.20578e-06
-5.83096e-07
-2.66501e-06
7.66092e-06
-3.659e-07
-2.82514e-06
7.97371e-06
-7.52304e-08
-3.02132e-06
8.32015e-06
-2.82354e-06
8.58654e-06
-2.22312e-07
-1.73418e-05
5.80431e-06
-2.56503e-07
-1.79487e-05
4.31438e-06
8.43731e-08
-1.74059e-05
6.93186e-06
2.39457e-07
-1.72284e-05
6.06783e-06
-9.36214e-08
-1.70003e-05
5.48599e-06
2.57254e-07
-1.77856e-05
6.1975e-06
-1.73351e-05
5.5387e-06
3.01438e-07
-1.10249e-05
-2.03236e-05
-2.76565e-07
-1.13392e-05
-1.90903e-05
-1.37461e-07
-1.20164e-05
-1.92278e-05
5.03696e-07
-1.21891e-05
-1.93319e-05
3.68444e-07
-1.17581e-05
-2.10957e-05
5.04583e-08
-1.19377e-05
-1.71986e-05
-1.12111e-05
-1.88276e-05
5.24345e-07
3.86534e-05
2.80844e-07
4.13517e-05
1.73663e-07
3.94077e-05
-8.33486e-08
3.92393e-05
-4.21903e-07
4.03639e-05
-4.44756e-07
4.02655e-05
3.85181e-05
3.51466e-07
1.9517e-05
3.37443e-05
7.61492e-07
2.04201e-05
3.53341e-05
6.96103e-07
2.13942e-05
3.42993e-05
6.6659e-07
2.151e-05
3.38647e-05
3.93134e-07
2.16476e-05
3.37624e-05
2.87106e-07
2.0792e-05
3.45265e-05
2.00041e-05
3.28787e-05
6.45469e-07
1.58817e-05
-1.1967e-05
2.12018e-07
1.66463e-05
-1.13868e-05
2.92808e-07
1.64441e-05
-1.12563e-05
-3.84132e-07
1.63713e-05
-1.22548e-05
-4.74904e-07
1.65441e-05
-1.18144e-05
-1.91273e-07
1.66724e-05
-1.05686e-05
1.61775e-05
-1.21387e-05
8.23665e-08
3.7828e-07
8.77217e-06
-4.68393e-07
1.15139e-06
7.27178e-06
7.92263e-08
6.46524e-07
9.12231e-06
2.35879e-08
9.22068e-07
8.41403e-06
-2.06686e-07
1.29011e-06
8.31341e-06
1.43759e-07
9.70457e-07
8.67118e-06
8.18092e-07
8.19257e-06
-4.39598e-07
-6.68395e-07
7.5387e-06
-1.25188e-07
-1.46704e-06
7.74336e-06
-4.84096e-07
-8.61615e-07
7.58815e-06
-6.52278e-07
-1.19568e-06
7.44633e-06
-5.08789e-07
-1.29094e-06
7.89991e-06
-2.36357e-07
-1.03724e-06
7.62017e-06
-9.36095e-07
7.7042e-06
2.12682e-08
-1.62797e-05
8.64311e-06
-3.79984e-07
-1.72999e-05
7.47275e-06
9.85389e-08
-1.67254e-05
9.33966e-06
1.60321e-07
-1.67896e-05
8.64032e-06
-1.26398e-07
-1.67671e-05
8.3077e-06
1.33648e-07
-1.67719e-05
8.61584e-06
-1.62768e-05
8.2239e-06
-1.06453e-07
-1.90201e-05
-1.33045e-05
-1.06228e-07
-1.99579e-05
-1.29774e-05
9.34645e-08
-2.0646e-05
-1.23481e-05
1.17152e-07
-2.08631e-05
-1.2334e-05
1.50339e-08
-2.09634e-05
-1.41962e-05
2.80505e-07
-1.99825e-05
-1.06415e-05
-1.87086e-05
-1.17377e-05
5.19803e-07
3.3141e-05
2.16013e-07
3.66721e-05
1.35682e-07
3.39841e-05
-1.25919e-07
3.41363e-05
-8.52531e-07
3.53456e-05
-4.34147e-07
3.4837e-05
3.30677e-05
-5.33199e-08
4.17244e-05
1.39865e-06
4.17675e-05
1.11141e-06
4.25046e-05
1.0796e-06
4.17104e-05
5.20456e-07
4.20697e-05
9.53599e-07
4.18283e-05
4.16822e-05
1.98716e-07
1.95694e-05
5.20237e-07
1.9524e-05
1.21618e-06
1.98651e-05
2.09057e-07
1.95102e-05
-4.45863e-07
1.98841e-05
6.2539e-07
1.94089e-05
1.99286e-05
5.38436e-07
2.83818e-06
-7.43556e-07
3.07368e-06
3.21814e-07
2.67694e-06
3.66829e-07
2.86422e-06
1.68464e-07
3.12269e-06
2.15763e-07
3.02207e-06
3.12784e-06
-4.4911e-07
-3.00483e-06
-1.37272e-07
-3.16751e-06
-6.67058e-07
-2.82035e-06
-8.11559e-07
-3.17605e-06
-6.40976e-07
-2.73436e-06
-5.85015e-07
-3.11777e-06
-3.28695e-06
2.8463e-07
-1.95564e-05
-8.4946e-07
-2.05129e-05
2.18618e-07
-1.96366e-05
4.49128e-07
-2.01929e-05
1.9973e-07
-1.98474e-05
2.73954e-07
-1.9583e-05
-1.99866e-05
-1.7146e-06
-4.1112e-05
9.73452e-07
-4.5057e-05
2.13984e-08
-4.18225e-05
-1.01921e-06
-4.24537e-05
-9.78571e-08
-4.46402e-05
6.27984e-07
-4.13883e-05
-4.09627e-05
2.86787e-07
8.89385e-08
-1.96074e-08
-3.75159e-07
-1.65842e-06
-4.73343e-07
-0.00356283
0.00320487
0.000438973
0.00131608
0.00367247
-0.00848765
0.00515855
0.00389978
-0.00766244
0.00728656
0.00304969
-0.00508553
0.00698978
0.00256158
-0.00215675
0.00445979
0.00197327
0.000687214
0.00165618
0.00292758
-0.00371745
0.00534491
0.00167774
0.00110068
0.00546304
-0.00650424
0.00562632
0.00524485
-0.00574028
0.00848759
0.00540284
-0.00503615
0.0101959
0.00522229
-0.00417057
0.00726174
0.00434392
0.000774512
0.00409774
0.00500221
-0.000988272
0.00247796
0.00364811
0.00140587
0.00210918
0.000744195
0.00331659
0.00213094
0.00101278
0.00482219
0.00285088
0.000882784
0.00596062
0.00332079
0.00060117
0.00461532
0.00328227
0.00224973
0.00358473
0.00496126
0.000117803
-0.00295903
0.00538411
0.00037256
-0.00218948
0.00410374
-0.000190565
-0.00135709
0.00411455
-0.000375414
-0.000948597
0.00406144
-9.8661e-05
-0.000846756
0.00396562
-2.32841e-05
-0.00102592
0.00430799
-0.00152934
0.00517021
-0.00483808
-0.00335509
0.00501165
-0.00660427
-0.00333931
0.0026841
-0.00644899
-0.0040119
0.00226819
-0.00490077
-0.00472958
0.00202106
-0.0030005
-0.00509426
0.00214949
-0.0012795
-0.00488891
0.00195465
-0.00518789
0.00219007
-0.00528179
-0.00154892
0.00357487
-0.0053254
-0.00260513
-0.000582385
-0.00251687
-0.00333102
-0.00337227
2.29278e-05
-0.00331853
-0.0038109
0.00162813
-0.00302592
-0.00351439
0.00290727
-0.00250482
-0.00349766
-0.00255009
0.000436202
-0.00337175
0.00190075
-0.00242849
-0.00345191
-0.000145951
-0.00551106
0.0021394
-0.00549612
0.00329512
-0.00406371
0.00330996
-0.00240203
0.000881824
-0.000647008
0.0027703
-0.0015929
0.000698464
0.00287826
-0.0126492
0.00216688
0.00222891
-0.0112869
0.00308292
0.00127901
-0.00721102
0.00332357
0.00150727
-0.00381631
0.00208274
0.00147055
0.000548872
0.00132183
0.00377064
-0.00258331
0.00325043
0.00388849
-0.00233684
0.00340527
-0.00718359
-0.00151004
0.00269579
-0.0069007
2.92269e-05
0.00357993
-0.00872575
0.00194761
0.00409201
-0.00853455
0.00278607
0.00386347
-0.00232827
0.00329231
0.00593531
-0.000904419
0.0016686
0.00590413
-0.00147881
0.00112145
0.00336298
-0.00260026
0.00139659
0.00319613
-0.00122227
0.00194938
0.000907122
0.000878143
0.00255128
-0.000187461
0.00173237
0.00276086
0.00228124
0.00309648
0.0066723
0.000999098
-0.00174483
0.00784256
0.000579874
-0.000709289
0.0063687
8.5075e-05
8.05511e-05
0.00593022
-0.000415964
0.000500718
0.00603926
-0.000585406
0.000651161
0.00607115
-0.000309553
0.000365722
0.00646119
1.78565e-05
0.00799229
-0.00349609
-0.00195318
0.00845545
-0.00597322
-0.00180375
0.00598442
-0.00629655
-0.00212939
0.00452528
-0.00552499
-0.00259379
0.00408848
-0.00378132
-0.00331532
0.00414266
-0.00234987
-0.00313875
0.00382472
-0.00423031
0.0038819
-0.00317713
-0.00108713
0.00596857
-0.00353153
-0.00150661
-0.000431831
-0.00287287
-0.00194888
-0.0041096
-0.00225294
-0.00206741
-0.00481908
-0.00131639
-0.00234521
-0.00524131
-0.000447519
-0.00165557
-0.00569691
-0.00229368
-0.00179817
-0.00107134
0.00194846
-0.000181881
-0.00575832
0.000872582
-0.00843001
0.00173146
-0.00835233
0.00167106
-0.00624849
0.00125427
-0.00353585
-5.84197e-05
0.00236159
0.00234939
-0.00615783
0.00146267
0.00176785
-0.0134018
0.00090518
0.00143877
-0.0120873
0.00104675
0.000552753
-0.00786821
0.000849324
0.00109671
-0.00464286
0.00103074
0.00108132
-0.000639579
0.00102826
0.00383359
0.0003611
0.00199056
0.00403923
-0.00280342
0.00218897
-0.00427437
-0.00321512
0.00195038
-0.00683135
-0.00281088
0.00215697
-0.0106334
-0.00175062
0.00267783
-0.0110573
0.000905322
0.00313776
-0.00692256
0.00298498
0.00500702
-0.00335462
0.00217838
0.00888986
-0.00634437
0.00195785
0.00638344
-0.00727679
0.00197316
0.00390541
-0.00554197
0.00173262
-0.000639649
-0.0032398
0.00215027
-0.00220708
-0.000138847
0.00278236
-0.000677564
0.002845
0.00649617
0.000808947
-0.000852053
0.0101465
0.000429985
-0.000581812
0.00934157
-0.000138026
-0.000457146
0.00896904
-0.000941302
7.08802e-05
0.00853466
-0.00128355
0.000527432
0.00807597
-0.000734626
0.00039059
0.00835365
0.000313251
0.00984551
-0.00175006
-0.0021147
0.0112006
-0.00391241
-0.00169814
0.00900955
-0.00501058
-0.00231218
0.00721913
-0.0056094
-0.00228461
0.00680398
-0.00465125
-0.00280205
0.00629877
-0.00307932
-0.00285349
0.00531514
-0.00342348
0.00437366
-0.00150412
-0.00195073
0.00743542
-0.00105062
-0.00120106
-0.0012216
-0.00324797
-0.000689319
-0.00339812
-0.00322219
-0.00112254
-0.00584445
-0.00235477
-0.00195248
-0.00674481
-0.00192745
-0.00174015
-0.00705868
-0.00194904
-0.00504032
0.00115931
-0.00109098
0.00218644
-0.00790162
0.00269202
-0.00954025
0.00243194
-0.00915484
0.00154578
-0.00723042
0.000327456
-0.00395906
-0.00158856
0.00112913
0.00160508
-0.00875439
0.000891348
0.000858087
-0.0138768
-0.000212246
0.00158047
-0.0124661
-0.000242749
5.43958e-05
-0.00780155
-0.000576529
0.000799584
-0.00502244
-0.000239981
0.00068984
-0.00157161
0.00012983
0.00354115
-3.18428e-06
0.000674503
0.00516729
-0.00203897
0.00121059
-0.00238714
-0.00324615
0.00148516
-0.00532508
-0.00392723
0.00151894
-0.0112619
-0.00327973
0.00203855
-0.0127943
-0.0015961
0.00273426
-0.0104849
0.00284414
0.000892496
-0.00423853
0.00221211
0.0114294
-0.00768561
0.00201091
0.00883146
-0.00802718
0.00123202
0.0043315
-0.00741424
0.00106372
-0.00101702
-0.00602909
0.00146498
-0.00322329
-0.003172
0.00220163
-0.0031611
0.00266894
0.00337995
-5.40147e-05
0.000455397
0.0120231
-0.000155705
-8.09617e-05
0.0116132
-0.00081987
-0.000617276
0.0115463
-0.00183421
-0.000629826
0.0112929
-0.00221483
-0.000457163
0.0104592
-0.0016319
4.28214e-05
0.0100224
0.000264412
0.0106868
-0.00033448
-0.000867902
0.012621
-0.0016935
-0.000344297
0.0104096
-0.00252921
-0.00108223
0.00831708
-0.00290783
-0.00174419
0.0080835
-0.00326567
-0.00199315
0.00799084
-0.00248893
-0.00271496
0.00711449
-0.00291925
0.00488728
0.001478
-0.00204895
0.00732946
0.00189063
-0.00134287
-0.000372622
-0.00024945
-4.89636e-06
-0.00214026
-0.00142359
-1.76171e-05
-0.00626939
-0.00132142
-0.001254
-0.00741142
-0.00110264
-0.00227945
-0.00754006
-0.00166779
-0.00723907
0.00348671
-0.00653274
0.00403165
-0.00971193
0.00416161
-0.00956185
0.00385532
-0.0088207
0.0025465
-0.00713155
0.000621208
-0.00422022
-0.00255262
0.00134331
0.00107495
-0.0111015
0.0014136
0.00106578
-0.0149071
5.04324e-05
0.00115228
-0.0121488
-0.000863934
0.000574146
-0.00734088
-0.00181012
0.000951935
-0.00491647
-0.00140098
0.000607743
-0.00244914
0.000366127
0.0019135
0.000802987
-0.000228851
0.00588042
-0.00147343
0.000306188
0.000855806
-0.00143882
0.000732747
-0.00472551
-0.00172705
0.00144906
-0.0116325
-0.00200667
0.00195859
-0.0132895
-0.00244964
0.00291476
-0.0121186
0.00347415
-0.00441846
-0.00483536
0.00264949
0.0132809
-0.00773142
0.00228644
0.00961179
-0.00765856
0.000541213
0.00426984
-0.00776021
0.000394806
-4.42427e-05
-0.00680501
0.000304896
-0.00269155
-0.00481938
0.00124502
-0.00355396
0.00246449
-0.000468228
-0.000403176
0.000839184
0.0142813
-9.81704e-05
0.000233213
0.0133784
-0.000449706
-0.000599877
0.0130977
-0.00156879
-0.000575853
0.0134838
-0.00247185
-0.000925144
0.0126502
-0.00223631
-0.000693749
0.0118456
-0.000197197
0.0112584
0.000836653
-0.00104915
0.0135241
0.00087341
-0.000748948
0.0111982
0.00107492
-0.00150198
0.00888891
0.00115586
-0.00132744
0.00862527
0.000871946
-0.00160297
0.00880443
0.000519069
-0.00194628
0.00859484
-0.0017129
0.00674115
0.00374471
-0.000454412
0.00319689
0.00445807
-0.000377936
-0.00122319
0.00399692
0.000215249
-0.00311087
0.00161779
-5.91554e-05
-0.00498928
-4.75182e-05
-0.000775035
-0.00644292
-0.000334089
-0.00160254
-0.00747415
-0.00124533
-0.00794673
0.00346319
-0.0104722
0.00423665
-0.0108126
0.00451759
-0.0094893
0.00394423
-0.00819741
0.00272201
-0.00663017
0.00110034
-0.00415704
-0.00264164
0.000698371
-0.000813896
-0.0109368
0.00198801
-0.00124869
-0.0148573
0.000715905
0.000340303
-0.0111115
-0.000981031
0.00103817
-0.00657687
-0.00181553
0.000927699
-0.00489905
-0.00154672
0.000709934
-0.00328974
0.000947321
-0.000443096
0.00174132
-0.000599948
0.00413093
0.000976479
0.000232236
0.000315053
0.00122575
0.00124448
-0.005699
0.000829043
0.00139669
-0.011412
0.000861093
0.00161653
-0.0138271
0.000126764
0.00270996
-0.0131148
0.00362234
-0.00672209
-0.00423377
0.00213079
0.0146674
-0.00584205
0.00193279
0.00941683
-0.00545341
0.00113139
0.00379428
-0.00508416
8.13173e-05
0.000732908
-0.00497686
-0.000500813
-0.000879895
-0.00388688
6.47101e-05
-0.00211377
0.00120313
-0.00197314
-0.00120751
-0.000367286
0.0180565
0.000478348
0.000576642
0.0131236
0.000288365
-5.13167e-05
0.014491
-0.000738529
-0.000112193
0.0148047
-0.00205664
-0.000470028
0.0140448
-0.00185609
-0.000958874
0.0127723
-0.00090964
0.01169
0.00185992
-0.0020662
0.0133721
0.0038095
-0.00215359
0.0119357
0.00421971
-0.00165186
0.00988718
0.00411891
-0.000833509
0.00934693
0.00421736
-0.00134649
0.00947473
0.00294979
-0.000957858
0.00973764
-0.00056839
0.00924414
0.0047542
0.00165461
-0.0051327
0.0068053
0.000693939
-0.00585349
0.00646432
0.00122839
-0.00538583
0.00438912
0.000720871
-0.00427992
0.00151566
-0.000250008
-0.00457536
0.000181923
-0.000921936
-0.00613776
-0.000996154
-0.00725653
0.00215272
-0.0109112
0.00288927
-0.0108746
0.00386218
-0.00911213
0.0036731
-0.00715773
0.00250006
-0.00564757
0.00117809
-0.00371558
-0.00240477
0.00032686
-0.00103749
-0.0101448
0.00237568
-0.00201141
-0.0148458
0.00198096
-0.00128613
-0.00929678
0.000878853
2.38617e-05
-0.00542786
0.000412154
7.73133e-05
-0.0043943
0.000413554
0.000173925
-0.00332502
0.000943006
-0.000875613
0.00094116
0.00186971
0.000360058
0.00375618
0.00147147
-0.00585315
0.00274353
0.0012022
-0.00708763
0.00199513
0.000879346
-0.0114831
0.00212537
0.000746903
-0.0145417
0.00181432
0.00144454
-0.0138507
0.00300389
-0.00681723
-0.00189534
0.00416924
0.0140806
-0.00432775
0.00280959
0.0104611
-0.00608547
0.0016752
0.00485988
-0.00577304
0.000142101
0.000936111
-0.00270586
-0.000389757
-0.00296795
-0.00254244
-0.000961896
4.88008e-05
-0.000552293
-0.00115205
0.00198264
-0.000697171
0.0209726
0.00102365
0.000737905
0.0162746
0.00049899
-0.000340473
0.0170137
-0.00120693
-0.000265514
0.0167066
-0.00104932
-0.0004493
0.0140526
-0.00142251
-0.00138986
0.0136385
-0.00294499
0.0127194
0.00216433
-0.00147525
0.0118981
0.00419303
-0.00137003
0.0120825
0.00460412
-0.001352
0.0103628
0.00462184
-0.00095397
0.00982634
0.00440948
-0.000780581
0.0099077
0.00271613
-7.09507e-05
0.0099249
-3.9502e-05
0.00892638
0.00385257
0.00194319
-0.0121438
0.00713768
0.00195863
-0.0121832
0.00779136
0.00194913
-0.00905701
0.00575265
0.00178851
-0.00472638
0.00274069
0.000863376
-0.00309895
0.00100413
-0.000117137
-0.00431705
-0.000449108
-0.00576783
0.000635641
-0.00951307
0.00191801
-0.0101298
0.00293985
-0.00811588
0.00383014
-0.00614244
0.00267341
-0.00354782
0.00111835
-0.00220964
-0.00167237
-0.000830082
0.00414789
-0.0119954
0.00871665
0.000477265
0.00268589
-0.0178036
0.0138847
0.000867321
0.00226267
-0.0105391
0.00795668
0.000353759
0.0029566
-0.00672161
0.00433063
0.00082064
0.000857736
-0.00400548
0.00278892
0.000820331
0.000483443
-0.00191679
0.00140464
-0.000582618
0.0019754
-0.00042828
0.00515179
-4.38114e-05
-0.00209185
0.00125315
0.00312215
3.03296e-05
-0.00296932
0.0078409
0.00473673
0.000631064
-0.00791656
0.00819672
0.00685651
0.00359505
-0.0128791
0.0102696
0.00524835
0.00450709
-0.0176131
0.0157261
0.00233254
0.00410924
-0.0163592
0.0157094
0.00251481
-0.00665568
0.00592759
-0.00149627
-0.000346775
0.0176967
-0.0159835
-0.00292931
-0.0009339
0.0136278
-0.0113367
-0.00285678
-0.00148107
0.00787839
-0.00597029
0.00030847
-0.000998254
-0.000410109
0.00165206
-0.00138424
-0.000517553
0.000802165
0.00574142
-0.00125792
8.52248e-05
0.000882144
0.00284526
0.000595828
0.000832339
-0.000444615
-6.88321e-05
-0.000668162
0.0188992
-0.0185033
-0.000393266
-0.000345377
0.0179109
-0.0181414
-0.00159015
-0.000269156
0.0162463
-0.0162982
-0.00229578
-0.000676936
0.0158491
-0.0154751
-0.00228561
-0.00146778
0.0151518
-0.01423
-0.00142138
-0.00237459
0.0151033
-0.013418
-0.00235151
0.0142861
-0.0125919
0.00342921
-0.00227924
0.0090542
-0.0110649
0.00437973
-0.00064049
0.010695
-0.0114698
0.00426504
-0.000675353
0.0104152
-0.0100575
0.00355975
-0.000839333
0.0100836
-0.00935693
0.00191107
-0.00062135
0.0100932
-0.00941156
0.000380098
-0.00069847
0.00931838
-0.00958176
-0.00158732
0.00849285
-0.0090334
0.00254171
-0.00321838
-0.0159525
0.0143657
0.00547346
-0.00320489
-0.0147816
0.0145313
0.00694701
-0.00252292
-0.00879161
0.00940831
0.00671206
-0.001869
-0.00321799
0.00467812
0.00516083
-4.57557e-05
-0.00106732
0.0021932
0.00316606
-0.000221956
-0.00143473
0.0031081
-0.000405552
-0.00240459
0.00454488
-0.00147319
-0.0094477
0.00784045
-0.00142432
-0.0127361
0.00950088
4.49907e-05
-0.0106067
0.00671181
0.000165617
-0.00945804
0.00740634
0.00097446
-0.00264209
0.00183133
0.000312995
-0.000386464
0.00088796
-0.000371737
0.000358672
-0.000477921
0.00170492
-0.0130555
-0.00104872
0.000250375
-0.0173688
0.000819589
0.000611528
-0.0129493
0.000257816
0.00166003
-0.0077807
0.00062669
0.000436972
-0.00475695
-7.08636e-05
-0.00013316
-0.00104696
-0.000957069
0.00292039
0.00156827
-0.000643539
-0.00117306
0.000544371
-0.00079817
-0.000692179
0.00466785
0.000609017
-0.0117983
0.00869143
0.00232809
-0.017444
0.00768743
0.00138482
-0.0174794
0.00439331
0.00191663
-0.015178
0.00297403
-0.00616702
-0.000658025
1.10297e-05
0.0176132
-0.00148367
-0.00033835
0.0139252
-0.000787405
-0.00155226
0.00921558
-0.000920023
-0.00192776
0.00384308
-0.00365613
-0.00170808
0.0064786
-0.00216025
-0.000799918
0.00194747
0.000276033
0.00117349
-5.49129e-05
0.000439773
0.0185794
-0.000248616
0.000453309
0.0173819
-0.0012974
0.00020785
0.0155424
-0.00229595
-0.00078557
0.0157065
-0.00288834
-0.00177243
0.0158422
-0.0022108
-0.00227292
0.0159386
-0.0022191
0.0146197
0.00360058
-0.000927739
0.00666877
0.00474258
0.000489545
0.00937143
0.00387078
0.00113359
0.0101758
0.00185746
0.000287482
0.0108934
-0.00141142
0.000149629
0.0112723
-0.00254004
7.56857e-05
0.00792059
-0.00180847
0.00536821
0.00288101
-0.0015086
-0.0182665
0.00526724
-0.00184021
-0.0149153
0.00632246
-0.000494473
-0.00823791
0.00657597
0.000397692
-0.00350061
0.0063334
0.000648969
-0.00119894
0.00492017
0.00130084
-0.001185
0.000904666
-0.000123003
-0.00161
-0.0092576
-0.00404477
-0.0120536
-0.00335602
-0.011684
-0.00189909
-0.0104687
0.000535492
-0.00433457
0.000711871
0.00079128
0.00127955
-4.77885e-05
0.000803354
-0.0135908
4.35656e-05
7.22767e-05
-0.017642
0.000912965
-0.000187137
-0.0135151
0.00205594
-0.000144879
-0.00873756
0.00211142
0.000157255
-0.00494268
0.000181499
0.000699573
0.000265799
-0.000790051
0.00392052
0.00102574
-0.000971391
-0.000262392
0.00330516
-0.00166974
-0.000915989
0.00887985
0.000614975
-0.0179209
0.011362
0.000427333
-0.0203064
0.0109061
-0.000110355
-0.0166643
0.00690862
0.00216038
-0.01259
0.00352823
-0.00353928
-0.000459696
-0.000669615
0.0176555
-0.00163214
-0.00121591
0.0145561
-0.000912238
-0.00144124
0.0104428
-0.00293355
-0.0023807
0.00856665
-0.00397534
-0.00192625
0.00919123
-0.000763178
-0.000612307
0.00132071
0.000653854
0.00302029
0.000148715
-0.000275594
0.0181865
-0.000318604
-0.00046863
0.0171207
-0.00073554
-0.000760404
0.0153121
-0.00200531
-0.00118726
0.0157894
-0.00329388
-0.00117952
0.0163557
-0.0031588
-0.00103565
0.0163027
-0.00190758
0.0140371
0.00517948
-0.000763698
0.00174237
0.0058196
0.00171267
0.00635157
0.00318763
0.00251603
0.00933817
-0.000400781
0.00138895
0.0116293
-0.00241604
-0.000126959
0.011977
-0.00138189
-0.000628688
0.00615761
-0.00217224
0.00388289
8.7923e-05
-0.00270023
-0.0163736
0.00179337
-0.00185401
-0.0130631
0.00302959
-0.000398393
-0.00664805
0.00476482
-0.000289179
-0.00356752
0.00562771
-0.00010526
-0.00206709
0.00440572
0.00114687
-0.00176772
0.000661357
0.00142079
-0.00310748
-0.00872351
-0.00532285
-0.0115958
-0.00530143
-0.0119911
-0.00437688
-0.0115987
-0.00123555
-0.00756471
0.00030538
0.000416262
0.00224986
0.00121907
0.000181387
-0.0147029
0.000677815
-7.61209e-05
-0.0171626
0.000689962
-0.0011945
-0.0121677
0.00336979
-0.00285413
-0.00852456
0.00311302
-0.00067312
-0.00394048
0.00108346
0.000734771
0.00168076
-4.87614e-06
0.00516931
-0.000688801
-0.00108095
0.00184573
0.00681669
-0.00161727
-0.00654612
0.0124121
-0.000148069
-0.024282
0.0127789
-0.00134663
-0.0219896
0.0108893
-0.00140804
-0.0138426
0.00681916
0.00174664
-0.00938883
0.00285921
0.000538688
-0.000518213
-0.000267037
0.0172529
-0.000768758
-0.00118042
0.014263
-5.36988e-05
-0.00110794
0.0104572
-0.00105283
-0.0021741
0.0102571
-0.00170549
-0.00214275
0.010498
-0.00021089
-0.00115791
0.00251063
9.07525e-05
0.00532134
0.000752242
-0.000672171
0.0179555
0.000460754
-0.000919531
0.0171743
-9.86953e-05
-0.00050594
0.0152967
-0.000899448
-0.000774169
0.0151697
-0.00240798
-0.000199874
0.0158443
-0.00309566
-1.07228e-05
0.0157486
-0.00157495
0.0125201
0.00650791
-0.00261609
-0.00293049
0.00751862
0.000726722
0.00359059
0.00439315
0.00301458
0.00882492
0.000419379
0.00275196
0.0119017
-0.000914808
0.000787411
0.0120748
-0.000706658
-0.000218034
0.00581348
-0.0013184
0.00250521
-0.00456656
-0.00208047
-0.0121582
-0.00407289
-0.001405
-0.0112177
-0.00154801
-8.27521e-05
-0.00596705
0.000444458
0.000178975
-0.00283171
0.00136883
-0.000412074
-0.0016559
0.0016006
0.000243237
-0.00246795
0.000106495
0.00153524
-0.00454069
-0.00609059
-0.00754676
-0.00986003
-0.00833885
-0.0111351
-0.00718254
-0.0124357
-0.00342281
-0.0116612
0.000517488
-0.00320315
0.00289019
0.000558381
0.000149366
-0.0153232
-0.00148927
0.000550285
-0.0155153
0.00026754
-0.00357695
-0.0102458
0.00304276
-0.00426888
-0.00710083
0.00160008
-0.00125058
-0.00118917
-0.000151093
0.000552663
0.00302639
-0.00020947
0.00542042
-2.66143e-05
-0.00187745
0.00393442
0.0102328
-0.00147596
-0.014414
0.0120863
-0.00160275
-0.0280302
0.0103557
-0.00297206
-0.0214931
0.00761191
-0.00294869
-0.00930862
0.00375487
-5.71451e-06
-0.00486637
0.000991971
0.00321292
-0.000825609
0.00194573
0.0143079
-0.000555283
0.000379372
0.0120396
0.00124779
8.47037e-05
0.0067717
0.00109652
-0.000600595
0.00786525
-3.30193e-05
-0.00171291
0.010183
-0.00123451
-0.00174726
0.0051703
-0.000703744
0.00546535
0.00135281
0.000729893
0.0180671
0.000243004
0.000918603
0.0178497
-0.00045276
0.000655708
0.0154882
2.31856e-05
-0.000125551
0.0141895
-0.00116676
0.000948599
0.0142572
-0.00256531
0.000998685
0.0142444
-0.00116961
0.0102595
0.00359672
-0.00526886
-0.000705509
0.004899