/*--------------------------------*- C++ -*----------------------------------*\
  =========                 |
  \\      /  F ield         | OpenFOAM: The Open Source CFD Toolbox
   \\    /   O peration     | Website:  https://openfoam.org
    \\  /    A nd           | Version:  6
     \\/     M anipulation  |
\*---------------------------------------------------------------------------*/
FoamFile
{
    version     2.0;
    format      ascii;
    class       volScalarField;
    location    "0.02";
    object      T;
}
// * * * * * * * * * * * * * * * * * * * * * * * * * * * * * * * * * * * * * //

dimensions      [0 0 0 1 0 0 0];

internalField   nonuniform List<scalar> 
3773
(
293.198
293.874
294.274
293.989
293.676
294.033
293.11
294.435
295.594
295.983
295.623
295.245
295.668
294.291
305.56
306.658
306.351
306.377
306.468
306.301
305.684
307.686
307.985
308.087
308.054
308.025
308.105
307.695
305.595
305.891
306.32
306.272
306.492
306.359
305.749
294.434
294.883
295.671
295.306
295.281
295.874
294.441
293.232
293.568
294.08
293.756
293.731
294.24
293.221
290.402
291.368
291.69
291.427
291.143
291.435
290.455
270.164
275.261
275.38
274.336
272.876
273.687
270.37
313.992
313.402
313.597
313.77
313.432
312.844
313.998
326.774
327.193
327.442
327.509
327.503
327.193
327.171
314.354
314.329
313.447
313.485
313.664
313.329
314.363
270.569
271.926
273.843
272.408
273.524
274.474
270.739
290.39
290.93
291.432
291.089
291.179
291.609
290.475
290.123
290.888
291.179
290.931
290.681
290.954
290.152
264.902
270.071
269.948
268.921
266.999
267.564
264.922
311.28
310.426
310.916
312.023
311.312
309.05
310.64
328.403
327.965
328.529
329.192
329.115
327.72
328.242
311.072
310.103
310.047
311.831
311.552
309.792
310.698
265.352
267.505
267.948
266.549
267.984
268.466
265.399
290.128
290.619
290.979
290.653
290.735
291.141
290.177
289.352
289.753
289.938
289.701
289.52
289.829
289.368
258.751
263.972
263.862
263.255
260.753
261.108
258.406
310.741
309.559
309.514
310.481
310.996
308.56
309.852
328.515
328.288
328.634
329.178
328.833
327.94
328.297
310.482
308.201
311.351
313.314
311.703
308.27
309.903
259.23
261.623
261.711
260.719
262.249
261.906
259.137
289.441
289.777
289.911
289.62
289.64
290.078
289.491
284.717
283.906
283.665
283.375
283.376
284.214
284.684
254.382
257.614
257.32
257.688
256.353
256.53
253.884
311.345
309.34
309.279
310.627
309.878
308.36
310.53
328.709
328.301
328.698
328.77
328.426
327.969
328.596
310.935
308.541
310.864
311.682
311.81
308.651
310.633
254.727
256.677
256.971
256.545
257.805
256.769
254.637
285.177
284.875
284.44
284.245
283.758
284.908
285.384
262.564
262.14
260.16
258.807
258.332
260.17
262.111
248.661
250.748
250.111
250.737
249.973
250.209
248.054
312.99
309.911
310.514
310.305
309.654
309.439
311.919
329.415
328.848
328.922
328.989
328.574
329.067
329.362
312.354
309.823
310.257
310.504
310.561
310.558
312.139
248.803
248.697
250.334
250.021
250.183
250.133
248.863
263.974
263.543
260.584
259.673
260.546
262.008
264.717
222.391
222.015
221.123
221.332
220.763
221.192
222.085
236.981
237.715
235.885
237.592
237.413
237.588
236.913
308.39
308.386
305.933
307.423
305.53
307.925
305.943
340.752
342.656
342.536
342.383
343.138
340.669
343.344
308.293
312.036
308.049
305.567
315.199
308.513
306.226
237.258
227.806
237.518
236.337
229.728
237.627
237.271
222.987
222.405
221.416
220.389
221.687
221.965
223.265
353.605
352.249
352.504
353.379
353.079
352.585
351.18
353.583
351.678
351.397
350.703
350.322
350.334
350.369
351.667
350.279
349.742
349.051
348.942
349.062
349.321
344.312
342.645
341.628
341.781
342.835
343.536
344.221
351.757
350.001
349.2
348.836
348.672
349.252
349.979
352.691
350.991
349.552
348.335
347.922
349.047
350.037
352.161
351.748
350.99
350.767
349.804
349.214
349.266
350.336
350.585
351.628
352.924
351.887
351.458
350.641
351.997
349.658
348.318
347.834
348.946
349.789
350.263
350.872
348.448
347.166
346.741
347.768
348.86
349.292
343.446
340.815
339.557
340.045
341.5
342.694
343.042
351.559
349.502
348.283
347.374
347.032
348.483
349.411
352.584
349.911
346.473
345.03
345.184
348.535
349.662
353.241
352.357
350.906
351.176
350.824
349.835
349.292
347.213
348.694
349.244
349.493
349.91
350.05
350.024
351.093
346.372
345.515
346.062
347.126
348.353
350.062
348.837
344.943
344.637
344.777
345.227
347.03
348.501
341.592
339.692
338.703
338.24
340.485
341.861
342.273
351.035
347.569
345.268
344.314
344.862
346.611
347.458
351.956
346.748
341.401
340.98
342.9
348.156
349.612
353.891
352.986
350.02
349.757
351.27
350.836
350.602
348.381
348.433
348.36
347.963
349.279
349.426
349.84
349.76
345.506
344.622
344.238
345.602
347.074
348.771
346.034
342.023
341.835
342.448
342.877
344.339
346.209
339.161
337.118
337.248
337.453
338.493
340.527
341.486
349.857
346.57
344.151
343.095
343.684
345.952
346.537
351.938
348.743
340.73
339.348
342.184
347.716
349.325
353.728
353.244
350.246
348.462
350.093
351.17
351.279
348.092
347.543
347.755
347.575
348.49
349.064
349.803
349.367
345.838
343.257
343.676
344.325
345.222
348.259
343.198
339.616
339.873
339.512
339.52
341.444
343.8
338.015
335.883
336.142
334.856
336.357
337.321
338.816
347.645
344.63
340.672
340.294
340.661
343.653
345.622
351.571
349.993
343.096
339.266
341.404
346.644
347.981
352.204
351.493
349.88
347.866
348.402
350.711
350.822
346.429
347.142
347.941
347.413
347.468
348.37
349.6
346.638
344.504
342.315
343.46
343.882
344.218
347.277
338.618
337.671
337.906
337.028
336.42
336.921
340.559
335.64
333.875
333.964
332.987
335.44
336.333
337.184
345.733
342.807
339.46
337.091
337.419
339.487
342.672
348.583
347.201
343.558
340.503
340.933
344.78
345.956
348.997
349.837
349.647
347.711
347.891
349.915
350.358
345.65
346.348
348.744
347.743
347.172
347.332
348.79
345.793
346.273
341.855
342.13
343.473
344.001
346.408
337.218
335.196
331.98
329.948
329.72
332.784
338.675
334.963
331.373
331.087
331.533
332.625
333.432
333.716
344.183
339.293
337.289
334.617
333.542
333.577
335.919
349.838
349.321
347.083
341.97
341.139
342.906
344.725
348.857
350.85
351.227
348.747
347.832
349.54
349.14
347.675
347.519
354.825
350.298
348.492
348.75
348.588
351.185
349.641
341.531
339.945
341.398
345.052
347.264
335.603
332.048
329.974
332.484
333.063
334.394
345.972
332.086
330.143
329.053
329.992
329.351
329.626
330.857
339.989
337.104
334.886
333.248
331.534
331.096
333.015
352.926
352.388
350.471
347.984
345.036
344.793
345.642
352.453
353.242
353.45
352.98
349.8
349.979
349.971
345.821
346.384
353.614
350.301
348.255
348.603
349.206
344.903
338.206
336.068
338.128
340.411
343.553
347.132
334.445
329.093
328.563
331.091
330.704
335.459
346.527
331.088
327.343
327.934
328.95
328.318
327.366
327.853
337.913
334.752
331.628
330.187
329.408
330.787
333.265
351.963
348.864
345.432
342.997
341.186
340.42
341.746
352.115
351.611
351.474
351.701
349.81
346.662
346.549
345.646
346.341
350.218
349.558
348.617
349.259
348.902
342.984
335.549
335.844
338.074
340.158
342.975
346.66
333.48
327.715
327.316
328.803
330.265
339.711
346.692
328.17
325.129
327.277
327.772
326.59
326.396
328.087
334.031
331.573
329.521
328.469
329.172
335.965
340.1
349.512
342.361
338.293
338.8
340.284
339.901
341.224
352.127
350.531
349.846
350.042
350.63
345.808
345.228
345.789
347.644
349.28
348.406
348.209
348.653
348.404
340.248
330.724
337.23
342.001
341.028
342.521
346.108
332.761
326.076
325.171
326.953
328.86
339.439
346.639
325.18
324.356
325.881
326.593
325.354
325.467
329.364
337.167
332.882
327.951
327.111
328.65
338.905
346.518
348.459
340.676
334.706
332.269
334.089
336.64
342.104
351.566
350.395
349.808
349.825
350.583
347.923
346.09
345.638
347.682
349.81
348.166
347.777
348.315
348.28
335.097
336.014
344.906
344.389
340.24
342.062
345.563
330.478
323.256
324.45
326.514
325.93
337.799
346.318
323.471
322.942
325.086
326.347
324.504
325.212
330.029
343.358
337.774
328.302
326.02
326.514
337.194
349.847
348.659
343.362
337.665
333.841
332.577
337.612
344.612
351.443
351.573
351.558
351.619
352.903
353.562
346.44
345.298
349.287
350.36
348.794
345.776
347.559
348.064
324.266
342.319
348.759
345.774
337.206
340.401
345.835
324.214
321.544
324.011
325.778
325.203
328.904
344.571
321.576
321.426
324.41
325.965
323.993
324.899
331.879
342.167
334.441
326.975
325.122
325.184
328.25
339.279
352.195
350.428
345.676
341.876
339.773
337.219
342.814
352.102
353.259
353.035
353.251
353.739
350.462
343.128
337.381
355.409
350.211
350.96
350.312
349.565
349.958
338.706
347.714
354.999
348.794
339.035
338.034
344.706
329.042
338.926
341.851
343.125
337.099
330.037
339.159
321.071
321.481
324.689
327.417
324.705
325.001
331.831
342.266
333.38
327.622
329.223
330.91
332.252
341.373
353.859
351.776
350.5
352.137
352.847
352.613
351.492
353.455
352.515
354.858
354.837
355.449
347.787
342.195
347.154
348.193
352.435
348.884
347.386
347.31
347.791
345.735
347.902
339.719
340.802
343.077
344.473
346.731
336.953
334.919
331.539
330.071
332.873
329.642
342.739
334.217
331.437
330.961
331.421
331.126
332.652
333.56
342.42
338.818
336.862
334.431
333.378
333.405
335.289
353.01
352.307
349.626
344.868
342.264
342.602
344.44
351.571
354.659
354.72
351.667
349.644
349.751
347.757
347.279
348.206
352.748
349.17
347.608
347.608
348.598
345.939
348.317
340.278
341.306
343.222
345.07
346.882
336.872
334.729
331.317
330.041
334.114
328.505
342.438
334.121
331.364
330.838
331.33
331.038
332.567
333.465
341.991
338.506
336.614
334.283
333.289
333.186
335.068
353.096
352.385
350.108
345.433
343.134
343.34
344.682
351.608
354.812
354.907
351.887
349.943
350.419
348.495
347.514
348.198
353.051
349.402
347.648
347.722
348.675
346.776
348.478
340.442
341.61
343.289
345.379
346.901
336.795
334.583
330.892
330.374
335.239
329.268
341.495
333.919
331.277
330.766
331.262
330.834
332.35
333.24
341.712
338.321
336.407
334.193
333.108
333.053
334.812
353.144
352.378
350.256
345.884
343.498
343.514
344.832
351.675
355.091
354.941
352.29
350.004
350.471
348.617
347.625
348.319
353.266
349.526
347.642
347.906
348.324
347.407
348.536
340.508
341.718
343.254
345.74
346.849
336.757
334.249
330.765
330.932
335.46
331.428
341.026
333.809
331.14
330.618
331.207
330.755
332.26
333.096
341.625
338.201
336.153
333.991
332.885
332.873
334.669
353.132
352.313
350.293
346.349
343.736
343.425
344.776
351.805
355.247
354.853
352.563
349.849
350.304
348.29
348.017
348.83
353.812
349.755
347.656
348.031
347.81
347.537
348.826
340.509
341.721
343.136
346.064
346.793
336.657
333.949
330.68
331.073
335.564
333.2
340.35
333.641
331.025
330.558
331.059
330.628
331.963
332.825
341.523
337.836
335.864
333.901
332.717
332.726
334.381
353.081
352.273
350.354
347.229
344.106
343.488
344.854
352.278
355.441
354.742
352.669
349.71
350.246
348.209
348.167
348.995
354.407
350.261
347.987
348.29
347.284
347.946
349.027
340.666
341.915
343.083
346.325
346.783
336.596
333.722
330.545
331.369
335.709
334.275
338.991
333.554
330.942
330.429
331.003
330.511
331.737
332.7
341.126
337.495
335.686
333.665
332.571
332.388
334.229
353.011
352.274
350.363
347.858
344.257
344.24
345.19
352.473
355.521
354.619
352.866
349.672
350.9
348.798
348.069
348.937
354.589
350.358
348.186
348.442
347.168
349.805
349.359
341.217
342.151
342.994
346.478
346.968
336.378
333.212
330.442
332.446
335.904
334.888
339.392
333.389
330.768
330.354
330.888
330.315
331.49
332.387
340.827
337.191
335.348
333.497
332.407
332.155
333.863
352.983
352.363
350.587
348.279
344.749
344.763
345.628
352.505
355.173
354.553
352.942
349.848
351.439
350.595
334.469
358.135
339.855
326.573
322.993
321.346
320.433
344.172
347.91
358.827
347.637
344.572
343.78
342.682
335.056
342.6
343.983
344.41
344.67
335.877
335.946
320.368
321.733
325.282
327.597
324.674
324.957
331.153
341.418
332.671
332.546
345.517
346.426
345.976
358.439
346.873
349.425
351.353
353.114
359.055
357.579
348.387
324.211
328.417
331.422
339.421
345.867
361.409
342.474
361.628
350.862
345.938
340.782
335.417
333.807
332.328
346.688
353.568
351.529
349.748
346.178
345.174
343.888
341.027
345.621
346.204
345.142
343.64
342.776
336.517
320.447
322.018
325.574
327.642
324.726
325.119
330.436
340.39
333.778
338.68
342.926
348.019
346.518
354.506
344.9
346.79
349.369
351.763
352.911
359.115
356.535
330.902
330.711
331.881
334.601
343.48
348.947
361.991
362.512
352.153
351.724
348.25
345.628
344.865
345.909
353.86
355.204
355.743
353.298
350.022
349.037
348.858
341.836
345.542
346.725
345.226
342.971
343.653
338.932
320.56
322.787
325.937
327.785
324.885
325.233
329.222
337.871
335.941
339.934
339.151
344.868
347.359
351.441
347.725
349.325
350.321
351.047
351.899
356.074
363.629
342.989
337.766
337.438
339.539
343.426
347.974
358.714
359.69
354.772
357.484
356.551
355.147
354.865
355.377
357.086
356.197
358.404
357.491
357.069
356.363
356.598
339.851
345.861
348.328
347.404
344.61
345.063
343.177
321.199
323.944
325.917
327.898
325.089
325.178
328.21
337.206
337.288
338.894
338.203
339.059
345.921
351.001
352.249
351.391
351.333
351.535
351.807
354.547
362.573
350.157
348.974
342.574
342.335
345.152
347.902
350.613
356.899
355.766
357.909
357.219
356.004
355.742
355.087
358.825
357.174
358.653
357.707
356.859
357.079
358.06
341.455
347.555
349.577
348.087
345.966
345.828
346.589
321.549
325.107
325.828
328.164
325.525
325.189
327.434
338.061
340.929
341.656
340.181
338.294
343.123
345.556
351.671
352.182
352.79
353.079
353.273
354.876
362.087
352.382
352.53
350.183
348.288
348.203
350.187
350.47
356.961
357.676
357.718
356.039
355.258
354.659
353.423
359.208
359.207
359.04
357.534
356.625
356.718
357.236
345.237
349.457
350.185
348.9
347.706
346.247
345.152
322.32
325.151
325.823
328.384
325.645
325.184
325.871
339.734
341.857
342.08
342.497
341.429
342.177
343.218
351.132
353.548
354.104
353.995
354.312
355.571
360.269
352.779
353.275
352.286
350.478
350.782
352.092
352.685
357.575
358.917
358.484
354.063
351.662
350.818
349.896
360.049
360.75
360.069
358.613
355.418
353.23
352.527
346.994
352.221
353.372
352.222
349.61
347.754
345.407
324.227
325.533
325.663
329.712
326.777
326.05
325.652
342.705
342.898
342.552
343.744
343.974
345.654
345.506
353.724
354.241
354.849
355.432
355.766
356.864
359.238
350.085
350.379
351.498
352.414
354.163
355.424
355.646
320.167
319.593
318.694
319.247
323.971
331.376
340.497
341.159
340.978
340.951
340.719
340.838
343.07
345.429
337.719
358.278
358.292
357.302
356.739
356.322
356.347
336.18
346.549
352.267
354.784
355.869
356.064
355.855
359.657
359.163
358.937
358.911
359.079
360.089
360.604
347.904
347.022
346.931
348.029
349.47
352.492
355.634
336.003
331.043
330.322
331.807
335.343
341.224
350.097
332.821
331.024
331.042
329.816
331.448
335.024
339.157
343.488
343.099
343.053
342.486
342.545
343.761
345.683
336.77
342.102
356.868
356.394
355.595
355.38
355.436
336.247
339.915
347.077
351.591
352.934
352.732
352.27
360.602
360.597
360.418
360.365
360.358
360.575
360.634
354.718
353
353.563
353.286
354.117
354.719
356.463
348.58
346.885
348.463
348.337
347.448
348.171
351.782
349.201
349.255
347.958
346.109
344.571
344.272
341.353
349.163
349.007
349.514
349.098
349.201
349.467
350.101
336.851
337.256
345.123
355.468
356.221
355.51
355.164
333.942
339.037
341.765
347.465
349.804
350.441
351.129
352.44
361.684
362.741
362.786
362.451
361.925
361.539
363
363.258
362.807
362.819
361.562
360.399
359.736
358.681
363.656
363.914
363.664
362.686
358.107
353.756
355.647
355.086
354.938
355.435
356.099
356.615
346.784
356.843
357.012
357.498
357.664
357.786
357.936
357.837
339.901
337.651
338.171
341.152
348.179
355.126
356.338
332.988
335.336
336.251
337.034
338.768
340.274
343.556
351.922
354.9
357.553
359.067
359.998
361.699
363.706
365.638
365.832
365.167
364.413
363.975
365.027
363.885
357.435
358.642
359.457
360.985
362.877
363.875
358.538
355.08
354.947
355.07
355.615
356.46
357.616
355.061
358.513
358.745
359.286
359.503
359.844
360.145
360.088
345.234
343.832
340.727
340.299
340.771
342.95
347.128
331.79
333.702
334.311
334.454
334.282
334.376
335.188
349.278
349.549
350.263
350.533
351.104
352.887
357.349
365.012
365.132
363.77
362.321
362.118
362.343
363.667
351.979
352.696
354.424
358.077
360.745
362.999
361.654
353.322
353.562
353.542
353.966
355.3
357.852
357.066
357.545
358.034
358.447
358.43
358.785
359.235
359.176
345.095
344.705
344.157
343.565
343.055
342.417
342.461
327.405
329.127
330.242
330.741
330.589
330.216
330.388
343.892
345.453
346.175
346.883
347.11
347.519
349.293
362.099
361.634
360.142
360.173
360.317
360.287
361.056
353.01
353.772
354.37
357.103
360.85
363.203
362.218
350.259
350.12
350.244
350.832
352.529
355.888
357.776
352.367
352.201
351.865
351.497
351.539
351.615
351.087
344.568
343.508
343.262
342.881
342.709
342.096
339.518
325.312
325.262
325.145
324.877
324.205
323.242
320.718
345.462
345.09
344.952
345.146
345.453
345.296
344.048
358.899
358.19
358.165
359.184
360.479
360.959
360.312
356.314
356.566
358.156
358.958
362.064
362.558
359.004
339.325
333.239
324.523
321.549
322.238
325.746
329.16
347.506
344.388
341.888
340.593
340.765
341.682
342.15
345.345
341.898
341.419
339.937
338.161
336.687
335.545
343.992
344.814
344.936
343.571
339.513
331.365
322.157
357.821
357.54
357.581
357.65
357.575
354.485
341.382
348.369
343.228
341.006
341.592
343.593
344.426
345.165
338.586
327.797
315.181
312.592
313.518
315.155
321.697
345.867
342.096
337.503
337.591
337.854
341.287
343.693
346.798
344.766
343.022
342.389
342.496
343.282
343.91
347.466
345.344
345.98
344.67
343.769
342.74
341.427
343.35
343.58
341.812
337.544
332.028
325.455
322.03
356.292
356.346
356.366
356.671
352.803
343.319
340.943
345.494
342.258
341.561
342.389
343.787
344.873
345.188
340.022
334.911
327.358
324.703
325.087
326.431
330.956
349.243
349.998
352.521
352.997
353.119
355.386
357.431
351.304
350.043
348.674
348.238
348.357
349.009
349.801
347.625
347.135
347.212
344.875
344.014
343.622
342.464
338.474
337.733
333.681
327.904
324.72
322.757
321.166
354.952
355.102
355.657
351.151
342.181
339.84
339.25
346.775
346.168
346.173
346.912
347.24
347.445
347.699
340.762
341.629
343.553
342.934
341.769
342.022
342.74
353.219
359.187
360.039
359.602
358.745
359.688
358.593
359.194
358.031
357.397
356.607
356.173
356.209
355.946
347.973
347.196
345.779
343.657
343.008
342.484
340.869
330.615
328.158
324.137
322.742
322.092
321.54
321.307
354.616
351.894
343.771
339.498
338.209
337.811
337.633
351.407
351.431
351.506
351.474
351.925
352.386
352.564
339.39
348.014
352.32
352.799
352.611
352.159
351.592
359.499
360.732
358.267
358.457
357.508
358.697
359.631
362.178
361.657
360.799
360.24
359.943
359.43
359.273
347.189
347.409
345.69
343.716
342.963
342.536
342.52
324.965
323.792
322.607
322.204
321.89
321.909
322.204
345.042
339.809
337.997
337.625
337.721
337.816
337.949
355.043
355.084
354.806
354.632
355.168
353.758
351.461
342.874
352.213
352.298
352.651
353.161
352.955
352.422
360.37
360.759
356.667
354.932
354.525
355.731
355.949
360.964
360.097
359.519
358.927
358.47
358.433
358.633
345.313
344.721
342.573
341.79
341.564
342.195
343.901
320.327
320.115
320.148
320.742
320.905
321.527
321.674
336.682
336.006
336.501
337.005
337.213
337.487
337.613
351.856
352.245
352.615
352.713
352.584
351.785
351.435
351.206
351.752
351.357
351.365
351.779
352.172
352.484
358.562
359.255
356.132
353.607
352.78
353.968
355.453
355.656
356.945
356.963
356.765
356.856
357.274
357.875
339.003
340.072
340.128
340.056
340.338
341.538
343.242
315.714
318.435
319.437
320.333
321
322.233
322.73
335.449
338.358
339.196
339.497
339.733
339.911
341.356
350.46
351.02
351.776
352.201
352.865
353.241
353.557
353.209
351.055
350.215
350.06
350.304
350.448
350.47
362.95
360.992
361.806
361.037
356.881
351.98
347.797
364.457
358.832
357.211
356.953
355.661
352.636
351.15
359.357
356.67
356.055
356.446
357.211
357.891
357.884
347.532
346.537
344.657
343.766
343.347
343.609
344.201
359.287
356.511
356.568
357.07
357.146
357.341
357.757
365.168
358.925
359.893
359.149
356.936
354.935
350.483
362.352
360.123
361.88
359.859
356.821
351.714
344.627
362.092
359.454
359.938
357.614
352.863
352.14
347.7
356.124
352.79
351.038
351.149
350.76
349.873
348.862
357.357
355.31
354.484
354.296
354.693
355.639
356.907
347.399
346.338
344.641
343.462
343.055
343.261
343.673
356.819
354.932
354.675
354.428
354.594
354.896
355.687
357.011
353.97
352.597
351.55
351.088
349.624
347.964
361.424
358.978
357.728
355.558
355.788
353.394
346.032
355.813
356.795
356.677
351.025
351.334
351.427
347.68
347.27
346.906
348.849
349.903
352.798
352.772
352.245
352.071
351.992
351.772
352.484
354.035
355.512
356.067
346.661
345.391
343.575
342.054
341.389
341.135
340.301
353.097
352.43
352.379
353.122
353.221
353.616
354.645
349.19
349.288
349.887
348.791
349.783
349.458
348.213
356.714
355.143
355.241
353.486
356.091
349.447
340.88
354.964
352.566
352.456
345.584
346.427
347.683
343.426
344.715
345.118
350.011
354.342
358.544
358.462
359.397
350.9
350.058
350.432
351.035
353.214
355.091
354.938
345.878
344.866
342.408
340.089
338.566
336.668
335.199
350.543
349.982
350.101
350.221
351.473
352.809
354.169
346.243
347.997
349.226
348.023
350.531
350.855
351.48
354.498
350.325
349.145
348.173
348.474
340.632
334.97
352.412
346.701
347.102
338.584
342.789
344.904
338.427
339.905
342.911
351.077
358.757
360.471
361.046
362.712
348.323
347.906
349.105
351.096
353.948
354.368
349.662
344.709
340.943
336.43
333.37
330.841
329.269
328.652
348.684
348.445
349.088
349.423
351.7
352.58
350.328
340.352
345.774
347.696
342.274
350.541
354.17
354.81
350.587
340.309
345.374
339.364
343.342
335.248
333.327
344.52
342.098
342.14
333.852
335.918
339.551
334.849
336.148
341.612
352.935
359.553
361.278
361.996
362.749
346.744
346.688
346.32
348.39
349.701
347.695
346.454
342.24
339.202
334.463
330.97
327.034
323.274
321.288
344.662
346.851
345.667
346.927
347.767
343.318
338.179
337.906
343.249
343.595
340.172
357.079
354.922
352.415
345.339
332.425
342.27
330.215
339.381
331.081
333.916
335.794
332.022
337.792
328.405
331.527
334.969
331.438
332.477
337.312
352.203
357.598
359.007
357.405
355.967
342.978
342.498
345.204
344.721
343.31
339.168
337.714
339.651
330.169
324.785
320.437
315.368
313.009
312.46
343.685
342.437
343.96
343.224
340.379
334.402
333.526
335.977
339.512
340.751
337
357.898
352.53
351.106
340.594
329.449
337.016
326.76
335.273
327.245
336.175
328.225
320.68
329.405
324.374
327.057
327.056
329.198
327.952
331.818
333.066
341.983
345.502
348.787
353.072
335.618
334.77
332.765
334.595
336.873
337.043
336.386
319.296
320.51
322.04
321.348
319.575
317.964
313.89
335.302
335.782
333.284
332.948
331.89
329.897
324.895
329.355
335.798
332.498
330.324
331.163
334.694
338.59
334.096
326.705
332.181
316.496
318.464
325.299
329.76
307.907
300.592
300.696
300.38
300.922
305.712
310.223
319.54
323.913
324.6
328.316
336.321
339.486
339.584
331.176
331.123
329.854
328.187
328.331
329.03
331.184
313.849
314.598
316.043
318.115
317.804
316.797
316.68
328.386
325.683
327.19
327.99
328.302
328.412
326.004
314.143
316.007
317.252
320.193
319.586
319.341
319.864
303.389
297.923
297.799
304.199
303.663
305.765
305.642
296.154
295.277
295.121
294.592
294.524
295.467
295.347
315.541
314.699
314.666
314.316
314.359
314.78
315.123
329.555
329.695
328.745
327.106
327.379
327.423
325.621
304.842
305.323
307.555
311.094
313.228
313.712
314.023
324.439
320.854
317.999
320.281
321.997
323.517
324.17
306.189
311.006
312.006
310.101
309.058
310.689
313.497
287.257
287.095
287.694
287.88
288.606
288.775
284.122
284.3
286.202
286.845
287.631
287.345
287.41
287.819
307.489
307.501
307.32
307.048
306.983
307.176
306.679
326.829
326.546
325.51
324.27
323.964
324.613
323.008
302.192
302.44
304.992
308.226
310.07
310.241
310.44
315.926
315.224
312.001
314.04
317.071
318.872
322.187
303.754
305.286
305.778
307.443
306.231
307.276
305.532
279.617
279.781
278.947
279.665
278.933
278.91
278.673
280.571
280.759
280.795
280.758
280.967
280.994
281.037
304.463
304.385
304.259
304.204
304.168
304.46
304.366
319.096
319.083
318.457
318.368
317.907
318.325
316.964
296.681
296.946
299.828
302.593
304.255
304.231
304.411
314.465
311.17
309.578
311.63
315.574
316.768
321.936
301.152
303.68
303.944
302.628
301.49
303.987
303.368
277.441
277.914
277.95
277.367
277.324
277.721
277.356
280.18
280.237
280.332
280.388
280.386
280.395
280.393
303.454
303.34
303.224
303.207
303.205
303.426
303.382
317.906
318.085
317.486
317.82
317.385
317.704
316.49
294.166
294.456
297.445
300.31
302.101
302.256
302.706
315.657
311.809
309.834
311.363
315.783
316.609
322.16
302.397
303.316
303.258
302.495
302.651
303.524
303.183
278.742
279.569
279.604
278.699
278.684
279.545
278.523
292.438
292.316
292.216
292.156
292.118
292.131
292.056
305.225
305.203
305.181
305.221
305.247
305.328
305.277
310.688
310.844
310.092
310.271
310.448
311.259
310.625
278.648
279.367
282.212
285.222
287.384
287.953
288.999
309.822
306.318
304.026
303.965
308.281
309.732
314.437
305.305
305.373
305.42
305.426
305.472
305.448
305.496
292.233
291.974
291.975
292.153
292.274
291.975
292.4
347.048
351.939
355.94
358.473
362.784
364.223
364.756
348.807
350.188
352.837
353.717
356.039
356.576
355.73
356.539
356.343
356.306
356.604
357.008
357.087
356.855
355.45
354.986
354.679
354.893
355.446
356.524
356.904
360.995
361.317
361.494
361.667
361.444
361.259
362.195
357.882
360.292
361.363
363.224
364.152
363.367
365.482
353.85
358.37
360.322
362.666
365.684
364.821
366.215
345.679
350.254
356.065
357.694
362.016
364.187
361.618
347.954
349.505
350.641
351.043
352.761
353.151
351.176
355.313
354.841
354.758
355.139
355.578
355.739
355.212
351.402
351.342
351.411
351.848
352.918
354.707
356.457
360.273
360.282
360.405
360.531
360.272
360.501
361.872
357.208
358.503
359.108
360.539
360.956
360.856
365.301
354.139
358.499
359.042
360.457
363.178
361.426
366.19
341.326
344.352
351.861
356.271
355.675
358.586
353.01
350.931
350.559
350.452
348.062
346.796
348.131
345.923
354.461
353.991
353.893
353.854
353.625
353.727
353.035
350.826
350.778
350.926
351.372
352.762
353.805
355.755
361.03
359.992
359.693
359.6
359.269
358.888
359.653
359.443
358.044
357.678
357.556
359.154
357.02
354.552
352.867
356.485
356.148
353.284
360.236
355.279
356.72
340.204
339.675
346.845
350.22
349.41
352.289
349.404
359.095
357.677
355.41
348.672
343.734
343.791
344.373
355.057
353.672
352.132
350.973
350.528
350.661
350.461
345.612
346.814
348.565
349.743
351.963
353.654
354.812
362.798
360.726
358.354
357.41
357.54
356.699
355.772
363.053
360.68
356.824
353.43
359.451
356.16
350.814
347.262
352.542
352.251
346.029
356.85
351.737
355.812
338.811
331.157
341.13
344.819
343.219
347.698
346.275
360.339
360.441
360.105
354.879
340.159
338.542
338.945
354.031
354.68
353.202
350.193
349.066
348.606
349.376
338.091
338.895
340.69
343.389
347.013
351.246
353.887
360.428
361.232
359.856
356.489
357.114
356.141
354.467
363.834
362.986
358.543
347.782
360.042
357.112
348.677
340.905
347.005
348.96
340.285
353.315
345.648
353.553
340.493
329.551
336.538
340.135
340.615
344.156
341.559
359.479
359.592
360.849
357.472
338.965
336.447
335.883
343.264
346.7
350.393
349.023
347.206
346.99
347.144
331.224
333.104
336.492
339.27
343.907
348.634
351.451
351.57
356.477
357.877
354.656
355.859
355.051
351.891
361.9
362.76
364.62
345.389
358.57
357.061
344.343
338.012
340.937
343.896
338.5
350.533
339.21
346.339
339.828
328.772
328.933
331.979
337.78
337.017
336.427
351.856
355.152
359.002
354.461
336.953
332.679
334.018
337.362
338.583
343.42
346.095
344.128
343.173
345.594
318.333
319.551
323.657
328.991
332.918
341.248
349.252
342.526
344.201
350.516
351.19
351.89
351.426
349.976
360.871
361.954
365.516
343.593
355.669
354.598
337.496
337.689
337.616
341.414
337.996
343.965
334.948
341.676
329.022
324.514
323.98
323.936
320.987
328.127
331.957
338.964
337.825
331.577
328.521
329.796
328.219
328.272
328.481
332.431
333.187
335.395
336.765
337.006
333.042
316.231
321.084
323.528
327.997
329.604
327.153
327.364
328.672
335.673
340.004
341.995
339.82
339.1
335.663
335.643
337.776
338.181
331.521
335.035
344.518
327.754
336.292
327.845
324.901
327.345
335.786
320.33
337.307
303.582
301.462
303.449
295.984
297.472
296.35
305.117
333.133
323.36
320.243
319.848
319.089
314.7
314.001
326.362
328.859
329.558
329.889
329.76
326.317
327.194
316.52
319.678
321.2
321.543
321.033
321.469
321.15
326.904
332.245
334.083
331.31
328.846
331.472
331.922
320.378
322.554
320.633
320.872
324.931
323.001
320.511
307.617
308.43
309.118
307.735
300.274
297.851
300.669
290.547
289.042
289.63
289.02
290.463
289.047
289.886
313.56
313.278
314.144
312.272
312.396
310.522
307.85
319.817
321.724
321.737
322.779
321.464
323.331
323.746
313.358
315.943
315.451
313.824
312.253
313.16
308.566
323.766
329.149
325.232
327.136
323.596
322.679
323.146
310.218
311.555
309.857
309.326
311.752
310.339
310.519
291.322
291.814
290.91
291.965
290.741
290.521
291.587
280.414
279.907
281.585
280.013
281.698
279.881
280.067
306.153
304.888
306.424
304.636
306.064
304.335
305.67
315.914
316.291
319.098
317.327
318.799
318.102
316.659
308.118
310.381
311.493
310.321
308.514
306.885
306.423
316.968
321.692
320.923
320.497
316.2
320.389
321.245
305.277
306.452
305.943
305.738
305.071
304.362
304.855
280.657
280.642
280.572
280.353
280.554
280.825
280.76
278.605
278.178
278.56
278.198
278.753
278.255
278.237
304.056
302.248
304.237
302.335
304.29
302.256
302.194
313.756
315.041
314.998
315.693
315.006
315.242
315.304
303.095
306.078
306.72
305.347
303.715
304.047
301.188
315.999
319.325
318.722
316.551
314.829
317.386
317.593
303.398
302.861
303.594
302.546
303.303
302.812
302.818
278.859
278.45
278.782
278.494
278.849
278.735
279.008
279.579
278.836
279.476
278.762
279.37
278.645
278.511
303.546
302.548
303.681
302.682
303.749
302.597
302.578
313.759
315.858
314.903
316.376
314.869
315.666
315.828
301.718
304.324
304.896
303.499
302.008
302.294
298.235
317.83
319.43
318.392
315.079
315.243
317.667
317.72
303.227
302.635
303.357
302.452
303.14
302.77
302.905