/*--------------------------------*- C++ -*----------------------------------*\
  =========                 |
  \\      /  F ield         | OpenFOAM: The Open Source CFD Toolbox
   \\    /   O peration     | Website:  https://openfoam.org
    \\  /    A nd           | Version:  6
     \\/     M anipulation  |
\*---------------------------------------------------------------------------*/
FoamFile
{
    version     2.0;
    format      ascii;
    class       volScalarField;
    location    "3";
    object      O2;
}
// * * * * * * * * * * * * * * * * * * * * * * * * * * * * * * * * * * * * * //

dimensions      [0 0 0 0 0 0 0];

internalField   nonuniform List<scalar> 
297
(
0
0
0
0
0
0
0
0
0
0
0
0
0
0
0
0
0
0
0
0
0
0
0
0
0
0
0
0.102994
0.176832
0.10978
0.195366
0.218522
0.197918
0.102773
0.176908
0.110272
0
0.0491664
0
0.0399927
0.165552
0.0430669
0
0.0491902
0
0
0.0465927
0
0.0259975
0.0403179
0.026466
0
0.0466048
0
0.00713699
0.0193262
0.00709799
0
0.00314831
0
0.00724851
0.019321
0.00721415
4.20648e-07
3.84739e-07
7.7357e-07
1.09864e-06
3.0985e-07
2.17842e-06
4.23814e-07
3.85771e-07
7.78058e-07
7.11261e-12
1.54498e-11
1.91543e-11
1.99264e-11
1.27386e-11
4.07593e-11
7.16509e-12
1.55025e-11
1.92298e-11
0
0.0457183
0
0
0.0031491
0
0
0.0457272
0
0
0.0452934
0
0
0.00314855
0
0
0.0453016
0
0
0.0438947
0
0
0.00314839
0
0
0.043902
0
2.09535e-16
9.74738e-16
5.99927e-16
3.98511e-16
3.79927e-16
8.2997e-16
2.32069e-16
9.48939e-16
6.10622e-16
2.85026e-20
2.75035e-19
1.0216e-19
3.51766e-20
6.39053e-20
4.58197e-20
2.32459e-20
2.50079e-19
8.15128e-20
2.40141e-23
9.73866e-20
1.12177e-22
9.70733e-24
2.38003e-20
1.11852e-23
2.01572e-23
8.90417e-20
1.13823e-22
1.12789e-20
3.60852e-25
5.5322e-30
1.15582e-20
1.76188e-25
2.86331e-30
1.14767e-20
3.67163e-25
5.63083e-30
1.78403e-24
7.60494e-29
3.08865e-33
1.29211e-24
6.78812e-27
2.92085e-31
1.43492e-24
7.60209e-29
3.47357e-33
8.2172e-27
1.9824e-29
2.48425e-33
7.4796e-28
3.14489e-28
2.70237e-32
7.79483e-27
1.98842e-29
2.48961e-33
1.00545e-30
6.63037e-26
3.94394e-21
1.16152e-30
7.59945e-26
5.54973e-21
2.24613e-30
7.37516e-26
4.36705e-21
1.13653e-33
2.04041e-29
5.33833e-25
1.21912e-31
2.93041e-27
8.25872e-25
1.68155e-33
3.458e-29
8.25378e-25
1.52367e-33
4.20068e-30
2.03227e-27
1.91417e-32
6.53854e-29
4.87843e-28
1.59523e-33
6.62363e-30
1.79974e-27
1.12903e-43
1.72339e-39
4.46705e-35
6.39528e-43
3.49658e-39
3.0992e-35
7.53166e-43
7.35877e-39
9.99463e-35
2.33237e-46
2.43063e-42
5.59563e-38
8.80757e-45
8.24396e-41
2.47475e-36
1.64989e-45
3.25551e-42
7.47141e-38
1.87492e-46
7.4993e-43
3.29016e-38
4.87874e-45
2.05328e-41
5.00736e-37
1.45669e-45
9.82805e-43
3.72779e-38
2.3244e-46
3.31876e-45
1.39974e-43
7.80819e-45
3.80809e-41
5.08319e-40
1.42457e-45
9.54942e-45
2.84415e-43
1.00347e-47
3.60573e-46
5.54835e-45
1.13622e-42
4.11929e-41
5.60003e-40
1.03792e-47
5.66308e-46
5.86136e-45
2.03803e-48
7.6011e-47
1.1408e-45
5.7814e-43
2.04029e-41
3.06769e-40
3.62012e-48
1.40523e-46
2.10426e-45
1.30087e-34
9.20367e-39
9.26393e-43
7.68964e-35
3.82048e-39
9.05129e-43
2.46349e-34
9.60693e-39
9.72034e-43
1.24535e-37
5.3179e-42
8.47422e-46
5.90848e-36
1.8941e-40
1.68252e-44
1.42899e-37
5.01149e-42
4.65536e-45
6.21763e-38
1.41872e-42
7.94353e-46
7.34896e-37
2.60521e-41
6.58776e-45
6.00391e-38
1.57541e-42
4.6844e-45
2.72058e-43
9.51726e-45
1.01311e-45
2.03651e-39
2.24122e-41
7.40988e-45
4.54532e-43
3.29488e-44
4.82356e-45
2.15613e-45
2.25407e-46
6.07762e-48
5.20838e-40
2.58949e-41
9.98271e-43
3.06132e-45
2.38685e-46
8.89551e-48
5.06839e-46
4.65212e-47
1.73655e-48
1.61259e-40
1.26366e-41
4.98128e-43
9.02657e-46
8.70885e-47
3.08832e-48
)
;

boundaryField
{
    fuel
    {
        type            fixedValue;
        value           uniform 0;
    }
    primary_air
    {
        type            fixedValue;
        value           uniform 0.23;
    }
    Secondary_air_RHS
    {
        type            fixedValue;
        value           uniform 0.23;
    }
    Secondary_air_LHS
    {
        type            fixedValue;
        value           uniform 0.23;
    }
    outlet
    {
        type            inletOutlet;
        inletValue      uniform 0;
        value           nonuniform List<scalar> 
18
(
0
1.61259e-40
0
0
1.26366e-41
0
0
4.98128e-43
0
0
5.7814e-43
0
0
2.04029e-41
0
0
3.06769e-40
0
)
;
    }
    stove_body
    {
        type            fixedValue;
        value           uniform 0;
    }
    frontAndBack
    {
        type            empty;
    }
}


// ************************************************************************* //
