/*--------------------------------*- C++ -*----------------------------------*\
  =========                 |
  \\      /  F ield         | OpenFOAM: The Open Source CFD Toolbox
   \\    /   O peration     | Website:  https://openfoam.org
    \\  /    A nd           | Version:  6
     \\/     M anipulation  |
\*---------------------------------------------------------------------------*/
FoamFile
{
    version     2.0;
    format      ascii;
    class       volScalarField;
    location    "3";
    object      p;
}
// * * * * * * * * * * * * * * * * * * * * * * * * * * * * * * * * * * * * * //

dimensions      [1 -1 -2 0 0 0 0];

internalField   nonuniform List<scalar> 
297
(
111538
111538
111538
185857
185857
185857
111538
111538
111538
111538
111538
111538
185857
185857
185857
111538
111538
111538
111538
111538
111538
185857
185857
185857
111538
111538
111538
97604.9
97499.9
97594.9
162311
162246
162313
97605.6
97500
97594.1
97826.8
97008.6
97857.2
161718
161670
161743
97829.1
97009.2
97856.6
95213.1
94653.3
95480.6
154079
158238
154394
95216.7
94653.4
95478.9
92821.2
95100.2
92564.3
157857
156833
157750
92818.5
95101
92570.5
96917.6
97002
96841.1
161632
160784
161633
96917.8
97002.7
96842.4
97018.1
97236.8
96984.2
161577
161953
161658
97017.2
97237.5
96986.2
78112.8
92558.7
78385.6
127912
154083
127082
78088.3
92557.9
78380.5
78053.5
92468.3
78128
126648
154121
125408
78029.3
92467.4
78123.6
80057.5
92746.2
79985.3
128872
155088
127346
80038.9
92745.4
79981.8
97386.9
97470.3
97379
162133
162316
162134
97386.3
97470.6
97379.3
97456.9
97472.9
97446.9
162292
162372
162283
97456.3
97473.3
97446.9
97458.4
97468.5
97450
162369
162390
162355
97457.9
97468.9
97449.8
97526.8
97634.7
97876.7
162255
162332
162469
97526.2
97634.1
97875.3
97470.1
97498.7
97652.8
162266
162280
162337
97469.3
97498
97651.8
97411.5
97340.4
97277.7
162325
162284
162256
97410.7
97339.6
97277.1
97899
97636.2
97522.6
162462
162317
162246
97899.3
97635.9
97522
97660.5
97494.6
97467.1
162327
162268
162262
97660.7
97494.3
97466.5
97256.9
97332.9
97409.5
162241
162270
162321
97257
97332.6
97408.9
98434.8
98334.5
98158.9
162921
162829
162671
98434.8
98334.7
98159.3
98312.3
98176.9
97964.3
162744
162660
162503
98312.6
98177.2
97964.9
98165.8
98013.2
97740.3
162507
162416
162299
98166.4
98013.8
97740.9
97189.6
97141.2
97039.1
161286
161247
161159
97190.2
97141.9
97039.9
92238.6
92250.4
92288.2
152979
152985
152986
92237.8
92249.6
92287.2
85032.9
85033.2
85036.7
137114
137117
137110
85033.5
85033.8
85037.3
98144.4
98337.1
98433.6
162677
162844
162930
98142.1
98334.9
98431.9
97945.5
98165.4
98291.3
162512
162672
162745
97943.5
98163.6
98289.9
97722.2
97984.6
98127
162303
162418
162495
97720.8
97983.2
98125.8
97005.7
97110.2
97168.6
161108
161196
161245
97006.2
97110.7
97169.3
92256.3
92217.6
92202.2
152933
152931
152925
92255.7
92217
92201.8
85004.2
85001.4
85001.9
137061
137067
137063
85004.1
85001.3
85001.8
)
;

boundaryField
{
    fuel
    {
        type            zeroGradient;
    }
    primary_air
    {
        type            zeroGradient;
    }
    Secondary_air_RHS
    {
        type            zeroGradient;
    }
    Secondary_air_LHS
    {
        type            zeroGradient;
    }
    outlet
    {
        type            totalPressure;
        rho             rho;
        psi             none;
        gamma           1;
        p0              uniform 100000;
        value           nonuniform List<scalar> 
18
(
88627.5
100000
88627.7
88600.6
100000
88600.7
88597.4
100000
88597.6
88623.8
100000
88624
88625.5
100000
88625.7
88652.3
100000
88652.4
)
;
    }
    stove_body
    {
        type            zeroGradient;
    }
    frontAndBack
    {
        type            empty;
    }
}


// ************************************************************************* //
