/*--------------------------------*- C++ -*----------------------------------*\
  =========                 |
  \\      /  F ield         | OpenFOAM: The Open Source CFD Toolbox
   \\    /   O peration     | Website:  https://openfoam.org
    \\  /    A nd           | Version:  6
     \\/     M anipulation  |
\*---------------------------------------------------------------------------*/
FoamFile
{
    version     2.0;
    format      ascii;
    class       surfaceScalarField;
    location    "3";
    object      phi;
}
// * * * * * * * * * * * * * * * * * * * * * * * * * * * * * * * * * * * * * //

dimensions      [1 0 -1 0 0 0 0];

internalField   nonuniform List<scalar> 
675
(
1.07945e-05
-3.51534e-05
0.000142555
-1.08679e-05
5.48207e-06
0.000134377
-3.51218e-05
0.00014245
-1.64364e-05
3.51459e-05
0.000142791
1.64754e-05
-5.48519e-06
0.000174712
3.51173e-05
0.00014289
1.07977e-05
0.000142545
-1.08649e-05
0.000134374
0.000142449
6.66015e-06
-5.82727e-05
0.000194253
-6.78343e-06
4.88665e-06
0.000143018
-5.80277e-05
0.000193779
-2.80222e-05
5.8242e-05
5.41379e-05
2.82749e-05
-4.8897e-06
0.000128035
5.8027e-05
5.49502e-05
6.6679e-06
0.000194204
-6.77908e-06
0.000143015
0.000193781
3.69193e-06
7.2542e-05
-4.78405e-06
3.34666e-05
7.09753e-05
2.10141e-06
-7.24587e-05
1.04254e-07
-3.34699e-05
-7.10058e-05
3.72599e-06
-4.75573e-06
0.00327287
0.00390035
-0.0039659
-0.00299224
0.00520674
0.00425999
0.00373684
-0.00352204
0.00538069
-0.00389951
0.00774621
-0.00523579
-0.00520722
0.0263469
-0.00372929
0.00755738
0.0032892
-0.00398136
-0.00296961
0.00425321
-0.0034919
0.00874694
0.00833759
-0.0210511
-0.00823475
-0.00483603
0.0260769
0.00798346
-0.0197408
0.00280063
-0.00835818
0.02164
-0.00357469
0.00483309
0.0230501
-0.00794794
0.0199128
0.00872311
-0.0210634
-0.00823403
0.0260426
-0.0196745
0.000384023
0.0176295
-0.0390647
-0.000687591
-0.0071332
0.034282
0.017493
-0.0379213
-0.0431815
-0.0176321
0.100083
0.0432907
0.00713037
-0.077685
-0.0174586
0.0981557
0.000415508
-0.039111
-0.000660294
0.034249
-0.0377933
-0.0244724
-0.0223006
-0.0184867
0.0652609
0.0241262
0.00879661
-0.0316246
-0.0257683
-0.0231315
-0.0173564
0.0646156
-0.00226808
0.0223123
0.0178139
-0.0601578
0.00434307
-0.00879073
-0.0904122
0.101393
0.023107
0.0179387
-0.0598327
-0.0244915
-0.0184816
0.0652865
0.0240756
-0.0316143
-0.0257415
-0.0173091
0.0644934
0.00541682
-0.00773521
-0.0161647
-0.00899765
0.0117793
-0.0289801
-0.0109578
-0.0153911
0.0179664
0.00772337
-0.0156091
-0.010928
-0.0117858
-0.0379459
0.0109423
-0.0148857
0.00541467
-0.0161706
-0.00901134
-0.0289659
-0.0153729
-0.00129909
0.00264893
-0.0175178
-0.0130261
0.000209498
-0.0174498
-0.0102537
-0.0181395
0.0183624
-0.00265456
-0.0286775
0.00947299
-0.000208647
-0.0286272
0.0102523
-0.0258884
-0.00132282
-0.0175139
-0.0130398
-0.0174477
-0.0181334
-0.0016232
-0.000416522
-0.0472996
0.00153029
-0.000123161
0.0312517
-0.00032722
-0.0463743
-0.00284904
0.00041791
0.0852731
0.00317204
0.000123446
-0.0839524
0.000329253
0.0839555
-0.00162767
-0.0473368
0.00152362
0.0312212
-0.0462502
-0.0015043
0.000208343
-0.0562704
0.00146568
-0.000523018
0.0288049
0.000310681
-0.0554959
-0.00314582
-0.000207336
0.0721759
0.00323573
0.000523248
-0.09138
-0.000305912
0.0713123
-0.00150639
-0.0563014
0.00146115
0.028777
-0.055371
-0.00215609
0.00061626
0.00210651
-0.00122596
0.000705379
-0.00370139
-0.000615381
0.00386026
0.0012257
-0.000705049
-0.0021582
0.00210311
0.00615012
-0.000737092
-0.00878435
-0.0141511
-0.00551392
-0.000684479
-0.00510151
-0.000811777
-0.00869671
-0.0141405
0.00621012
0.000736418
-0.0174917
-0.0188706
-0.00822763
0.000683726
-0.0155563
0.000813763
-0.0168218
-0.018916
0.0061486
-0.00878206
-0.0141489
-0.00551431
-0.00510071
-0.0086951
-0.0141352
0.00265103
0.000255765
-0.00208981
-0.00960717
-0.0033436
0.000480488
0.000411577
0.000129422
-0.00252957
-0.00963628
0.00441281
-0.000256114
-0.00705037
-0.0143418
-0.00426992
-0.000481057
-0.00591117
-0.000127385
-0.00633491
-0.0144965
0.00265371
-0.00209064
-0.00960692
-0.00334247
0.0004141
-0.00252526
-0.00963639
0.000342179
0.000190402
-0.00262902
-4.19384e-06
0.000756306
0.000229598
-0.00275983
0.0016716
-0.000190607
-0.00833891
-0.00272734
-0.000755602
-0.000228017
-0.00860111
0.000342929
-0.00263026
4.65436e-07
-0.00274956
-0.012884
-5.51834e-05
-0.00119862
-0.0132022
0.00158607
-0.0012644
0.00191448
-0.0046923
-0.0104217
-0.0178883
5.59632e-05
-0.0011372
-0.0159183
-0.00158638
0.00120425
-0.00191492
0.00189405
-0.0139815
-0.0128753
-0.00120223
-0.0131937
-0.00126601
-0.00469205
-0.0104153
-0.0100442
-9.31747e-05
-0.000694877
-0.0100993
0.00104154
-0.0022479
0.000498016
-0.00529651
-0.00999068
-0.0155026
9.45805e-05
-0.000317342
-0.0131321
-0.0010412
0.000918332
-0.000495532
0.0028105
-0.0130535
-0.0100464
-0.000696285
-0.0100997
-0.00225246
-0.00529484
-0.00999131
-0.00333915
-0.000113064
-0.00503874
-0.000545678
-0.0011225
-0.0092108
-0.00914433
0.000114317
-0.00931703
0.000547165
0.001123
-0.00875039
-0.00333041
-0.00503471
-0.00920602
0.01327
0.00196029
-0.00498311
-0.01025
0.0129267
0.00157606
-0.0012368
-7.19855e-05
-0.00115625
0.0158708
-0.00196071
0.00193315
-0.0138849
0.017826
-0.00157609
0.00119519
7.17106e-05
-0.00118962
0.0132693
-0.00498658
-0.0102451
0.0129259
-0.00123565
-0.00115463
0.010169
0.000433836
-0.00560548
-0.00998344
0.0100065
0.00101254
-0.0020909
-9.37672e-05
-0.000666766
0.0129899
-0.000433517
0.00279516
-0.0129864
0.0153605
-0.00101279
0.000848522
9.33444e-05
-0.000358907
0.0101685
-0.00560943
-0.00998108
0.0100058
-0.00208862
-0.000665388
0.00469195
-0.00116779
-0.00913354
0.00315143
-0.0005543
-0.000147825
0.00925408
0.00116767
-0.00879624
0.00899337
0.000553707
0.00014743
0.00468866
-0.00913311
0.00315096
0.00432741
0.00171422
-0.00604367
0.00680137
0.00162915
-0.00410472
0.00168597
-0.00513589
0.0063536
-0.00171403
-0.00292611
0.0101428
-0.00162868
-0.000532442
-0.00168577
-0.000371446
0.00432332
-0.00603827
0.00679382
-0.00409975
-0.00513742
0.00340935
0.00152816
-0.0109825
0.0067059
0.00147719
-0.00887982
0.00108281
-0.00949736
0.00464618
-0.00152832
-0.0045171
0.00917491
-0.00147721
-0.00210804
-0.00108196
-0.00201939
0.00340487
-0.0109719
0.00670017
-0.00887278
-0.0095006
0.00452182
0.00307444
-0.0185793
0.00508841
0.00173101
-0.0111782
0.000922147
-0.0144658
0.00509416
-0.00307482
-0.00346411
0.00856348
-0.00173294
-0.00211505
-0.000923862
-0.000407381
0.00451742
-0.0185641
0.00508343
-0.0111719
-0.0144747
-0.00529837
0.0114518
-0.0247234
-0.00130142
0.0102355
-0.0254076
0.00965247
-0.0254198
0.0009194
-0.0114491
0.0184962
-0.000752346
-0.0102357
0.020015
-0.00965482
0.0181449
-0.00528948
-0.024719
-0.00129107
-0.0254069
-0.0254237
0.000609968
0.00638721
-0.0317222
0.000970736
0.00635364
-0.0321225
0.00689799
-0.0313472
-0.00073974
-0.00638964
0.0320297
-0.000585564
-0.00635513
0.032587
-0.00689927
0.0313737
0.000613803
-0.0317215
0.000974857
-0.0321214
-0.0313467
1.09474e-05
0.0191273
-0.000308552
0.0190539
0.0191494
-0.000162341
-0.0191276
0.000154866
-0.0190543
-0.0191497
1.07483e-05
-0.000308466
-0.00712247
0.00166718
-0.00496516
-0.00448221
0.00161954
-0.00425891
0.00171534
-0.00619665
-0.0102612
-0.00166676
-0.000385889
-0.00633851
-0.00161926
-0.000683435
-0.00171495
-0.00290735
-0.0071173
-0.00496447
-0.00447693
-0.00425971
-0.00619184
-0.00692507
0.00115696
-0.00918668
-0.00365666
0.00146709
-0.00899346
0.00149053
-0.0113428
-0.00934091
-0.00115503
-0.00178616
-0.00467778
-0.0014665
-0.00241275
-0.00149037
-0.00460399
-0.00692896
-0.00918204
-0.00366008
-0.00899537
-0.0113421
-0.00527552
0.000986555
-0.0141078
-0.00472907
0.00173394
-0.0112731
0.00294006
-0.0190112
-0.00876545
-0.000980086
0.000195644
-0.005197
-0.00172761
-0.00251994
-0.00294271
-0.00391881
-0.00528225
-0.0140861
-0.00474111
-0.0112643
-0.0190261
0.00204011
0.00947046
-0.0256219
0.00594718
0.0102397
-0.0254237
0.0116823
-0.0247497
0.000430408
-0.00947451
0.0187091
-0.00149427
-0.0102432
0.0198856
-0.0116841
0.0179502
0.0020444
-0.0256056
0.00595802
-0.0254219
-0.0247527
-0.00104105
0.00690572
-0.0314837
-0.00062297
0.00635047
-0.0321899
0.00636985
-0.0317403
0.00106737
-0.00690659
0.0314585
0.00117473
-0.00635124
0.0324841
-0.00637076
0.0318694
-0.00103005
-0.0314829
-0.000615227
-0.0321891
-0.0317399
0.000261938
0.0191136
-5.19172e-05
0.0190351
0.0191249
4.4246e-05
-0.0191149
0.000324759
-0.0190364
-0.0191262
0.000262104
-5.16105e-05
)
;

boundaryField
{
    fuel
    {
        type            calculated;
        value           nonuniform List<scalar> 
36
(
0.000118112
0.000196812
0.000118112
0.000118112
0.000196812
0.000118112
0.000118112
0.000196812
0.000118112
-0.000118112
-0.000196812
-0.000118112
-0.000118112
-0.000196812
-0.000118112
-0.000118112
-0.000196812
-0.000118112
0
0
0
0
0
0
0
0
0
0
0
0
0
0
0
0
0
0
)
;
    }
    primary_air
    {
        type            calculated;
        value           nonuniform List<scalar> 9(-0.00320963 -0.00533743 -0.00320966 -0.00320618 -0.00533529 -0.00320618 -0.0032093 -0.00533748 -0.00320928);
    }
    Secondary_air_RHS
    {
        type            calculated;
        value           nonuniform List<scalar> 9(0.0103105 0.0167158 0.0103098 0.0102766 0.0164956 0.010276 0.0105209 0.0167505 0.0105205);
    }
    Secondary_air_LHS
    {
        type            calculated;
        value           nonuniform List<scalar> 9(0.0102746 0.016825 0.0102714 0.0102668 0.0166588 0.0102636 0.0105304 0.0169512 0.010528);
    }
    outlet
    {
        type            calculated;
        value           nonuniform List<scalar> 
18
(
-0.0508545
0.0696513
-0.0508543
-0.0509063
0.0702835
-0.0509061
-0.0509122
0.0704537
-0.050912
-0.0508609
0.0704461
-0.0508605
-0.0508577
0.0703768
-0.0508574
-0.0508062
0.0698261
-0.0508059
)
;
    }
    stove_body
    {
        type            calculated;
        value           uniform 0;
    }
    frontAndBack
    {
        type            empty;
        value           nonuniform 0();
    }
}


// ************************************************************************* //
