/*--------------------------------*- C++ -*----------------------------------*\
  =========                 |
  \\      /  F ield         | OpenFOAM: The Open Source CFD Toolbox
   \\    /   O peration     | Website:  https://openfoam.org
    \\  /    A nd           | Version:  6
     \\/     M anipulation  |
\*---------------------------------------------------------------------------*/
FoamFile
{
    version     2.0;
    format      ascii;
    class       volVectorField;
    location    "3";
    object      U;
}
// * * * * * * * * * * * * * * * * * * * * * * * * * * * * * * * * * * * * * //

dimensions      [0 1 -1 0 0 0 0];

internalField   nonuniform List<vector> 
297
(
(12.4022 0.0177478 0.274312)
(12.4028 -0.00017326 0.249338)
(12.4022 -0.0179395 0.274016)
(1.26717e-08 -0.0236451 0.252089)
(1.38413e-08 4.65323e-05 0.249368)
(1.49684e-08 0.0236456 0.252042)
(-12.4022 0.0177579 0.274298)
(-12.4028 -0.000160607 0.249336)
(-12.4022 -0.0179312 0.274014)
(12.4017 0.0127049 0.29697)
(12.4028 -0.000244608 0.259738)
(12.4018 -0.0131033 0.297124)
(1.27564e-08 -0.0716414 0.0590333)
(1.38959e-08 0.000688647 0.228915)
(1.50582e-08 0.072021 0.0631143)
(-12.4017 0.0127312 0.29697)
(-12.4028 -0.000217917 0.259734)
(-12.4018 -0.0130898 0.297114)
(11.3321 0.0259225 0.445537)
(12.388 -0.00443043 0.39834)
(11.4249 -0.0275856 0.447152)
(8.99749e-09 0.00102384 0.208673)
(1.38685e-08 -0.00779687 0.088452)
(1.12377e-08 0.0108699 0.204129)
(-11.3425 0.0260052 0.445706)
(-12.388 -0.00416458 0.398331)
(-11.4219 -0.0275487 0.447076)
(54.9125 -7.04683 12.6022)
(29.5772 0.440971 16.8845)
(55.3312 7.22534 10.5453)
(3.55836e-05 -0.797488 16.776)
(2.5821e-06 0.233807 10.3074)
(-4.04486e-05 0.40137 16.0157)
(-54.9867 -7.09991 12.5079)
(-29.5974 0.537201 16.8723)
(-55.4188 7.15043 10.5989)
(89.0634 -34.8533 51.8495)
(75.0739 2.00657 127.055)
(94.2889 36.3255 59.261)
(0.000397829 8.05156 210.23)
(5.02243e-05 -1.086 130.62)
(-0.000104646 -6.89492 213.045)
(-89.0607 -34.9682 51.7477)
(-75.2438 1.90773 127.206)
(-94.7832 36.2238 59.8194)
(87.1644 -88.0085 -50.6919)
(68.3254 -1.23546 167.065)
(92.2325 99.0277 -42.1095)
(0.000521579 -59.9134 269.968)
(5.33241e-06 1.31902 -23.4482)
(-0.000258223 60.8573 279.813)
(-87.1596 -88.1695 -50.4031)
(-68.4622 -0.884791 167.287)
(-92.7165 99.1911 -42.3531)
(54.7605 -55.4019 -212.969)
(38.0871 -3.5602 -28.611)
(57.6997 63.6374 -217.593)
(-0.00060822 -106.378 -23.6684)
(5.44396e-05 0.754964 -120.663)
(0.00140347 114.745 -24.3958)
(-54.778 -55.403 -213.035)
(-38.1374 -3.71337 -28.6517)
(-57.7324 63.6167 -217.817)
(25.247 46.0173 -132.244)
(15.3495 -8.60567 -89.7233)
(30.5836 -38.1029 -140.444)
(2.33666e-05 -0.919451 -115.307)
(4.70432e-05 6.47509 -100.479)
(0.000184693 7.54142 -121.889)
(-25.2241 46.0151 -132.266)
(-15.3518 -8.63311 -89.718)
(-30.5804 -38.0976 -140.317)
(8.46068 23.1634 -21.1192)
(8.46159 -8.70362 -16.7708)
(8.4641 -22.0375 -21.5363)
(-1.75794e-05 20.5836 -19.5485)
(1.411e-05 7.89045 -22.0964)
(3.80259e-05 -16.5617 -18.182)
(-8.46249 23.1401 -21.1146)
(-8.4617 -8.71091 -16.7654)
(-8.46486 -22.0468 -21.53)
(77.0182 -85.6458 -516.224)
(65.2351 -5.34139 211.687)
(80.407 100.909 -520.135)
(-0.00480762 -80.6197 401.89)
(-5.37087e-05 5.46607 -151.1)
(-0.00103836 85.5811 423.346)
(-76.8976 -85.8648 -516.2)
(-65.3647 -5.31276 211.91)
(-80.931 101.023 -521.989)
(69.0013 -64.0182 -412.048)
(59.1982 -5.45106 206.753)
(66.7409 75.3767 -414.546)
(-0.00511955 -76.3942 454.579)
(-5.58201e-05 4.86746 -152.767)
(-0.00103462 80.1576 482.758)
(-69.0405 -64.1028 -412.276)
(-59.31 -5.45043 206.967)
(-67.0126 75.3947 -415.593)
(61.7273 -68.3181 -358.192)
(59.5008 -4.86088 189.323)
(64.3192 78.9787 -360.704)
(-0.00461297 -107.508 500.422)
(-5.83895e-05 3.73582 -143.596)
(-0.000915804 117.839 530.102)
(-61.7585 -68.4662 -358.395)
(-59.6119 -4.88799 189.507)
(-64.5901 78.9648 -361.482)
(8.42795 36.7636 -10.3332)
(8.45359 1.60948 -10.3611)
(8.4288 -36.6661 -10.6137)
(-1.32519e-05 28.4089 -11.2389)
(6.74998e-06 -3.09774 -11.2296)
(5.63749e-06 -28.9383 -10.4568)
(-8.4297 36.7632 -10.3321)
(-8.45353 1.60919 -10.3588)
(-8.43 -36.6769 -10.613)
(8.46085 19.84 -3.83403)
(8.47201 -2.23539 -2.00848)
(8.46216 -19.5921 -4.02327)
(-1.13533e-05 18.9848 -4.81104)
(7.35854e-06 0.515374 -5.55711)
(-1.0696e-06 -19.6381 -4.47337)
(-8.46147 19.8387 -3.83601)
(-8.47228 -2.21625 -2.00597)
(-8.4625 -19.6081 -4.02117)
(8.47231 -0.851443 -4.93431)
(8.47351 0.560956 0.449479)
(8.47318 1.05912 -5.12701)
(-9.67539e-06 9.00324 -2.74959)
(7.33242e-06 -1.86798 -2.18467)
(-3.65865e-06 -9.3982 -2.36177)
(-8.47283 -0.847961 -4.93188)
(-8.47385 0.56373 0.447881)
(-8.4731 1.0832 -5.12266)
(8.42414 -39.3585 -4.53811)
(8.44803 -35.3627 -6.69144)
(8.439 -31.1249 -9.07964)
(-1.13713e-05 -31.5084 -3.87563)
(-1.21163e-05 -29.1375 -3.77064)
(-2.73545e-05 -24.9788 -4.09471)
(-8.42529 -39.35 -4.54294)
(-8.44921 -35.3107 -6.69436)
(-8.44026 -31.1098 -9.08119)
(8.44956 -29.7539 -2.33669)
(8.46314 -30.7995 -7.58383)
(8.4373 -27.3069 -13.8971)
(-1.56254e-05 -26.2199 0.144458)
(-1.47397e-05 -26.0914 1.14531)
(-2.00407e-05 -21.942 1.90207)
(-8.45006 -29.76 -2.35191)
(-8.46368 -30.7941 -7.60128)
(-8.43795 -27.3083 -13.8957)
(8.47711 -6.17565 -4.3036)
(8.47516 -17.162 -12.8673)
(8.443 -23.4583 -19.7569)
(-1.62563e-05 -15.3558 2.35392)
(-1.55083e-05 -15.9671 3.48259)
(-1.25973e-05 -16.4519 3.60434)
(-8.47718 -6.14775 -4.28501)
(-8.47523 -17.1273 -12.8589)
(-8.44312 -23.4526 -19.739)
(8.4361 30.1667 -9.33963)
(8.44589 35.7032 -6.72584)
(8.42279 39.5976 -4.5144)
(5.18461e-06 24.5422 -4.25475)
(-6.03847e-06 29.3455 -3.84004)
(-1.22463e-05 31.5118 -3.86551)
(-8.43772 30.1601 -9.3429)
(-8.44785 35.7146 -6.72189)
(-8.42458 39.6023 -4.50976)
(8.43201 26.9787 -14.559)
(8.46205 31.076 -7.53132)
(8.44973 29.7643 -2.12507)
(4.33209e-06 21.6128 2.23305)
(-6.4664e-06 26.0189 1.34528)
(-1.11889e-05 26.0959 0.107421)
(-8.43247 26.973 -14.567)
(-8.46251 31.0788 -7.52839)
(-8.45016 29.7648 -2.12176)
(8.44224 23.4018 -20.7591)
(8.47459 16.6078 -12.579)
(8.47612 5.82304 -4.53801)
(1.31658e-06 16.5263 2.9518)
(-6.35663e-06 16.0093 3.0536)
(-1.08786e-05 14.9711 2.32855)
(-8.44264 23.3991 -20.7734)
(-8.47493 16.6064 -12.5786)
(-8.47647 5.82545 -4.53884)
(8.4217 9.10877 -15.5342)
(8.42218 13.8481 -11.1627)
(8.42874 21.6615 -13.1172)
(-4.5631e-07 7.68682 -7.8576)
(2.6979e-06 12.6183 -4.32315)
(8.57093e-06 18.2502 -5.16007)
(-8.42416 9.10446 -15.5305)
(-8.42441 13.843 -11.1579)
(-8.43021 21.6455 -13.121)
(8.42504 3.40088 -22.1003)
(8.42886 12.6674 -17.4176)
(8.42474 22.5792 -21.7499)
(5.54136e-06 5.34897 -5.0927)
(6.99132e-06 10.0175 -1.04784)
(1.09998e-05 17.1329 -1.28307)
(-8.42673 3.3926 -22.0805)
(-8.42989 12.6609 -17.3963)
(-8.42531 22.5709 -21.7495)
(8.45392 2.29072 -26.7656)
(8.43193 14.8338 -25.9978)
(8.43026 14.3889 -32.0951)
(1.10007e-05 4.11333 -8.10558)
(1.1846e-05 11.122 -4.71347)
(1.28193e-05 13.4802 -0.368464)
(-8.45577 2.27162 -26.7349)
(-8.43265 14.8375 -25.9768)
(-8.43074 14.3735 -32.1159)
(8.44766 -1.83447 -44.1168)
(8.44401 -2.60576 -44.863)
(8.44647 -9.80219 -48.4088)
(1.16338e-05 -2.51699 17.5485)
(1.47143e-05 3.31482 21.1934)
(1.67641e-05 -9.85132 18.9585)
(-8.44906 -1.83279 -44.0957)
(-8.44408 -2.59278 -44.8608)
(-8.44658 -9.80606 -48.4307)
(8.3456 0.95794 -111.647)
(8.34145 -0.958932 -113.646)
(8.3441 4.56455 -110.444)
(-1.6116e-05 -0.795079 61.5465)
(-1.77967e-05 0.993722 63.0392)
(-1.93016e-05 -1.68636 59.8628)
(-8.34538 0.960518 -111.645)
(-8.34142 -0.960249 -113.642)
(-8.34357 4.56868 -110.436)
(8.0004 -0.00734654 -149.419)
(8.00067 -0.0679823 -149.406)
(8.00148 -0.0748667 -149.208)
(1.39746e-05 -0.30492 180.373)
(1.4168e-05 0.377978 180.217)
(1.43262e-05 -0.524543 178.957)
(-8.00037 -0.00739954 -149.418)
(-8.00064 -0.068033 -149.405)
(-8.00145 -0.0748519 -149.207)
(8.43043 -22.1499 -12.8362)
(8.42329 -14.1238 -11.4164)
(8.42327 -9.82769 -15.5768)
(-4.52862e-05 -18.6588 -5.02301)
(-4.34951e-05 -12.2225 -4.29879)
(-3.29586e-05 -7.64221 -7.75708)
(-8.43199 -22.167 -12.83)
(-8.42528 -14.1018 -11.4065)
(-8.42581 -9.79247 -15.5613)
(8.43046 -22.6408 -21.6602)
(8.43097 -12.5202 -18.2005)
(8.42646 -5.20264 -23.3548)
(-3.97042e-05 -17.5937 -1.50604)
(-3.53946e-05 -9.70657 -1.61209)
(-2.60081e-05 -5.80344 -5.29431)
(-8.43154 -22.6659 -21.6504)
(-8.43255 -12.5347 -18.199)
(-8.429 -5.18664 -23.3269)
(8.44008 -15.2438 -30.5444)
(8.43884 -13.9487 -26.3701)
(8.45457 -4.34324 -28.3291)
(-2.91571e-05 -14.2798 0.634801)
(-2.66298e-05 -10.5528 -5.36935)
(-2.51427e-05 -5.2084 -8.48607)
(-8.44038 -15.2624 -30.529)
(-8.4397 -13.9765 -26.3926)
(-8.45667 -4.38417 -28.3455)
(8.44778 9.82546 -48.3635)
(8.44472 3.12984 -44.5877)
(8.4482 2.68329 -44.7294)
(9.88804e-06 9.22924 20.5748)
(9.86369e-06 -2.81747 21.1011)
(1.45092e-05 1.89222 16.0963)
(-8.44762 9.80797 -48.2925)
(-8.44472 3.15037 -44.5905)
(-8.44978 2.60965 -44.7492)
(8.3443 -4.35052 -111.196)
(8.34239 0.600028 -113.989)
(8.34622 -0.728017 -111.624)
(-1.24881e-05 1.81734 60.3507)
(-1.22873e-05 -0.877398 62.7819)
(-8.11715e-06 0.87654 61.038)
(-8.34451 -4.34231 -111.194)
(-8.34184 0.593231 -113.978)
(-8.34667 -0.696457 -111.624)
(8.00207 0.0630834 -149.392)
(8.0012 0.04645 -149.591)
(8.00086 -0.00438044 -149.615)
(-2.37423e-06 0.587557 178.534)
(-2.49798e-06 -0.326129 180.015)
(-2.65577e-06 0.348134 180.437)
(-8.00209 0.0630974 -149.391)
(-8.00122 0.046555 -149.59)
(-8.00088 -0.00436684 -149.614)
)
;

boundaryField
{
    fuel
    {
        type            fixedValue;
        value           uniform (0 0 0.25);
    }
    primary_air
    {
        type            fixedValue;
        value           uniform (0 0 2.5);
    }
    Secondary_air_RHS
    {
        type            fixedValue;
        value           uniform (0 100 0);
    }
    Secondary_air_LHS
    {
        type            fixedValue;
        value           uniform (0 -100 0);
    }
    outlet
    {
        type            pressureInletOutletVelocity;
        value           nonuniform List<vector> 
18
(
(0 0 -149.392)
(-2.37423e-06 0.587557 178.534)
(0 0 -149.391)
(0 0 -149.591)
(-2.49798e-06 -0.326129 180.015)
(0 0 -149.59)
(0 0 -149.615)
(-2.65577e-06 0.348134 180.437)
(0 0 -149.614)
(0 0 -149.419)
(1.39746e-05 -0.30492 180.373)
(0 0 -149.418)
(0 0 -149.406)
(1.4168e-05 0.377978 180.217)
(0 0 -149.405)
(0 0 -149.208)
(1.43262e-05 -0.524543 178.957)
(0 0 -149.207)
)
;
    }
    stove_body
    {
        type            noSlip;
    }
    frontAndBack
    {
        type            empty;
    }
}


// ************************************************************************* //
