/*--------------------------------*- C++ -*----------------------------------*\
  =========                 |
  \\      /  F ield         | OpenFOAM: The Open Source CFD Toolbox
   \\    /   O peration     | Website:  https://openfoam.org
    \\  /    A nd           | Version:  6
     \\/     M anipulation  |
\*---------------------------------------------------------------------------*/
FoamFile
{
    version     2.0;
    format      ascii;
    class       volScalarField;
    location    "0.5";
    object      O2;
}
// * * * * * * * * * * * * * * * * * * * * * * * * * * * * * * * * * * * * * //

dimensions      [0 0 0 0 0 0 0];

internalField   nonuniform List<scalar> 
297
(
0
0
0
0
0
0
0
0
0
0
0
0
0
0
0
0
0
0
0
0
0
0
0
0
0
0
0
0.127326
0.0487808
0.126393
0.186575
0.171126
0.184669
0.127585
0.0486887
0.12695
0.031524
0.000360647
0.0318149
0.113016
0.116132
0.112707
0.0315677
0.000312516
0.0316699
0
0
0
0.0756333
0.0196819
0.0753143
0
0
0
0
1.79542e-10
0
0
0
0
0
0
0
0
4.78432e-15
0
7.88809e-19
3.34848e-14
8.97777e-19
2.60834e-15
5.41125e-15
2.67871e-15
2.98699e-15
2.36733e-15
3.1103e-15
6.75582e-15
2.17534e-14
6.90541e-15
3.02533e-15
2.15811e-15
3.08657e-15
0
0
0
0.0296618
2.2451e-07
0.0293236
0
0
0
0
0
0
0.0126552
1.19335e-09
0.0121909
0
0
0
0
0
0
0
0
0
0
0
0
2.17553e-15
1.52962e-15
2.22373e-15
6.53421e-15
1.18037e-15
6.63883e-15
2.20214e-15
1.56383e-15
2.21572e-15
1.17804e-15
1.08749e-15
1.17826e-15
5.92612e-15
1.1782e-15
6.0708e-15
1.1443e-15
1.13977e-15
1.17785e-15
9.88443e-16
9.88737e-16
9.92814e-16
1.53228e-15
1.19761e-15
1.47866e-15
9.43631e-16
9.84577e-16
1.02453e-15
1.27956e-15
7.28229e-16
2.60699e-16
6.63564e-15
6.63669e-15
6.64525e-15
1.28172e-15
7.2833e-16
2.60536e-16
1.20066e-15
3.24988e-16
1.89588e-16
5.01434e-15
5.07327e-15
5.98315e-15
1.18777e-15
3.24066e-16
1.88955e-16
9.73481e-16
3.00677e-16
2.1641e-16
1.4108e-15
1.27417e-15
3.55968e-15
1.00552e-15
3.00568e-16
2.16369e-16
3.7818e-16
6.09907e-16
1.26115e-15
6.53903e-15
6.53368e-15
6.53302e-15
2.76912e-16
5.094e-16
1.28354e-15
2.00216e-16
3.23436e-16
1.16713e-15
5.88468e-15
4.97421e-15
4.91402e-15
1.73105e-16
3.00353e-16
1.17272e-15
2.54898e-16
3.23817e-16
9.5395e-16
3.36066e-15
1.24671e-15
1.43736e-15
2.11916e-16
2.77587e-16
9.05819e-16
1.49454e-18
2.33003e-17
2.3716e-17
3.96663e-18
4.12911e-18
2.22517e-15
1.63994e-18
2.79207e-17
2.81708e-17
4.29106e-18
6.11693e-17
7.67163e-17
4.63272e-18
4.59545e-18
3.62452e-15
4.70816e-18
7.40968e-17
8.5347e-17
4.2885e-18
1.11199e-16
2.37745e-16
4.64515e-18
1.52974e-15
3.58289e-15
4.70481e-18
1.34952e-16
1.95771e-16
4.28587e-18
2.0993e-17
1.22626e-16
4.62108e-18
5.60451e-16
2.32912e-15
4.7015e-18
1.47607e-17
9.93514e-17
4.87646e-18
2.2547e-17
4.8707e-17
3.81473e-17
4.99855e-16
1.56094e-15
5.05355e-18
1.56646e-17
3.94004e-17
3.14549e-22
2.31404e-21
4.77082e-21
3.98479e-17
2.58428e-16
6.30526e-16
5.7771e-22
2.29559e-21
4.74546e-21
2.52237e-17
2.49898e-17
5.03921e-18
2.31179e-15
5.46241e-18
5.3196e-18
2.49296e-17
2.47071e-17
5.35487e-18
7.97592e-17
6.48274e-17
5.03663e-18
3.72028e-15
5.68208e-18
5.34639e-18
7.88202e-17
6.35165e-17
5.35106e-18
2.28598e-16
1.17118e-16
5.03421e-18
3.67157e-15
1.56138e-15
5.35983e-18
2.33957e-16
1.14572e-16
5.3489e-18
1.15961e-16
1.78477e-17
5.02919e-18
1.94366e-15
7.11343e-16
5.35155e-18
1.19088e-16
1.80682e-17
5.34644e-18
4.59381e-17
2.02464e-17
5.02168e-18
1.51321e-15
5.23162e-16
4.40031e-17
4.72251e-17
2.04561e-17
5.34442e-18
4.78229e-21
2.42234e-21
3.36696e-22
6.337e-16
2.76624e-16
4.38801e-17
4.78646e-21
2.42414e-21
6.21772e-22
)
;

boundaryField
{
    fuel
    {
        type            fixedValue;
        value           uniform 0;
    }
    primary_air
    {
        type            fixedValue;
        value           uniform 0.23;
    }
    Secondary_air_RHS
    {
        type            fixedValue;
        value           uniform 0.23;
    }
    Secondary_air_LHS
    {
        type            fixedValue;
        value           uniform 0.23;
    }
    outlet
    {
        type            inletOutlet;
        inletValue      uniform 0;
        value           nonuniform List<scalar> 
18
(
0
6.337e-16
0
0
2.76624e-16
0
0
4.38801e-17
0
0
3.98479e-17
0
0
2.58428e-16
0
0
6.30526e-16
0
)
;
    }
    stove_body
    {
        type            fixedValue;
        value           uniform 0;
    }
    frontAndBack
    {
        type            empty;
    }
}


// ************************************************************************* //
