/*--------------------------------*- C++ -*----------------------------------*\
  =========                 |
  \\      /  F ield         | OpenFOAM: The Open Source CFD Toolbox
   \\    /   O peration     | Website:  https://openfoam.org
    \\  /    A nd           | Version:  6
     \\/     M anipulation  |
\*---------------------------------------------------------------------------*/
FoamFile
{
    version     2.0;
    format      ascii;
    class       volScalarField;
    location    "0.5";
    object      p;
}
// * * * * * * * * * * * * * * * * * * * * * * * * * * * * * * * * * * * * * //

dimensions      [1 -1 -2 0 0 0 0];

internalField   nonuniform List<scalar> 
297
(
112665
112666
112665
184777
184777
184777
112666
112666
112666
112665
112665
112665
184777
184777
184777
112665
112665
112665
112665
112665
112665
184777
184778
184778
112665
112665
112665
97263.2
97283.8
97264.2
159759
159745
159760
97263.5
97284
97264.1
97216.6
97236.3
97217.6
159557
159590
159555
97216.6
97237
97216.9
97115.7
97252
97122.4
158211
158960
158213
97117.4
97253.5
97120.5
97022.4
97143.6
97018.2
159420
159170
159415
97021.4
97145.3
97019.6
96984.1
97097.1
96980.3
159433
159399
159432
96984.2
97098.2
96983.1
96887.8
97085.4
96886
159209
159290
159212
96887.9
97086.5
96887.7
96758.8
97357.7
96756.2
155514
158402
155510
96759
97359.2
96757.9
96694.5
97349.1
96690.6
155219
158482
155214
96694.4
97349
96692.3
96661
97325.6
96656.5
155491
158666
155485
96660.6
97322.6
96657.6
97334
97397.1
97337.5
159242
159294
159248
97335.4
97397.5
97336.3
97427.7
97463.3
97432.6
159328
159314
159335
97429.4
97463.5
97430.6
97469.9
97478.5
97476.2
159375
159350
159381
97472
97478.5
97473.6
97485.1
97384.7
97318.6
159025
159165
159351
97482.8
97383
97316.5
97399.8
97249.6
97129.3
159167
159209
159347
97397.6
97248
97127.3
97363.4
97209.7
97098.7
159227
159185
159177
97361
97207.9
97096.2
97315.4
97381.4
97477.5
159345
159159
159018
97315.9
97381.7
97481.7
97127.3
97246.1
97393.9
159342
159204
159161
97127.3
97246.5
97395.9
97096.5
97206
97357.1
159174
159181
159222
97097.2
97206.6
97359
98598.5
98227.7
97628
159382
159353
159386
98603.3
98231.8
97630.1
98184.6
97705
97286.9
159213
159119
159248
98189.8
97709.1
97288.8
97762.2
97314.8
97038.7
158983
158793
158875
97767.3
97318.4
97040.6
96318.2
96226.6
96207.1
157530
157432
157372
96319.8
96227.9
96208.4
94773.6
94833.9
94906.1
153360
153341
153346
94770.4
94830.8
94903.3
91445.9
91521
91590.7
141604
141633
141659
91440.4
91515.5
91585.4
97633.4
98236.7
98609.4
159391
159356
159384
97629.7
98231.5
98603.2
97290.8
97713.1
98196.2
159251
159121
159214
97286.6
97706
98187.3
97040.8
97321.4
97777.6
158874
158790
158980
97035.7
97312
97761.8
96197.2
96219.4
96316.1
157351
157412
157510
96192.1
96212.2
96305.9
94901.6
94825.5
94758.6
153342
153342
153354
94911.1
94838.5
94775.8
91577.3
91507
91431.4
141654
141623
141599
91582.3
91512.2
91437.3
)
;

boundaryField
{
    fuel
    {
        type            zeroGradient;
    }
    primary_air
    {
        type            zeroGradient;
    }
    Secondary_air_RHS
    {
        type            zeroGradient;
    }
    Secondary_air_LHS
    {
        type            zeroGradient;
    }
    outlet
    {
        type            totalPressure;
        rho             rho;
        psi             none;
        gamma           1;
        p0              uniform 100000;
        value           nonuniform List<scalar> 
18
(
93085.4
100000
93088.4
92743.9
100000
92748.6
91829.1
100000
91850.7
91825.5
100000
91815.1
92757.9
100000
92755.9
93097.5
100000
93093.4
)
;
    }
    stove_body
    {
        type            zeroGradient;
    }
    frontAndBack
    {
        type            empty;
    }
}


// ************************************************************************* //
