/*--------------------------------*- C++ -*----------------------------------*\
  =========                 |
  \\      /  F ield         | OpenFOAM: The Open Source CFD Toolbox
   \\    /   O peration     | Website:  https://openfoam.org
    \\  /    A nd           | Version:  6
     \\/     M anipulation  |
\*---------------------------------------------------------------------------*/
FoamFile
{
    version     2.0;
    format      ascii;
    class       surfaceScalarField;
    location    "0.5";
    object      phi;
}
// * * * * * * * * * * * * * * * * * * * * * * * * * * * * * * * * * * * * * //

dimensions      [1 0 -1 0 0 0 0];

internalField   nonuniform List<scalar> 
675
(
-6.05432e-07
-0.000199126
0.000319054
6.67704e-07
-0.000206513
0.000324538
-0.00019894
0.000318921
8.03647e-06
0.000199125
-0.000210422
-8.7264e-06
0.000206513
-0.000200609
0.000198938
-0.000210762
-6.04154e-07
0.000319059
6.64794e-07
0.000324532
0.000318925
-7.85847e-07
1.47888e-05
0.000305104
8.92293e-07
1.1631e-05
0.000311258
1.48957e-05
0.000304973
2.10555e-06
-1.4788e-05
-0.000183181
-2.28203e-06
-1.163e-05
-0.000173149
-1.48953e-05
-0.000183457
-7.86199e-07
0.000305114
8.91051e-07
0.000311259
0.000304985
-3.56079e-06
0.000189389
3.82696e-06
0.000184565
0.000189519
-9.13415e-08
-0.000189389
9.95271e-08
-0.000184565
-0.000189519
-3.56228e-06
3.8277e-06
-0.00616845
0.00602829
0.00333842
0.00623011
0.00278041
-0.0119795
0.006028
0.00340327
0.000846527
-0.00602107
0.0164572
-0.000845174
-0.00274391
0.012472
-0.00602006
0.0164618
-0.00620698
0.00338476
0.0062447
-0.0119947
0.00342618
-0.000181438
0.00850949
-0.00499094
-0.000182612
0.00441485
-0.0163578
0.00852292
-0.00530439
-0.00168315
-0.00852077
0.0351693
0.00141308
-0.00436681
0.0181591
-0.008519
0.0349146
-0.000123699
-0.00501587
-0.000155447
-0.0163728
-0.00525282
0.00425042
0.0168796
-0.0261191
-0.00362455
0.00847489
-0.0168931
0.0170745
-0.0260047
-0.0364664
-0.016936
0.10545
0.0364269
-0.00842558
-0.0378333
-0.0170074
0.105416
0.00410841
-0.0260655
-0.00380087
-0.0169642
-0.0260704
-0.00409822
-0.00895926
-0.0211076
0.0341704
0.0042299
0.00801143
-0.0307779
0.0144559
-0.00894493
-0.0208559
0.0340314
0.0192701
0.00894513
0.042951
-0.0801188
-0.0193555
-0.00800596
0.00277571
0.0518697
0.00894727
0.0429241
-0.0801707
-0.00415251
-0.0210117
0.0341127
0.00420458
-0.0307657
0.014393
-0.0209466
0.0341003
0.00154122
-0.00579196
-0.0168513
-0.00147159
-0.00277949
-0.0249837
-0.00574718
-0.0165835
0.00883226
0.00575878
0.0225713
-0.00881075
0.00276529
0.0148728
0.00576266
0.0225981
0.00151277
-0.0167634
-0.00149475
-0.0249941
-0.0166793
0.00241357
-0.00287087
-0.0163965
-0.0029824
-0.00100486
-0.0185932
-0.0031191
-0.0164585
-0.0100813
0.00294271
0.0268372
0.0104251
0.000998083
-0.00764684
0.00303831
0.0268536
0.00260178
-0.0164218
-0.00279556
-0.0185998
-0.0164377
0.000702637
-0.002452
-0.0286106
-0.000661962
-0.00174404
-0.0137828
-0.00241016
-0.0284975
-0.00327476
0.00244151
0.0970128
0.00327088
0.0018311
-0.0479538
0.00242269
0.097036
0.000688977
-0.0285568
-0.000667679
-0.0137757
-0.0285593
0.000195908
-0.00128035
-0.0317647
-0.00016566
-0.0010305
-0.012396
-0.00126045
-0.0316416
-0.00151062
0.00127673
0.0891609
0.00150547
0.00108004
-0.0530833
0.00126484
0.0892106
0.000186908
-0.0317075
-0.000170872
-0.012331
-0.0317058
9.45827e-05
-0.00192715
-7.10449e-05
0.00222088
-0.00191952
-0.00162666
0.00192446
0.00162017
-0.00223709
0.00192309
9.17827e-05
-7.9561e-05
0.00451597
-0.00351823
-0.00478882
-0.0126057
-0.00463477
-0.000940466
-0.0085037
-0.00358463
-0.00486055
-0.012647
-0.00128364
0.00353977
0.00943319
0.0116288
0.00134141
0.000940215
-0.0121543
0.00356468
0.00933478
0.0117113
0.00455863
-0.004809
-0.0126318
-0.00459396
-0.00850696
-0.00483724
-0.0126295
0.00435441
0.000170085
0.00103592
-0.0103497
-0.00451577
0.00164662
-0.00128167
0.000147831
0.000875432
-0.0103974
-0.000821256
-0.000164883
0.000727379
0.0098614
0.000857172
-0.00164708
-0.0105406
-0.000153822
0.000570242
0.00992486
0.00439391
0.00100678
-0.0103748
-0.00448087
-0.00127914
0.000911062
-0.0103826
0.00227979
0.00243297
-0.00367715
-0.00213001
0.00312669
0.00244449
-0.00369624
0.00220349
-0.00243699
0.00339337
-0.00208217
-0.00312958
-0.00244338
0.00337805
0.00225408
-0.00368454
-0.00215448
-0.0036863
-0.0122822
-0.00190111
0.00153817
-0.0131269
-0.000736472
0.00158312
-0.000785986
0.00141659
-0.0137562
0.00798724
0.00189772
-7.29189e-05
0.00649937
0.000736241
1.78983e-05
0.000787747
0.00345832
0.00146995
-0.0122711
0.0015394
-0.013119
0.00158429
0.00141781
-0.0137485
-0.0100694
-0.00188088
0.00309331
-0.0103067
-0.000445708
0.00226835
-0.000162352
0.000829086
-0.00955533
0.00899414
0.00187773
-0.00289849
0.00748207
0.000444569
0.000642846
0.000164298
0.00621348
0.00440326
-0.010061
0.00309569
-0.010302
0.00227014
0.000836988
-0.00955609
-0.000920068
0.000319601
0.000517012
0.000833627
0.000478681
0.000868656
0.00112121
-0.000319574
0.00343242
-0.000831783
-0.000471421
0.010599
-0.000909995
0.000528683
0.000895321
0.0130955
-0.000789345
0.00141249
-0.013718
0.0122546
-0.000732037
0.00157559
-0.0018917
0.00153925
-0.00642614
0.000785312
0.00341677
0.00143403
-0.00788394
0.000730984
-5.56628e-06
0.00189809
-4.44573e-05
0.0131254
0.0014063
-0.0137463
0.0122786
0.00157776
0.00154492
0.0102821
-0.000163058
0.000833137
-0.00953955
0.0100383
-0.000441353
0.00226066
-0.00187239
0.00310033
-0.00742965
0.000156071
0.00617769
0.00434954
-0.00893318
0.000440189
0.000616798
0.0018793
-0.00286734
0.0102988
0.000816694
-0.00955305
0.0100562
0.00226066
0.00310557
-0.000534942
0.000470433
0.000897043
0.000895686
0.00082958
0.000318308
-0.00343989
-0.000476116
0.0105647
-0.001163
-0.00082972
-0.000317991
-0.000534075
0.000874654
0.000896998
0.00845574
0.000577212
-0.0090324
0.0138084
-0.000765193
-0.0045871
0.000191184
-0.000100628
0.00605341
-0.000578093
-0.00489764
0.00241323
0.000757019
0.00211841
-0.000191523
0.00423019
0.00846614
-0.00904428
0.0138288
-0.00460564
-0.00010906
0.00607791
0.000446863
-0.0155567
0.00927536
-0.000412258
-0.00737203
0.000526528
-0.000891476
0.00494931
-0.00045224
-0.00894737
5.39218e-05
0.000412406
0.00618961
-0.000527394
0.00968796
0.00607567
-0.0155722
0.00927779
-0.00739537
-0.000911686
0.00551375
0.00275849
-0.0238285
0.00492959
-0.00100304
-0.00578473
-9.10982e-05
0.00502598
0.00187078
-0.0027679
-0.00529137
-0.00598191
0.00101635
0.0120233
8.45789e-05
0.0140954
0.00550668
-0.0238469
0.00495664
-0.00582901
0.0050042
0.00241305
0.00776582
-0.0340077
0.00570519
0.00344
-0.0125172
0.00290471
0.00782611
0.01022
-0.0077796
3.27022e-05
0.010609
-0.00344507
0.0185171
-0.0029184
0.030526
0.0023958
-0.0340228
0.00572808
-0.0126067
0.00781356
-0.014188
0.00994316
-0.0297669
-0.0132363
0.00659471
-0.0200664
0.00647855
-0.0118926
-0.00143565
-0.00994772
0.021361
-0.00478453
-0.00658113
0.0350619
-0.00647063
0.0386921
-0.0141794
-0.029795
-0.0132533
-0.0201165
-0.011914
-0.00750845
0.0218112
-0.00672767
0.0209702
0.0223277
-0.00810215
-0.0218009
-0.00823597
-0.0209396
-0.0223113
-0.00750119
-0.00673397
-0.0138408
0.000190516
-0.00010545
-0.00847505
-0.00075428
-0.00461164
0.00057959
-0.00905572
-0.00238598
-0.000189678
0.00423784
-0.00605503
0.00076353
0.00215258
-0.000577294
-0.00489704
-0.0138362
-0.000100935
-0.00847192
-0.00459932
-0.00904757
-0.00928307
0.000528489
-0.000906024
-0.00607573
-0.000411631
-0.00740904
0.000453105
-0.0155897
-4.17592e-05
-0.000527034
0.00974036
-0.004955
0.000413035
0.00624273
-0.000447211
-0.00895078
-0.00929029
-0.000892442
-0.00608346
-0.00739157
-0.0155773
-0.00497112
-8.36066e-05
0.00501679
-0.00550855
-0.00102158
-0.0058539
0.00276947
-0.0238576
0.00598587
9.09042e-05
0.0141808
-0.00187798
0.00100958
0.0120769
-0.00276215
-0.00529706
-0.00494328
0.00503836
-0.00551277
-0.00581222
-0.0238599
-0.00576817
0.00294879
0.00781544
-0.00244103
0.00342973
-0.0126317
0.00779171
-0.034078
-0.0105778
-0.0029376
0.0306559
-0.0102211
-0.00342657
0.0185838
-0.00777535
5.03594e-05
-0.00570359
0.00782068
-0.00237292
-0.0125716
-0.0340879
0.0132844
0.00648559
-0.0119317
0.0142023
0.00661014
-0.0201319
0.00992355
-0.0298129
0.00488231
-0.00649408
0.0387315
0.0016056
-0.00662619
0.0350784
-0.00991104
0.0214787
0.0132321
-0.0119203
0.0141333
-0.0200954
-0.0297705
0.00675627
0.02229
0.00752879
0.0209476
0.0217762
0.00823788
-0.0222999
0.00819433
-0.0209661
-0.021762
0.00674722
0.00752429
)
;

boundaryField
{
    fuel
    {
        type            calculated;
        value           nonuniform List<scalar> 
36
(
0.000119306
0.000195669
0.000119306
0.000119306
0.000195669
0.000119306
0.000119306
0.000195669
0.000119306
-0.000119306
-0.000195668
-0.000119306
-0.000119306
-0.000195669
-0.000119306
-0.000119306
-0.000195668
-0.000119306
0
0
0
0
0
0
0
0
0
0
0
0
0
0
0
0
0
0
)
;
    }
    primary_air
    {
        type            calculated;
        value           nonuniform List<scalar> 9(-0.0031984 -0.00525352 -0.00319841 -0.00319907 -0.00525305 -0.00319908 -0.00319843 -0.00525352 -0.00319842);
    }
    Secondary_air_RHS
    {
        type            calculated;
        value           nonuniform List<scalar> 9(0.0042423 0.00681836 0.00424237 0.00423942 0.00680538 0.0042395 0.00423793 0.00681726 0.00423798);
    }
    Secondary_air_LHS
    {
        type            calculated;
        value           nonuniform List<scalar> 9(0.00424241 0.00681857 0.00424242 0.00423959 0.00680563 0.00423959 0.00423812 0.00681753 0.00423811);
    }
    outlet
    {
        type            calculated;
        value           nonuniform List<scalar> 
18
(
-0.0409783
0.0750792
-0.04097
-0.0418522
0.0770296
-0.0418404
-0.0440599
0.0732035
-0.0440099
-0.0440661
0.0730745
-0.044091
-0.0418151
0.0770953
-0.041821
-0.0409446
0.075095
-0.040956
)
;
    }
    stove_body
    {
        type            calculated;
        value           uniform 0;
    }
    frontAndBack
    {
        type            empty;
        value           nonuniform 0();
    }
}


// ************************************************************************* //
