/*--------------------------------*- C++ -*----------------------------------*\
  =========                 |
  \\      /  F ield         | OpenFOAM: The Open Source CFD Toolbox
   \\    /   O peration     | Website:  https://openfoam.org
    \\  /    A nd           | Version:  6
     \\/     M anipulation  |
\*---------------------------------------------------------------------------*/
FoamFile
{
    version     2.0;
    format      ascii;
    class       volScalarField;
    location    "0.5";
    object      T;
}
// * * * * * * * * * * * * * * * * * * * * * * * * * * * * * * * * * * * * * //

dimensions      [0 0 0 1 0 0 0];

internalField   nonuniform List<scalar> 
297
(
297.461
297.562
297.463
307.378
307.326
307.388
297.461
297.562
297.463
297.586
297.664
297.587
332.96
334.079
332.956
297.586
297.664
297.587
303.899
303.788
303.908
336.295
337.193
336.303
303.899
303.788
303.908
295.708
301.42
295.708
294.423
297.061
294.424
295.777
301.603
295.778
306.43
304.292
306.766
301.358
299.869
301.552
306.547
304.516
306.784
310.119
304.271
310.442
304.698
307.039
304.851
310.188
304.499
310.402
303.178
299.802
303.368
311.421
309.005
311.618
303.218
299.808
303.348
301.888
299.677
302.135
311.421
311.201
311.619
301.958
299.674
302.085
299.787
298.209
300.024
310.14
307.489
310.249
299.886
298.207
299.987
310.38
301.735
310.703
307.745
308.431
307.919
310.446
302.206
310.659
307.936
299.978
307.269
308.346
308.442
308.524
307.991
300.385
307.24
306.1
299.515
306.324
310.377
308.545
310.57
306.147
299.923
306.3
298.576
298.043
298.714
309.7
300.233
309.738
298.657
298.039
298.704
296.877
296.982
296.947
308.621
300.236
308.746
296.823
297.117
296.947
296.728
296.789
296.835
300.834
300.278
300.803
296.676
296.779
296.883
297.203
295.958
294.845
309.697
309.752
309.763
297.216
295.97
294.858
297.126
295.37
294.955
306.847
306.957
308.587
297.107
295.368
294.954
296.783
295.522
295.243
300.659
300.4
304.196
296.83
295.521
295.243
294.986
295.581
297.062
309.719
309.716
309.662
294.748
295.408
297.163
294.896
295.28
297.001
308.517
306.869
306.754
294.815
295.235
297.015
295.265
295.46
296.662
303.956
300.283
300.638
295.146
295.376
296.587
294.852
295.001
294.403
298.438
298.487
302.271
294.944
295.061
294.464
294.722
294.997
294.741
298.543
298.575
304.57
294.809
295.022
294.759
294.183
295.125
295.187
298.519
300.892
304.216
294.271
295.1
295.119
293.971
294.441
292.873
298.787
299.022
300.608
294.058
294.273
292.753
292.841
293.802
294.207
298.568
296.202
297.743
292.917
293.611
294.161
288.895
288.39
288.393
285.516
283.505
284.623
288.897
288.394
288.396
294.562
295.164
295.084
302.45
298.602
298.573
294.574
295.173
295.096
294.83
295.089
294.783
304.711
298.67
298.633
294.824
295.081
294.807
295.246
295.221
294.351
304.343
300.99
298.613
295.256
295.213
294.337
292.876
294.406
293.931
299.381
299.684
298.82
292.899
294.439
294.053
294.228
293.82
292.517
297.259
295.138
297.782
294.239
293.831
292.326
288.397
288.399
288.891
284.737
283.538
285.315
288.397
288.398
288.89
)
;

boundaryField
{
    fuel
    {
        type            fixedValue;
        value           uniform 293;
    }
    primary_air
    {
        type            fixedValue;
        value           uniform 293;
    }
    Secondary_air_RHS
    {
        type            fixedValue;
        value           uniform 293;
    }
    Secondary_air_LHS
    {
        type            fixedValue;
        value           uniform 293;
    }
    outlet
    {
        type            inletOutlet;
        inletValue      uniform 293;
        value           nonuniform List<scalar> 
18
(
293
284.737
293
293
283.538
293
293
285.315
293
293
285.518
293
293
283.484
293
293
284.625
293
)
;
    }
    stove_body
    {
        type            fixedValue;
        value           uniform 293;
    }
    frontAndBack
    {
        type            empty;
    }
}


// ************************************************************************* //
