/*--------------------------------*- C++ -*----------------------------------*\
  =========                 |
  \\      /  F ield         | OpenFOAM: The Open Source CFD Toolbox
   \\    /   O peration     | Website:  https://openfoam.org
    \\  /    A nd           | Version:  6
     \\/     M anipulation  |
\*---------------------------------------------------------------------------*/
FoamFile
{
    version     2.0;
    format      ascii;
    class       volVectorField;
    location    "0.5";
    object      U;
}
// * * * * * * * * * * * * * * * * * * * * * * * * * * * * * * * * * * * * * //

dimensions      [0 1 -1 0 0 0 0];

internalField   nonuniform List<vector> 
297
(
(119.64 0.00740104 0.277062)
(119.71 -0.000209439 0.279314)
(119.637 -0.00685087 0.277048)
(2.08059e-06 0.0988462 -0.446824)
(2.03098e-06 -0.00163804 -0.452683)
(4.38263e-06 -0.0988736 -0.446695)
(-119.64 0.00740431 0.27707)
(-119.71 -0.000213666 0.27931)
(-119.637 -0.0068584 0.277054)
(119.567 -0.012582 0.579609)
(119.635 3.59282e-05 0.591576)
(119.564 0.0133623 0.579309)
(-4.28346e-08 -0.00159529 -0.32602)
(7.50537e-07 -0.000626716 -0.326929)
(1.887e-06 0.00333111 -0.326008)
(-119.567 -0.0125825 0.579623)
(-119.635 3.2036e-05 0.591569)
(-119.564 0.0133588 0.579324)
(113.175 -0.0501067 0.902024)
(113.461 0.000385279 0.918983)
(113.165 0.0516133 0.901648)
(-1.55869e-06 -0.0215809 0.549903)
(-1.96276e-07 -0.000387151 0.580979)
(7.64964e-08 0.023392 0.549148)
(-113.175 -0.0501092 0.902039)
(-113.461 0.000384094 0.918987)
(-113.165 0.0516145 0.901663)
(79.4249 -3.04241 -5.38354)
(81.5584 0.0292484 -8.9396)
(79.4331 3.1069 -5.44417)
(6.05681e-05 -1.50388 2.9752)
(3.4841e-05 -0.0119047 3.11387)
(-2.89657e-05 1.53761 2.99891)
(-79.4404 -3.06996 -5.48297)
(-81.609 0.0125745 -8.97567)
(-79.446 3.1184 -5.50207)
(83.359 3.84358 12.0415)
(82.7587 0.12628 -14.9794)
(83.4459 -4.43515 11.7764)
(8.26688e-06 2.34347 29.3305)
(0.000126348 0.0753091 16.8416)
(-0.0001414 -2.70951 29.2712)
(-83.3911 3.93864 12.0606)
(-83.0244 0.0676238 -15.0268)
(-83.4534 -4.35869 11.8983)
(83.7174 15.4793 -7.27189)
(82.2638 0.261525 -15.9393)
(83.8098 -15.202 -6.9319)
(0.000320056 -1.49368 36.1335)
(0.000288781 0.0327576 0.387747)
(-0.000387599 1.44197 36.128)
(-83.7372 15.3903 -7.15902)
(-82.4954 0.147418 -15.9773)
(-83.7976 -15.2969 -7.11617)
(81.9854 5.39677 -27.9753)
(81.558 -0.192734 -18.9775)
(82.0416 -4.95179 -27.8678)
(-0.000191765 3.03669 -1.2134)
(0.000343744 -0.0464653 -10.1094)
(0.000281185 -3.07694 -1.17196)
(-81.9984 5.2546 -27.9248)
(-81.5691 -0.0758466 -18.9815)
(-82.0332 -5.08159 -27.9247)
(81.9985 11.4918 -18.6193)
(81.2918 -0.261405 -24.7601)
(82.0768 -11.0282 -18.4156)
(2.93643e-05 3.12038 2.54323)
(0.000222635 0.0208865 1.17953)
(0.000562136 -3.20387 2.55472)
(-82.0207 11.3564 -18.5496)
(-81.2903 -0.102933 -24.7686)
(-82.0582 -11.1758 -18.4925)
(81.5196 18.1034 -26.599)
(80.8629 -0.489541 -26.313)
(81.5787 -17.8578 -26.5046)
(2.34879e-05 0.324651 11.2655)
(0.000214203 0.105928 3.00493)
(0.000342188 -0.287218 11.2675)
(-81.5438 18.0483 -26.5825)
(-80.8613 -0.17996 -26.325)
(-81.5697 -17.9315 -26.5463)
(76.4208 18.9683 -22.7666)
(75.5496 0.0713674 -12.7471)
(76.5637 -18.4828 -22.7034)
(2.9831e-05 -0.486501 45.703)
(0.000272553 0.0049143 -24.8429)
(0.0003587 0.437869 45.7381)
(-76.4578 18.8173 -22.736)
(-78.1013 0.0616627 -12.8094)
(-76.5344 -18.611 -22.7404)
(74.2816 11.3816 -27.5472)
(77.7564 -0.0199674 -10.3807)
(74.2007 -10.8696 -27.4192)
(-1.485e-05 0.226258 49.3376)
(-1.60936e-05 -0.000555894 -23.7155)
(0.000293566 -0.273845 49.3919)
(-74.3141 11.2291 -27.4997)
(-79.0958 0.0201813 -10.343)
(-74.1758 -11.0087 -27.4758)
(69.6082 9.11685 -27.3563)
(82.1731 -0.0536702 -11.8328)
(69.7017 -8.65324 -27.2426)
(-6.49523e-05 0.787537 48.0196)
(-0.000626765 -0.00518054 -19.902)
(0.000185677 -0.834682 48.0798)
(-69.6493 8.97291 -27.3113)
(-80.5872 0.00302789 -11.7903)
(-69.6824 -8.78635 -27.2974)
(79.2609 29.9206 -6.69423)
(79.8982 -0.32014 -9.08601)
(79.2802 -30.0072 -6.78605)
(0.000265144 -7.8006 11.3195)
(6.87586e-05 0.0297105 -6.65598)
(-0.0002397 7.98057 11.3116)
(-79.2744 29.9846 -6.72791)
(-79.8961 -0.113055 -9.08947)
(-79.2845 -29.9717 -6.7536)
(79.9294 25.3741 -1.70944)
(80.2593 -0.427576 -4.25504)
(79.9414 -25.4943 -1.74761)
(0.000331334 -9.41248 3.04136)
(3.00734e-05 0.0141795 -5.16799)
(-0.000401029 9.57046 2.99229)
(-79.9114 25.4314 -1.71167)
(-80.2953 -0.250715 -4.25495)
(-79.9441 -25.4568 -1.73805)
(80.4855 5.92966 2.55083)
(80.654 0.25187 -1.26142)
(80.5147 -5.66528 2.43469)
(0.000395005 -1.65657 -1.68883)
(1.0625e-07 0.294034 -1.29878)
(-0.000513813 1.53248 -1.86256)
(-80.4705 5.86856 2.53757)
(-80.6512 0.164554 -1.26291)
(-80.5292 -5.69796 2.45245)
(77.6824 -31.8329 -1.32066)
(78.8844 -39.3232 -5.23171)
(78.9753 -41.6805 -7.3874)
(-0.000454877 17.9073 9.05313)
(-0.000345193 15.0537 7.9308)
(-0.000410264 12.6913 10.3405)
(-77.6914 -31.7934 -1.30737)
(-78.8871 -39.2989 -5.21111)
(-78.977 -41.6628 -7.36233)
(77.9508 -26.395 4.4445)
(79.2907 -32.0925 3.59593)
(79.8749 -33.3923 0.720946)
(-0.000428831 16.4331 -3.89368)
(-0.000306811 15.2266 -4.74207)
(-0.000391137 15.78 2.88294)
(-77.9516 -26.3603 4.44479)
(-79.2894 -32.0737 3.59502)
(-79.8707 -33.3813 0.720346)
(80.0638 -7.89063 8.6034)
(80.3769 -4.28467 9.35114)
(80.3381 6.82298 10.6976)
(-0.000461408 2.37206 -4.33142)
(-0.000355158 2.19911 3.37134)
(-0.000494647 16.6915 6.97357)
(-80.0788 -7.85104 8.59937)
(-80.3771 -4.24755 9.33761)
(-80.335 6.7769 10.6877)
(79.0103 41.5558 -7.33737)
(78.7868 39.2129 -5.20875)
(77.6622 31.7265 -1.30573)
(0.000105494 -12.5996 10.3251)
(6.80485e-05 -14.8814 7.94611)
(0.000838351 -17.7755 9.09884)
(-78.9499 41.6289 -7.38819)
(-78.7432 39.2849 -5.24965)
(-77.6783 31.7898 -1.3207)
(79.8566 33.3027 0.714555)
(79.2734 31.9978 3.57978)
(77.9347 26.2869 4.44103)
(2.90247e-06 -15.6891 2.84073)
(9.29352e-05 -15.131 -4.75895)
(0.000397081 -16.3378 -3.84533)
(-79.8392 33.3594 0.688117)
(-79.26 32.0606 3.57773)
(-77.9294 26.3434 4.45211)
(80.3397 -6.76594 10.6517)
(80.361 4.19283 9.29906)
(80.0371 7.78383 8.59982)
(0.000133393 -16.6362 6.91407)
(0.000125513 -2.24052 3.31196)
(0.000374285 -2.42297 -4.24894)
(-80.3108 -6.85397 10.6846)
(-80.3374 4.23033 9.33774)
(-80.0147 7.81233 8.62684)
(77.6083 18.2516 -22.1789)
(76.7111 23.2223 -15.8)
(79.0225 37.8398 -12.753)
(0.000914969 9.41384 -7.53893)
(0.000782749 7.71533 -0.523743)
(0.000411592 5.72399 6.24514)
(-77.6278 18.2879 -22.2226)
(-76.7309 23.2615 -15.8508)
(-79.0357 37.8845 -12.8015)
(78.0986 5.31691 -36.6352)
(77.9684 14.098 -21.7801)
(80.0231 27.4415 -3.33735)
(0.000980285 4.06487 -11.5607)
(0.000775529 6.12892 3.5416)
(0.000354118 1.18475 12.7596)
(-78.1217 5.34597 -36.6511)
(-77.9687 14.0607 -21.8282)
(-80.0263 27.4529 -3.3487)
(81.2453 2.29334 -46.1029)
(77.5425 7.79442 -15.9154)
(79.5063 13.5979 4.41251)
(0.000956724 3.45239 -15.5189)
(0.000670272 -4.5652 17.026)
(0.000366256 -14.344 17.4647)
(-81.274 2.31623 -46.1134)
(-77.5112 7.73685 -16.0157)
(-79.4945 13.7968 4.34478)
(80.4169 -8.36542 -61.0125)
(79.8705 -0.589323 -5.41064)
(79.3211 10.4952 63.5968)
(0.000319785 -7.57507 9.70628)
(0.000245767 7.30808 35.7963)
(0.000247619 -2.64434 58.9239)
(-80.4408 -8.37375 -61.0289)
(-79.8233 -0.630105 -5.67537)
(-79.2885 10.5762 63.57)
(78.6683 -1.59592 -83.674)
(78.0963 -9.28572 -38.8895)
(78.0443 0.0131897 -0.440318)
(-0.000619711 -0.846914 29.6224)
(-0.000611274 -1.18564 66.4983)
(-0.000557546 -1.17382 86.5415)
(-78.6941 -1.58478 -83.7568)
(-78.0463 -9.2878 -39.1309)
(-78.0341 0.0269253 -0.548148)
(74.2975 -1.78282 -124.432)
(73.8427 -2.89497 -116.531)
(74.0738 -1.51643 -113.558)
(-0.00108329 -1.98136 177.43)
(-0.00107474 -2.92898 186.312)
(-0.00105411 -1.73147 181.964)
(-74.3018 -1.78465 -124.518)
(-73.842 -2.89465 -116.548)
(-74.0767 -1.51818 -113.594)
(79.0592 -37.9256 -12.8101)
(76.754 -23.292 -15.8643)
(77.6589 -18.3174 -22.244)
(-0.00073753 -5.6547 6.2368)
(-0.00100332 -7.73346 -0.445471)
(-0.00117134 -9.43663 -7.52106)
(-79.0648 -37.9304 -12.7842)
(-76.7503 -23.2814 -15.8405)
(-77.666 -18.3008 -22.2291)
(80.045 -27.4722 -3.33507)
(77.9816 -14.0477 -21.8616)
(78.1158 -5.36624 -36.7112)
(-0.00083193 -1.10904 12.8409)
(-0.00134736 -6.16198 3.6119)
(-0.00168914 -4.08537 -11.5635)
(-80.0456 -27.4906 -3.33955)
(-77.9854 -14.1028 -21.8362)
(-78.1257 -5.33915 -36.708)
(79.5275 -13.8621 4.358)
(77.5288 -7.73023 -16.0843)
(81.2913 -2.3468 -46.1965)
(-0.000959195 14.4075 17.5687)
(-0.00178272 4.54803 17.1198)
(-0.00298522 -3.48463 -15.5548)
(-79.5243 -13.6645 4.41875)
(-77.5525 -7.78059 -15.9909)
(-81.2852 -2.30546 -46.2098)
(79.3205 -10.623 63.6027)
(79.8569 0.624951 -5.8548)
(80.3996 8.368 -61.1878)
(-0.000992444 2.66146 59.0132)
(-0.00140351 -7.33183 35.8587)
(-0.00199786 7.57827 9.66802)
(-79.3271 -10.5341 63.6557)
(-79.8731 0.619509 -5.57343)
(-80.4428 8.38966 -61.2067)
(78.0509 -0.0490944 -0.550188)
(78.1048 9.31876 -39.1373)
(78.5847 1.60117 -83.9475)
(0.00188495 1.19056 86.5468)
(0.00256457 1.22239 66.52)
(0.00341409 0.878276 29.7102)
(-78.0503 -0.0397695 -0.514602)
(-78.1017 9.28626 -39.0126)
(-78.51 1.58206 -83.9286)
(74.0794 1.52277 -113.665)
(73.8513 2.90396 -116.652)
(74.3028 1.78906 -124.402)
(0.000982391 1.7333 181.997)
(0.00104234 2.94796 186.185)
(0.00115611 2.00131 177.632)
(-74.0773 1.51974 -113.639)
(-73.8512 2.90245 -116.612)
(-74.2945 1.78755 -124.223)
)
;

boundaryField
{
    fuel
    {
        type            fixedValue;
        value           uniform (0 0 0.25);
    }
    primary_air
    {
        type            fixedValue;
        value           uniform (0 0 2.5);
    }
    Secondary_air_RHS
    {
        type            fixedValue;
        value           uniform (0 33.3333 0);
    }
    Secondary_air_LHS
    {
        type            fixedValue;
        value           uniform (0 -33.3333 0);
    }
    outlet
    {
        type            pressureInletOutletVelocity;
        value           nonuniform List<vector> 
18
(
(0 0 -113.665)
(0.000982391 1.7333 181.997)
(0 0 -113.639)
(0 0 -116.652)
(0.00104234 2.94796 186.185)
(0 0 -116.612)
(0 0 -124.402)
(0.00115611 2.00131 177.632)
(0 0 -124.223)
(0 0 -124.432)
(-0.00108329 -1.98136 177.43)
(0 0 -124.518)
(0 0 -116.531)
(-0.00107474 -2.92898 186.312)
(0 0 -116.548)
(0 0 -113.558)
(-0.00105411 -1.73147 181.964)
(0 0 -113.594)
)
;
    }
    stove_body
    {
        type            noSlip;
    }
    frontAndBack
    {
        type            empty;
    }
}


// ************************************************************************* //
