# Probe 0 (0 -0.07 0.5)
# Probe 1 (0 -0.04 0.5)
# Probe 2 (0 -0.07 0.3)
# Probe 3 (0 -0.07 0.33)
# Probe 4 (0 -0.04 0.3)
# Probe 5 (0 -0.04 0.33)
# Probe 6 (0 0 0.33)
# Probe 7 (0 0 0.3)
# Probe 8 (0 0.1 0.33)
# Probe 9 (0 0.1 0.3)
# Probe 10 (0 0.14 0.3)
# Probe 11 (0 0.14 0.33)
# Probe 12 (0 0.17 0.3)
# Probe 13 (0 0.17 0.33)
# Probe 14 (0 0.14 0.5)
# Probe 15 (0 0.14 0.33)
#       Probe             0             1             2             3             4             5             6             7             8             9            10            11            12            13            14            15
#        Time
       0.0025       292.737       292.717       349.601       338.281       349.219       294.736       265.061       279.509       265.126       272.986       350.096       295.311       339.224        338.64       292.084       295.311
        0.005       292.415       292.171       363.755       343.717       341.807       344.095       344.572       298.798       332.149       289.116        341.55       335.118        367.05       338.152       292.148       335.118
       0.0075       291.728       291.731       361.799       348.603       345.233       361.567       353.068       319.402       345.483       330.281       341.341       346.209           367       342.514       291.763       346.209
         0.01       292.014       292.019       363.826       344.377        344.06       362.474        353.42       335.398        345.63       343.067       339.068       348.043       360.227       340.341        291.93       348.043
       0.0125       291.976       291.965       361.277        347.61        348.25        359.07       354.911       336.969       347.043       348.908       338.252       350.198       364.005       338.116       291.932       350.198
