/*--------------------------------*- C++ -*----------------------------------*\
  =========                 |
  \\      /  F ield         | OpenFOAM: The Open Source CFD Toolbox
   \\    /   O peration     | Website:  https://openfoam.org
    \\  /    A nd           | Version:  6
     \\/     M anipulation  |
\*---------------------------------------------------------------------------*/
FoamFile
{
    version     2.0;
    format      ascii;
    class       volScalarField;
    location    "3";
    object      O2;
}
// * * * * * * * * * * * * * * * * * * * * * * * * * * * * * * * * * * * * * //

dimensions      [0 0 0 0 0 0 0];

internalField   nonuniform List<scalar> 
297
(
0
0
0
0
0
0
0
0
0
0
0
0
0
0
0
0
0
0
0
0
0
0
0
0
0
0
0
0.0859659
0.152371
0.0857637
0.188982
0.209073
0.183415
0.0852293
0.152217
0.0863182
0
0.0287835
0
0.036424
0.148201
0.0351698
0
0.0286681
0
0
0.0303136
0
0.023677
0.0365694
0.0234631
0
0.0302261
0
0.00476223
0.0130426
0.00464033
0
0.00178147
0
0.00485796
0.0129852
0.00472888
1.57256e-07
1.78423e-07
2.87865e-07
3.33498e-07
1.21649e-07
8.37883e-07
1.59551e-07
1.7818e-07
2.89594e-07
1.83354e-12
4.39737e-12
4.58496e-12
4.61386e-12
3.066e-12
1.07768e-11
1.86437e-12
4.40168e-12
4.60204e-12
0
0.0302215
0
0
0.00178195
0
0
0.0301338
0
0
0.0299853
0
0
0.00178159
0
0
0.0298978
0
0
0.0291158
0
0
0.00178151
0
0
0.0290303
0
3.46489e-17
2.29122e-16
1.14921e-16
7.5958e-17
6.52929e-17
1.77391e-16
4.85252e-17
2.10278e-16
1.21599e-16
4.00541e-21
6.50322e-20
1.85473e-20
5.23932e-21
1.27716e-20
8.0752e-21
4.05336e-21
5.74911e-20
1.93024e-20
5.22741e-24
3.74156e-20
8.00443e-21
1.00064e-24
9.58264e-22
1.00517e-22
4.78017e-24
3.09493e-20
6.54147e-21
1.72724e-21
4.41003e-26
5.40241e-31
1.95844e-21
2.32811e-26
2.97142e-31
1.83523e-21
4.70573e-26
5.78963e-31
2.85265e-25
1.65685e-29
8.43149e-34
1.79095e-25
8.73768e-28
2.99366e-32
2.94496e-25
1.86164e-29
8.85239e-34
7.4132e-25
4.25397e-29
1.29528e-33
2.32991e-27
3.93472e-29
2.61686e-33
6.06192e-25
3.53028e-29
1.10917e-33
8.52159e-32
7.01887e-27
5.22892e-22
1.12205e-31
9.17429e-27
8.43786e-22
2.45061e-31
9.97766e-27
7.34065e-22
1.14077e-34
2.08329e-30
6.2516e-26
1.1523e-32
3.48928e-28
9.97125e-26
1.89513e-34
4.31653e-30
1.19323e-25
1.83915e-34
1.1394e-30
4.69394e-28
2.10905e-33
1.58486e-29
4.60011e-29
1.99327e-34
1.72209e-30
4.46317e-28
4.50926e-45
1.68862e-40
3.00853e-36
3.20127e-44
2.25047e-40
2.40032e-36
4.08923e-44
5.06378e-40
8.69237e-36
1.74701e-47
2.36349e-43
4.97992e-39
3.55381e-46
5.06358e-42
1.90184e-37
9.87046e-47
2.66615e-43
7.29863e-39
2.29448e-47
8.57988e-44
3.4814e-39
1.2825e-46
1.18757e-42
4.52664e-38
8.94399e-47
9.36991e-44
4.07748e-39
3.80067e-47
2.46336e-46
1.30209e-44
7.567e-47
2.55709e-44
4.41439e-43
8.7284e-47
7.57116e-46
2.6069e-44
1.39818e-50
2.09891e-49
2.05539e-48
1.73757e-45
2.67052e-44
2.70548e-43
1.35784e-50
3.10828e-49
2.02105e-48
2.85576e-51
4.33197e-50
3.9594e-49
8.39842e-46
1.24937e-44
1.1623e-43
4.82493e-51
7.39225e-50
6.6836e-49
1.02458e-35
5.9283e-40
4.76414e-44
6.32995e-36
2.49729e-40
4.69535e-44
2.05169e-35
6.59612e-40
5.38466e-44
3.51118e-38
1.75898e-42
3.16679e-46
4.89315e-37
1.30164e-41
1.31868e-45
3.63002e-38
1.17505e-42
7.78485e-46
2.86964e-38
8.61632e-43
3.06871e-46
5.79733e-38
1.65743e-42
6.77823e-46
2.34506e-38
5.42667e-43
7.40845e-46
1.07106e-43
2.0011e-45
3.1225e-46
7.58686e-43
4.74666e-44
5.98285e-46
1.4974e-43
6.38724e-45
7.28402e-46
2.58997e-48
3.81583e-49
1.93465e-50
4.659e-43
4.81201e-44
3.39548e-45
3.65009e-48
3.77671e-49
2.74209e-50
6.80602e-49
7.79965e-50
5.56152e-51
1.99793e-43
2.25153e-44
1.63478e-45
1.14853e-48
1.32993e-49
9.3904e-51
)
;

boundaryField
{
    fuel
    {
        type            fixedValue;
        value           uniform 0;
    }
    primary_air
    {
        type            fixedValue;
        value           uniform 0.23;
    }
    Secondary_air_RHS
    {
        type            fixedValue;
        value           uniform 0.23;
    }
    Secondary_air_LHS
    {
        type            fixedValue;
        value           uniform 0.23;
    }
    outlet
    {
        type            inletOutlet;
        inletValue      uniform 0;
        value           nonuniform List<scalar> 
18
(
0
1.99793e-43
0
0
2.25153e-44
0
0
1.63478e-45
0
0
8.39842e-46
0
0
1.24937e-44
0
0
1.1623e-43
0
)
;
    }
    stove_body
    {
        type            fixedValue;
        value           uniform 0;
    }
    frontAndBack
    {
        type            empty;
    }
}


// ************************************************************************* //
