/*--------------------------------*- C++ -*----------------------------------*\
  =========                 |
  \\      /  F ield         | OpenFOAM: The Open Source CFD Toolbox
   \\    /   O peration     | Website:  https://openfoam.org
    \\  /    A nd           | Version:  6
     \\/     M anipulation  |
\*---------------------------------------------------------------------------*/
FoamFile
{
    version     2.0;
    format      ascii;
    class       volScalarField;
    location    "3";
    object      Qdot;
}
// * * * * * * * * * * * * * * * * * * * * * * * * * * * * * * * * * * * * * //

dimensions      [1 -1 -3 0 0 0 0];

internalField   nonuniform List<scalar> 
297
(
-0.000130117
0.000197315
0
-0.00039463
0
0.00039463
0
-0.000197315
0
-0.000197315
-0.000130117
0
0.00039463
0
0
0.000197315
0
6.71979e-05
0
0
0
0
0
0
0
0
0
0
0
0
-1.89986e-09
2.79271e-10
0
0
0
4.74965e-10
0
-4.74965e-10
0
0
0
0
0
0
0
0
0
0
0
0
-8.72722e-12
0
0
0
0
0
-4.73874e-10
-4.74965e-10
1.89986e-09
-4.74965e-10
0
0
0
0
1.89986e-09
0
9.49929e-10
-1.33167e-16
-9.49929e-10
0
0
0
0
0
0
0
0
0
0
0
0
0
4.74965e-10
0
0
-1.89986e-09
0
0
0
0
0
0
0
0
0
0
0
0
0
-4.74965e-10
0
0
4.74965e-10
-1.89986e-09
-4.74965e-10
0
0
0
0
0
0
0
0
0
6.20106e-26
0
0
0
0
0
-1.51393e-29
-3.02786e-29
0
0
0
0
0
0
0
0
0
0
7.39224e-33
0
0
0
-5.77519e-35
0
0
-5.77519e-35
0
0
0
0
0
0
0
0
0
0
0
0
0
0
0
-1.72114e-42
0
0
0
9.2403e-34
0
-1.72114e-42
-1.10153e-40
0
0
0
0
0
0
-1.4438e-35
0
0
3.52489e-39
0
-2.75382e-41
0
2.31007e-34
0
0
0
0
0
0
0
0
1.12797e-37
0
0
0
0
0
0
0
0
0
0
0
0
0
0
0
-7.82684e-55
0
0
0
4.00734e-52
0
0
0
0
0
0
0
0
0
0
0
0
0
0
0
0
0
0
0
0
0
-3.05736e-57
0
0
0
0
0
0
0
0
0
0
0
3.79972e-09
0
0
0
1.34464e-44
0
0
0
0
0
0
-8.20703e-49
0
0
0
0
0
0
0
-5.2525e-47
0
0
0
0
0
0
0
0
0
0
0
0
0
-3.91342e-55
0
0
0
-2.00367e-52
0
0
0
0
0
0
-1.00184e-52
0
0
0
0
0
0
0
0
0
0
0
-1.91085e-58
0
)
;

boundaryField
{
    fuel
    {
        type            calculated;
        value           uniform 0;
    }
    primary_air
    {
        type            calculated;
        value           uniform 0;
    }
    Secondary_air_RHS
    {
        type            calculated;
        value           uniform 0;
    }
    Secondary_air_LHS
    {
        type            calculated;
        value           uniform 0;
    }
    outlet
    {
        type            calculated;
        value           uniform 0;
    }
    stove_body
    {
        type            calculated;
        value           uniform 0;
    }
    frontAndBack
    {
        type            empty;
    }
}


// ************************************************************************* //
