/*--------------------------------*- C++ -*----------------------------------*\
  =========                 |
  \\      /  F ield         | OpenFOAM: The Open Source CFD Toolbox
   \\    /   O peration     | Website:  https://openfoam.org
    \\  /    A nd           | Version:  6
     \\/     M anipulation  |
\*---------------------------------------------------------------------------*/
FoamFile
{
    version     2.0;
    format      ascii;
    class       volVectorField;
    location    "3";
    object      U;
}
// * * * * * * * * * * * * * * * * * * * * * * * * * * * * * * * * * * * * * //

dimensions      [0 1 -1 0 0 0 0];

internalField   nonuniform List<vector> 
297
(
(13.7532 -0.0203328 0.270587)
(13.7539 -0.0326371 0.271299)
(13.7529 -0.0123231 0.270062)
(0.000217688 0.00522468 0.25079)
(-1.63525e-06 0.000142553 0.247725)
(-0.00021997 -0.00507433 0.250682)
(-13.7528 0.0121933 0.270166)
(-13.7539 0.0325634 0.271343)
(-13.7532 0.0203852 0.27037)
(13.7529 -0.0214675 0.295368)
(13.7537 -0.0330717 0.285457)
(13.7526 -0.0116917 0.294329)
(0.000218754 0.0109488 0.0843438)
(-1.84077e-06 0.000409133 0.118686)
(-0.000221453 -0.010405 0.0863337)
(-13.7525 0.0115152 0.294302)
(-13.7537 0.0329581 0.285507)
(-13.7529 0.021438 0.295233)
(12.7959 -0.0385206 0.439894)
(13.7436 -0.0350043 0.459375)
(12.8936 0.00616054 0.440387)
(0.000176667 -0.0332232 0.21349)
(-1.81969e-06 0.000137165 0.168878)
(-0.000179518 0.0335881 0.21212)
(-12.8665 -0.0068894 0.44013)
(-13.7436 0.0329953 0.459459)
(-12.8694 0.0379667 0.440598)
(49.0414 5.28769 16.5969)
(32.0058 -0.314369 22.9336)
(50.889 -3.62508 15.1295)
(7.25225e-05 1.66213 18.1471)
(3.32212e-05 -0.37431 10.875)
(7.57316e-05 -2.12032 17.3817)
(-49.2555 5.30784 16.1264)
(-32.0801 0.118291 23.0606)
(-50.9104 -3.46959 15.4539)
(70.6741 -0.658461 35.404)
(64.9727 -3.4583 110.248)
(73.3647 6.30831 33.5732)
(0.00164194 36.666 188.601)
(5.55701e-05 -0.533316 133.057)
(-0.000833059 -31.1962 190.37)
(-70.6915 -0.61459 35.4273)
(-65.1329 -4.48437 110.001)
(-73.6354 6.74006 33.5443)
(69.0832 -42.5958 -51.1328)
(57.9586 0.797209 153.225)
(71.667 45.5449 -50.8649)
(0.000307846 -50.8986 252.268)
(-1.46504e-05 1.29215 -22.5609)
(5.4085e-05 50.8277 257.849)
(-69.1042 -43.5629 -51.2641)
(-58.062 1.9037 153.476)
(-71.9266 44.9564 -50.9609)
(45.2439 -49.5113 -212.192)
(33.8793 -3.41735 -25.7002)
(46.8749 53.98 -212.966)
(-0.00151762 -55.788 -19.8015)
(-8.3311e-05 1.71893 -116.491)
(0.00110678 58.5551 -27.1621)
(-45.2865 -49.5722 -212.493)
(-33.9021 -3.64403 -25.8905)
(-46.8849 53.9162 -213.154)
(21.851 50.942 -125.268)
(14.1719 -7.5735 -87.869)
(24.1887 -44.1961 -128.226)
(-1.58042e-06 13.2533 -112.598)
(-1.1931e-05 6.05847 -98.5683)
(0.00015982 -10.7048 -115.562)
(-21.8658 50.8853 -125.425)
(-14.1787 -7.43854 -87.9082)
(-24.1811 -44.2239 -128.154)
(9.423 30.1735 -25.4931)
(9.42922 -6.71969 -19.5481)
(9.42634 -28.1044 -25.7921)
(-6.6744e-06 25.4401 -23.6414)
(-2.23703e-05 6.48418 -24.8702)
(1.45681e-05 -21.9267 -22.4659)
(-9.43234 30.109 -25.48)
(-9.43407 -6.66055 -19.5526)
(-9.4338 -28.0703 -25.7863)
(60.7164 -34.2662 -486.285)
(56.5563 -4.46539 199.521)
(62.1003 40.513 -486.454)
(-0.0118054 -50.3398 374.383)
(-9.78331e-05 4.5021 -144.35)
(0.00126737 52.3167 387.822)
(-60.5975 -34.9469 -486.65)
(-56.6555 -4.51755 199.6)
(-62.4461 40.2809 -487.87)
(55.7523 -40.3586 -391.341)
(51.1114 -4.68299 195.158)
(53.4224 45.6353 -389.687)
(-0.0133933 -52.1265 421.196)
(-9.21698e-05 4.15531 -145.793)
(0.00133028 53.2402 440.497)
(-55.7843 -40.6445 -392.427)
(-51.2016 -4.81699 195.231)
(-53.5688 45.4877 -390.462)
(50.2111 -39.1268 -343.799)
(51.4934 -4.60907 179.874)
(51.525 44.6036 -342.602)
(-0.0135173 -52.3707 467.603)
(-0.000120542 3.49573 -137.42)
(0.000955752 57.2684 484.396)
(-50.2743 -39.4841 -344.531)
(-51.5822 -4.88919 179.917)
(-51.6805 44.4618 -343.18)
(9.36906 46.1377 -13.025)
(9.41834 2.86469 -12.64)
(9.36724 -46.097 -13.0916)
(-2.04833e-05 36.8071 -13.5947)
(-1.86834e-05 -4.2498 -13.551)
(-4.14195e-06 -37.3602 -12.9365)
(-9.37855 46.0658 -13.0192)
(-9.42151 2.92369 -12.6453)
(-9.37863 -46.0064 -13.0871)
(9.42929 22.5398 -5.12582)
(9.4453 -2.52691 -2.30905)
(9.42675 -21.4117 -5.08927)
(-2.22179e-05 25.8137 -5.53077)
(-1.09726e-05 -0.122549 -6.90481)
(-5.62843e-06 -26.3126 -5.49921)
(-9.43254 22.5313 -5.15755)
(-9.45019 -2.45165 -2.34038)
(-9.43383 -21.3835 -5.09521)
(9.44858 -2.13587 -5.38105)
(9.44711 0.533222 1.14453)
(9.44255 4.03713 -5.01661)
(-1.81747e-05 14.2399 -3.18173)
(-1.12565e-05 -3.07486 -3.28075)
(-8.02866e-06 -15.3458 -2.64281)
(-9.45014 -1.95514 -5.34514)
(-9.45189 0.503301 1.06372)
(-9.44706 4.01176 -5.02133)
(9.35694 -49.9032 -5.71044)
(9.39252 -44.7044 -8.26552)
(9.37616 -38.485 -11.2197)
(-1.89132e-05 -40.4356 -4.62174)
(-3.16744e-05 -37.4195 -4.55512)
(-6.83412e-05 -31.7999 -4.94021)
(-9.36889 -49.811 -5.69037)
(-9.40488 -44.6088 -8.24145)
(-9.38905 -38.3956 -11.1966)
(9.40376 -36.0352 -2.94369)
(9.42211 -37.3763 -9.32463)
(9.37376 -32.8166 -17.7013)
(-1.17435e-05 -33.5027 0.201019)
(-1.66941e-05 -33.1516 1.53046)
(-3.85531e-05 -27.8477 2.42428)
(-9.41183 -35.9914 -2.95408)
(-9.43049 -37.3254 -9.32498)
(-9.38288 -32.773 -17.6985)
(9.44945 -3.35452 -3.80984)
(9.44336 -18.0596 -16.6934)
(9.39584 -27.6702 -25.2304)
(-6.7157e-06 -19.921 2.62609)
(-6.98382e-07 -20.7594 3.48231)
(5.38597e-06 -21.1687 3.36639)
(-9.45437 -3.36892 -3.78886)
(-9.44878 -18.0412 -16.6625)
(-9.40206 -27.6401 -25.1995)
(9.37826 38.4269 -11.2166)
(9.39385 44.6707 -8.25521)
(9.3585 49.8337 -5.68131)
(-4.50649e-05 31.6772 -4.9395)
(-2.55402e-05 37.2792 -4.52916)
(-2.58154e-05 40.1969 -4.62504)
(-9.38902 38.3327 -11.1907)
(-9.40498 44.5801 -8.22632)
(-9.36898 49.7598 -5.65508)
(9.37875 32.8047 -17.7174)
(9.42681 37.4259 -9.29553)
(9.40793 36.1158 -2.92627)
(-2.39728e-05 27.7107 2.41716)
(-1.66037e-05 32.9977 1.54702)
(-2.18772e-05 33.2301 0.238688)
(-9.38286 32.7546 -17.7333)
(-9.43055 37.3848 -9.30728)
(-9.4115 36.0836 -2.94874)
(9.40021 27.7042 -25.2205)
(9.44721 18.1101 -16.4597)
(9.45299 4.02264 -3.47448)
(-2.46419e-06 21.0111 3.41122)
(-6.56539e-06 20.5349 3.54616)
(-1.67305e-05 19.49 2.68485)
(-9.40197 27.6727 -25.2128)
(-9.44883 18.0709 -16.4285)
(-9.45454 3.99244 -3.41264)
(9.34761 11.9762 -19.555)
(9.35069 17.7213 -13.8205)
(9.36438 27.5271 -15.995)
(-0.000200163 10.2073 -9.8372)
(-0.000157662 15.8613 -5.24701)
(-9.66928e-05 23.4792 -6.13875)
(-9.36767 11.9382 -19.4778)
(-9.36772 17.6727 -13.7518)
(-9.37655 27.4391 -15.9465)
(9.35575 5.16331 -29.369)
(9.36889 15.5753 -21.9201)
(9.36329 27.4269 -26.9674)
(-0.000158918 7.63221 -7.23658)
(-0.000113109 12.5499 -2.3227)
(-6.1063e-05 21.5294 -2.19621)
(-9.37325 5.17278 -29.2631)
(-9.37846 15.5472 -21.8508)
(-9.36882 27.3961 -26.9391)
(9.39853 4.20393 -35.9879)
(9.37568 17.5978 -32.8668)
(9.37687 16.3353 -40.7874)
(-0.000121437 6.11308 -11.9707)
(-7.90255e-05 13.9061 -7.02528)
(-3.39282e-05 16.4759 -1.38768)
(-9.41573 4.21223 -35.873)
(-9.38094 17.5998 -32.8045)
(-9.37899 16.31 -40.7676)
(9.39498 -4.35376 -57.4289)
(9.40069 -3.45783 -54.7582)
(9.40689 -10.2731 -59.515)
(2.5143e-05 -5.01728 10.6727)
(3.07728e-05 2.8626 19.0768)
(3.57177e-05 -9.52814 16.1411)
(-9.40809 -4.29909 -57.32)
(-9.40041 -3.42384 -54.7565)
(-9.40785 -10.2792 -59.4859)
(9.27961 1.8282 -123.721)
(9.27598 -1.08755 -125.052)
(9.27407 4.81652 -123.837)
(6.02945e-05 -1.79148 62.6766)
(4.98686e-05 0.92196 65.5557)
(4.7312e-05 -2.01331 60.518)
(-9.27943 1.80577 -123.663)
(-9.2758 -1.08185 -125.027)
(-9.27391 4.82363 -123.808)
(8.87916 -0.0116221 -159.128)
(8.8801 -0.0411005 -159.062)
(8.8812 -0.0568861 -158.836)
(3.88661e-05 -0.579641 176.722)
(3.77193e-05 0.418689 175.585)
(3.70683e-05 -0.567956 173.804)
(-8.87905 -0.0107068 -159.113)
(-8.87999 -0.039828 -159.049)
(-8.88109 -0.0564153 -158.823)
(9.36198 -27.5465 -16.0201)
(9.35031 -17.75 -13.8244)
(9.34653 -11.9867 -19.5851)
(-0.000122168 -23.5316 -6.16812)
(-0.000177074 -15.9265 -5.24822)
(-0.000218203 -10.1851 -9.86979)
(-9.37666 -27.4644 -15.9796)
(-9.36789 -17.7037 -13.7697)
(-9.36782 -11.9534 -19.5122)
(9.35797 -27.4556 -26.9879)
(9.36526 -15.5808 -21.9336)
(9.35236 -5.16225 -29.4244)
(-8.69173e-05 -21.5649 -2.21568)
(-0.000132865 -12.6293 -2.32361)
(-0.000175082 -7.61978 -7.27607)
(-9.36884 -27.422 -26.9599)
(-9.37889 -15.5516 -21.8896)
(-9.37356 -5.17271 -29.3205)
(9.37195 -16.3239 -40.8844)
(9.37361 -17.6215 -32.8948)
(9.39842 -4.20667 -36.0654)
(-5.10753e-05 -16.4382 -1.47915)
(-9.62034e-05 -14.0085 -7.00459)
(-0.000134784 -6.11022 -12.0072)
(-9.37922 -16.3128 -40.8274)
(-9.3808 -17.6086 -32.8516)
(-9.41603 -4.21331 -35.9509)
(9.40174 10.2845 -59.6397)
(9.39992 3.44495 -54.8443)
(9.39516 4.35712 -57.5573)
(3.96675e-05 9.57242 16.0728)
(3.34604e-05 -2.89875 19.0315)
(2.87577e-05 5.03882 10.6037)
(-9.40828 10.2893 -59.5826)
(-9.40086 3.42251 -54.8366)
(-9.40854 4.30805 -57.4393)
(9.27432 -4.82629 -123.947)
(9.27624 1.09467 -125.162)
(9.27984 -1.83309 -123.85)
(6.06418e-05 2.0434 60.5278)
(6.20098e-05 -0.943861 65.5763)
(7.0901e-05 1.80406 62.6791)
(-9.27412 -4.82779 -123.91)
(-9.27602 1.0873 -125.13)
(-9.27963 -1.81072 -123.787)
(8.88132 0.057117 -158.935)
(8.88023 0.0416552 -159.161)
(8.87929 0.0120617 -159.227)
(4.55486e-05 0.57644 173.763)
(4.60013e-05 -0.425083 175.541)
(4.69639e-05 0.584191 176.673)
(-8.88118 0.0567472 -158.919)
(-8.88009 0.0406431 -159.145)
(-8.87915 0.0112703 -159.209)
)
;

boundaryField
{
    fuel
    {
        type            fixedValue;
        value           uniform (0 0 0.25);
    }
    primary_air
    {
        type            fixedValue;
        value           uniform (0 0 2.5);
    }
    Secondary_air_RHS
    {
        type            fixedValue;
        value           uniform (0 125 0);
    }
    Secondary_air_LHS
    {
        type            fixedValue;
        value           uniform (0 -125 0);
    }
    outlet
    {
        type            pressureInletOutletVelocity;
        value           nonuniform List<vector> 
18
(
(0 0 -158.935)
(4.55486e-05 0.57644 173.763)
(0 0 -158.919)
(0 0 -159.161)
(4.60013e-05 -0.425083 175.541)
(0 0 -159.145)
(0 0 -159.227)
(4.69639e-05 0.584191 176.673)
(0 0 -159.209)
(0 0 -159.128)
(3.88661e-05 -0.579641 176.722)
(0 0 -159.113)
(0 0 -159.062)
(3.77193e-05 0.418689 175.585)
(0 0 -159.049)
(0 0 -158.836)
(3.70683e-05 -0.567956 173.804)
(0 0 -158.823)
)
;
    }
    stove_body
    {
        type            noSlip;
    }
    frontAndBack
    {
        type            empty;
    }
}


// ************************************************************************* //
