/*--------------------------------*- C++ -*----------------------------------*\
  =========                 |
  \\      /  F ield         | OpenFOAM: The Open Source CFD Toolbox
   \\    /   O peration     | Website:  https://openfoam.org
    \\  /    A nd           | Version:  6
     \\/     M anipulation  |
\*---------------------------------------------------------------------------*/
FoamFile
{
    version     2.0;
    format      ascii;
    class       volScalarField;
    location    "3";
    object      Qdot;
}
// * * * * * * * * * * * * * * * * * * * * * * * * * * * * * * * * * * * * * //

dimensions      [1 -1 -3 0 0 0 0];

internalField   nonuniform List<scalar> 
297
(
0
0.000144302
0.000218826
0
0
0
0
0
0
0
0
0.000144302
0
0
0.000288605
0.000218826
0.000218826
0
7.21511e-05
0
0.000218826
0
0.000109413
0
0
0
0
0
0
0
-2.10698e-09
0
0
0
0
0
0
0
0
0
-1.05349e-09
-5.26745e-10
-2.63373e-10
0
0
-2.63373e-10
9.67865e-12
0
0
0
0
0
0
-2.63373e-10
0
0
0
0
0
-5.26745e-10
-5.26745e-10
-1.05349e-09
0
-1.05349e-09
-2.10698e-09
-1.05349e-09
0
-2.10698e-09
0
-1.05349e-09
2.95369e-16
-1.05349e-09
0
-4.21396e-09
-4.21396e-09
0
3.60558e-20
0
0
-4.21396e-09
3.60558e-20
0
0
-2.63373e-10
0
2.41966e-12
0
-2.63373e-10
0
-2.63373e-10
0
0
0
-5.26745e-10
0
-5.26745e-10
0
0
0
0
0
0
0
2.41966e-12
0
0
-5.26745e-10
0
0
-4.21396e-09
0
0
1.10034e-24
0
0
-4.21396e-09
0
-4.21396e-09
0
-4.21396e-09
0
0
1.34318e-28
-4.21396e-09
5.37273e-28
-4.21396e-09
0
1.34318e-28
0
3.27926e-32
6.71592e-29
0
3.27926e-32
1.34318e-28
-4.21396e-09
1.67898e-29
0
-4.21396e-09
0
5.12384e-34
0
-4.21396e-09
0
7.81835e-39
0
-4.21396e-09
0
4.09907e-33
1.6012e-35
0
-4.21396e-09
0
-4.21396e-09
0
0
3.81756e-42
0
1.00075e-36
6.10809e-41
-4.21396e-09
0
0
-4.21396e-09
0
0
0
0
1.67898e-29
-4.21396e-09
-4.21396e-09
0
0
0
-4.21396e-09
0
0
0
0
0
0
0
0
4.003e-36
6.10809e-41
2.50187e-37
0
-4.21396e-09
0
-4.21396e-09
-4.21396e-09
-4.21396e-09
0
1.77769e-51
0
0
-4.21396e-09
0
0
-4.21396e-09
0
0
0
0
7.45616e-45
0
7.11075e-51
-4.21396e-09
0
0
0
0
0
-8.42792e-09
-4.21396e-09
0
5.82513e-47
4.34006e-55
0
0
0
0
0
0
1.38882e-53
0
0
0
0
0
0
1.82035e-48
0
0
-4.21396e-09
0
1.08501e-55
0
0
-4.21396e-09
-4.21396e-09
0
2.17003e-55
0
0
1.45628e-47
0
2.38597e-43
0
-8.42792e-09
0
-4.21396e-09
-4.21396e-09
2.33005e-46
-4.21396e-09
0
0
0
5.55527e-53
0
0
-4.21396e-09
0
0
1.73602e-54
0
0
-8.42792e-09
0
-4.21396e-09
-4.21396e-09
4.44422e-52
1.38882e-53
0
7.28141e-48
0
0
0
5.55527e-53
0
0
0
0
-4.21396e-09
-4.21396e-09
0
0
4.34006e-55
0
0
0
0
0
2.8443e-50
0
0
0
0
)
;

boundaryField
{
    fuel
    {
        type            calculated;
        value           uniform 0;
    }
    primary_air
    {
        type            calculated;
        value           uniform 0;
    }
    Secondary_air_RHS
    {
        type            calculated;
        value           uniform 0;
    }
    Secondary_air_LHS
    {
        type            calculated;
        value           uniform 0;
    }
    outlet
    {
        type            calculated;
        value           uniform 0;
    }
    stove_body
    {
        type            calculated;
        value           uniform 0;
    }
    frontAndBack
    {
        type            empty;
    }
}


// ************************************************************************* //
