/*--------------------------------*- C++ -*----------------------------------*\
  =========                 |
  \\      /  F ield         | OpenFOAM: The Open Source CFD Toolbox
   \\    /   O peration     | Website:  https://openfoam.org
    \\  /    A nd           | Version:  6
     \\/     M anipulation  |
\*---------------------------------------------------------------------------*/
FoamFile
{
    version     2.0;
    format      ascii;
    class       surfaceScalarField;
    location    "2.5";
    object      phi;
}
// * * * * * * * * * * * * * * * * * * * * * * * * * * * * * * * * * * * * * //

dimensions      [1 0 -1 0 0 0 0];

internalField   nonuniform List<scalar> 
15525
(
5.08154e-08
1.0542e-06
-1.05748e-06
-1.59518e-09
1.21698e-06
-1.10229e-06
4.65253e-07
1.00643e-06
-1.58775e-06
1.52944e-07
1.66091e-07
1.56263e-07
3.14282e-07
-1.42434e-07
8.24647e-09
-6.01054e-08
1.11252e-06
-1.13526e-07
4.09377e-07
9.13219e-07
3.04618e-07
-4.01367e-07
9.31228e-07
1.28131e-07
1.00307e-07
2.36916e-07
3.4857e-07
9.25651e-08
6.19412e-08
6.33185e-07
-6.8953e-07
-2.78944e-07
3.09353e-09
7.30276e-07
3.3808e-07
8.76498e-07
-1.99851e-06
1.13801e-07
9.35512e-08
2.25433e-07
3.07903e-07
1.53152e-07
1.74341e-07
3.29046e-07
1.30048e-07
5.88206e-08
-1.96253e-07
3.03875e-07
1.28529e-07
-9.69204e-09
7.89793e-07
-3.80729e-08
-1.60553e-07
4.16715e-07
-1.27346e-09
2.69534e-07
1.59538e-07
1.64719e-07
3.39979e-08
-8.1763e-08
2.35974e-07
-2.26679e-07
2.79579e-08
4.34602e-08
2.03203e-08
1.49712e-07
-8.97102e-07
-3.15877e-07
7.34422e-08
-1.04471e-06
-2.5483e-09
-5.98825e-07
-7.91432e-07
-4.01225e-08
-2.16404e-07
-2.47968e-07
3.32649e-08
6.83518e-09
-3.4583e-07
-3.63212e-09
-1.43565e-07
3.58134e-07
1.5559e-08
-5.69707e-07
4.0991e-07
-5.63772e-07
3.3895e-07
3.9001e-07
-2.53774e-07
-3.28284e-07
-2.56758e-10
-3.85255e-08
-1.16582e-07
-1.69217e-07
-8.69518e-07
1.66208e-07
1.37665e-07
-5.83354e-07
4.29037e-07
-5.93455e-07
-1.07917e-06
2.12934e-07
-2.46508e-07
-4.52005e-07
-3.03673e-09
-1.00564e-07
-3.17612e-08
-1.77652e-07
-1.22037e-06
6.49776e-07
-2.70899e-07
2.25108e-07
-4.20681e-07
-5.86541e-07
-7.56137e-07
7.89538e-07
-2.96311e-07
-4.11854e-07
8.15537e-08
-3.00163e-07
1.71936e-07
-8.87114e-08
-9.95309e-07
1.06268e-07
-6.0045e-08
1.29152e-07
-1.03047e-06
-1.8311e-08
-2.24485e-07
-2.99604e-07
-9.9675e-08
-4.92729e-07
2.8272e-07
-1.41501e-07
-3.74784e-07
4.25396e-07
-1.48698e-07
-2.44811e-07
2.54176e-07
9.86918e-07
-4.96022e-07
-6.04153e-07
3.41098e-07
3.3211e-07
-5.26043e-08
-3.74038e-07
2.88977e-07
-1.11011e-07
-3.81806e-07
4.71388e-07
-8.3163e-08
-3.34226e-07
4.64736e-07
-8.05979e-08
-1.67986e-07
-3.40475e-07
9.66761e-08
4.88031e-08
-9.9736e-08
-3.14343e-07
2.11707e-07
-9.79042e-08
-4.15225e-07
4.57836e-07
-1.35807e-07
-2.82297e-07
2.28795e-07
1.40465e-08
-5.58194e-08
-2.72277e-07
1.50322e-07
-6.9851e-08
-4.5478e-07
2.19776e-06
-1.35971e-06
3.01621e-07
-5.51213e-07
-1.04434e-06
-5.17187e-07
2.6727e-06
-1.28505e-06
-2.16434e-07
-1.19577e-07
-1.59571e-07
4.06001e-07
-3.00215e-07
3.14996e-07
7.87925e-07
-3.59996e-07
5.37644e-08
3.66249e-07
8.2194e-07
2.21092e-07
-2.0331e-07
3.26382e-07
-3.29943e-07
-3.24285e-07
9.54111e-07
-1.02133e-07
-3.24794e-08
2.4516e-07
-7.01145e-08
-3.28791e-08
2.84722e-07
-2.6213e-07
-2.02974e-07
-1.93233e-07
-6.38858e-08
1.55441e-07
-2.94031e-07
-5.35137e-07
7.9172e-07
-1.05566e-07
-4.91706e-08
2.97125e-07
-6.71956e-08
1.99301e-08
3.8024e-07
-2.50165e-07
-2.00263e-07
-1.63628e-07
-2.98712e-08
-2.34307e-07
-2.56633e-07
-1.15978e-07
4.93318e-08
-1.06767e-07
-5.75143e-08
3.12752e-07
-7.98007e-08
-6.96592e-08
2.99449e-07
-2.43602e-07
-1.65902e-07
-1.45629e-07
-2.27994e-07
-1.08024e-07
-4.01877e-07
-1.16037e-06
8.2814e-08
-1.26024e-07
-7.22552e-07
-6.60328e-07
-3.53988e-07
-5.99533e-07
-5.21606e-07
-2.48962e-07
-2.16507e-07
-2.16622e-07
-3.3281e-07
-4.4395e-07
1.31233e-07
-5.29096e-07
-1.04167e-07
-4.37934e-07
1.89119e-07
-9.34954e-08
-5.44461e-09
-2.27087e-07
-1.2867e-08
3.97342e-07
5.78973e-07
3.07732e-07
3.56611e-07
3.87256e-07
2.32771e-07
2.18994e-07
1.35428e-09
3.94439e-07
3.46406e-07
1.02779e-06
2.90293e-07
7.11715e-07
3.76065e-07
5.34443e-07
1.84462e-07
3.54139e-08
3.42106e-07
1.95805e-07
8.83727e-07
2.33738e-07
9.8751e-07
3.2122e-07
7.53307e-07
2.05611e-07
1.0941e-08
4.26938e-07
2.63254e-07
7.02931e-07
1.18893e-07
4.71282e-07
1.85525e-07
1.68719e-07
-9.3638e-09
-9.26172e-09
-2.94347e-08
1.63937e-07
2.02955e-07
2.79773e-07
4.4684e-08
-5.3901e-07
2.62315e-07
2.82387e-07
-2.61084e-08
5.37985e-07
-1.041e-06
3.06747e-08
4.71635e-07
-5.10791e-07
5.40873e-07
5.38501e-07
-1.03924e-06
2.623e-07
2.83816e-07
-4.69764e-07
5.85618e-07
1.48239e-07
-2.82458e-07
2.46289e-07
1.00178e-07
2.84978e-07
4.0705e-07
-4.99405e-07
4.71569e-07
2.45792e-07
1.01516e-07
5.88015e-07
1.47527e-07
-3.84968e-07
6.01151e-07
3.71389e-07
-2.27726e-07
1.18922e-07
-3.07758e-08
2.30259e-07
4.675e-07
-5.12738e-07
3.86513e-07
1.1599e-07
-2.76878e-08
6.04427e-07
3.71723e-07
-3.06674e-08
-2.59e-09
6.33218e-07
3.94319e-08
6.20406e-08
-1.18113e-08
-3.56299e-08
6.23232e-07
-6.81005e-08
3.14689e-08
6.05399e-08
-1.05784e-08
4.47101e-10
6.33879e-07
-4.76275e-08
4.1411e-08
-3.39808e-07
3.49504e-07
3.44548e-07
-1.08698e-07
5.18435e-08
3.48143e-07
4.77407e-08
1.84013e-07
2.83016e-08
7.97075e-08
3.0413e-07
-7.91314e-07
-3.65542e-07
-3.03708e-07
1.77198e-08
8.84839e-08
-1.84254e-07
-7.9038e-07
-3.64639e-07
2.70383e-08
8.10528e-08
4.43359e-07
-2.53325e-07
-2.26283e-08
2.68697e-07
-5.9265e-07
6.61928e-08
-2.68869e-07
-7.4712e-08
1.25158e-07
-4.44048e-07
-5.92944e-07
6.88085e-08
-2.55078e-07
-2.46298e-08
3.56611e-07
-3.74378e-07
1.31394e-07
2.38024e-07
-4.31312e-07
-8.09023e-08
-2.38302e-07
-2.57382e-07
1.42927e-07
-3.58008e-07
-4.36453e-07
-7.21768e-08
-3.78098e-07
1.31513e-07
3.33046e-07
-4.48574e-07
3.73309e-07
2.23508e-07
9.42227e-09
-3.45648e-07
-2.22954e-07
6.13603e-08
6.2618e-08
-3.33828e-07
7.45123e-09
-3.46541e-07
-4.51375e-07
3.71622e-07
-3.37155e-08
-3.72985e-07
4.13616e-08
2.83659e-07
-3.88712e-08
4.32654e-08
3.43595e-08
2.81804e-07
-3.69322e-07
4.19541e-08
-1.20728e-07
1.68327e-07
-2.15862e-09
-5.05459e-09
-3.04405e-07
-6.04683e-10
-9.73679e-08
1.93847e-07
-4.18948e-08
-6.52548e-09
-3.05669e-07
-1.24438e-07
1.71788e-07
4.56229e-08
-1.93878e-07
-1.59677e-11
1.02715e-08
2.08889e-07
-1.17867e-07
-1.52957e-08
-1.8588e-07
2.33389e-07
-4.53901e-08
2.07146e-07
-1.20643e-07
-1.94451e-07
-5.94517e-09
4.02643e-08
-3.28426e-08
-7.39575e-08
-1.06448e-08
-8.17361e-08
2.5387e-07
2.16879e-09
-3.01134e-07
2.40537e-07
-4.02651e-08
-8.32583e-08
2.53701e-07
-4.78812e-08
-6.00214e-08
3.14061e-07
2.54331e-07
-2.2979e-07
2.15754e-07
9.74864e-08
-4.30907e-07
-2.15897e-07
5.24936e-07
-3.33826e-07
-3.14659e-07
9.57839e-08
-4.31382e-07
2.39747e-07
-2.33052e-07
-3.5967e-07
2.42695e-07
-1.33039e-07
1.53611e-07
1.3397e-07
3.02216e-07
3.59004e-07
1.51321e-07
2.30539e-07
3.41771e-07
-2.13834e-07
5.19345e-08
2.67319e-07
-2.71475e-07
5.23198e-08
-2.67175e-07
1.3639e-07
6.00715e-07
-3.41873e-07
-2.72598e-07
5.14423e-08
-2.26747e-07
6.76318e-08
2.89591e-07
-2.13185e-07
-2.92886e-07
1.67951e-07
-4.21431e-07
1.49031e-07
-1.68011e-07
1.02566e-07
5.96881e-07
-2.90048e-07
-4.23749e-07
1.47532e-07
-1.97577e-07
-3.27812e-07
2.48944e-07
-2.19492e-07
-3.1852e-07
7.3836e-08
-2.22884e-07
2.25595e-07
-7.26294e-08
-1.40156e-07
6.24168e-07
-2.4933e-07
-2.23312e-07
2.24967e-07
-2.40955e-07
-2.68217e-07
4.61333e-07
-4.44342e-07
-4.67257e-07
2.95681e-07
-2.48474e-07
-2.42865e-07
-2.95649e-07
5.64322e-08
5.74663e-08
-4.61593e-07
-2.48895e-07
-2.43198e-07
-4.51013e-07
-4.85894e-07
-3.09796e-08
-1.68742e-07
-4.8561e-08
-7.90039e-08
4.90114e-08
2.58712e-07
3.03452e-08
-8.08068e-08
-1.88644e-07
-3.75627e-07
4.48897e-07
-2.45824e-07
-6.53727e-08
2.48944e-07
1.13564e-07
3.8078e-07
-6.92529e-08
4.738e-07
-3.0878e-07
4.7077e-07
-2.37307e-07
9.21141e-09
2.39505e-07
2.26418e-07
3.01279e-07
1.29114e-08
4.53884e-07
-2.8462e-07
4.41222e-07
-2.06924e-07
1.53384e-07
2.10471e-07
4.26e-07
3.00945e-07
1.43204e-07
4.90791e-07
-2.74313e-08
3.88546e-09
-7.69504e-08
-4.30769e-08
7.8246e-08
3.22861e-07
2.31966e-08
-4.83392e-08
3.03671e-08
-1.62816e-07
-2.8737e-07
2.90837e-07
1.58898e-07
-4.27013e-08
9.52697e-08
-4.18388e-08
-1.94572e-07
5.65167e-08
1.05703e-07
1.9458e-07
3.23649e-07
-6.9187e-07
4.27785e-08
5.65549e-08
1.05634e-07
9.49017e-08
-4.15217e-08
-2.28483e-08
9.94538e-08
1.55227e-08
-8.25914e-08
-4.81116e-09
1.18337e-07
8.26011e-08
-2.27422e-07
3.81366e-07
2.36779e-08
-5.50606e-09
1.18225e-07
1.02732e-07
1.30967e-08
-1.76873e-08
9.55879e-08
1.78846e-08
-1.50607e-07
2.797e-08
9.76055e-08
1.50472e-07
2.77137e-07
-8.22567e-07
1.70311e-08
2.74303e-08
9.78322e-08
9.71441e-08
1.98752e-08
1.67313e-08
3.4119e-08
4.19345e-08
-1.46241e-09
-3.67824e-08
8.044e-08
1.6127e-09
7.72045e-08
1.92213e-07
-1.69843e-08
-3.7177e-08
8.06775e-08
3.5052e-08
4.25467e-08
2.78163e-08
3.69066e-09
-6.75939e-08
5.59738e-08
6.77172e-08
-6.28031e-08
-2.83209e-08
5.62242e-08
4.21296e-09
8.61627e-08
3.0079e-08
-1.47668e-07
2.12759e-07
-1.18487e-07
1.0799e-07
-2.12731e-07
-3.12017e-07
4.98263e-08
-8.61802e-08
-1.1866e-07
1.08172e-07
3.04753e-08
-1.47594e-07
9.57644e-08
-2.3551e-08
-2.96715e-08
1.01872e-07
-3.0217e-08
2.14964e-08
-1.01793e-07
2.25509e-07
4.54318e-08
-9.57183e-08
-3.05302e-08
2.15351e-08
-2.51014e-08
-3.01253e-08
8.47184e-08
1.6618e-08
-1.10162e-07
1.50869e-07
-7.58597e-08
7.5331e-08
-1.50955e-07
-3.12208e-07
2.37539e-08
-8.49199e-08
-7.62174e-08
7.56832e-08
1.6498e-08
-1.10101e-07
7.39696e-08
-5.20989e-08
3.38311e-08
1.12318e-07
-8.05187e-08
4.43063e-08
-1.12381e-07
-1.96024e-07
2.98838e-07
-7.40535e-08
-8.07765e-08
4.44768e-08
-5.25215e-08
3.4679e-08
3.37831e-08
-8.4646e-08
1.13346e-09
5.72478e-09
-7.88033e-10
-2.57613e-07
-3.39806e-08
6.29455e-09
-8.49938e-08
-4.2331e-07
1.47972e-07
1.41893e-07
-4.13296e-09
-1.67398e-07
-1.35599e-07
3.1448e-09
-4.3105e-08
9.3481e-08
4.23172e-07
-1.67609e-07
-1.36048e-07
1.46981e-07
1.42789e-07
2.23763e-07
-1.0741e-07
-1.42804e-09
-4.13664e-09
1.05893e-07
-2.61462e-08
3.62772e-09
-8.23447e-08
7.51437e-08
-2.23862e-07
1.05726e-07
-2.65577e-08
-1.07975e-07
-2.41516e-09
-4.46743e-07
1.16487e-07
1.05259e-07
-2.87999e-09
-1.47816e-07
-1.14187e-07
2.72154e-09
-1.33011e-07
6.92498e-08
4.46709e-07
-1.4779e-07
-1.14107e-07
1.17087e-07
1.04158e-07
9.12105e-08
1.031e-07
-4.76003e-08
1.61323e-07
-1.14753e-07
-6.12256e-08
-1.61326e-07
7.87221e-07
-3.08198e-07
-9.09911e-08
-1.14475e-07
-6.14256e-08
1.05677e-07
-4.80986e-08
-5.67909e-08
7.27767e-08
-1.41396e-07
-2.63948e-08
1.41276e-07
2.55792e-07
5.78446e-08
-2.65185e-08
7.50348e-08
8.72371e-08
3.94069e-08
2.59464e-08
1.77595e-07
-1.11706e-07
-1.03808e-07
-1.77619e-07
-2.89505e-07
7.42073e-07
-8.73306e-08
-1.12001e-07
-1.03903e-07
3.69477e-08
2.91278e-08
8.97937e-08
-2.51112e-08
-2.97205e-08
4.34066e-08
1.16163e-08
-1.05545e-07
-4.32283e-08
2.20916e-07
-3.50729e-07
-8.98149e-08
1.11184e-08
-1.05549e-07
-2.62042e-08
-3.21024e-08
8.87358e-08
1.31254e-08
-2.50986e-08
1.3119e-07
-4.41853e-08
-1.02618e-07
-1.31174e-07
-2.85814e-07
8.44948e-07
-8.87367e-08
-4.46212e-08
-1.02554e-07
1.44007e-08
-2.85406e-08
6.90188e-08
-5.31211e-08
-5.31909e-08
1.03673e-07
-7.14116e-08
-7.10456e-08
-1.03745e-07
-1.97829e-07
-1.90809e-07
-6.91456e-08
-7.1652e-08
-7.13427e-08
-5.31436e-08
-5.24756e-08
3.60024e-08
-1.87275e-08
-2.56212e-09
-6.15137e-08
2.96089e-09
5.14902e-08
-3.60448e-08
-6.14083e-08
-1.68568e-08
-5.21198e-08
8.86345e-08
-2.11053e-07
6.54199e-08
2.11193e-07
3.40729e-07
5.35004e-08
6.40726e-08
9.31458e-08
-3.73413e-08
9.35854e-08
-1.01876e-07
2.16822e-08
1.01657e-07
-2.18079e-07
3.64346e-08
2.10236e-08
9.48102e-08
-3.29547e-08
9.88132e-08
-1.58633e-07
4.22659e-08
1.58315e-07
2.92787e-07
3.16169e-08
4.26884e-08
9.52438e-08
1.204e-08
3.11451e-08
-6.55134e-09
-1.25676e-08
6.8066e-09
8.36825e-08
-1.16136e-08
-1.26076e-08
2.86631e-08
1.00393e-08
-6.63584e-08
6.6871e-08
-9.45705e-09
-5.3901e-07
2.62315e-07
2.82387e-07
-2.61084e-08
5.37985e-07
-1.041e-06
3.06747e-08
4.71635e-07
-5.10791e-07
5.40873e-07
5.38501e-07
-1.03924e-06
2.623e-07
2.83816e-07
-4.69764e-07
5.85618e-07
1.48239e-07
-2.82458e-07
2.46289e-07
1.00178e-07
2.84978e-07
4.0705e-07
-4.99405e-07
4.71569e-07
2.45792e-07
1.01516e-07
5.88015e-07
1.47527e-07
-3.84968e-07
6.01151e-07
3.71389e-07
-2.27726e-07
1.18922e-07
-3.07758e-08
2.30259e-07
4.675e-07
-5.12738e-07
3.86513e-07
1.1599e-07
-2.76878e-08
6.04427e-07
3.71723e-07
-3.06674e-08
-2.59e-09
6.33218e-07
3.94319e-08
6.20406e-08
-1.18113e-08
-3.56299e-08
6.23232e-07
-6.81005e-08
3.14689e-08
6.05399e-08
-1.05784e-08
4.47101e-10
6.33879e-07
-4.76275e-08
4.1411e-08
-3.39808e-07
3.49504e-07
3.44548e-07
-1.08698e-07
5.18435e-08
3.48143e-07
4.77407e-08
1.84013e-07
2.83016e-08
7.97075e-08
3.0413e-07
-7.91314e-07
-3.65542e-07
-3.03708e-07
1.77198e-08
8.84839e-08
-1.84254e-07
-7.9038e-07
-3.64639e-07
2.70383e-08
8.10528e-08
4.43359e-07
-2.53325e-07
-2.26283e-08
2.68697e-07
-5.9265e-07
6.61928e-08
-2.68869e-07
-7.4712e-08
1.25158e-07
-4.44048e-07
-5.92944e-07
6.88085e-08
-2.55078e-07
-2.46298e-08
3.56611e-07
-3.74378e-07
1.31394e-07
2.38024e-07
-4.31312e-07
-8.09023e-08
-2.38302e-07
-2.57382e-07
1.42927e-07
-3.58008e-07
-4.36453e-07
-7.21768e-08
-3.78098e-07
1.31513e-07
3.33046e-07
-4.48574e-07
3.73309e-07
2.23508e-07
9.42227e-09
-3.45648e-07
-2.22954e-07
6.13603e-08
6.2618e-08
-3.33828e-07
7.45123e-09
-3.46541e-07
-4.51375e-07
3.71622e-07
-3.37155e-08
-3.72985e-07
4.13616e-08
2.83659e-07
-3.88712e-08
4.32654e-08
3.43595e-08
2.81804e-07
-3.69322e-07
4.19541e-08
-1.20728e-07
1.68327e-07
-2.15862e-09
-5.05459e-09
-3.04405e-07
-6.04683e-10
-9.73679e-08
1.93847e-07
-4.18948e-08
-6.52548e-09
-3.05669e-07
-1.24438e-07
1.71788e-07
4.56229e-08
-1.93878e-07
-1.59677e-11
1.02715e-08
2.08889e-07
-1.17867e-07
-1.52957e-08
-1.8588e-07
2.33389e-07
-4.53901e-08
2.07146e-07
-1.20643e-07
-1.94451e-07
-5.94517e-09
4.02643e-08
-3.28426e-08
-7.39575e-08
-1.06448e-08
-8.17361e-08
2.5387e-07
2.16879e-09
-3.01134e-07
2.40537e-07
-4.02651e-08
-8.32583e-08
2.53701e-07
-4.78812e-08
-6.00214e-08
3.14061e-07
2.54331e-07
-2.2979e-07
2.15754e-07
9.74864e-08
-4.30907e-07
-2.15897e-07
5.24936e-07
-3.33826e-07
-3.14659e-07
9.57839e-08
-4.31382e-07
2.39747e-07
-2.33052e-07
-3.5967e-07
2.42695e-07
-1.33039e-07
1.53611e-07
1.3397e-07
3.02216e-07
3.59004e-07
1.51321e-07
2.30539e-07
3.41771e-07
-2.13834e-07
5.19345e-08
2.67319e-07
-2.71475e-07
5.23198e-08
-2.67175e-07
1.3639e-07
6.00715e-07
-3.41873e-07
-2.72598e-07
5.14423e-08
-2.26747e-07
6.76318e-08
2.89591e-07
-2.13185e-07
-2.92886e-07
1.67951e-07
-4.21431e-07
1.49031e-07
-1.68011e-07
1.02566e-07
5.96881e-07
-2.90048e-07
-4.23749e-07
1.47532e-07
-1.97577e-07
-3.27812e-07
2.48944e-07
-2.19492e-07
-3.1852e-07
7.3836e-08
-2.22884e-07
2.25595e-07
-7.26294e-08
-1.40156e-07
6.24168e-07
-2.4933e-07
-2.23312e-07
2.24967e-07
-2.40955e-07
-2.68217e-07
4.61333e-07
-4.44342e-07
-4.67257e-07
2.95681e-07
-2.48474e-07
-2.42865e-07
-2.95649e-07
5.64322e-08
5.74663e-08
-4.61593e-07
-2.48895e-07
-2.43198e-07
-4.51013e-07
-4.85894e-07
-3.09796e-08
-1.68742e-07
-4.8561e-08
-7.90039e-08
4.90114e-08
2.58712e-07
3.03452e-08
-8.08068e-08
-1.88644e-07
-3.75627e-07
4.48897e-07
-2.45824e-07
-6.53727e-08
2.48944e-07
1.13564e-07
3.8078e-07
-6.92529e-08
4.738e-07
-3.0878e-07
4.7077e-07
-2.37307e-07
9.21141e-09
2.39505e-07
2.26418e-07
3.01279e-07
1.29114e-08
4.53884e-07
-2.8462e-07
4.41222e-07
-2.06924e-07
1.53384e-07
2.10471e-07
4.26e-07
3.00945e-07
1.43204e-07
4.90791e-07
-2.74313e-08
3.88546e-09
-7.69504e-08
-4.30769e-08
7.8246e-08
3.22861e-07
2.31966e-08
-4.83392e-08
3.03671e-08
-1.62816e-07
-2.8737e-07
2.90837e-07
1.58898e-07
-3.51756e-08
8.25567e-08
-3.70674e-08
-2.01802e-07
3.7103e-08
1.39082e-07
1.98391e-07
2.93813e-07
-6.74442e-07
3.80368e-08
4.98649e-08
1.20128e-07
8.47528e-08
-3.62987e-08
-2.1688e-08
1.12226e-07
-1.03643e-08
-1.08729e-07
-4.7899e-09
1.26046e-07
1.04057e-07
-1.85468e-07
2.6553e-07
2.30631e-08
3.20952e-08
9.61219e-08
1.12561e-07
-6.89688e-09
3.60065e-09
9.29073e-08
1.32917e-08
-1.54523e-07
-2.26647e-08
1.73415e-07
1.52806e-07
2.61164e-07
-7.54182e-07
-2.43532e-09
2.35345e-08
1.61981e-07
9.08577e-08
1.67441e-08
3.13102e-08
1.38616e-08
4.52331e-08
-7.72902e-09
-4.6801e-08
6.06806e-08
-6.48329e-09
6.99466e-08
1.88208e-07
-3.14842e-08
-3.46389e-08
8.09413e-08
6.33869e-09
5.05446e-08
1.99587e-08
-8.6175e-09
-6.13355e-08
3.19345e-08
7.28387e-08
-6.63378e-08
-1.01282e-08
4.59401e-08
-6.28065e-09
1.04503e-07
1.84365e-08
-1.49361e-07
1.97195e-07
-1.11563e-07
1.67103e-07
-2.05006e-07
-2.98506e-07
2.97671e-08
-9.20694e-08
-1.25406e-07
1.41718e-07
3.20328e-08
-1.49698e-07
1.00771e-07
-3.37469e-08
-6.13443e-08
3.4771e-08
-1.35652e-08
9.11117e-08
-7.10698e-08
1.51737e-07
-8.27693e-08
-8.23107e-08
2.95209e-09
-2.38832e-08
-6.73282e-09
-5.31307e-08
1.29993e-07
-3.63023e-08
-1.1648e-07
1.30573e-07
-6.04163e-08
2.16777e-07
-1.52635e-07
-2.36103e-07
-8.80475e-08
-1.22672e-07
-5.21434e-08
1.84798e-07
2.49581e-09
-1.1857e-07
6.12497e-08
-3.81097e-08
-1.68887e-08
5.80472e-08
-6.11582e-08
6.19327e-08
-1.09263e-07
-1.9483e-07
3.10679e-07
-7.25739e-08
-8.15329e-08
7.1165e-08
-4.23272e-08
2.00157e-08
1.86699e-08
-6.7944e-08
2.27465e-08
-3.60756e-08
-1.85264e-09
-2.3909e-07
-3.24819e-08
-7.37678e-09
-8.37924e-08
-4.06206e-07
1.36877e-07
1.31372e-07
2.09682e-08
-1.49512e-07
-1.01991e-07
2.78271e-08
-3.03001e-08
6.0159e-08
4.21599e-07
-1.52067e-07
-9.15343e-08
1.43239e-07
1.39934e-07
1.90264e-07
-1.05069e-07
-1.12745e-08
3.03678e-08
1.0761e-07
-9.15052e-09
3.70416e-08
-6.217e-08
-6.15556e-08
-1.69649e-07
4.84465e-08
-2.04259e-08
-1.05085e-07
2.26018e-08
-4.27002e-07
1.08696e-07
9.77688e-08
3.49157e-08
-9.43023e-08
-4.7748e-08
4.35171e-08
-9.59944e-08
-6.82213e-08
4.58756e-07
-1.13299e-07
-6.8116e-08
1.20338e-07
1.0755e-07
7.88236e-08
5.67084e-08
-4.61842e-08
1.39737e-07
-8.95385e-08
-6.46792e-09
-1.73937e-07
7.37111e-07
-2.17275e-07
-9.39148e-08
-1.22418e-07
-1.85517e-09
9.12823e-08
-4.78921e-08
-3.98061e-08
2.60523e-08
-1.35272e-07
-3.30718e-08
1.39371e-07
2.2954e-07
4.97363e-08
-4.1906e-08
5.37885e-08
7.92642e-08
3.69791e-08
2.58958e-08
1.71528e-07
-9.18565e-08
-9.31931e-08
-1.87183e-07
-2.37013e-07
6.62204e-07
-7.99932e-08
-9.41574e-08
-9.53433e-08
3.81666e-08
3.26634e-08
9.09762e-08
-3.43349e-08
-3.3051e-08
9.17047e-08
7.20024e-09
-1.11702e-07
-1.24957e-07
2.19007e-07
-3.04604e-07
-9.44395e-08
-2.89439e-08
-1.18835e-07
-7.76588e-09
-2.83153e-08
7.49383e-08
6.55376e-09
-2.05749e-08
1.49516e-07
-3.36918e-08
-8.42449e-08
-1.79567e-07
-2.49418e-07
7.20646e-07
-9.17607e-08
-6.67577e-08
-1.20233e-07
1.78142e-08
-1.30989e-08
4.92548e-08
-4.09524e-08
-5.05641e-08
8.93639e-08
-4.13358e-08
-4.15219e-08
-1.2842e-07
-1.25644e-07
-1.26459e-07
-6.40443e-08
-6.74978e-08
-6.78477e-08
-3.82809e-08
-5.85184e-08
2.13296e-08
-3.87715e-08
-1.12798e-08
-4.44934e-08
3.00677e-08
6.00468e-08
-3.07474e-08
-5.09332e-08
-1.78621e-08
-5.00832e-08
8.63129e-08
-1.91398e-07
5.85799e-08
1.92287e-07
2.92328e-07
4.40489e-08
6.34506e-08
8.73264e-08
-3.38484e-08
8.41655e-08
-8.82998e-08
-1.10456e-09
9.14165e-08
-1.9237e-07
1.92121e-08
1.4617e-08
7.61143e-08
-3.1151e-08
9.23152e-08
-1.43116e-07
2.37789e-08
1.45474e-07
2.46263e-07
2.21425e-08
1.59658e-08
8.29075e-08
5.88206e-09
3.31728e-08
-1.23614e-08
-2.17327e-09
2.66356e-08
7.84026e-08
-2.58699e-08
-1.71436e-09
-3.78278e-09
-8.16132e-09
-5.73511e-08
7.86958e-08
2.37413e-08
-5.3901e-07
2.62315e-07
2.82387e-07
-2.61084e-08
5.37985e-07
-1.041e-06
3.06747e-08
4.71635e-07
-5.10791e-07
5.40873e-07
5.38501e-07
-1.03924e-06
2.623e-07
2.83816e-07
-4.69764e-07
5.85618e-07
1.48239e-07
-2.82458e-07
2.46289e-07
1.00178e-07
2.84978e-07
4.0705e-07
-4.99405e-07
4.71569e-07
2.45792e-07
1.01516e-07
5.88015e-07
1.47527e-07
-3.84968e-07
6.01151e-07
3.71389e-07
-2.27726e-07
1.18922e-07
-3.07758e-08
2.30259e-07
4.675e-07
-5.12738e-07
3.86513e-07
1.1599e-07
-2.76878e-08
6.04427e-07
3.71723e-07
-3.06674e-08
-2.59e-09
6.33218e-07
3.94319e-08
6.20406e-08
-1.18113e-08
-3.56299e-08
6.23232e-07
-6.81005e-08
3.14689e-08
6.05399e-08
-1.05784e-08
4.47101e-10
6.33879e-07
-4.76275e-08
4.1411e-08
-3.39808e-07
3.49504e-07
3.44548e-07
-1.08698e-07
5.18435e-08
3.48143e-07
4.77407e-08
1.84013e-07
2.83016e-08
7.97075e-08
3.0413e-07
-7.91314e-07
-3.65542e-07
-3.03708e-07
1.77198e-08
8.84839e-08
-1.84254e-07
-7.9038e-07
-3.64639e-07
2.70383e-08
8.10528e-08
4.43359e-07
-2.53325e-07
-2.26283e-08
2.68697e-07
-5.9265e-07
6.61928e-08
-2.68869e-07
-7.4712e-08
1.25158e-07
-4.44048e-07
-5.92944e-07
6.88085e-08
-2.55078e-07
-2.46298e-08
3.56611e-07
-3.74378e-07
1.31394e-07
2.38024e-07
-4.31312e-07
-8.09023e-08
-2.38302e-07
-2.57382e-07
1.42927e-07
-3.58008e-07
-4.36453e-07
-7.21768e-08
-3.78098e-07
1.31513e-07
3.33046e-07
-4.48574e-07
3.73309e-07
2.23508e-07
9.42227e-09
-3.45648e-07
-2.22954e-07
6.13603e-08
6.2618e-08
-3.33828e-07
7.45123e-09
-3.46541e-07
-4.51375e-07
3.71622e-07
-3.37155e-08
-3.72985e-07
4.13616e-08
2.83659e-07
-3.88712e-08
4.32654e-08
3.43595e-08
2.81804e-07
-3.69322e-07
4.19541e-08
-1.20728e-07
1.68327e-07
-2.15862e-09
-5.05459e-09
-3.04405e-07
-6.04683e-10
-9.73679e-08
1.93847e-07
-4.18948e-08
-6.52548e-09
-3.05669e-07
-1.24438e-07
1.71788e-07
4.56229e-08
-1.93878e-07
-1.59677e-11
1.02715e-08
2.08889e-07
-1.17867e-07
-1.52957e-08
-1.8588e-07
2.33389e-07
-4.53901e-08
2.07146e-07
-1.20643e-07
-1.94451e-07
-5.94517e-09
4.02643e-08
-3.28426e-08
-7.39575e-08
-1.06448e-08
-8.17361e-08
2.5387e-07
2.16879e-09
-3.01134e-07
2.40537e-07
-4.02651e-08
-8.32583e-08
2.53701e-07
-4.78812e-08
-6.00214e-08
3.14061e-07
2.54331e-07
-2.2979e-07
2.15754e-07
9.74864e-08
-4.30907e-07
-2.15897e-07
5.24936e-07
-3.33826e-07
-3.14659e-07
9.57839e-08
-4.31382e-07
2.39747e-07
-2.33052e-07
-3.5967e-07
2.42695e-07
-1.33039e-07
1.53611e-07
1.3397e-07
3.02216e-07
3.59004e-07
1.51321e-07
2.30539e-07
3.41771e-07
-2.13834e-07
5.19345e-08
2.67319e-07
-2.71475e-07
5.23198e-08
-2.67175e-07
1.3639e-07
6.00715e-07
-3.41873e-07
-2.72598e-07
5.14423e-08
-2.26747e-07
6.76318e-08
2.89591e-07
-2.13185e-07
-2.92886e-07
1.67951e-07
-4.21431e-07
1.49031e-07
-1.68011e-07
1.02566e-07
5.96881e-07
-2.90048e-07
-4.23749e-07
1.47532e-07
-1.97577e-07
-3.27812e-07
2.48944e-07
-2.19492e-07
-3.1852e-07
7.3836e-08
-2.22884e-07
2.25595e-07
-7.26294e-08
-1.40156e-07
6.24168e-07
-2.4933e-07
-2.23312e-07
2.24967e-07
-2.40955e-07
-2.68217e-07
4.61333e-07
-4.44342e-07
-4.67257e-07
2.95681e-07
-2.48474e-07
-2.42865e-07
-2.95649e-07
5.64322e-08
5.74663e-08
-4.61593e-07
-2.48895e-07
-2.43198e-07
-4.51013e-07
-4.85894e-07
-3.09796e-08
-1.68742e-07
-4.8561e-08
-7.90039e-08
4.90114e-08
2.58712e-07
3.03452e-08
-8.08068e-08
-1.88644e-07
-3.75627e-07
4.48897e-07
-2.45824e-07
-6.53727e-08
2.48944e-07
1.13564e-07
3.8078e-07
-6.92529e-08
4.738e-07
-3.0878e-07
4.7077e-07
-2.37307e-07
9.21141e-09
2.39505e-07
2.26418e-07
3.01279e-07
1.29114e-08
4.53884e-07
-2.8462e-07
4.41222e-07
-2.06924e-07
1.53384e-07
2.10471e-07
4.26e-07
3.00945e-07
1.43204e-07
4.90791e-07
-2.74313e-08
3.88546e-09
-7.69504e-08
-4.30769e-08
7.8246e-08
3.22861e-07
2.31966e-08
-4.83392e-08
3.03671e-08
-1.62816e-07
-2.8737e-07
2.90837e-07
1.58898e-07
-2.1641e-07
3.82185e-07
-1.45155e-07
-3.6124e-07
1.69599e-07
-1.24407e-08
-3.675e-07
2.50057e-07
-2.3343e-07
-2.77291e-07
7.4066e-07
-8.11301e-07
4.52669e-07
-7.09991e-07
-1.80834e-07
4.05779e-07
1.55318e-07
-3.65896e-07
4.99902e-08
2.95576e-07
-2.93313e-07
4.85209e-07
-3.16127e-07
-3.02536e-07
7.67445e-07
-2.08028e-08
1.11016e-06
-9.62992e-07
-1.74055e-07
4.07433e-07
1.6918e-07
-3.22438e-07
-4.9716e-08
2.40593e-07
-2.20333e-07
6.8253e-07
-3.03195e-07
-1.76024e-07
8.43237e-07
-1.22502e-07
6.76537e-07
2.51791e-07
1.44873e-08
-1.52647e-08
4.03631e-07
-1.98798e-07
-6.55869e-08
2.22878e-07
-1.35578e-07
6.56233e-08
5.50467e-07
-2.66316e-07
3.26652e-07
6.45787e-07
3.87107e-07
1.05909e-08
-2.33335e-08
-2.43722e-10
-2.70701e-07
1.75727e-07
-2.35271e-07
2.35499e-08
-1.47576e-07
2.36287e-07
2.4072e-07
2.31801e-07
-5.74915e-08
-3.01927e-07
8.22397e-08
-3.5635e-07
5.06982e-07
2.22867e-07
-6.78522e-08
-2.9641e-07
2.47893e-07
-4.60203e-07
-3.53622e-07
-1.45789e-07
-3.02311e-07
2.61057e-07
-9.42095e-08
-7.34389e-08
9.12896e-08
-2.40204e-07
3.43132e-07
1.60795e-07
-2.01379e-08
-4.41524e-07
2.98667e-07
-1.96483e-07
-4.25195e-07
-5.75265e-07
-2.40399e-07
2.52344e-07
-2.35025e-07
5.31246e-08
1.07258e-07
-1.99012e-07
3.39096e-07
1.49035e-07
-6.03238e-08
-3.07683e-07
2.97845e-07
-1.04515e-07
-3.67897e-07
1.7582e-07
-2.10378e-07
2.39943e-07
-3.47024e-07
2.71286e-07
3.41529e-07
-2.19563e-07
1.36119e-07
1.39172e-07
-6.38277e-07
1.32913e-06
4.10052e-07
-7.07281e-07
9.75245e-07
-7.03411e-07
1.28784e-06
6.30905e-09
-3.62659e-07
-2.09978e-07
1.67144e-07
4.41558e-08
-8.87028e-07
-1.998e-07
-2.30475e-07
-6.73237e-07
-8.85203e-07
2.90618e-07
3.12823e-07
1.54782e-07
-4.91885e-07
-3.109e-08
1.61938e-07
-2.50088e-07
-4.26325e-08
9.47629e-08
-3.55488e-07
1.04628e-07
-5.18364e-07
3.26798e-07
7.74633e-08
4.3284e-08
9.42261e-08
9.7866e-08
-1.58924e-07
-1.56933e-08
1.39504e-07
-3.53168e-07
-3.86563e-07
4.38807e-08
-2.40591e-07
-4.42178e-07
-4.18351e-07
-3.02055e-07
-9.71659e-08
1.63001e-07
2.84682e-08
1.52474e-07
-6.40612e-08
-8.99091e-09
1.38213e-07
-3.15301e-07
-3.26073e-07
1.12153e-07
-3.48207e-07
-2.37408e-07
-3.8229e-07
-1.53338e-07
2.0965e-07
4.38272e-07
-2.10622e-07
5.10356e-07
-1.45886e-07
-8.63085e-08
-2.96404e-07
2.67237e-06
-8.11351e-07
4.64373e-07
-5.63789e-07
4.32039e-07
1.97788e-06
-6.48386e-07
-2.24871e-07
2.81251e-07
-3.79666e-07
1.71254e-07
2.99471e-07
1.02647e-06
-3.13459e-07
-2.00529e-07
1.03254e-06
2.06173e-07
-6.00867e-08
1.8554e-07
5.93982e-07
-2.40708e-07
-1.63273e-07
-8.55009e-08
-7.13055e-07
1.35978e-06
-1.59436e-07
-8.48969e-07
1.0972e-06
-9.22077e-07
1.0816e-06
2.43786e-07
-7.01611e-08
-1.4208e-07
5.61248e-07
-3.14572e-07
-2.63295e-07
1.21946e-07
3.39079e-07
-1.00737e-06
-1.269e-07
1.12452e-07
-1.15046e-06
-1.62677e-07
-1.19042e-06
2.34781e-07
-1.43831e-07
-1.35719e-07
5.71025e-07
-4.26134e-07
-2.37339e-07
1.13701e-07
-1.12554e-06
1.58843e-06
-7.49465e-08
-1.28296e-06
1.32454e-06
-7.96504e-07
3.92524e-07
2.82149e-07
-3.25354e-07
-3.14531e-07
5.74231e-07
-4.01155e-07
-4.06297e-07
3.27814e-07
-8.39856e-07
-8.51525e-07
4.77315e-09
8.8719e-07
-1.37825e-06
-1.25689e-06
-1.92807e-07
8.83361e-09
-6.10507e-08
-1.48501e-07
-7.53489e-08
-1.99202e-07
2.21238e-07
1.5669e-07
2.50333e-07
-7.6792e-08
-1.76141e-07
3.84405e-07
-4.82178e-07
1.60263e-07
-5.0281e-08
9.6356e-07
-3.89371e-08
1.01189e-06
1.09925e-06
-1.38852e-07
3.80053e-07
-3.37437e-07
9.3194e-08
-4.85146e-08
-3.14535e-07
1.25398e-07
-3.28738e-07
3.66382e-08
-1.32994e-07
3.74998e-07
-3.55664e-07
7.73098e-08
5.76594e-08
8.71462e-07
1.47874e-07
9.51734e-07
6.01392e-07
2.29797e-08
3.45492e-08
-1.45042e-07
-1.61736e-07
-1.03368e-07
-1.04557e-08
-1.3919e-07
-3.84862e-07
2.75128e-07
-2.35146e-08
-2.61737e-07
-5.00241e-08
-1.97366e-07
9.15779e-07
-1.33523e-06
4.82026e-07
1.03571e-06
-1.15494e-06
1.10194e-06
1.34757e-06
-1.19068e-06
9.33005e-07
-1.29968e-07
-1.67893e-07
1.6562e-06
2.14764e-07
-3.50745e-07
1.12482e-07
-2.05739e-06
5.99022e-07
-2.99506e-07
-1.63205e-06
9.18067e-07
-3.07315e-07
-1.91954e-06
7.55799e-07
1.0025e-07
-3.05487e-07
-2.65692e-07
-1.45414e-06
1.76772e-06
9.48815e-07
1.99798e-06
-4.79637e-06
-8.28889e-07
1.53403e-06
-1.30484e-06
1.35786e-06
1.84047e-06
-5.77734e-06
1.29415e-06
2.06924e-08
-2.80287e-07
1.4332e-06
-1.58663e-06
4.04435e-07
1.19177e-06
3.65123e-07
-2.55933e-07
1.14528e-06
1.06218e-06
-2.61661e-08
1.03007e-06
6.113e-07
1.05021e-07
1.39967e-07
-2.51275e-07
-2.47185e-07
1.77874e-06
9.56844e-07
2.59535e-07
1.23683e-06
9.01674e-07
1.33117e-06
9.70979e-07
-8.38372e-08
1.54812e-06
-3.35955e-07
-1.21777e-07
9.42927e-07
-3.79244e-07
8.74783e-08
1.11354e-06
-2.22238e-07
-1.81969e-07
1.04308e-06
1.55614e-07
-5.9729e-08
6.22777e-07
9.24711e-07
4.18876e-07
-8.32039e-07
-6.28167e-07
2.05789e-06
1.27109e-07
-6.63073e-07
1.94223e-06
1.32823e-07
-1.02381e-06
2.14719e-06
1.85247e-08
-6.11447e-07
6.0044e-07
-6.4357e-07
6.05035e-07
9.68167e-07
-9.59711e-07
-1.88282e-06
-1.7177e-09
8.19671e-07
-1.96469e-06
7.85233e-07
-1.56434e-06
-2.04585e-06
7.51638e-07
-6.31686e-07
-5.64462e-07
-4.33574e-08
-6.61195e-07
-9.56884e-07
-6.95012e-07
-8.02296e-07
-5.39398e-08
-5.25502e-07
-1.15059e-06
8.11569e-08
-1.0564e-06
-9.92147e-07
1.01207e-07
-6.12509e-07
-6.39994e-07
-6.08227e-07
-5.40925e-07
1.04494e-06
1.61764e-07
-6.66375e-07
-2.86773e-08
-5.00672e-08
9.83635e-08
-1.45396e-07
-3.96026e-09
1.0206e-06
-9.21496e-07
-1.13964e-08
-7.76662e-07
3.37885e-07
1.58226e-07
-1.22819e-06
8.22735e-07
1.61629e-07
-5.21238e-07
6.62875e-07
6.25745e-07
6.30035e-07
-1.59671e-07
-4.1888e-07
2.09366e-07
-8.10172e-07
2.86515e-07
-9.38974e-08
-7.58626e-07
3.87793e-07
-1.52929e-06
-4.37077e-07
1.18445e-07
-9.42948e-07
-6.55893e-07
5.47322e-07
-3.28232e-07
1.56921e-07
-2.67293e-07
-3.43412e-07
-5.98404e-07
1.34601e-06
-1.37537e-07
-2.6159e-07
1.21133e-06
-3.59419e-07
-2.43248e-07
1.29792e-06
1.70333e-06
-3.94867e-07
-1.18296e-06
-1.95088e-07
1.13912e-06
-1.20304e-06
2.18103e-06
-1.68574e-06
-5.07831e-07
5.01675e-07
-1.39546e-06
-6.61452e-07
1.52169e-06
-1.49975e-06
-6.35939e-07
-6.35022e-07
-3.76531e-07
5.62505e-07
-3.26173e-07
3.1514e-07
1.26498e-06
-2.7273e-08
8.0124e-07
3.82686e-07
9.62647e-07
7.6161e-07
2.90222e-08
3.17912e-07
-5.51126e-08
1.3198e-06
-1.13381e-06
4.05556e-08
1.26295e-06
-5.52924e-07
2.61664e-08
1.03088e-06
-3.65995e-07
-5.2295e-08
8.04812e-07
-8.79629e-07
4.29356e-07
-2.75636e-07
-1.14653e-06
-8.22578e-09
2.332e-06
-8.972e-07
1.23386e-07
-6.54155e-07
-7.40611e-07
3.26688e-07
-4.07866e-07
-7.57887e-07
5.07224e-07
-1.24954e-09
4.83793e-07
-1.08352e-06
-8.86696e-07
4.75753e-07
2.07461e-06
-4.46305e-07
-1.49282e-07
1.02631e-06
-3.82725e-07
-1.17477e-07
1.65012e-06
-7.49311e-07
-4.65233e-07
1.68384e-07
-5.28402e-07
1.39619e-06
-1.37922e-06
-1.94522e-06
2.07078e-06
-7.02682e-07
-1.32644e-06
-9.02839e-07
-8.46495e-07
-1.05222e-06
-4.27502e-07
-7.73312e-07
-8.43693e-07
-5.799e-08
-5.35558e-07
-1.09308e-06
6.64332e-08
-7.08727e-07
-7.36839e-08
-3.79006e-07
1.48685e-07
-3.12089e-07
-1.02598e-08
-6.45593e-07
-2.65695e-07
6.16246e-07
-1.63773e-06
8.53282e-07
-8.30312e-07