/*--------------------------------*- C++ -*----------------------------------*\
  =========                 |
  \\      /  F ield         | OpenFOAM: The Open Source CFD Toolbox
   \\    /   O peration     | Website:  https://openfoam.org
    \\  /    A nd           | Version:  6
     \\/     M anipulation  |
\*---------------------------------------------------------------------------*/
FoamFile
{
    version     2.0;
    format      ascii;
    class       volVectorField;
    location    "2.5";
    object      U;
}
// * * * * * * * * * * * * * * * * * * * * * * * * * * * * * * * * * * * * * //

dimensions      [0 1 -1 0 0 0 0];

internalField   nonuniform List<vector> 
6000
(
(0 0 0)
(-0.0856219 -3.57306e-07 7.63383e-07)
(-0.0732017 2.69111e-07 9.6835e-07)
(-0.124843 1.01329e-06 4.88197e-08)
(-0.0121001 0.00448152 2.50794e-09)
(-0.10622 1.80075e-07 -2.12347e-07)
(-0.116946 1.31997e-07 1.37717e-06)
(-0.113047 5.86735e-08 4.97067e-07)
(-0.126293 4.15979e-07 3.13613e-08)
(-0.0118555 0.00439091 4.93335e-09)
(-0.0986794 3.052e-07 8.87445e-07)
(-0.127081 -2.2927e-07 6.97672e-07)
(-0.0859935 -5.10156e-08 3.90001e-07)
(-0.126098 8.37548e-07 1.98183e-08)
(-0.0115174 0.00426571 3.3878e-09)
(-0.101294 4.0296e-08 1.04614e-06)
(-0.125988 -6.58164e-08 4.17079e-07)
(-0.112274 -1.63483e-07 1.67852e-06)
(-0.117808 2.02982e-07 7.78307e-07)
(-0.0112382 0.00416228 6.12269e-07)
(-0.00658001 3.25016e-09 0.00657999)
(-0.00267678 -2.46549e-10 0.00267678)
(-0.00267856 1.68102e-09 0.00267856)
(-0.0112464 2.39362e-07 0.0112464)
(-0.0920354 0.0340872 0.0920354)
(-0.0251651 0.000598149 -0.000987558)
(-0.0294378 0.000994345 -0.00405755)
(-0.0270861 -0.00207645 -0.00436343)
(-0.00908654 0.00246727 -5.16956e-05)
(-8.86211e-07 0.0456048 4.35237e-08)
(-0.0198706 -0.000173602 0.000153657)
(-0.0197625 -9.04563e-05 -0.00311115)
(-0.0198654 -0.000385459 -0.000799637)
(-0.00988366 0.00312551 -5.86569e-05)
(-8.56389e-07 0.0461205 9.49721e-08)
(-0.0233339 -0.00101072 0.00385404)
(-0.0150745 0.00017341 2.79848e-05)
(-0.0267303 -0.000151251 0.00200657)
(-0.00916993 0.00263258 0.000593257)
(-8.15408e-07 0.0463948 8.26098e-08)
(-0.0228589 -0.00171245 0.0221579)
(-0.00900673 -0.000330595 0.00891095)
(-0.00948315 4.63124e-05 0.00893443)
(-0.00985019 0.00311272 0.00972423)
(-7.8992e-07 0.0432896 8.1413e-07)
(-1.50205e-06 2.02707e-07 0.0954019)
(0 0 0)
(-1.69244e-06 -2.27512e-07 0.112368)
(-8.51929e-07 2.02488e-07 0.117231)
(-6.16342e-07 0.00420758 0.0113605)
(0 0 0)
(-0.00385157 3.15847e-05 -0.000435838)
(-0.0021686 1.35844e-05 -0.000127907)
(-1.9088e-05 0.000576631 -1.81927e-05)
(3.01479e-08 0.0489348 6.96552e-08)
(-0.00286428 -0.000165115 0.000438756)
(-0.000596905 -2.03686e-05 -0.000145435)
(-0.00118185 6.59855e-05 0.000187479)
(-1.73101e-05 0.000642562 -1.13145e-05)
(3.90402e-08 0.0498652 1.48617e-07)
(-0.00518216 -0.000473478 0.00601307)
(0 0 0)
(-0.00701643 0.000363482 0.00591369)
(-5.18965e-06 0.00024754 4.44423e-05)
(1.79904e-07 0.0499805 5.57489e-08)
(-0.00426746 -0.00169884 0.02572)
(-0.000150053 -0.000142952 0.0116183)
(-0.00227329 4.44305e-05 0.0199518)
(-0.000165882 0.00250624 0.00811522)
(-1.24752e-08 0.0468675 8.52575e-07)
(-9.35381e-08 4.69164e-07 0.0870757)
(-5.00795e-07 2.12e-08 0.13185)
(-3.19295e-07 -1.04304e-07 0.0925583)
(-9.49534e-08 8.52972e-07 0.126035)
(2.18765e-09 0.00451248 0.0121837)
(0.00161003 -7.96865e-06 1.02955e-05)
(0.000450787 -2.52419e-06 -1.68088e-06)
(3.64623e-05 1.08485e-06 -1.07111e-08)
(0.0100893 0.00377344 -3.67546e-05)
(1.05454e-06 0.0463521 5.19698e-08)
(0.00283155 -2.40907e-05 1.84939e-05)
(0.00150558 -1.17179e-05 -8.91043e-06)
(0.000520639 1.5067e-05 6.24283e-06)
(0.00968636 0.00360694 -1.42799e-05)
(9.68988e-07 0.0468049 2.36019e-07)
(0.00315805 -2.87239e-05 0.000486985)
(0.00181113 -5.73261e-06 0.00023273)
(0.00204951 6.38978e-05 0.000245881)
(0.00831815 0.00313582 0.000455426)
(6.6533e-07 0.0476101 3.4826e-08)
(0.017017 -0.000332454 0.0197923)
(0.0151771 -0.000334685 0.0169593)
(0.0110385 2.3692e-05 0.0134239)
(0.00706425 0.00254544 0.00710987)
(8.4944e-07 0.0442421 6.94239e-07)
(1.57252e-06 1.25313e-07 0.112303)
(1.88507e-07 -1.17407e-08 0.123419)
(2.0909e-06 -1.0707e-07 0.119369)
(8.32391e-07 3.64586e-07 0.118703)
(6.38374e-07 0.00466489 0.0125952)
(0.119544 4.30844e-08 2.14441e-07)
(0.122812 1.17543e-07 4.62905e-08)
(0.125743 3.78367e-07 6.24899e-08)
(0.126576 6.48302e-07 -1.762e-08)
(0 0 0)
(0.12181 -2.00221e-08 7.84411e-07)
(0.123908 5.9077e-08 3.20144e-07)
(0.126633 3.56838e-07 2.87788e-07)
(0.126858 6.15529e-07 -2.5771e-08)
(0.0127015 0.00470427 -2.72668e-08)
(0.12963 -1.38406e-07 1.42392e-06)
(0.127907 -7.49836e-08 8.49566e-07)
(0.128064 2.53166e-07 5.48079e-07)
(0.126463 4.40737e-07 -1.21507e-07)
(0.00908717 0.00336562 -1.30449e-09)
(0 0 0)
(0.118447 -2.37661e-07 1.14176e-06)
(0.118884 2.39105e-10 1.21439e-06)
(0.11787 3.78819e-07 7.94938e-07)
(0.0136018 0.00503771 7.10636e-07)
(0.00545015 4.18382e-09 0.00545012)
(0.00880349 1.28736e-08 0.00880351)
(0.0130459 1.18018e-08 0.0130459)
(0.0129276 2.46297e-07 0.0129276)
(0.0860748 0.0318796 0.0860748)
(-0.00507585 -0.00253792 7.14108e-09)
(0 0 0)
(-0.31268 2.39043e-08 -3.19596e-07)
(0 0 0)
(-0.00513214 0.00256606 7.44366e-09)
(-0.0104539 -0.00522693 5.62924e-08)
(-0.29792 -1.49151e-06 -2.67144e-06)
(-0.308943 2.19609e-08 -5.8675e-07)
(-0.29791 1.58885e-06 -2.68292e-06)
(-0.0113193 0.00565966 6.08386e-08)
(-0.0226782 -0.0113391 1.55149e-07)
(-0.290044 -2.15607e-06 -1.48273e-06)
(-0.304712 1.7376e-08 8.24518e-08)
(-0.290088 2.24344e-06 -1.49494e-06)
(-0.0235006 0.0117503 1.56984e-07)
(-0.0306756 -0.0153379 1.85432e-06)
(-0.266386 -2.20866e-06 4.42592e-06)
(-0.284204 1.43318e-08 2.12104e-06)
(-0.266529 2.27548e-06 4.42253e-06)
(-0.0313383 0.0156692 1.91769e-06)
(-0.0974292 -0.0487146 0.0974293)
(-0.0317801 -1.07821e-06 0.0317801)
(-0.0106827 4.93958e-10 0.0106827)
(-0.0319609 1.10583e-06 0.0319609)
(-0.0989611 0.0494806 0.0989613)
(-1.69012e-06 -0.15437 -5.0893e-07)
(-0.0237366 -0.0112133 0.000545758)
(-0.0138854 6.65391e-06 8.4645e-05)
(-0.0237842 0.0112702 0.000542454)
(-1.72034e-06 0.154702 -5.71002e-07)
(-2.19979e-06 -0.149106 -9.86169e-07)
(-0.0277329 -0.0134398 0.000872163)
(-0.014762 5.70256e-06 0.000216942)
(-0.0278051 0.0134996 0.000860308)
(-2.30493e-06 0.149303 -1.09614e-06)
(-3.58025e-06 -0.14648 -8.3634e-07)
(-0.0256607 -0.0126038 0.00186978)
(-0.0139278 3.26683e-06 0.00110433)
(-0.025714 0.0126408 0.00185503)
(-3.72228e-06 0.146585 -9.21911e-07)
(-4.25603e-06 -0.135169 4.36396e-06)
(-0.0228271 -0.0112734 0.022607)
(-0.0242265 1.11342e-06 0.0240965)
(-0.0229085 0.0113109 0.0226563)
(-4.4017e-06 0.135231 4.38848e-06)
(-1.90547e-06 -0.0169401 0.0338802)
(-5.09389e-06 -2.40986e-06 0.265869)
(-2.42875e-06 -2.05097e-09 0.284347)
(-5.1543e-06 2.44877e-06 0.265816)
(-1.98076e-06 0.017203 0.0344059)
(-1.13413e-06 -0.164165 -1.62755e-07)
(2.99193e-06 -0.000922491 2.12628e-05)
(0 0 0)
(2.39378e-06 0.00105516 2.36977e-05)
(-1.19021e-06 0.164476 -2.33114e-07)
(-6.85407e-07 -0.161877 -4.41228e-07)
(-9.35412e-05 -0.00226656 0.000115055)
(-0.00111717 1.46374e-05 0.000776526)
(-0.000100642 0.00235549 0.000116952)
(-7.49692e-07 0.162051 -5.71286e-07)
(-3.04573e-07 -0.158887 -4.85099e-07)
(-0.000136284 -0.00272857 0.000471536)
(-0.00167259 1.09537e-05 0.00360143)
(-0.000143108 0.00277664 0.000475565)
(-3.81612e-07 0.158944 -5.96616e-07)
(3.27646e-08 -0.146613 4.81712e-06)
(0.000188638 -0.011639 0.0233948)
(-0.000266284 -1.02142e-06 0.0122024)
(0.000171721 0.0115746 0.0232456)
(-3.6865e-08 0.146607 4.78496e-06)
(-5.24605e-08 -0.0170502 0.0341003)
(-1.03943e-07 -2.90229e-06 0.288032)
(-7.96275e-07 -2.11134e-08 0.304672)
(-1.59137e-07 2.90269e-06 0.287851)
(-8.02376e-08 0.0171806 0.034361)
(3.73829e-06 -0.151173 -9.40969e-08)
(0.0241153 -0.0121401 3.71709e-05)
(0.00816255 1.97084e-06 2.38517e-05)
(0.0239385 0.012084 2.5382e-05)
(1.93899e-06 0.151444 -1.63687e-07)
(3.81793e-06 -0.150698 -2.44465e-07)
(0.0206469 -0.0104845 0.000107674)
(0.00797389 -1.66749e-09 7.92947e-05)
(0.0204383 0.0103955 8.93025e-05)
(2.401e-06 0.150851 -3.78061e-07)
(3.97148e-06 -0.149712 -1.87425e-07)
(0.0172388 -0.00879648 0.00179846)
(0.0065882 -1.19243e-06 0.000529137)
(0.0170218 0.00869177 0.00176717)
(2.92159e-06 0.149745 -2.86664e-07)
(3.64252e-06 -0.134004 4.17101e-06)
(0.0304537 -0.0155068 0.031132)
(0.022459 -6.83305e-06 0.0229262)
(0.0303845 0.0154705 0.0310607)
(3.03884e-06 0.133971 4.0437e-06)
(2.57744e-06 -0.0159433 0.0318865)
(3.14077e-06 -2.52263e-06 0.262723)
(2.93872e-06 -2.95971e-08 0.286796)
(3.08441e-06 2.45538e-06 0.262558)
(2.47699e-06 0.0156946 0.0313892)
(0 0 0)
(0.293862 -2.95375e-06 -6.45919e-08)
(0.308864 8.42793e-09 -8.37477e-09)
(0.293801 2.15424e-06 -8.525e-08)
(0.0217787 0.0108894 1.84689e-08)
(0.0311214 -0.0155608 -1.44251e-08)
(0.293063 -2.92148e-06 -6.34892e-08)
(0.307944 -2.43038e-09 1.2158e-07)
(0.293037 2.27684e-06 -1.08173e-07)
(0.0237076 0.0118538 3.77223e-08)
(0.0306549 -0.0153275 -1.84962e-08)
(0.291916 -2.80892e-06 2.30865e-07)
(0.306425 -1.50038e-08 5.8863e-07)
(0.291863 2.31457e-06 1.87303e-07)
(0.0250992 0.0125496 3.78109e-08)
(0.0287603 -0.0143802 2.41577e-06)
(0.262124 -2.28227e-06 3.42958e-06)
(0.286083 -2.35868e-08 3.57694e-06)
(0.26203 1.98162e-06 3.36342e-06)
(0.0251707 0.0125854 2.15151e-06)
(0.150635 -0.075318 0.150635)
(0.0208024 -9.43792e-07 0.0208025)
(0.0186142 -3.21838e-09 0.0186142)
(0.0204964 9.10394e-07 0.0204964)
(0.147996 0.0739987 0.147997)
(-0.000535207 -0.000297337 9.4193e-11)
(-0.0290156 -2.11248e-08 2.08542e-09)
(-0.0258974 -4.30408e-10 1.30284e-08)
(-0.0290244 2.13981e-08 2.75805e-09)
(-0.000628432 0.000349129 5.73999e-11)
(0 0 0)
(-0.0294497 -1.60894e-08 4.23018e-09)
(-0.02862 -1.0752e-10 -4.13874e-08)
(-0.0294892 1.49953e-08 4.03011e-09)
(-0.000680329 0.000377961 1.38825e-10)
(-0.000617168 -0.000342871 1.26545e-10)
(-0.0295127 -4.75553e-08 8.57545e-10)
(-0.0227909 -4.6712e-10 1.11435e-08)
(-0.0295051 4.88014e-08 1.06325e-09)
(-0.000896227 0.000497904 1.90475e-10)
(-0.0010341 -0.000574503 1.0598e-08)
(-0.0290582 -1.12923e-08 1.7787e-08)
(-0.0286503 3.4548e-12 8.00981e-08)
(-0.0290787 1.03211e-08 1.82178e-08)
(-0.000936008 0.000520005 9.51276e-09)
(-0.0169369 -0.00940937 0.0169369)
(-0.00113765 -6.5435e-09 0.00113765)
(-0.000604923 -7.56522e-12 0.000604923)
(-0.00110476 6.34908e-09 0.00110476)
(-0.0170249 0.00945827 0.0170249)
(-1.16186e-08 -0.0161329 4.34371e-10)
(-0.000616206 -0.000318904 -6.34381e-06)
(-0.0054154 -5.69823e-06 -0.000323053)
(-0.000609038 0.000314161 -6.09751e-06)
(-1.36003e-08 0.0161164 1.76199e-09)
(-1.63333e-08 -0.0163206 2.38936e-09)
(-0.000776484 -0.000421079 -6.34241e-06)
(-0.00361647 -3.17468e-06 7.4015e-05)
(-0.000770269 0.000417084 -6.168e-06)
(-1.53272e-08 0.0163424 1.34843e-09)
(-3.33154e-08 -0.0163504 1.68076e-09)
(-0.0001645 -8.34161e-05 2.44794e-06)
(-0.00542663 -5.8465e-06 0.000153718)
(-0.00012741 6.43498e-05 2.03113e-06)
(-3.60596e-08 0.016298 1.80112e-09)
(-2.02101e-08 -0.016129 1.95142e-08)
(-0.00054667 -0.000295474 0.000543102)
(-0.000793582 -3.02252e-07 0.000730304)
(-0.00053103 0.000286929 0.000528366)
(-1.61039e-08 0.0161378 1.99208e-08)
(-1.15105e-08 -0.000643143 0.00115766)
(-1.88577e-08 -1.07465e-08 0.0290282)
(-1.71911e-08 -4.91827e-11 0.0288249)
(-1.74894e-08 9.5494e-09 0.0290432)
(-1.0556e-08 0.000575978 0.00103676)
(-1.01949e-09 -0.0163813 5.92724e-10)
(-1.41655e-05 -0.00186863 -4.76209e-05)
(-6.82486e-05 -2.39444e-06 -5.6411e-06)
(-1.41523e-05 0.00183966 -4.62588e-05)
(-5.83062e-10 0.0163612 1.15193e-09)
(1.69658e-10 -0.0166639 -1.76388e-08)
(-1.04209e-05 -0.00164866 1.84588e-05)
(0 0 0)
(-1.03393e-05 0.00162381 2.12763e-05)
(-7.27813e-10 0.0166576 -1.668e-08)
(-2.14753e-09 -0.0157182 1.83625e-09)
(-1.05021e-05 -0.00162228 6.28104e-05)
(-8.84485e-05 -1.94262e-06 0.000717838)
(-9.16517e-06 0.00161247 6.62401e-05)
(-6.70345e-10 0.0157088 5.06645e-09)
(1.02852e-10 -0.0163525 4.23124e-08)
(-4.56345e-08 -9.01822e-06 1.63221e-05)
(-1.94429e-05 -2.29628e-07 0.0029046)
(-4.67044e-08 7.91117e-06 1.42809e-05)
(-7.19051e-10 0.0164312 3.58049e-08)
(-1.86301e-11 -0.000718414 0.00129315)
(1.25031e-10 -1.65604e-08 0.0296124)
(-2.61778e-09 4.02256e-10 0.0290361)
(-1.10911e-10 1.25112e-08 0.0296591)
(1.87535e-11 0.000409741 0.000737534)
(1.83549e-08 -0.0161774 1.60707e-09)
(0.00047786 -0.00025496 -4.56848e-06)
(0.00458988 -5.02707e-06 -0.000222753)
(0.000469021 0.000249557 -4.33267e-06)
(2.08072e-08 0.0161757 1.63816e-09)
(1.98684e-08 -0.0163903 1.18025e-09)
(0.000660757 -0.000364596 -4.83381e-06)
(0.00315785 -2.82848e-06 0.00010255)
(0.00065389 0.000360027 -4.34846e-06)
(2.22117e-08 0.0163844 1.2366e-09)
(3.94832e-08 -0.0163415 1.61625e-09)
(6.17233e-05 -3.17372e-05 9.89266e-07)
(0.00498045 -4.04596e-06 0.000185857)
(7.23875e-05 3.71742e-05 1.20332e-06)
(4.17026e-08 0.0163304 1.80358e-09)
(2.06638e-08 -0.0161783 2.13646e-08)
(0.000463881 -0.000252755 0.000462936)
(0.000579799 -3.79231e-07 0.000542983)
(0.000433994 0.000236268 0.000433834)
(1.96739e-08 0.0161688 2.13891e-08)
(1.23274e-08 -0.000625634 0.00112614)
(1.6738e-08 -1.20052e-08 0.0291181)
(2.7689e-08 -1.77057e-10 0.0288862)
(1.6341e-08 1.145e-08 0.0291339)
(1.25443e-08 0.000619555 0.0011152)
(0.0010153 -0.000564056 6.41807e-11)
(0.0290631 -2.85284e-08 2.81313e-09)
(0.0263397 -3.2654e-10 1.54945e-08)
(0.0290863 2.90703e-08 2.73957e-09)
(0.00110737 0.000615208 8.59726e-11)
(0.000972984 -0.000540546 1.2056e-10)
(0.0295166 -2.03637e-08 4.67296e-09)
(0.0288403 -3.993e-10 -3.91703e-08)
(0.029526 2.11338e-08 4.52053e-09)
(0.00111404 0.000618911 1.64641e-10)
(0.00110136 -0.000611867 1.11289e-10)
(0.0295586 -5.33527e-08 1.47074e-09)
(0.0230031 -3.518e-10 1.18144e-08)
(0.029553 5.42621e-08 1.65423e-09)
(0.00125698 0.000698321 1.28243e-10)
(0.00105099 -0.000583886 1.16048e-08)
(0.0291276 -1.34194e-08 1.67851e-08)
(0.0286671 -2.9787e-10 9.44898e-08)
(0.0291304 1.41899e-08 1.7909e-08)
(0.00118285 0.000657138 1.3059e-08)
(0.0186628 -0.0103682 0.0186628)
(0.00100397 -6.1324e-09 0.00100397)
(0 0 0)
(0.00104502 6.41482e-09 0.00104502)
(0.0187365 0.0104092 0.0187365)
(-0.00507585 -0.00253792 7.14108e-09)
(0 0 0)
(-0.31268 2.39043e-08 -3.19596e-07)
(0 0 0)
(-0.00513214 0.00256606 7.44366e-09)
(-0.0104539 -0.00522693 5.62924e-08)
(-0.29792 -1.49151e-06 -2.67144e-06)
(-0.308943 2.19609e-08 -5.8675e-07)
(-0.29791 1.58885e-06 -2.68292e-06)
(-0.0113193 0.00565966 6.08386e-08)
(-0.0226782 -0.0113391 1.55149e-07)
(-0.290044 -2.15607e-06 -1.48273e-06)
(-0.304712 1.7376e-08 8.24518e-08)
(-0.290088 2.24344e-06 -1.49494e-06)
(-0.0235006 0.0117503 1.56984e-07)
(-0.0306756 -0.0153379 1.85432e-06)
(-0.266386 -2.20866e-06 4.42592e-06)
(-0.284204 1.43318e-08 2.12104e-06)
(-0.266529 2.27548e-06 4.42253e-06)
(-0.0313383 0.0156692 1.91769e-06)
(-0.0974292 -0.0487146 0.0974293)
(-0.0317801 -1.07821e-06 0.0317801)
(-0.0106827 4.93958e-10 0.0106827)
(-0.0319609 1.10583e-06 0.0319609)
(-0.0989611 0.0494806 0.0989613)
(-1.69012e-06 -0.15437 -5.0893e-07)
(-0.0237366 -0.0112133 0.000545758)
(-0.0138854 6.65391e-06 8.4645e-05)
(-0.0237842 0.0112702 0.000542454)
(-1.72034e-06 0.154702 -5.71002e-07)
(-2.19979e-06 -0.149106 -9.86169e-07)
(-0.0277329 -0.0134398 0.000872163)
(-0.014762 5.70256e-06 0.000216942)
(-0.0278051 0.0134996 0.000860308)
(-2.30493e-06 0.149303 -1.09614e-06)
(-3.58025e-06 -0.14648 -8.3634e-07)
(-0.0256607 -0.0126038 0.00186978)
(-0.0139278 3.26683e-06 0.00110433)
(-0.025714 0.0126408 0.00185503)
(-3.72228e-06 0.146585 -9.21911e-07)
(-4.25603e-06 -0.135169 4.36396e-06)
(-0.0228271 -0.0112734 0.022607)
(-0.0242265 1.11342e-06 0.0240965)
(-0.0229085 0.0113109 0.0226563)
(-4.4017e-06 0.135231 4.38848e-06)
(-1.90547e-06 -0.0169401 0.0338802)
(-5.09389e-06 -2.40986e-06 0.265869)
(-2.42875e-06 -2.05097e-09 0.284347)
(-5.1543e-06 2.44877e-06 0.265816)
(-1.98076e-06 0.017203 0.0344059)
(-1.13413e-06 -0.164165 -1.62755e-07)
(2.99193e-06 -0.000922491 2.12628e-05)
(0 0 0)
(2.39378e-06 0.00105516 2.36977e-05)
(-1.19021e-06 0.164476 -2.33114e-07)
(-6.85407e-07 -0.161877 -4.41228e-07)
(-9.35412e-05 -0.00226656 0.000115055)
(-0.00111717 1.46374e-05 0.000776526)
(-0.000100642 0.00235549 0.000116952)
(-7.49692e-07 0.162051 -5.71286e-07)
(-3.04573e-07 -0.158887 -4.85099e-07)
(-0.000136284 -0.00272857 0.000471536)
(-0.00167259 1.09537e-05 0.00360143)
(-0.000143108 0.00277664 0.000475565)
(-3.81612e-07 0.158944 -5.96616e-07)
(3.27646e-08 -0.146613 4.81712e-06)
(0.000188638 -0.011639 0.0233948)
(-0.000266284 -1.02142e-06 0.0122024)
(0.000171721 0.0115746 0.0232456)
(-3.6865e-08 0.146607 4.78496e-06)
(-5.24605e-08 -0.0170502 0.0341003)
(-1.03943e-07 -2.90229e-06 0.288032)
(-7.96275e-07 -2.11134e-08 0.304672)
(-1.59137e-07 2.90269e-06 0.287851)
(-8.02376e-08 0.0171806 0.034361)
(3.73829e-06 -0.151173 -9.40969e-08)
(0.0241153 -0.0121401 3.71709e-05)
(0.00816255 1.97084e-06 2.38517e-05)
(0.0239385 0.012084 2.5382e-05)
(1.93899e-06 0.151444 -1.63687e-07)
(3.81793e-06 -0.150698 -2.44465e-07)
(0.0206469 -0.0104845 0.000107674)
(0.00797389 -1.66749e-09 7.92947e-05)
(0.0204383 0.0103955 8.93025e-05)
(2.401e-06 0.150851 -3.78061e-07)
(3.97148e-06 -0.149712 -1.87425e-07)
(0.0172388 -0.00879648 0.00179846)
(0.0065882 -1.19243e-06 0.000529137)
(0.0170218 0.00869177 0.00176717)
(2.92159e-06 0.149745 -2.86664e-07)
(3.64252e-06 -0.134004 4.17101e-06)
(0.0304537 -0.0155068 0.031132)
(0.022459 -6.83305e-06 0.0229262)
(0.0303845 0.0154705 0.0310607)
(3.03884e-06 0.133971 4.0437e-06)
(2.57744e-06 -0.0159433 0.0318865)
(3.14077e-06 -2.52263e-06 0.262723)
(2.93872e-06 -2.95971e-08 0.286796)
(3.08441e-06 2.45538e-06 0.262558)
(2.47699e-06 0.0156946 0.0313892)
(0 0 0)
(0.293862 -2.95375e-06 -6.45919e-08)
(0.308864 8.42793e-09 -8.37477e-09)
(0.293801 2.15424e-06 -8.525e-08)
(0.0217787 0.0108894 1.84689e-08)
(0.0311214 -0.0155608 -1.44251e-08)
(0.293063 -2.92148e-06 -6.34892e-08)
(0.307944 -2.43038e-09 1.2158e-07)
(0.293037 2.27684e-06 -1.08173e-07)
(0.0237076 0.0118538 3.77223e-08)
(0.0306549 -0.0153275 -1.84962e-08)
(0.291916 -2.80892e-06 2.30865e-07)
(0.306425 -1.50038e-08 5.8863e-07)
(0.291863 2.31457e-06 1.87303e-07)
(0.0250992 0.0125496 3.78109e-08)
(0.0287603 -0.0143802 2.41577e-06)
(0.262124 -2.28227e-06 3.42958e-06)
(0.286083 -2.35868e-08 3.57694e-06)
(0.26203 1.98162e-06 3.36342e-06)
(0.0251707 0.0125854 2.15151e-06)
(0.150635 -0.075318 0.150635)
(0.0208024 -9.43792e-07 0.0208025)
(0.0186142 -3.21838e-09 0.0186142)
(0.0204964 9.10394e-07 0.0204964)
(0.147996 0.0739987 0.147997)
(0 0 0)
(-0.0265375 -2.64834e-08 4.34771e-09)
(-0.0240887 -4.48309e-10 2.36869e-08)
(-0.0269144 2.22821e-08 5.43679e-09)
(-0.000803316 0.000472539 1.97654e-11)
(-0.000943579 -0.000555046 6.29727e-11)
(-0.0268744 -1.11036e-08 6.72568e-09)
(-0.0276039 1.06076e-10 5.70648e-08)
(-0.0273715 7.22439e-09 9.22181e-09)
(-0.000503387 0.00029611 1.3057e-10)
(-0.0011235 -0.000660885 1.2185e-10)
(-0.0269777 4.82428e-09 2.33978e-09)
(0 0 0)
(-0.0275378 -6.48726e-09 1.94436e-09)
(-0.00100674 0.000592201 3.68082e-10)
(-0.00109405 -0.000643559 1.03064e-08)
(-0.0265459 -5.78302e-09 1.53076e-08)
(-0.0273799 -1.54464e-10 -9.72143e-09)
(-0.0268651 5.90733e-09 1.489e-08)
(-0.00107232 0.000630777 1.05595e-08)
(-0.0159358 -0.00937399 0.0159358)
(-0.00110326 -6.14675e-09 0.00110326)
(-0.00137234 2.63311e-11 0.00137234)
(-0.0011199 6.45712e-09 0.0011199)
(-0.0164382 0.00966954 0.0164382)
(-1.23572e-09 -0.0159748 -3.40602e-09)
(-0.00122489 -0.000683612 -2.33536e-06)
(-0.00464594 -4.09109e-05 -0.000298707)
(-0.00122435 0.000674221 -4.72878e-06)
(7.45669e-09 0.0162289 -2.50415e-09)
(-1.13761e-08 -0.0158851 -6.24746e-09)
(-0.000965238 -0.000575328 -3.6371e-07)
(-0.00231717 -2.21389e-05 -0.000231096)
(-0.000708499 0.000416219 -1.19729e-06)
(-5.51444e-09 0.0162068 -7.15721e-09)
(-1.68097e-08 -0.0157544 -1.54312e-09)
(-0.00203714 -0.00126867 3.55064e-05)
(-0.00116669 -1.01034e-05 3.56902e-05)
(-0.00160273 0.000993928 3.66577e-05)
(-3.48049e-08 0.0160022 -2.09281e-09)
(-1.8424e-08 -0.0155479 1.75777e-08)
(-0.00048222 -0.000284393 0.000482316)
(-0.0020017 -1.45438e-05 0.0021071)
(-0.000562482 0.000327655 0.000565574)
(-1.57814e-08 0.0157616 2.05581e-08)
(-9.99707e-09 -0.000622258 0.00105784)
(-1.87839e-08 -1.34135e-08 0.0264175)
(-2.61813e-08 3.55051e-10 0.0264956)
(-1.50455e-08 1.4782e-08 0.0267917)
(-1.12951e-08 0.000673994 0.00114579)
(0 0 0)
(-8.66275e-06 -0.00153209 3.55587e-05)
(0 0 0)
(-6.30299e-07 0.00127951 2.80671e-05)
(0 0 0)
(-1.71067e-10 -0.0163797 -1.43515e-08)
(6.12789e-06 -0.00150216 7.20391e-05)
(0.000126949 -6.65842e-05 0.000124116)
(1.28337e-05 0.00123591 9.0609e-05)
(-7.05413e-10 0.0166137 -3.64427e-08)
(1.50874e-10 -0.0159981 -4.55091e-09)
(1.34881e-05 -0.00174472 9.02518e-05)
(9.81373e-06 5.09964e-08 1.41945e-05)
(2.79441e-05 0.00175749 0.000102634)
(7.75913e-10 0.0152412 -6.0147e-10)
(-1.14614e-09 -0.015674 1.59235e-08)
(-2.54794e-07 -0.000283579 0.000490894)
(6.80196e-05 -2.62518e-05 0.00348082)
(2.01636e-07 5.27922e-05 9.17033e-05)
(7.69755e-10 0.0160071 3.45264e-08)
(-4.49017e-11 -0.000650079 0.00110513)
(-1.67358e-10 -1.58004e-08 0.0266171)
(2.32682e-09 2.78282e-09 0.0259814)
(6.53178e-10 1.49697e-08 0.0273029)
(1.38342e-11 0.000445297 0.000757004)
(-6.76175e-09 -0.0159694 -1.7343e-09)
(0.00111418 -0.000658867 4.95884e-06)
(0.00266751 -1.64472e-05 5.33692e-05)
(0.00121523 0.000710047 3.65917e-06)
(6.15193e-09 0.0162213 -2.82966e-09)
(1.11169e-09 -0.0158363 -4.25687e-09)
(0.000814734 -0.00047679 6.83739e-06)
(0.00282459 -2.05786e-05 0.000132178)
(0.00089382 0.000514875 7.38703e-06)
(1.86168e-08 0.0160729 -5.92107e-09)
(6.38519e-09 -0.0156795 -2.51857e-09)
(0.000494503 -0.000285012 7.11146e-06)
(0.00358303 -2.39305e-05 0.000126506)
(0.000146208 8.37027e-05 2.69133e-06)
(4.19569e-08 0.0158731 -6.38649e-10)
(1.20635e-08 -0.0155134 1.6321e-08)
(0.00028581 -0.000165618 0.000286231)
(0.000368077 -2.14182e-06 0.000366964)
(0.000402684 0.000230692 0.000402753)
(1.90719e-08 0.0157542 2.0236e-08)
(1.32807e-08 -0.00061607 0.00104732)
(1.34173e-08 -1.13921e-08 0.0264213)
(1.89142e-08 8.127e-10 0.0260718)
(1.15342e-08 1.36485e-08 0.0267718)
(1.59057e-08 0.000668378 0.00113624)
(0 0 0)
(0.026936 7.5112e-09 -4.09358e-10)
(0 0 0)
(0.0272743 3.97371e-10 -2.20619e-10)
(0.0012871 0.00075712 1.59968e-11)
(0.000310226 -0.000182486 -8.30841e-12)
(0.0267922 -2.81675e-09 -2.00593e-09)
(0.0273392 1.50075e-10 -3.21034e-08)
(0.0271815 1.25706e-08 1.10374e-09)
(0.00132208 0.000777694 5.48104e-11)
(0.000528656 -0.000310974 1.31529e-10)
(0.0265844 -1.05311e-08 -4.02736e-10)
(0.0258426 1.78922e-09 -3.8658e-09)
(0.0271175 1.97876e-08 6.27529e-10)
(0 0 0)
(0.00076147 -0.000447923 9.92858e-09)
(0.0263787 -8.95498e-09 1.38511e-08)
(0.0260494 7.29726e-10 1.94797e-08)
(0.0267202 1.48273e-08 1.36937e-08)
(0.00129571 0.000762185 1.77674e-08)
(0.021755 -0.0127971 0.021755)
(0.000812975 -6.19981e-09 0.000812975)
(0.000798656 4.93764e-11 0.000798656)
(0.000910198 7.60558e-09 0.000910198)
(0.0236204 0.0138943 0.0236204)
(-0.00507585 -0.00253792 7.14108e-09)
(0 0 0)
(-0.31268 2.39043e-08 -3.19596e-07)
(0 0 0)
(-0.00513214 0.00256606 7.44366e-09)
(-0.0104539 -0.00522693 5.62924e-08)
(-0.29792 -1.49151e-06 -2.67144e-06)
(-0.308943 2.19609e-08 -5.8675e-07)
(-0.29791 1.58885e-06 -2.68292e-06)
(-0.0113193 0.00565966 6.08386e-08)
(-0.0226782 -0.0113391 1.55149e-07)
(-0.290044 -2.15607e-06 -1.48273e-06)
(-0.304712 1.7376e-08 8.24518e-08)
(-0.290088 2.24344e-06 -1.49494e-06)
(-0.0235006 0.0117503 1.56984e-07)
(-0.0306756 -0.0153379 1.85432e-06)
(-0.266386 -2.20866e-06 4.42592e-06)
(-0.284204 1.43318e-08 2.12104e-06)
(-0.266529 2.27548e-06 4.42253e-06)
(-0.0313383 0.0156692 1.91769e-06)
(-0.0974292 -0.0487146 0.0974293)
(-0.0317801 -1.07821e-06 0.0317801)
(-0.0106827 4.93958e-10 0.0106827)
(-0.0319609 1.10583e-06 0.0319609)
(-0.0989611 0.0494806 0.0989613)
(-1.69012e-06 -0.15437 -5.0893e-07)
(-0.0237366 -0.0112133 0.000545758)
(-0.0138854 6.65391e-06 8.4645e-05)
(-0.0237842 0.0112702 0.000542454)
(-1.72034e-06 0.154702 -5.71002e-07)
(-2.19979e-06 -0.149106 -9.86169e-07)
(-0.0277329 -0.0134398 0.000872163)
(-0.014762 5.70256e-06 0.000216942)
(-0.0278051 0.0134996 0.000860308)
(-2.30493e-06 0.149303 -1.09614e-06)
(-3.58025e-06 -0.14648 -8.3634e-07)
(-0.0256607 -0.0126038 0.00186978)
(-0.0139278 3.26683e-06 0.00110433)
(-0.025714 0.0126408 0.00185503)
(-3.72228e-06 0.146585 -9.21911e-07)
(-4.25603e-06 -0.135169 4.36396e-06)
(-0.0228271 -0.0112734 0.022607)
(-0.0242265 1.11342e-06 0.0240965)
(-0.0229085 0.0113109 0.0226563)
(-4.4017e-06 0.135231 4.38848e-06)
(-1.90547e-06 -0.0169401 0.0338802)
(-5.09389e-06 -2.40986e-06 0.265869)
(-2.42875e-06 -2.05097e-09 0.284347)
(-5.1543e-06 2.44877e-06 0.265816)
(-1.98076e-06 0.017203 0.0344059)
(-1.13413e-06 -0.164165 -1.62755e-07)
(2.99193e-06 -0.000922491 2.12628e-05)
(0 0 0)
(2.39378e-06 0.00105516 2.36977e-05)
(-1.19021e-06 0.164476 -2.33114e-07)
(-6.85407e-07 -0.161877 -4.41228e-07)
(-9.35412e-05 -0.00226656 0.000115055)
(-0.00111717 1.46374e-05 0.000776526)
(-0.000100642 0.00235549 0.000116952)
(-7.49692e-07 0.162051 -5.71286e-07)
(-3.04573e-07 -0.158887 -4.85099e-07)
(-0.000136284 -0.00272857 0.000471536)
(-0.00167259 1.09537e-05 0.00360143)
(-0.000143108 0.00277664 0.000475565)
(-3.81612e-07 0.158944 -5.96616e-07)
(3.27646e-08 -0.146613 4.81712e-06)
(0.000188638 -0.011639 0.0233948)
(-0.000266284 -1.02142e-06 0.0122024)
(0.000171721 0.0115746 0.0232456)
(-3.6865e-08 0.146607 4.78496e-06)
(-5.24605e-08 -0.0170502 0.0341003)
(-1.03943e-07 -2.90229e-06 0.288032)
(-7.96275e-07 -2.11134e-08 0.304672)
(-1.59137e-07 2.90269e-06 0.287851)
(-8.02376e-08 0.0171806 0.034361)
(3.73829e-06 -0.151173 -9.40969e-08)
(0.0241153 -0.0121401 3.71709e-05)
(0.00816255 1.97084e-06 2.38517e-05)
(0.0239385 0.012084 2.5382e-05)
(1.93899e-06 0.151444 -1.63687e-07)
(3.81793e-06 -0.150698 -2.44465e-07)
(0.0206469 -0.0104845 0.000107674)
(0.00797389 -1.66749e-09 7.92947e-05)
(0.0204383 0.0103955 8.93025e-05)
(2.401e-06 0.150851 -3.78061e-07)
(3.97148e-06 -0.149712 -1.87425e-07)
(0.0172388 -0.00879648 0.00179846)
(0.0065882 -1.19243e-06 0.000529137)
(0.0170218 0.00869177 0.00176717)
(2.92159e-06 0.149745 -2.86664e-07)
(3.64252e-06 -0.134004 4.17101e-06)
(0.0304537 -0.0155068 0.031132)
(0.022459 -6.83305e-06 0.0229262)
(0.0303845 0.0154705 0.0310607)
(3.03884e-06 0.133971 4.0437e-06)
(2.57744e-06 -0.0159433 0.0318865)
(3.14077e-06 -2.52263e-06 0.262723)
(2.93872e-06 -2.95971e-08 0.286796)
(3.08441e-06 2.45538e-06 0.262558)
(2.47699e-06 0.0156946 0.0313892)
(0 0 0)
(0.293862 -2.95375e-06 -6.45919e-08)
(0.308864 8.42793e-09 -8.37477e-09)
(0.293801 2.15424e-06 -8.525e-08)
(0.0217787 0.0108894 1.84689e-08)
(0.0311214 -0.0155608 -1.44251e-08)
(0.293063 -2.92148e-06 -6.34892e-08)
(0.307944 -2.43038e-09 1.2158e-07)
(0.293037 2.27684e-06 -1.08173e-07)
(0.0237076 0.0118538 3.77223e-08)
(0.0306549 -0.0153275 -1.84962e-08)
(0.291916 -2.80892e-06 2.30865e-07)
(0.306425 -1.50038e-08 5.8863e-07)
(0.291863 2.31457e-06 1.87303e-07)
(0.0250992 0.0125496 3.78109e-08)
(0.0287603 -0.0143802 2.41577e-06)
(0.262124 -2.28227e-06 3.42958e-06)
(0.286083 -2.35868e-08 3.57694e-06)
(0.26203 1.98162e-06 3.36342e-06)
(0.0251707 0.0125854 2.15151e-06)
(0.150635 -0.075318 0.150635)
(0.0208024 -9.43792e-07 0.0208025)
(0.0186142 -3.21838e-09 0.0186142)
(0.0204964 9.10394e-07 0.0204964)
(0.147996 0.0739987 0.147997)
(-0.0110371 -0.00394185 7.76604e-09)
(-0.116251 -5.16943e-07 -3.17379e-08)
(-0.112319 -2.16184e-07 8.47265e-08)
(-0.109434 5.97925e-08 4.2792e-08)
(-0.109008 3.86863e-08 4.64551e-09)
(-0.0126916 -0.00453273 1.92385e-08)
(-0.115026 -5.09412e-07 7.5795e-09)
(-0.112272 -1.89469e-07 2.43933e-07)
(-0.109978 3.21349e-08 1.89602e-07)
(-0.108559 2.50183e-08 2.87959e-07)
(-0.0134926 -0.00481878 1.82278e-08)
(-0.115366 -4.85941e-07 1.0128e-07)
(-0.113324 -1.51012e-07 3.83334e-07)
(-0.110991 7.9665e-08 3.83959e-07)
(-0.111962 7.68648e-08 5.15274e-07)
(-0.0134918 -0.00481851 6.47472e-07)
(-0.110152 -4.07895e-07 9.24239e-07)
(-0.104144 -7.97369e-08 1.23328e-06)
(-0.10142 7.38091e-08 1.01485e-06)
(-0.10572 6.75145e-08 3.00449e-07)
(-0.0804939 -0.0287478 0.0804939)
(-0.0132832 -2.27436e-07 0.0132832)
(-0.0181855 -1.37405e-08 0.0181855)
(-0.0142514 -3.55819e-08 0.0142514)
(-0.00911053 -1.70577e-08 0.00911049)
(-4.77881e-07 -0.0427793 -4.27304e-08)
(-0.00575878 -0.00217596 3.78704e-05)
(0 0 0)
(-0.00378557 7.33013e-05 4.92971e-06)
(-0.00211492 1.48454e-05 1.00887e-05)
(-6.29512e-07 -0.0422952 -5.77988e-08)
(-0.00531757 -0.00197854 4.57233e-05)
(-0.00133604 -1.25051e-05 3.17632e-05)
(-0.00259271 4.26027e-05 3.20521e-05)
(-0.00248685 2.0069e-05 3.44249e-05)
(-7.29907e-07 -0.0421313 -1.48198e-08)
(-0.00435122 -0.00158766 0.000231433)
(-0.00133792 -8.28369e-06 0.000163471)
(-0.00247827 3.81919e-05 0.000323795)
(-0.00228731 1.62584e-05 0.000213003)
(-6.54581e-07 -0.0399402 7.9646e-07)
(-0.00605659 -0.00206221 0.00613081)
(-0.0103949 0.00019667 0.0125085)
(-0.0119278 7.74602e-05 0.0131643)
(-0.0088025 -4.03007e-05 0.0096296)
(-6.5331e-07 -0.00475678 0.013319)
(-8.32335e-07 -4.49478e-07 0.110564)
(-1.94464e-06 -1.07534e-07 0.102671)
(-9.62614e-07 -5.84103e-08 0.100522)
(-7.73317e-07 -7.71726e-08 0.098044)
(0 0 0)
(9.2459e-05 -0.00117834 -1.16566e-05)
(6.52154e-05 1.11948e-06 3.3521e-06)
(0.00430266 0.000337184 -0.000115636)
(0.00291344 0.000117877 -0.000267609)
(-4.95108e-09 -0.0438197 -8.3683e-08)
(3.82145e-05 -0.000636069 -9.93545e-06)
(0.0010723 1.09667e-05 0.000141179)
(0.0023472 0.000144052 0.000175742)
(0.00143534 4.35688e-05 -0.000182178)
(-1.16877e-08 -0.0438726 9.99065e-08)
(7.12983e-08 -1.49839e-06 1.77512e-07)
(0.000978081 8.13187e-05 0.0015297)
(0.00334951 0.000108807 0.00163502)
(0.000199074 -3.53651e-06 0.000219247)
(-2.37562e-08 -0.0424519 6.09344e-07)
(0.000138317 -0.0016572 0.00544363)
(0.00290461 0.00063697 0.0209313)
(0.00310634 2.54798e-05 0.0107319)
(0.0044241 0.000492908 0.0192078)
(7.1604e-10 -0.00365598 0.0102367)
(3.66925e-09 -7.37622e-07 0.115825)
(1.11335e-07 -1.19469e-07 0.0803443)
(-7.30824e-07 1.45305e-07 0.100142)
(-5.83786e-08 -1.09788e-07 0.0865076)
(4.16043e-07 -0.0414753 -3.90173e-08)
(0.00627347 -0.00194291 -4.88876e-06)
(0.0207884 0.00158369 3.89231e-05)
(0.0224803 0.00096058 -0.00268388)