/*--------------------------------*- C++ -*----------------------------------*\
  =========                 |
  \\      /  F ield         | OpenFOAM: The Open Source CFD Toolbox
   \\    /   O peration     | Website:  https://openfoam.org
    \\  /    A nd           | Version:  6
     \\/     M anipulation  |
\*---------------------------------------------------------------------------*/
FoamFile
{
    version     2.0;
    format      ascii;
    class       volScalarField;
    location    "4";
    object      O2;
}
// * * * * * * * * * * * * * * * * * * * * * * * * * * * * * * * * * * * * * //

dimensions      [0 0 0 0 0 0 0];

internalField   nonuniform List<scalar> 
297
(
0
0
0
0
0
0
0
0
0
0
0
0
0
0
0
0
0
0
0
0
0
0
0
0
0
0
0
0.146428
0.199566
0.124488
0.208684
0.222479
0.198496
0.14795
0.200282
0.12522
0
0.0705265
0
0.0471433
0.155738
0.0313049
0
0.0714441
0
0
0.0675409
0
0.0289842
0.0557156
0.0263294
0
0.0683713
0
0.0132896
0.034676
0.0126786
0
0.00844839
0
0.0133255
0.0348529
0.0129262
5.48206e-06
1.77168e-06
4.26631e-06
1.06463e-05
1.77659e-06
8.00404e-06
5.28935e-06
1.71271e-06
4.3233e-06
1.55373e-07
2.83066e-08
2.3716e-08
9.8078e-07
2.47781e-07
1.06965e-07
4.51975e-08
1.68081e-08
4.43796e-08
0
0.064157
0
0.00290654
0.00844985
0
0
0.0648287
0
0
0.0637585
0
0
0.00844824
0
0
0.0643354
0
0
0.0622159
0
0
0.00844796
0
0
0.0626332
0
6.64703e-12
8.21761e-12
4.39175e-12
3.35461e-11
2.79004e-11
2.87915e-11
2.38404e-12
6.69047e-12
6.09485e-12
2.60492e-13
2.05737e-12
2.02435e-12
9.24253e-14
8.01502e-13
1.53952e-12
1.7888e-13
2.41609e-12
2.78198e-12
8.55999e-13
1.91218e-12
1.90577e-12
3.82667e-13
1.39421e-12
2.0089e-12
1.93934e-12
2.51709e-12
2.70531e-12
1.06076e-12
1.78257e-13
1.57819e-13
2.87245e-11
1.76766e-11
8.04596e-14
1.88959e-12
8.34906e-13
1.14364e-13
1.57518e-12
6.03164e-13
4.29303e-13
1.38942e-11
1.58016e-11
4.31886e-12
2.7517e-12
2.03827e-12
4.05592e-13
1.95563e-12
3.24716e-12
8.14814e-13
3.37312e-12
1.03966e-11
9.12644e-12
3.00483e-12
4.54223e-12
4.30924e-12
1.91913e-22
6.76566e-20
1.51764e-16
9.72013e-20
5.55133e-17
9.65917e-16
6.46286e-19
9.97463e-16
8.98481e-15
1.15032e-21
1.49776e-18
1.04957e-17
2.01758e-19
2.19316e-15
4.71991e-15
2.9087e-18
2.24893e-14
1.55323e-13
4.90586e-21
5.99207e-18
9.23351e-17
7.08929e-20
6.8456e-17
3.62347e-14
8.69447e-18
1.28637e-13
2.01323e-12
3.26622e-30
8.40522e-30
7.30355e-26
3.62643e-26
3.54238e-26
3.56399e-23
7.75253e-26
7.10777e-26
3.09823e-22
4.94582e-30
6.58022e-30
1.11622e-25
3.02512e-26
1.67598e-26
6.90957e-23
2.15858e-26
2.4684e-26
3.20945e-22
2.21513e-30
2.27973e-30
1.16838e-25
1.80071e-26
4.72162e-27
4.14836e-23
6.33159e-27
5.27255e-27
2.20534e-22
3.00868e-31
8.11674e-32
5.07226e-31
7.8849e-27
3.35666e-28
1.70143e-27
3.21391e-28
1.12684e-28
2.05408e-27
5.48927e-32
1.53056e-32
1.13249e-32
4.23269e-27
8.04545e-28
8.79619e-28
4.30796e-32
1.5673e-32
1.2316e-32
7.05872e-33
1.6277e-33
1.3312e-33
2.00388e-27
4.51834e-28
3.83485e-28
1.28024e-32
2.98239e-33
2.39105e-33
8.58045e-17
2.82748e-17
2.88597e-17
3.81834e-14
4.11178e-14
4.87531e-14
1.14119e-13
1.11095e-13
1.01833e-13
8.87219e-17
2.78638e-17
2.89371e-17
3.85679e-14
4.25503e-14
4.82002e-14
1.31861e-13
1.25678e-13
9.99134e-14
8.16227e-17
2.76799e-17
3.53145e-17
5.45366e-12
2.22637e-12
3.60904e-13
3.69164e-12
1.49864e-13
9.90234e-14
4.72512e-17
1.55417e-17
1.31423e-17
2.48125e-12
1.2808e-12
4.5136e-13
2.16879e-12
3.18083e-13
9.71415e-14
1.46233e-17
8.30022e-18
3.12247e-18
1.64169e-12
7.30978e-13
3.68251e-13
1.63473e-12
3.70375e-13
7.33332e-14
7.25255e-18
2.4934e-18
1.14086e-18
1.24348e-12
4.25718e-13
1.9278e-13
1.50807e-12
3.68117e-13
6.83151e-14
)
;

boundaryField
{
    fuel
    {
        type            fixedValue;
        value           uniform 0;
    }
    primary_air
    {
        type            fixedValue;
        value           uniform 0.23;
    }
    Secondary_air_RHS
    {
        type            fixedValue;
        value           uniform 0.23;
    }
    Secondary_air_LHS
    {
        type            fixedValue;
        value           uniform 0.23;
    }
    outlet
    {
        type            inletOutlet;
        inletValue      uniform 0;
        value           nonuniform List<scalar> 
18
(
0
1.24348e-12
0
0
4.25718e-13
0
0
1.9278e-13
0
0
2.00388e-27
0
0
4.51834e-28
0
0
3.83485e-28
0
)
;
    }
    stove_body
    {
        type            fixedValue;
        value           uniform 0;
    }
    frontAndBack
    {
        type            empty;
    }
}


// ************************************************************************* //
