/*--------------------------------*- C++ -*----------------------------------*\
  =========                 |
  \\      /  F ield         | OpenFOAM: The Open Source CFD Toolbox
   \\    /   O peration     | Website:  https://openfoam.org
    \\  /    A nd           | Version:  6
     \\/     M anipulation  |
\*---------------------------------------------------------------------------*/
FoamFile
{
    version     2.0;
    format      ascii;
    class       volScalarField;
    location    "4";
    object      p;
}
// * * * * * * * * * * * * * * * * * * * * * * * * * * * * * * * * * * * * * //

dimensions      [1 -1 -2 0 0 0 0];

internalField   nonuniform List<scalar> 
297
(
112170
112170
112170
186916
186916
186916
112170
112170
112170
112169
112169
112169
186915
186915
186915
112169
112169
112169
112169
112169
112169
186915
186915
186915
112169
112169
112169
98010
97880.9
97409.8
162727
162650
162794
97619.3
97487.4
98256.8
97983.5
97072.5
98339
162205
161789
162277
98273.3
96956.9
98165.7
95143.3
94033.5
97238.3
154332
157479
154292
97135.4
93642.7
94972.4
94379.2
94578
90861.9
158110
155843
158318
91028.9
94975.8
94617
96218.1
97199.2
98624.8
162770
160957
162798
98703.8
97001.6
96270.1
97620.8
97714.9
97669.2
162601
162690
162775
97561.6
97696.7
97683.3
74989.8
90530.6
76281.2
122301
151785
120989
76387.4
90571.2
74863.7
74138.6
90696.9
75366.1
119017
151881
117519
75563.9
90789.9
73903.2
76004.9
91206.1
77054.1
121072
152991
119704
77275.9
91336.1
75736.1
97725.5
97751.8
97685.9
162739
162732
162721
97735.2
97743.7
97661.8
97762
97747.1
97672.6
162811
162751
162714
97763.3
97746.6
97670.2
97798.2
97756.4
97662.6
162855
162765
162720
97752.9
97756.3
97702.3
97730.3
97837.3
98153.3
162792
162808
162725
97665.9
97612.4
97532.6
97653.9
97681.6
97873.2
162747
162727
162567
97617.8
97525.2
97359.9
97637.6
97633.2
97600.5
162717
162671
162451
97621.6
97507.4
97286.4
98154.3
97945.3
97846.4
163068
162941
162859
98145.2
97946.3
97834.3
97930.9
97827.8
97798.4
162930
162870
162844
97959.6
97834
97778.3
97646.2
97706.4
97770.2
162837
162852
162877
97732.1
97747.4
97762.2
98351.8
98375.9
98334.5
163318
163322
163238
98326
98355.8
98311.7
98313.3
98307.1
98153.7
163170
163171
163078
98283.9
98295.4
98170.5
98254.4
98259.1
98027.5
162942
162980
162894
98221.1
98248.1
98065.1
97493.5
97462.8
97427.2
161873
161891
161819
97505.8
97473.3
97439.6
93345.2
93310.9
93322
154792
154787
154782
93355.5
93320.6
93326.5
86501.9
86495.8
86496.7
139741
139731
139716
86526.9
86521.7
86524.4
98466
98516.7
98380.2
162616
162558
162533
97773.3
98378.6
98831.1
98177.5
98252.9
98148.8
162304
162163
162178
97349.3
97698.8
98304.3
97832.5
97947.1
97881.4
161873
161706
161687
96995.3
97225.5
97736.8
96386.3
96401.2
96437.2
158721
158844
158854
94903.1
94978.7
95024.1
91411
91430.2
91473.3
151219
151272
151297
90807.4
90912.2
90949.4
84999.6
85004.2
85010.8
138608
138667
138704
87140.9
86981.1
86850.2
)
;

boundaryField
{
    fuel
    {
        type            zeroGradient;
    }
    primary_air
    {
        type            zeroGradient;
    }
    Secondary_air_RHS
    {
        type            zeroGradient;
    }
    Secondary_air_LHS
    {
        type            zeroGradient;
    }
    outlet
    {
        type            totalPressure;
        rho             rho;
        psi             none;
        gamma           1;
        p0              uniform 100000;
        value           nonuniform List<scalar> 
18
(
88223.6
100000
99971.1
88232.7
100000
93097.6
88261.7
100000
89420
89942.2
100000
89959.9
89918.5
100000
89936.2
89928.8
100000
89945.3
)
;
    }
    stove_body
    {
        type            zeroGradient;
    }
    frontAndBack
    {
        type            empty;
    }
}


// ************************************************************************* //
