/*--------------------------------*- C++ -*----------------------------------*\
  =========                 |
  \\      /  F ield         | OpenFOAM: The Open Source CFD Toolbox
   \\    /   O peration     | Website:  https://openfoam.org
    \\  /    A nd           | Version:  6
     \\/     M anipulation  |
\*---------------------------------------------------------------------------*/
FoamFile
{
    version     2.0;
    format      ascii;
    class       surfaceScalarField;
    location    "4";
    object      phi;
}
// * * * * * * * * * * * * * * * * * * * * * * * * * * * * * * * * * * * * * //

dimensions      [1 0 -1 0 0 0 0];

internalField   nonuniform List<scalar> 
675
(
8.30334e-08
-2.56043e-05
0.00014555
-1.78896e-07
-2.57113e-05
0.000145978
-2.5589e-05
0.000145419
-3.92985e-07
2.55156e-05
0.00014549
6.89121e-07
2.55385e-05
0.000143893
2.55002e-05
0.000145779
3.42537e-08
0.000145523
-1.25758e-07
0.000145715
0.000145395
1.51463e-07
-4.6004e-05
0.000192626
-3.01835e-07
-4.82307e-05
0.000195853
-4.57744e-05
0.000192096
1.17062e-06
4.58724e-05
5.0387e-05
-6.03312e-07
4.7398e-05
4.79955e-05
4.56598e-05
5.16579e-05
6.62428e-08
0.000192558
-2.09399e-07
0.000194592
0.000192057
-1.70968e-07
7.53087e-05
-7.1188e-07
7.8919e-05
7.38794e-05
-6.11193e-07
-7.53361e-05
2.09171e-06
-7.74087e-05
-7.3969e-05
-2.70086e-07
-5.78964e-07
0.000944849
0.00253221
-0.00264605
-0.00279854
0.00463781
0.00400216
0.00320686
-0.00214322
0.00584143
-0.00365852
0.00584761
-0.00665444
-0.0040037
0.0263988
-0.0027729
0.00443622
0.00335187
-0.00106428
-0.00294144
0.00377018
-0.0032074
0.00589076
0.0081185
-0.0142808
-0.00501507
-0.00607768
0.0209534
0.00671593
-0.0163145
0.00575093
-0.00675413
0.0149723
-0.00591555
0.00619107
0.0258612
-0.00800794
0.0132817
0.00435508
-0.0145965
-0.00679121
0.0210561
-0.0155485
-0.000144301
0.0178785
-0.0305884
0.00129433
-0.0114578
0.0313906
0.0174269
-0.0340857
-0.0283775
-0.0175822
0.0789411
0.0293435
0.0115633
-0.0547287
-0.0176362
0.0776313
-0.000790387
-0.0329908
0.000254546
0.0313928
-0.0315744
-0.0182067
-0.0182769
-0.00980298
0.0434843
0.0167085
0.00978586
-0.0192163
-0.0248967
-0.0181401
-0.0112426
0.0480508
-0.00437986
0.0173047
0.0272084
-0.0585197
0.00330862
-0.00984811
-0.0610312
0.0727583
0.0183066
0.0248308
-0.0579361
-0.0164207
-0.0102562
0.0470483
0.0173954
-0.0194222
-0.0248996
-0.0106172
0.0446876
0.00239131
-0.00948543
-0.00502413
-0.00330276
0.00906557
-0.0222878
-0.00841726
-0.00391431
0.00865529
0.00778334
0.00122852
-0.00677269
-0.00910027
-0.0276234
0.0100227
-0.000411326
0.00421958
-0.00435988
-0.00192909
-0.0225826
-0.00468463
0.00991997
-0.00294043
-0.0118093
-0.00849784
0.00565529
-0.00966937
-0.00304681
-0.00982482
0.0105645
0.000783633
-0.0139997
0.00571357
-0.00545084
-0.0124007
0.00646886
-0.00441987
0.00917074
-0.0135361
-0.00948622
-0.00939227
-0.00725018
-0.00110957
-0.0002423
-0.034905
0.00108292
-0.000355036
0.0295644
-0.000188291
-0.0387463
-0.00268451
0.000241503
0.0717413
0.00277211
0.000357601
-0.0608902
0.000179023
0.0707464
-0.00108345
-0.037625
0.0010821
0.0295607
-0.0359846
-0.00118911
3.21518e-05
-0.0392681
0.00121362
-0.000353356
0.0275196
7.86895e-05
-0.0435376
-0.00201333
-2.83094e-05
0.064666
0.00203708
0.000355926
-0.0656434
-7.90386e-05
0.0639193
-0.00117227
-0.0424777
0.00120844
0.0275068
-0.0404071
-0.00169392
0.000209263
0.00183716
-0.000901416
0.000318739
-0.00266257
-0.000283603
0.00264668
0.000908611
-0.000240414
-0.00180826
0.00167647
0.00756742
-0.000321146
-0.00742534
-0.0116668
-0.00200038
0.000553283
-0.000659252
-0.000822363
0.000137736
-0.0111279
0.0123645
6.0812e-05
-0.0115173
-0.015223
0.0102995
-0.000783247
-0.00901764
0.000897098
-0.00282643
0.00697285
0.00194878
-0.00458945
-0.0108191
-0.00795365
-0.00027506
-0.00122513
-0.0130927
-0.000813796
0.00100944
-0.000506267
-0.00714661
-0.00526781
0.00124678
0.00255249
-3.00356e-05
0.00189855
-0.00698046
0.00731687
-0.00114586
-0.00520735
-0.0114985
0.00426241
-0.00174416
-0.00298534
-0.000472489
-0.0020656
0.00393372
0.000895938
0.000400253
-0.00699964
-0.00481946
0.00370222
0.00171274
-0.00825532
-0.000850428
0.00151
-0.00114858
0.000159608
0.00153207
0.000931753
0.00110868
0.0026795
-0.00115851
-0.00523652
0.0030471
-0.00183602
-0.00142448
0.00333586
-0.00140773
0.000633302
0.000469032
0.000759074
-0.0106708
-0.00034099
-0.00011131
-0.0111454
0.00083065
-0.000340767
0.0018548
-0.00463934
-0.00834718
0.00311134
0.000644305
0.00288076
-0.00137098
0.000824556
0.0044947
0.000523767
0.00424393
-0.00427267
-0.0133192
0.000874976
-0.0133155
0.000818078
0.000491307
-0.0132836
-0.00664766
-0.00037117
-6.78015e-05
-0.00670337
-7.41213e-05
-0.000202501
0.000606946
-0.00616532
-0.00577563
0.0042783
0.000580839
0.0015883
0.00251366
0.0010717
0.00512308
0.00103435
0.00712606
-0.000783508
-0.00808217
0.00128941
-0.00773972
0.00155038
0.00213619
-0.00835299
0.00113946
-9.00758e-05
0.00116931
-0.000225813
-0.000125399
-0.00486269
0.00418038
0.000658877
0.00779488
0.0012919
0.000997964
0.0138058
0.00269618
0.00553449
0.00866771
0.0105203
0.00141765
-0.00438633
-0.00755756
0.0105086
0.00146793
-0.00146766
6.02101e-05
-0.00121952
0.0116769
-0.00179813
0.00100459
-0.00946923
0.0139916
-0.00144611
0.000595606
-7.24662e-05
-0.00109796
0.00987398
-0.00464822
-0.00702371
0.0100253
-0.00159477
-0.00087131
0.00805055
0.000325074
-0.0050493
-0.00771376
0.00806392
0.000993313
-0.0024757
0.000104585
-0.00040766
0.00937573
-0.000641626
0.0017784
-0.00918348
0.0117552
-0.00100496
0.000211417
-0.000213194
-0.000528767
0.00755412
-0.00557077
-0.00727457
0.00768991
-0.00273608
-0.000393647
0.00386411
-0.000840808
-0.00807827
0.00178695
-0.000400946
0.000222409
0.00569253
0.000628955
-0.00538433
0.00540082
9.74561e-05
-0.00015266
0.0025452
-0.00748641
-9.3123e-05
-0.0015097
0.00150903
-2.40613e-06
0.00241827
0.00155839
-0.00548747
0.00116982
-0.00630989
-0.000822723
-0.00143271
0.00376165
0.00467111
-0.0015781
-0.00235933
-0.0013237
-0.00230624
-0.00146286
3.13337e-05
0.00222752
-0.00526849
-0.00612102
-0.000557857
0.00152463
-0.000970827
0.00456682
0.00138437
-0.011998
0.000807695
-0.0102658
9.9945e-05
-0.00145937
0.00664464
0.00524128
-0.00140634
-0.00471066
-0.00105917
-0.00438203
-0.00068363
-0.000745784
0.00414891
-0.0115082
-0.0103067
-0.00329623
0.00142421
0.000899909
0.00680669
0.00372141
-0.0258255
0.00142021
-0.0129626
-0.000133095
-0.00136856
0.00957033
0.00460885
-0.0034638
-0.00226788
-0.00165067
-0.00208726
-0.00292448
0.00080735
0.00653079
-0.0244284
-0.0129125
0.0101422
0.00844092
-0.0176784
-0.00203613
0.0100128
-0.0236557
0.00980398
-0.0247993
-0.00174034
-0.00859247
0.0283354
-0.00386472
-0.0101504
0.020013
-0.0101337
0.0139778
0.00960218
-0.0173996
-0.00156873
-0.023421
-0.0246277
0.00365844
0.00700662
-0.0283263
0.0032633
0.00647761
-0.0297205
0.0071026
-0.0286229
0.0056295
-0.00712242
0.0368595
0.00384283
-0.00659132
0.0348929
-0.00715873
0.032107
0.00375926
-0.0282637
0.00343673
-0.0296721
-0.0283322
0.000566882
0.0192666
-0.00015674
0.0192127
0.0194087
0.00306581
-0.0193548
0.00267872
-0.019303
-0.0195211
0.00050349
-0.000299646
-0.00221488
0.00206734
-0.00819054
0.00357202
0.00261215
-0.00838961
0.00257552
0.00100706
-0.00390633
-0.000895999
0.00261039
-0.0024166
-0.00123097
0.00236552
-0.00233713
0.00251004
-0.0136692
-0.000506286
-0.00884006
-0.00607115
-0.0111878
-0.00251172
0.00142679
-0.012874
0.00201119
0.00191088
-0.0148179
0.00222751
0.00079469
-0.00303692
-0.000405875
0.00670589
-0.00348899
-0.000704606
0.00544312
-0.00196623
0.00322453
-0.00960161
0.000331153
-0.00722378
-0.00916734
-0.0203977
-0.00468154
0.00115761
-0.0142066
0.00265626
0.00296323
-0.0251144
0.00177129
0.00167844
0.00775904
0.000218026
0.0136974
0.00256048
-0.000391918
0.0140025
-0.0037059
0.0112652
-0.000780156
0.00999468
-0.00824027
-0.00211224
-0.032345
0.000635882
0.0163268
-0.0312477
-0.011094
0.0160268
-0.0294814
0.0140339
-0.0235196
0.00566529
0.00374748
0.0206012
0.00827568
0.00383144
0.0235678
0.00183737
0.0317087
-0.0157015
0.0294581
-0.00645419
-0.00752396
-0.0369006
-0.00292634
0.00770547
-0.0360142
-0.0040004
0.00738858
-0.0357832
0.00770426
-0.0352132
-0.0104484
-0.00221947
0.0409944
-0.00809033
-0.0040694
0.0326926
-0.00298412
0.0343187
-0.00630335
0.0335507
0.00123533
-0.019114
-0.0386474
-0.000332359
0.0159224
-0.000520297
0.0159917
0.0157991
-0.00223381
-0.0233337
-0.00152574
-0.023427
-0.0217508
0.0131016
0.011174
)
;

boundaryField
{
    fuel
    {
        type            calculated;
        value           nonuniform List<scalar> 
36
(
0.000118781
0.000197932
0.000118781
0.000118781
0.000197932
0.000118781
0.000118781
0.000197932
0.000118781
-0.000118781
-0.000197933
-0.000118781
-0.000118781
-0.000197933
-0.000118781
-0.000118781
-0.000197933
-0.000118781
0
0
0
0
0
0
0
0
0
0
0
0
0
0
0
0
0
0
)
;
    }
    primary_air
    {
        type            calculated;
        value           nonuniform List<scalar> 9(-0.00322295 -0.00535112 -0.0032101 -0.00321871 -0.00534856 -0.00320577 -0.00320322 -0.00535331 -0.00323107);
    }
    Secondary_air_RHS
    {
        type            calculated;
        value           nonuniform List<scalar> 9(0.00585299 0.0092834 0.00574423 0.00578277 0.00901716 0.00567053 0.00591229 0.00918481 0.00581116);
    }
    Secondary_air_LHS
    {
        type            calculated;
        value           nonuniform List<scalar> 9(0.0057539 0.00938402 0.00586114 0.00568859 0.00913205 0.00579795 0.00583179 0.00928975 0.00592931);
    }
    outlet
    {
        type            calculated;
        value           nonuniform List<scalar> 
18
(
-0.051588
0.0825039
-0.00287918
-0.0515711
0.0714254
-0.0406028
-0.0515164
0.0703637
-0.0492128
-0.0481461
0.0724437
-0.0481083
-0.0481959
0.073824
-0.0481581
-0.0481743
0.073745
-0.0481389
)
;
    }
    stove_body
    {
        type            calculated;
        value           uniform 0;
    }
    frontAndBack
    {
        type            empty;
        value           nonuniform 0();
    }
}


// ************************************************************************* //
