/*--------------------------------*- C++ -*----------------------------------*\
  =========                 |
  \\      /  F ield         | OpenFOAM: The Open Source CFD Toolbox
   \\    /   O peration     | Website:  https://openfoam.org
    \\  /    A nd           | Version:  6
     \\/     M anipulation  |
\*---------------------------------------------------------------------------*/
FoamFile
{
    version     2.0;
    format      ascii;
    class       volScalarField;
    location    "4";
    object      Qdot;
}
// * * * * * * * * * * * * * * * * * * * * * * * * * * * * * * * * * * * * * //

dimensions      [1 -1 -3 0 0 0 0];

internalField   nonuniform List<scalar> 
297
(
-0.000537137
-0.000323686
0
-0.00107427
-0.00107427
-0.00107427
0
-0.000537137
0
-0.000213451
-0.000213451
0
0
-0.000647372
-0.000860822
0
-0.000323686
-0.000537137
7.79157e-10
-0.000323686
-0.000430411
-2.02304e-05
1.24665e-08
-6.71421e-05
7.79157e-10
-0.000323685
-0.000106725
-5.72663e-11
0
-2.86332e-11
-4.58131e-10
2.6585e-09
1.55831e-09
0
-1.14533e-10
-2.86332e-11
0
0
0
-1.43166e-11
0
-7.15829e-12
3.89578e-10
0
0
0
3.75262e-10
0
-7.15829e-12
-2.86332e-11
-7.15829e-12
0
-1.43166e-11
3.89578e-10
3.89578e-10
0
0
0
0
3.89578e-10
-3.57915e-12
0
0
0
0
3.89578e-10
0
1.55831e-09
-1.74763e-15
-8.73815e-16
0
3.89578e-10
-4.36907e-16
0
-5.46134e-17
-1.74763e-15
-8.73815e-16
6.23326e-09
-1.09227e-16
6.23326e-09
6.23326e-09
0
3.89578e-10
0
0
0
0
1.94789e-10
3.89578e-10
0
1.94789e-10
3.75262e-10
0
3.89578e-10
-7.15829e-12
0
1.94789e-10
0
1.94789e-10
0
0
3.89578e-10
3.89578e-10
0
0
0
3.75262e-10
0
6.23326e-09
-2.66667e-20
0
1.24665e-08
1.24665e-08
0
-6.66668e-21
-2.66667e-20
-1.33334e-20
0
6.23326e-09
6.23326e-09
-4.16667e-22
-3.33334e-21
0
-4.16667e-22
6.23326e-09
-6.66668e-21
0
6.23326e-09
0
-1.66667e-21
0
0
0
6.23326e-09
6.23326e-09
0
-4.16667e-22
-4.16667e-22
-1.06667e-19
1.24665e-08
-4.16667e-22
6.23326e-09
0
6.23326e-09
0
6.23326e-09
0
0
1.24665e-08
0
-6.66668e-21
-6.66668e-21
-8.33335e-22
6.23326e-09
-6.66668e-21
6.23326e-09
-1.33334e-20
0
1.24665e-08
0
6.23326e-09
6.23326e-09
6.23326e-09
6.23326e-09
0
-3.97365e-28
0
1.24665e-08
-1.58946e-27
-3.25521e-24
6.23326e-09
6.23326e-09
6.23326e-09
-2.54314e-26
-7.9473e-28
0
1.24665e-08
6.23326e-09
6.23326e-09
0
6.23326e-09
6.23326e-09
6.23326e-09
-3.97365e-28
0
-2.08334e-22
-2.54314e-26
0
0
6.23326e-09
6.23326e-09
-1.89478e-34
0
0
1.24665e-08
6.23326e-09
-1.89478e-34
0
6.23326e-09
0
-3.78957e-34
0
0
0
6.23326e-09
0
-7.76104e-31
6.23326e-09
0
6.23326e-09
-9.47392e-35
-2.36848e-35
-1.94026e-31
0
0
6.23326e-09
-7.22803e-40
0
-1.44561e-39
-4.73696e-35
-1.4803e-36
-5.9212e-36
-7.4015e-37
-3.70075e-37
-5.9212e-36
6.23326e-09
6.23326e-09
6.23326e-09
0
-2.9606e-36
6.23326e-09
6.23326e-09
-4.51752e-41
6.23326e-09
-2.25876e-41
6.23326e-09
6.23326e-09
-1.18424e-35
6.23326e-09
0
6.23326e-09
0
0
6.23326e-09
6.23326e-09
-1.01725e-25
0
0
1.24665e-08
0
0
-2.08334e-22
-2.03451e-25
0
6.23326e-09
-2.08334e-22
1.24665e-08
-2.08334e-22
0
0
-2.08334e-22
-2.03451e-25
0
0
-2.66667e-20
-1.33334e-20
-1.66667e-21
-1.33334e-20
6.23326e-09
-2.08334e-22
6.23326e-09
0
-5.08627e-26
-1.33334e-20
1.24665e-08
0
0
-8.33335e-22
-2.08334e-22
-5.08627e-26
0
0
-6.66668e-21
6.23326e-09
0
6.23326e-09
6.23326e-09
6.23326e-09
0
0
0
6.23326e-09
6.23326e-09
6.23326e-09
6.23326e-09
0
6.23326e-09
)
;

boundaryField
{
    fuel
    {
        type            calculated;
        value           uniform 0;
    }
    primary_air
    {
        type            calculated;
        value           uniform 0;
    }
    Secondary_air_RHS
    {
        type            calculated;
        value           uniform 0;
    }
    Secondary_air_LHS
    {
        type            calculated;
        value           uniform 0;
    }
    outlet
    {
        type            calculated;
        value           uniform 0;
    }
    stove_body
    {
        type            calculated;
        value           uniform 0;
    }
    frontAndBack
    {
        type            empty;
    }
}


// ************************************************************************* //
