/*--------------------------------*- C++ -*----------------------------------*\
  =========                 |
  \\      /  F ield         | OpenFOAM: The Open Source CFD Toolbox
   \\    /   O peration     | Website:  https://openfoam.org
    \\  /    A nd           | Version:  6
     \\/     M anipulation  |
\*---------------------------------------------------------------------------*/
FoamFile
{
    version     2.0;
    format      ascii;
    class       volScalarField;
    location    "4";
    object      T;
}
// * * * * * * * * * * * * * * * * * * * * * * * * * * * * * * * * * * * * * //

dimensions      [0 0 0 1 0 0 0];

internalField   nonuniform List<scalar> 
297
(
292.993
292.993
292.993
293.005
293.006
293.005
292.993
292.993
292.993
292.988
292.99
292.986
292.965
292.974
292.954
292.988
292.99
292.986
292.604
292.203
292.596
282.416
283.3
281.453
292.609
292.397
292.599
2416.08
1146.06
2944.13
900.563
527.054
1176.33
2368.07
1124.69
2931.41
5000
4147.05
5000
4612.22
2196.46
5000
5000
4115.87
5000
5000
3505.97
5000
4155.16
2169.67
4215.44
5000
3486.58
5000
3910.71
2449.13
3964.25
5000
2132.71
5000
3847.62
2426.6
3992.72
3813.25
1163.34
3908.55
5000
2042.54
5000
3715.49
1134.07
3921.15
382.547
314.55
307.462
860.712
383.384
335.903
323.72
305.442
311.66
5000
3430.78
5000
4453.41
2129.53
4552.41
5000
3418.24
5000
4887.01
3421.15
4615.92
4945.06
2128.46
5000
4775.32
3407.18
4687.79
4337.5
3400.01
4356.86
5000
2130.27
5000
4249.39
3384.59
4414.76
299.778
300.641
301.557
299.868
300.157
300.283
299.69
300.248
300.026
300.283
301.731
301.723
299.991
300.421
300.686
299.918
300.472
300.428
300.867
301.876
301.837
300.238
300.779
300.959
300.392
300.55
300.631
301.523
301.583
301.827
300.295
300.951
301.796
300.092
300.206
300.207
301.734
301.745
301.879
300.483
300.677
301.606
300.497
300.674
300.682
301.737
301.482
301.826
300.868
300.716
300.777
300.693
300.606
300.568
299.772
299.678
299.651
299.851
299.794
299.773
299.788
299.707
299.657
299.89
299.902
299.928
299.924
299.91
299.927
299.866
299.873
299.929
299.921
299.983
300.066
300.055
300.092
300.109
299.88
299.943
300.345
299.915
299.839
299.805
299.951
299.935
299.917
299.902
299.84
299.82
299.938
299.841
299.827
299.921
299.946
299.96
299.907
299.841
299.832
299.941
299.842
299.809
299.879
299.898
300.098
299.902
299.828
299.805
299.795
299.825
299.743
298.608
299.448
300.299
299.767
299.79
299.724
297.576
297.405
297.635
297.761
297.873
299.449
297.552
297.375
297.673
291.567
291.457
291.442
286.221
286.031
286.139
291.558
291.447
291.43
301.797
302.241
302.327
301.7
301.793
301.66
300.365
300.734
300.659
301.667
302.051
302.456
301.676
301.779
301.702
300.651
300.385
299.868
301.393
301.774
302.505
300.981
301.518
301.591
300.496
300.292
299.192
300.951
301.457
301.64
301.66
301.498
300.022
299.022
298.793
297.546
296.899
298.402
298.253
300.216
300.166
299.272
295.116
294.417
295.052
291.524
292.228
292.284
281.873
286.962
288.126
298.965
290.421
291.126
)
;

boundaryField
{
    fuel
    {
        type            fixedValue;
        value           uniform 293;
    }
    primary_air
    {
        type            fixedValue;
        value           uniform 293;
    }
    Secondary_air_RHS
    {
        type            fixedValue;
        value           uniform 293;
    }
    Secondary_air_LHS
    {
        type            fixedValue;
        value           uniform 293;
    }
    outlet
    {
        type            inletOutlet;
        inletValue      uniform 293;
        value           nonuniform List<scalar> 
18
(
293
281.873
293
293
286.962
293
293
288.126
293
293
286.221
293
293
286.03
293
293
286.139
293
)
;
    }
    stove_body
    {
        type            fixedValue;
        value           uniform 293;
    }
    frontAndBack
    {
        type            empty;
    }
}


// ************************************************************************* //
