/*--------------------------------*- C++ -*----------------------------------*\
  =========                 |
  \\      /  F ield         | OpenFOAM: The Open Source CFD Toolbox
   \\    /   O peration     | Website:  https://openfoam.org
    \\  /    A nd           | Version:  6
     \\/     M anipulation  |
\*---------------------------------------------------------------------------*/
FoamFile
{
    version     2.0;
    format      ascii;
    class       volVectorField;
    location    "4";
    object      U;
}
// * * * * * * * * * * * * * * * * * * * * * * * * * * * * * * * * * * * * * //

dimensions      [0 1 -1 0 0 0 0];

internalField   nonuniform List<vector> 
297
(
(8.38816 -0.00227329 0.278282)
(8.38816 -0.000242049 0.27911)
(8.38816 0.00203055 0.277894)
(2.2068e-07 0.00373341 0.249827)
(4.82226e-07 0.000479283 0.250146)
(2.31592e-07 -0.00324596 0.249556)
(-8.38816 -0.00240611 0.278244)
(-8.38816 -0.000230584 0.278776)
(-8.38816 0.00217507 0.277861)
(8.38788 -0.00149452 0.300369)
(8.38792 -0.000435649 0.300431)
(8.38781 0.00112103 0.300123)
(2.90586e-07 0.0147521 0.0385032)
(4.71912e-07 0.00104285 0.029627)
(3.01035e-07 -0.0134284 0.04442)
(-8.38788 -0.00180995 0.300325)
(-8.38792 -0.000412951 0.3005)
(-8.38781 0.00145663 0.300098)
(7.93384 -0.0071663 0.451573)
(7.53557 -0.00239321 0.442476)
(7.93267 0.00478798 0.450655)
(2.20519e-07 0.0753626 0.217821)
(2.84859e-07 -0.00682132 0.221189)
(2.29666e-07 -0.0638743 0.213528)
(-7.93851 -0.00803576 0.451622)
(-7.71822 -0.00235088 0.446858)
(-7.93614 0.00575243 0.450698)
(44.8948 -20.4113 2.613)
(21.1645 -2.48099 24.9037)
(55.0404 20.5134 4.30795)
(-0.0149884 -1.90084 16.9298)
(-0.00881962 -0.706305 13.2049)
(0.0424733 2.37519 15.6845)
(-44.0734 -14.575 8.49983)
(-20.8222 -0.286198 24.4123)
(-54.5064 20.3099 0.0135706)
(94.2026 -87.3225 111.458)
(77.8516 0.680473 140.868)
(94.1348 93.0226 94.5167)
(0.0581708 -5.66445 299.868)
(-0.0109169 -1.20199 196.884)
(-0.0377461 10.5235 298.21)
(-94.2058 -93.3543 119.355)
(-77.3116 -11.9614 139.246)
(-94.0662 85.3755 90.7822)
(92.3098 -204.304 25.8342)
(65.7382 1.56606 305.671)
(91.055 212.711 -10.2545)
(0.378749 -93.2746 424.553)
(-0.0377086 1.33658 13.3683)
(-0.437253 99.1925 426.142)
(-91.156 -201.439 21.8705)
(-65.549 -5.53368 305.49)
(-92.3802 212.221 -2.31227)
(74.006 -98.0377 -359.54)
(45.5242 -3.62096 -26.6325)
(76.976 97.3238 -390.287)
(-0.743766 -219.568 58.8146)
(0.0387843 -4.46865 -176.563)
(0.832681 233.051 31.8817)
(-74.5726 -89.4998 -370.274)
(-45.0023 0.903287 -25.9929)
(-75.4958 101.052 -377.759)
(72.8971 -32.1752 -260.984)
(21.9465 -0.136643 -132.205)
(73.5238 25.6342 -277.608)
(0.541562 -116.569 -125.353)
(-0.0178194 4.92158 -143.868)
(-0.51305 117.032 -163.332)
(-69.8539 -18.4139 -251.721)
(-21.4225 0.610332 -130.734)
(-74.9347 38.2266 -279.995)
(7.25639 20.0926 -18.2437)
(5.96414 3.6721 -14.2929)
(5.83522 -20.0826 -12.0384)
(-0.00223132 9.42195 -16.8801)
(-0.000305151 6.49664 -22.292)
(0.000207935 3.01318 -7.65081)
(-6.14362 23.9581 -17.1001)
(-5.79228 -4.05308 -14.3825)
(-5.91402 -13.7415 -12.1946)
(82.1074 -253.446 -651.75)
(56.2433 2.53429 303.934)
(80.7084 237.892 -696.539)
(0.358881 -153.834 636.262)
(0.00365332 1.40515 -227.601)
(-0.376388 161.396 643.56)
(-81.4024 -231.185 -681.348)
(-56.0796 -6.09942 302.736)
(-81.2706 253.329 -662.703)
(83.6331 -173.687 -626.865)
(58.9111 3.35025 293.765)
(78.5139 163.274 -659.018)
(0.370186 -178.633 739.063)
(0.0085954 0.18331 -230.53)
(-0.38681 190.442 746.336)
(-81.3879 -156.315 -649.827)
(-58.7614 -6.63261 292.195)
(-80.0249 174.819 -637.461)
(78.6746 -166.013 -538.583)
(59.4994 3.45043 264.9)
(79.6202 163.843 -573.785)
(0.310514 -241.232 735.777)
(0.0130879 -1.74458 -215.188)
(-0.324178 255.032 739.989)
(-78.1461 -155.29 -558.774)
(-59.2805 -5.16608 263.253)
(-79.863 166.921 -553.964)
(5.67792 30.3054 -8.82068)
(5.69739 15.0723 -7.35464)
(5.71492 -29.9011 -6.87724)
(0.000126443 24.4908 -7.43319)
(-0.00010728 17.5683 -6.86169)
(-0.000315897 14.0897 -4.1562)
(-5.67689 30.0339 -8.25616)
(-5.69173 -15.6349 -7.16763)
(-5.68884 -31.5239 -6.91892)
(5.69559 11.5883 -0.843029)
(5.7223 -14.2141 4.0283)
(5.72471 -19.8303 3.98612)
(1.73761e-05 17.1518 -1.69115)
(-6.79833e-06 6.16636 -1.12702)
(-3.18905e-05 5.08978 1.07706)
(-5.68961 19.4532 -0.776683)
(-5.69918 -10.2183 4.88103)
(-5.69991 -18.9901 6.3325)
(5.70782 -0.600244 -3.57222)
(5.72586 -5.29393 2.62979)
(5.72927 -1.44062 3.24216)
(-0.000595359 3.76442 -3.64484)
(-1.48281e-06 3.14369 -1.16804)
(0.000521738 5.20828 -1.17027)
(-5.70053 -0.418555 0.998046)
(-5.70092 -3.81484 3.3735)
(-5.70425 5.17306 -0.738)
(5.71289 -33.0522 -8.65964)
(5.71943 -31.344 -12.0422)
(5.70837 -20.2026 -15.1343)
(-0.00084645 12.3001 0.987117)
(-0.00295661 1.31016 0.202386)
(-0.00818678 -7.32882 -2.81703)
(-5.69117 -34.8121 -7.57827)
(-5.69059 -39.2213 -9.58875)
(-5.69051 -41.5469 -10.6947)
(5.7252 -20.8691 1.55325)
(5.72696 -23.59 -4.21172)
(5.70924 -12.8691 -14.4652)
(-0.000473698 8.31724 2.92236)
(-0.00205519 8.6881 6.75064)
(-0.00677362 -0.0341627 7.77102)
(-5.70139 -20.8564 6.55348)
(-5.71018 -22.5797 6.83719)
(-5.71126 -30.1752 3.91296)
(5.7281 3.84994 3.62453)
(5.72076 5.87137 9.87138)
(5.71429 -9.04308 -18.5685)
(-0.000210612 8.5088 0.526608)
(-0.00165522 10.9346 4.73476)
(-0.00413315 20.5368 7.83196)
(-5.70848 7.68365 2.55422)
(-5.71001 12.4696 4.25517)
(-5.70503 17.9477 6.07925)
(5.67357 23.0114 -11.8429)
(5.68169 28.0925 -8.91531)
(5.67347 32.5318 -6.53629)
(-0.000118935 17.341 -5.98384)
(1.39673e-05 21.8678 -6.16582)
(-0.000157909 24.9836 -5.36067)
(-5.67789 21.052 -12.7524)
(-5.68224 25.96 -10.1051)
(-5.6748 30.2995 -6.89576)
(5.67564 22.5082 -11.3954)
(5.68873 24.2463 -5.33044)
(5.68448 23.5514 -0.423713)
(0.000375978 15.2716 1.16501)
(8.17976e-05 19.5507 1.32554)
(-0.000262456 19.9714 0.992044)
(-5.67776 21.2269 -13.1202)
(-5.68834 22.249 -6.66899)
(-5.68841 22.4199 -1.72423)
(5.68076 19.2169 -17.7445)
(5.69112 13.2673 -13.3335)
(5.69421 0.164491 -3.79981)
(0.00112585 11.1987 0.589998)
(0.000537218 10.1464 1.38406)
(-0.000104686 9.18595 0.533232)
(-5.6783 18.0184 -17.1648)
(-5.6908 6.1019 -9.65376)
(-5.69978 -4.47223 4.01099)
(5.6792 -4.23555 -7.29996)
(5.67677 3.05874 -16.6144)
(5.67145 13.4675 -20.3062)
(-0.000337052 -3.05813 0.315098)
(-0.00026263 3.96704 -6.71734)
(-0.00029683 10.0267 -7.98983)
(-5.67994 -3.4415 -6.68847)
(-5.67766 3.07835 -15.8348)
(-5.67465 11.6622 -19.5432)
(5.67639 1.13755 4.34367)
(5.67575 4.43204 -19.775)
(5.67329 15.5458 -22.172)
(-0.000384859 -1.2398 9.28554)
(-0.000152044 4.60693 -4.70304)
(0.000220545 10.4606 -4.52998)
(-5.67713 0.988946 4.21327)
(-5.67624 4.14355 -18.9674)
(-5.67518 13.4036 -22)
(5.67167 1.89813 -1.62185)
(5.69169 2.79736 -22.3181)
(5.68246 11.5023 -27.829)
(-0.000435783 -1.44825 12.9795)
(-0.000143718 4.63184 -8.4136)
(0.000492694 6.5889 -5.70021)
(-5.67252 1.52852 -0.865795)
(-5.69085 3.73723 -21.5227)
(-5.68136 9.94682 -26.0011)
(5.67459 3.98121 -3.4395)
(5.68019 2.0469 -30.0489)
(5.678 -9.46365 -43.8965)
(0.000161625 1.48008 45.2293)
(0.000138324 2.45379 27.4608)
(0.000163422 -11.466 16.9423)
(-5.67365 3.51606 -3.23394)
(-5.6791 2.33347 -30.4572)
(-5.67721 -8.80717 -45.4916)
(5.62337 0.266834 -99.077)
(5.62062 0.199055 -104.958)
(5.62493 5.38819 -100.177)
(0.000141512 1.22714 70.4495)
(0.000132147 1.88394 62.2879)
(6.23658e-05 0.160093 54.973)
(-5.62256 0.487461 -98.722)
(-5.61971 0.208044 -104.656)
(-5.62547 5.16622 -98.4523)
(5.41479 0.118656 -139.461)
(5.41243 0.0985714 -139.644)
(5.41196 -0.0240598 -139.565)
(0.000363288 0.723856 184.075)
(0.000375576 1.1531 187.468)
(0.000401705 0.300499 187.338)
(-5.41365 0.102029 -139.325)
(-5.41123 0.0487941 -139.507)
(-5.41072 -0.0563759 -139.437)
(5.69321 -13.2931 -24.9296)
(5.69783 -0.995057 -24.2331)
(5.70262 8.25866 -7.32228)
(-0.0091341 -8.48691 -5.45668)
(-0.001823 -4.26424 -6.06618)
(0.00595268 -3.48533 -5.1402)
(-5.68975 -39.2435 -16.0191)
(-5.65722 -23.7011 -21.7553)
(-5.64671 -18.297 -28.2088)
(5.68912 -9.51887 -28.6591)
(5.69182 -4.70792 -30.4441)
(5.70502 5.83292 4.53819)
(-0.0109443 -6.39353 9.80171)
(-0.00732915 -5.56269 6.65872)
(0.00205631 -1.82467 7.50952)
(-5.70712 -30.5985 -4.25704)
(-5.67108 -18.0676 -25.2726)
(-5.64534 -5.34357 -43.3909)
(5.69572 -5.48633 -39.6045)
(5.70476 -3.14199 -39.8809)
(5.70376 1.45147 5.44168)
(-0.0110317 18.1403 17.3843)
(-0.00955163 9.57943 16.8931)
(-0.00191616 0.916405 7.80745)
(-5.69178 16.7112 16.0026)
(-5.68019 -16.4154 -16.4871)
(-5.66728 -2.26251 -53.3505)
(5.66932 2.11439 -65.8346)
(5.6822 -3.58957 -56.1072)
(5.68001 -2.37152 -24.3645)
(-0.0200549 10.1976 27.245)
(-0.0192072 0.753488 32.0144)
(-0.0189879 0.142527 50.8056)
(-5.6879 4.40859 59.2114)
(-5.682 -12.3775 22.2631)
(-5.66135 8.88887 -79.9876)
(5.60052 -2.28198 -123.866)
(5.62881 -0.818028 -122.936)
(5.62413 -0.953052 -119.399)
(-0.0085227 -0.112968 65.2763)
(-0.00730964 -3.40149 65.3915)
(-0.00737187 -1.76088 75.7315)
(-5.59133 -1.17108 96.3429)
(-5.57789 1.80378 -73.2629)
(-5.584 -2.02091 -123.778)
(5.44392 -0.0818438 -152.369)
(5.45832 -0.205096 -152.303)
(5.46025 -0.120066 -152.089)
(0.0308919 0.115871 206.522)
(0.029032 -0.445652 181.943)
(0.0271147 -0.318983 179.956)
(-5.49824 2.95856 -7.0935)
(-5.34935 6.2808 -113.557)
(-5.36562 2.89372 -143.453)
)
;

boundaryField
{
    fuel
    {
        type            fixedValue;
        value           uniform (0 0 0.25);
    }
    primary_air
    {
        type            fixedValue;
        value           uniform (0 0 2.5);
    }
    Secondary_air_RHS
    {
        type            fixedValue;
        value           uniform (0 58.3333 0);
    }
    Secondary_air_LHS
    {
        type            fixedValue;
        value           uniform (0 -58.3333 0);
    }
    outlet
    {
        type            pressureInletOutletVelocity;
        value           nonuniform List<vector> 
18
(
(0 0 -152.369)
(0.0308919 0.115871 206.522)
(0 0 -7.0935)
(0 0 -152.303)
(0.029032 -0.445652 181.943)
(0 0 -113.557)
(0 0 -152.089)
(0.0271147 -0.318983 179.956)
(0 0 -143.453)
(0 0 -139.461)
(0.000363288 0.723856 184.075)
(0 0 -139.325)
(0 0 -139.644)
(0.000375576 1.1531 187.468)
(0 0 -139.507)
(0 0 -139.565)
(0.000401705 0.300499 187.338)
(0 0 -139.437)
)
;
    }
    stove_body
    {
        type            noSlip;
    }
    frontAndBack
    {
        type            empty;
    }
}


// ************************************************************************* //
