/*--------------------------------*- C++ -*----------------------------------*\
  =========                 |
  \\      /  F ield         | OpenFOAM: The Open Source CFD Toolbox
   \\    /   O peration     | Website:  https://openfoam.org
    \\  /    A nd           | Version:  6
     \\/     M anipulation  |
\*---------------------------------------------------------------------------*/
FoamFile
{
    version     2.0;
    format      ascii;
    class       volScalarField;
    location    "0.5";
    object      O2;
}
// * * * * * * * * * * * * * * * * * * * * * * * * * * * * * * * * * * * * * //

dimensions      [0 0 0 0 0 0 0];

internalField   nonuniform List<scalar> 
297
(
0
0
0
0
0
0
0
0
0
0
0
0
0
0
0
0
0
0
0
0
0
0
0
0
0
0
0
0.0320032
0.0426605
0.0930499
0.0180212
0.0276716
0.0793214
0.0311882
0.0416742
0.0911876
0
0.00298361
0.0420736
0
8.26303e-07
0.0440774
0
0.00268259
0.0410494
0
0.000370063
0.033614
0
0
0.0380528
0
0.000376239
0.0328884
0
0
0
1.51464e-05
0
0
2.69877e-05
0
0
0
0
0
0
0
0
0
0
0
0
0
0
0
0
0
0
0
0
0
0.000356924
0.00529921
0
1.24663e-07
0.0183415
0
0.000349906
0.00508936
0
0.000349712
0
0
7.11992e-08
0
0
0.000345618
0
0
0.000282228
0
0
1.6154e-05
0
0
0.000270347
0
0
0
0
0
0
0
2.18568e-22
0
0
4.10907e-21
4.16115e-21
8.93484e-20
3.83354e-20
8.19022e-20
6.79953e-20
1.4515e-21
8.14133e-20
1.24301e-19
3.53147e-21
4.03705e-21
9.03899e-20
3.22741e-20
5.76605e-20
6.684e-20
1.97456e-20
9.16345e-20
1.15725e-19
4.29217e-20
8.88962e-25
1.31055e-29
1.41081e-18
3.60465e-23
3.96408e-28
5.29726e-20
1.13082e-24
1.21424e-29
7.31712e-22
3.25194e-25
2.81361e-29
1.92751e-22
2.87075e-26
1.42822e-29
4.70545e-24
5.60161e-28
7.92132e-31
1.72844e-20
1.41151e-24
4.39152e-29
2.45313e-21
2.24967e-25
1.49996e-29
1.88488e-23
1.4158e-27
1.8686e-30
4.08306e-22
3.92843e-22
3.23558e-22
2.47288e-22
1.77402e-22
2.96365e-22
2.09942e-22
1.97907e-22
1.62792e-22
1.07139e-21
1.02565e-21
4.13954e-21
3.93708e-21
1.60088e-20
3.52317e-20
6.88148e-22
6.33367e-22
1.40058e-21
2.18438e-21
1.57578e-21
3.35466e-21
1.78012e-20
2.63533e-20
3.10526e-20
7.93888e-21
8.1591e-21
8.9232e-21
1.35263e-26
1.44115e-26
7.29427e-26
2.85459e-24
2.24503e-23
4.35846e-23
1.86839e-23
2.3001e-22
2.32134e-22
2.12079e-26
2.44053e-26
1.06204e-25
2.61122e-23
1.89223e-23
3.43995e-22
8.21555e-23
5.2483e-22
5.19404e-22
4.19101e-26
2.78746e-26
1.06462e-25
1.29195e-21
4.70688e-21
1.1646e-20
1.36285e-22
7.50891e-22
6.81834e-21
2.9199e-26
2.1706e-26
4.64163e-26
1.386e-21
3.29823e-21
5.72353e-21
1.98826e-22
1.50609e-21
4.41853e-21
7.94364e-27
1.23971e-26
3.79249e-26
1.09879e-21
1.79483e-21
3.68319e-21
2.49778e-22
9.63678e-22
3.70538e-21
2.02021e-27
3.82376e-27
1.01344e-26
5.55081e-22
1.0589e-21
2.82619e-21
1.98281e-22
9.59283e-22
3.57887e-21
8.27796e-34
1.28094e-37
4.39764e-38
5.59427e-33
3.72177e-37
9.09738e-37
2.67349e-34
2.49925e-38
9.04241e-37
1.6629e-33
9.89332e-38
2.47774e-38
6.02799e-34
6.41697e-38
8.87447e-37
5.23624e-35
2.65863e-39
4.46972e-37
1.09528e-33
2.11475e-38
6.94277e-39
5.96582e-34
3.897e-38
7.13663e-37
4.28424e-35
8.38221e-40
8.85764e-40
6.02447e-39
2.35295e-40
5.50763e-40
9.23963e-39
2.13605e-39
2.67259e-37
2.80544e-40
3.77854e-41
8.02385e-41
7.96649e-44
4.04023e-43
1.39191e-42
6.63516e-39
2.70874e-38
1.78804e-37
7.07458e-44
3.11794e-43
1.5549e-42
1.12951e-44
5.07113e-44
2.80011e-43
3.29169e-39
1.48787e-38
8.25105e-38
1.99919e-44
8.87739e-44
4.81455e-43
)
;

boundaryField
{
    fuel
    {
        type            fixedValue;
        value           uniform 0;
    }
    primary_air
    {
        type            fixedValue;
        value           uniform 0.23;
    }
    Secondary_air_RHS
    {
        type            fixedValue;
        value           uniform 0.23;
    }
    Secondary_air_LHS
    {
        type            fixedValue;
        value           uniform 0.23;
    }
    outlet
    {
        type            inletOutlet;
        inletValue      uniform 0;
        value           nonuniform List<scalar> 
18
(
0
3.29169e-39
0
0
1.48787e-38
0
0
8.25105e-38
0
0
5.55081e-22
0
0
1.0589e-21
0
0
2.82619e-21
0
)
;
    }
    stove_body
    {
        type            fixedValue;
        value           uniform 0;
    }
    frontAndBack
    {
        type            empty;
    }
}


// ************************************************************************* //
