/*--------------------------------*- C++ -*----------------------------------*\
  =========                 |
  \\      /  F ield         | OpenFOAM: The Open Source CFD Toolbox
   \\    /   O peration     | Website:  https://openfoam.org
    \\  /    A nd           | Version:  6
     \\/     M anipulation  |
\*---------------------------------------------------------------------------*/
FoamFile
{
    version     2.0;
    format      ascii;
    class       volScalarField;
    location    "0.5";
    object      p;
}
// * * * * * * * * * * * * * * * * * * * * * * * * * * * * * * * * * * * * * //

dimensions      [1 -1 -2 0 0 0 0];

internalField   nonuniform List<scalar> 
297
(
123194
123194
123195
205476
205477
205478
123193
123194
123195
123194
123195
123195
205476
205477
205478
123193
123194
123195
123194
123195
123195
205476
205476
205479
123194
123194
123195
97590.3
97330.8
97177
162932
162301
162037
97614.8
97348.2
97184.8
97166
96354.9
96001.7
161720
160260
159911
97169.7
96354.3
96013
95802.1
94457.7
94226.2
158385
156789
156461
95787.2
94425.8
94205
94408.6
94722
95981.6
157078
157704
159434
94398.1
94736.9
95989
96329.1
96724.8
97208.4
160482
160868
161733
96297.3
96753.3
97223.1
97240.2
97348.9
97364.2
161920
161951
162051
97222.2
97387.5
97396.1
90261.9
93633.1
93445.9
151390
154739
155406
90092.7
93573.9
93410.2
90141.8
93576
93315.2
151748
154618
154850
89974.8
93515.4
93279
90454.3
93641.3
93388.4
152699
154779
154816
90303.4
93587.3
93351
97397.4
97522.7
97511.6
161944
162090
162186
97425.5
97590.3
97499.5
97405.1
97544.6
97546.3
161952
162132
162256
97473.6
97613.2
97504.8
97439.9
97551.4
97562.3
161967
162145
162277
97503.1
97615
97513
97641.4
97776.5
98019
162288
162370
162496
97595.7
97736.8
98025.2
97560.5
97620.6
97786
162292
162300
162327
97487.9
97541.1
97740.2
97526.8
97482.5
97492.3
162317
162301
162247
97441.9
97380.9
97382.4
98112
97688.6
97578.2
161924
161925
161894
97126.5
97167.6
97275.1
97641.9
97349.1
97367.9
161712
161827
161849
96783.1
97007.5
97221.9
97136.7
97211.4
97326.1
161538
161763
161841
96665.5
96968.2
97220.6
98379.8
98542.8
98472.6
161610
161646
161774
99347
98591.3
97574.5
98076.2
98197.3
98074.8
161223
161233
161429
98452.8
97502.5
96860.7
97724.8
97809.2
97603.2
160622
160653
160842
97442.4
96684.1
96322.1
95859.3
95818.1
95786.1
156952
156915
156731
93486
93440.1
93365.3
90802.6
90739.7
90722.7
149083
149058
149003
89644
89613.5
89512.4
84641.8
84631.1
84623.7
136876
136817
136739
86752.1
86895.9
87065.2
98227.5
98258.3
98210.7
162680
162774
162749
98264.1
98311.8
98262.4
98049.3
98176.9
98156.6
162488
162590
162570
98056
98221.5
98204.7
97910.1
98114.5
98081.7
162300
162388
162316
97891.1
98157.4
98125.1
97235.8
97279
97322.7
161120
161202
161190
97182.7
97230
97280.5
93179
93171.9
93209.4
153827
153833
153845
93122.1
93110.4
93148.4
86605.1
86604.5
86610.7
138391
138406
138423
86546.2
86547
86553.9
)
;

boundaryField
{
    fuel
    {
        type            zeroGradient;
    }
    primary_air
    {
        type            zeroGradient;
    }
    Secondary_air_RHS
    {
        type            zeroGradient;
    }
    Secondary_air_LHS
    {
        type            zeroGradient;
    }
    outlet
    {
        type            totalPressure;
        rho             rho;
        psi             none;
        gamma           1;
        p0              uniform 100000;
        value           nonuniform List<scalar> 
18
(
89796.4
100000
89727.9
89737.1
100000
89670.5
89805.1
100000
89742.4
87609.9
100000
88765.3
87512.3
100000
93643
87519.8
100000
99999.4
)
;
    }
    stove_body
    {
        type            zeroGradient;
    }
    frontAndBack
    {
        type            empty;
    }
}


// ************************************************************************* //
