/*--------------------------------*- C++ -*----------------------------------*\
  =========                 |
  \\      /  F ield         | OpenFOAM: The Open Source CFD Toolbox
   \\    /   O peration     | Website:  https://openfoam.org
    \\  /    A nd           | Version:  6
     \\/     M anipulation  |
\*---------------------------------------------------------------------------*/
FoamFile
{
    version     2.0;
    format      ascii;
    class       surfaceScalarField;
    location    "0.5";
    object      phi;
}
// * * * * * * * * * * * * * * * * * * * * * * * * * * * * * * * * * * * * * //

dimensions      [1 0 -1 0 0 0 0];

internalField   nonuniform List<scalar> 
675
(
-1.27847e-06
-5.64421e-05
0.000141009
-2.17473e-06
-5.75603e-05
0.000142067
-5.80643e-05
0.000138595
4.73587e-06
5.67321e-05
0.000193041
5.33937e-07
5.77843e-05
0.000200393
5.83295e-05
0.000195711
-1.05045e-06
0.000141076
-1.87183e-06
0.000142207
0.000139142
-3.39005e-06
-5.24755e-05
0.000149254
-3.01626e-06
-6.31171e-05
0.00015779
-6.10429e-05
0.000148733
9.84271e-06
5.26271e-05
0.000169749
1.49817e-06
6.30606e-05
0.000176076
6.02899e-05
0.000169775
-3.12774e-06
0.000149216
-2.62305e-06
0.000157734
0.000148889
-1.98997e-05
-7.01764e-06
-1.02802e-06
-3.68482e-05
-2.93679e-05
2.8613e-05
7.34586e-06
8.90034e-06
3.70813e-05
2.87794e-05
-1.96145e-05
-5.85792e-07
0.0307754
-0.0142436
-0.0139356
0.0321165
-0.00766175
0.00891527
0.00184451
0.0330284
0.041925
0.0134589
-0.0629623
0.0430412
0.00725838
-0.00944883
-0.0020597
0.0531385
0.0311168
-0.0150815
0.0327436
0.00822339
0.0334151
0.0345745
-0.00132067
-0.0479534
0.0299099
-0.00193189
0.0149472
0.00553269
0.0568605
0.0527712
0.000998473
-0.116514
0.0270045
0.00160527
0.0140912
-0.00554237
0.0924149
0.0348547
-0.0496962
0.0299715
0.0141471
0.0572777
0.0239101
0.00170389
-0.0712108
0.023793
0.00336715
0.010567
0.0157935
0.0644859
0.0351583
-0.00128658
-0.146042
0.0274818
-0.00326501
0.0294688
-0.0156717
0.152632
0.0242819
-0.07282
0.0234914
0.0105185
0.0647922
-0.0436991
0.00661799
-0.0519296
0.0864727
-0.0278285
-0.00435103
-0.0129454
0.000869666
-0.00535222
0.039624
-0.06273
-0.0659201
-0.00757998
-0.0828159
0.170072
-0.0343021
0.00461909
-0.0349753
-0.00482005
0.00521453
0.0662027
-0.111246
-0.0462842
-0.0519907
0.0876935
-0.0282167
-0.0149529
0.000973497
0.0397285
-0.0634127
-0.0247975
0.00368043
-0.0310044
-0.0248777
-0.00069426
-0.012817
0.000358427
0.013657
-0.0258701
-0.00236515
-0.0503755
-0.042512
0.00188711
-0.0195816
-0.00100461
0.0265659
-0.0245401
-0.0299644
-0.0238177
-0.0144341
0.0141943
-0.0228885
0.00174452
-0.0101398
-0.0241826
6.42207e-05
-0.0120356
0.00063464
-0.0117222
-0.0419363
-0.00174597
-0.00442442
-0.0406691
-0.00297221
-0.0169881
-0.00134329
-0.0110253
-0.0187803
-0.0132003
-0.0229737
-0.0136052
-0.0106677
-0.000690883
-0.00130294
-0.0761495
0.00335505
-0.00103484
0.0076696
-0.00913906
0.0704211
-0.00131606
0.00131715
-0.159627
0.00653688
0.000995267
0.0199879
0.00957955
0.130236
-0.000698112
-0.077655
0.00348719
0.00743024
0.0713136
-0.00161649
-0.00131476
-0.0801183
0.00237466
-0.000182727
0.00401289
-0.000632902
0.0668902
-0.00256724
0.00140168
-0.172289
0.00298525
0.000196862
0.0144992
0.000615114
0.121837
-0.00161178
-0.081429
0.00231456
0.00384215
0.0677172
-0.00377411
0.00334986
0.000858843
0.000421491
-0.0015199
-0.0083282
-0.00353087
0.00258906
-0.000372909
0.00152484
-0.00390804
0.000699951
0.00260881
-0.000999384
7.41149e-05
-0.0118572
-0.00727389
0.000374308
-0.0025813
-0.00170273
-0.00509731
-0.012262
-0.011164
0.000835752
-0.00543836
0.0104528
-0.0141085
-0.000516673
-0.013078
0.00165405
-0.0122345
-0.0161616
0.00544929
-0.00234454
-0.0155074
-0.00653396
-0.00219298
-0.00263895
-0.0129833
0.00786534
0.00109034
0.00132052
-0.0102387
0.000350512
0.00229386
0.0025968
0.00226911
0.00137554
-0.0084348
-0.00349655
-0.00188304
-0.00286017
0.00398891
-0.00790658
-0.00211555
-0.00421752
-0.00123513
-0.0050793
-0.0115311
0.00470628
0.00327942
-0.0122531
-0.00436898
0.00471799
0.00162017
-0.00991503
0.0015534
0.00270347
-0.00297791
0.00148461
0.00262355
0.00259796
0.000232724
-0.00467023
-0.00300023
0.00759787
-0.00288391
-0.0033515
-0.00244238
-0.00294496
-0.00124625
0.00148367
6.90563e-05
-0.000788755
-0.0111111
-0.000547843
-0.000619515
-0.0110146
0.001576
-0.00168738
0.00182543
-0.0049075
-0.00794635
-0.0154212
0.000724294
-0.00199447
-0.0120726
-0.00141913
-0.000330969
-0.00182783
0.00159678
-0.00997744
-0.0120399
-0.000238554
-0.0121031
-0.00137357
-0.00530922
-0.00863866
-0.00890111
0.000286576
-0.000457444
-0.008794
0.00100527
-0.00281702
0.000127827
-0.00579571
-0.00804768
-0.0116575
-0.000104615
-0.00145872
-0.00943828
-0.00079937
-0.000721183
2.13823e-05
0.0016236
-0.00932217
-0.00992254
-0.000355938
-0.00984463
-0.00227042
-0.00632489
-0.00882453
-0.000993667
0.000751328
-0.0042636
0.000435159
-0.00187645
-0.00819475
-0.00310948
-0.000525593
-0.00277106
-0.000598635
0.00206896
-0.00505954
-0.00168994
-0.00457942
-0.00885023
0.0127487
0.00217915
-0.00569239
-0.0092377
0.0117433
-0.000107505
0.00110934
-0.00191443
0.00179363
-0.00412817
0.0014314
0.0062756
-0.00133905
-0.00822825
0.00128919
0.00276133
0.000401151
-3.3529e-05
0.0168993
0.00185663
-0.0173239
0.0164264
0.00175912
0.00131324
0.0100352
3.38638e-05
-0.00769558
-0.00806711
0.00958373
0.000679865
0.00087931
-0.00116819
0.00230283
-0.00431242
0.000762254
0.00835794
0.00155962
-0.00344678
1.13614e-05
0.00261789
0.000429971
-0.00103554
0.012218
0.00200565
-0.0116018
0.0126501
0.00133652
0.00213328
0.000759978
-0.00107367
-0.00738225
0.00106291
0.000577624
0.000385701
-0.00987815
0.00142807
0.0157856
-0.00701028
0.000374937
-1.41276e-05
-0.00530993
0.00875021
-0.00359655
-0.00377418
0.00248178
0.00128979
0.00307761
0.00247161
-0.00932505
0.00216585
-0.0083272
0.00211832
-0.00210188
0.00250318
0.00175265
-0.000419927
0.00329767
-0.000834155
0.00345623
0.0115371
-0.0136303
0.0179323
-0.00680735
-0.000220946
-0.00210882
0.00196338
0.00143269
0.00395877
0.00206465
-0.017459
0.00128035
-0.013718
0.00237878
-0.0016852
0.00380269
0.00135756
4.38523e-06
0.00641413
-0.00052791
0.00822086
0.00876856
-0.0240784
0.0127212
-0.0107488
0.000375014
-0.0031788
0.0012995
0.00330559
0.00615412
0.00416724
-0.0309659
0.00150046
-0.0164512
-0.00329079
-0.00408276
0.0124947
-0.00873771
0.000340742
0.015713
0.0010568
0.0157457
0.00982165
-0.0379797
0.00208326
-0.00266471
0.0122714
0.0130813
0.0124728
-0.0225083
-0.00175846
0.0160987
-0.0324866
0.0160917
-0.0345608
-0.0106491
-0.000282722
0.0359517
-0.0078938
0.00518517
0.0238981
0.00379354
0.0201666
0.00571612
-0.0440384
0.0155672
-0.00737187
0.0315988
0.00661273
0.0077439
-0.0369399
0.00481399
0.00741111
-0.0381747
0.00813867
-0.0379628
0.00893529
-0.000960101
0.0358603
0.0111509
-0.00356323
0.0327941
-0.000562919
0.0401501
-0.00293143
-0.0420816
0.0041656
-0.0180602
0.0351549
0.000797398
0.0152155
0.000280023
0.0154646
0.0154242
0.00389844
-0.0216342
0.00384262
-0.0225907
-0.0219906
-0.0130695
-0.0143277
-0.00208363
0.000960177
-0.00682951
0.00188315
0.00154371
-0.00551754
0.00144387
0.000432436
-0.00531328
-0.00114317
-0.00252891
0.00136655
-0.00162909
-0.00347352
-0.00151412
0.00435884
-0.00254632
-0.00724468
0.00189563
-0.00607956
0.000372302
-0.00439377
0.000432706
-0.0109227
0.000974405
0.00131954
-0.0122112
0.00143865
-3.73295e-05
-0.00552878
-0.000577812
-0.00528499
0.000142291
-0.00139271
-0.00640567
-0.00149272
0.00745904
-0.00506363
-0.0115919
0.000822648
-0.0133659
-0.000305687
-0.00672764
0.00149339
-0.0138894
0.00309368
0.00420785
-0.0262467
0.00123166
0.00181932
-0.00534565
-0.00126858
-0.00221463
0.000539528
-0.00451855
-0.00354683
-0.00126705
0.0105166
-0.00726913
-0.0144494
0.00326786
-0.0284281
0.00168808
0.0014028
0.0103688
-0.0257179
-0.01154
0.0106631
-0.0240199
0.00785674
-0.0176243
0.00488689
-0.0098466
0.0132461
0.00380486
-0.0105559
0.0188905
-0.00756648
0.0298942
0.0018083
-0.0261588
-0.0122651
-0.0249641
-0.0181981
-0.00385258
0.00721118
-0.0291668
-0.00420486
0.006787
-0.0305448
0.00722374
-0.0291413
-0.004428
-0.00692702
0.0318816
-0.00626651
-0.00646322
0.0340518
-0.00683046
0.0377518
-0.00357506
-0.0296023
-0.00429235
-0.030801
-0.0294104
0.000308078
0.0191968
-0.000580496
0.0191369
0.0189326
-0.00303363
-0.0190089
-0.0036109
-0.0189633
-0.0187484
0.000204317
-0.0006276
)
;

boundaryField
{
    fuel
    {
        type            calculated;
        value           nonuniform List<scalar> 
36
(
0.000130455
0.000217587
0.000130455
0.000130456
0.000217588
0.000130456
0.000130456
0.00021759
0.000130456
-0.000130455
-0.000217587
-0.000130455
-0.000130456
-0.000217588
-0.000130455
-0.000130456
-0.00021759
-0.000130456
0
0
0
0
0
0
0
0
0
0
0
0
0
0
0
0
0
0
)
;
    }
    primary_air
    {
        type            calculated;
        value           nonuniform List<scalar> 9(-0.00320916 -0.00535786 -0.00320996 -0.00320062 -0.0053371 -0.00320119 -0.00319556 -0.00532841 -0.00319582);
    }
    Secondary_air_RHS
    {
        type            calculated;
        value           nonuniform List<scalar> 9(0.00648736 0.0107881 0.0064849 0.00647829 0.0107499 0.00647575 0.00648336 0.0107481 0.00648072);
    }
    Secondary_air_LHS
    {
        type            calculated;
        value           nonuniform List<scalar> 9(0.00626415 0.0105092 0.00625204 0.00625739 0.0105356 0.00624561 0.00628077 0.0106029 0.00627035);
    }
    outlet
    {
        type            calculated;
        value           nonuniform List<scalar> 
18
(
-0.0487412
0.0731594
-0.0488843
-0.048862
0.0727649
-0.0490005
-0.0487239
0.0718577
-0.0488552
-0.0529979
0.0688556
-0.0506671
-0.0531688
0.0709484
-0.0394604
-0.0531552
0.0814555
-0.00127273
)
;
    }
    stove_body
    {
        type            calculated;
        value           uniform 0;
    }
    frontAndBack
    {
        type            empty;
        value           nonuniform 0();
    }
}


// ************************************************************************* //
