/*--------------------------------*- C++ -*----------------------------------*\
  =========                 |
  \\      /  F ield         | OpenFOAM: The Open Source CFD Toolbox
   \\    /   O peration     | Website:  https://openfoam.org
    \\  /    A nd           | Version:  6
     \\/     M anipulation  |
\*---------------------------------------------------------------------------*/
FoamFile
{
    version     2.0;
    format      ascii;
    class       volScalarField;
    location    "0.5";
    object      T;
}
// * * * * * * * * * * * * * * * * * * * * * * * * * * * * * * * * * * * * * //

dimensions      [0 0 0 1 0 0 0];

internalField   nonuniform List<scalar> 
297
(
292.173
292.173
292.175
293.247
293.25
293.246
292.173
292.173
292.175
292.655
292.65
292.769
294.282
294.312
294.35
292.647
292.65
292.773
319.916
321.14
329.149
424.311
439.412
446.786
319.444
321.162
329.442
440.806
430.411
390.061
443.289
436.43
400.513
438.064
428.991
391.028
474.146
469.036
431.942
455.804
456.091
423.71
466.014
462.193
429.683
474.254
473.501
441.123
454.509
459.435
428.945
465.74
465.424
436.218
431.541
489.453
496.747
420.789
470.114
475.886
425.204
478.595
490.804
387.383
471.339
496.737
386.683
461.764
476.748
382.573
458.603
490.774
317.958
384.118
405.7
359.441
378.648
423.445
323.83
356.415
408.903
466.783
472.651
458.495
447.968
459.758
442.93
457.709
465.24
453.42
453.004
472.239
476.729
438.555
459.766
457.499
445.103
464.989
470.921
441.895
475.499
495.345
430.694
460.337
472.833
434.746
467.82
488.979
301.82
300.733
299.103
301.565
300.999
300.619
299.826
300.18
299.511
302.117
302.194
299.447
302.163
301.527
300.812
300.815
300.599
299.813
302.295
302.332
300.864
302.175
301.879
301.138
300.906
300.536
299.977
299.07
299.115
299.211
300.544
300.523
300.646
299.486
299.544
299.668
299.45
299.42
299.432
300.812
300.799
300.846
299.777
299.741
299.794
299.738
299.523
299.486
300.905
300.996
301.043
299.931
299.891
299.816
302.164
301.971
301.962
302.483
301.642
301.556
299.088
299.298
299.462
302.215
302.023
302.082
302.262
302.115
302.21
300.308
300.485
300.599
302.004
302.238
302.245
301.997
302.22
302.208
300.766
300.869
300.898
302.967
302.84
302.296
302.265
303.203
303.003
299.121
299.69
298.947
303.429
302.602
301.995
302.557
303.205
302.863
298.638
300.408
300.261
303.407
302.442
301.582
302.525
302.972
302.159
298.279
300.96
300.844
301.615
300.846
300.864
300.222
302.697
302.843
298.014
299.115
298.619
298.563
298.318
297.517
299.06
301.129
301.601
294.594
293.899
294.49
292.078
291.976
291.337
289.53
288.12
283.998
290.889
290.348
298.914
299.244
299.356
299.307
300.804
300.821
300.566
299.709
299.769
299.809
299.316
299.498
299.353
300.901
300.854
300.468
299.707
299.752
299.841
299.195
299.455
299.738
301.027
300.883
300.458
299.623
299.725
299.887
298.968
299.538
299.395
301.686
300.68
298.813
299.529
299.694
299.483
297.363
297.149
297.258
300.642
298.741
298.157
297.346
297.188
297.292
291.155
291.209
291.284
287.217
287.232
287.193
291.184
291.236
291.31
)
;

boundaryField
{
    fuel
    {
        type            fixedValue;
        value           uniform 293;
    }
    primary_air
    {
        type            fixedValue;
        value           uniform 293;
    }
    Secondary_air_RHS
    {
        type            fixedValue;
        value           uniform 293;
    }
    Secondary_air_LHS
    {
        type            fixedValue;
        value           uniform 293;
    }
    outlet
    {
        type            inletOutlet;
        inletValue      uniform 293;
        value           nonuniform List<scalar> 
18
(
293
287.217
293
293
287.232
293
293
287.193
293
293
289.533
293
293
288.123
293
293
284
293
)
;
    }
    stove_body
    {
        type            fixedValue;
        value           uniform 293;
    }
    frontAndBack
    {
        type            empty;
    }
}


// ************************************************************************* //
