/*--------------------------------*- C++ -*----------------------------------*\
  =========                 |
  \\      /  F ield         | OpenFOAM: The Open Source CFD Toolbox
   \\    /   O peration     | Website:  https://openfoam.org
    \\  /    A nd           | Version:  6
     \\/     M anipulation  |
\*---------------------------------------------------------------------------*/
FoamFile
{
    version     2.0;
    format      ascii;
    class       volScalarField;
    location    "4";
    object      T;
}
// * * * * * * * * * * * * * * * * * * * * * * * * * * * * * * * * * * * * * //

dimensions      [0 0 0 1 0 0 0];

internalField   nonuniform List<scalar> 
297
(
289.869
291.416
289.825
295.783
298.423
295.702
289.869
291.416
289.825
289.911
291.446
289.862
298.825
305.41
298.595
289.911
291.446
289.862
291.222
293.624
291.084
299.404
306.187
299.109
291.222
293.624
291.084
293.284
295.86
293.316
294.907
295.954
294.899
293.313
295.858
293.285
297.167
297.601
298.034
297.606
296.964
297.615
298.03
297.598
297.172
299.979
297.615
300.907
300.125
300.924
300.126
300.91
297.611
299.982
296.549
295.775
296.853
303.186
302.68
303.188
296.852
295.774
296.551
295.626
295.615
296.417
303.169
303.127
303.173
296.414
295.614
295.627
295.033
295.388
295.717
302.97
302.399
302.973
295.714
295.387
295.035
300.42
297.04
301.399
301.137
301.957
301.142
301.404
297.033
300.422
299.371
296.543
299.552
301.426
301.961
301.432
299.986
296.541
299.064
298.748
295.922
299.115
302.367
302.074
302.386
299.114
295.917
298.751
295.206
295.35
295.545
302.71
299.627
302.712
295.546
295.35
295.209
294.613
294.875
294.902
302.459
299.629
302.46
294.904
294.876
294.616
294.656
294.767
294.821
300.776
299.784
300.776
294.823
294.768
294.66
294.849
294.052
293.737
302.697
302.717
302.716
294.576
293.85
293.555
295.058
294.078
293.76
302.358
302.013
302.114
294.762
293.88
293.609
294.808
294.156
293.897
300.594
300.065
300.09
294.648
293.981
293.773
293.55
293.844
294.57
302.715
302.715
302.695
293.744
294.059
294.855
293.605
293.875
294.756
302.114
302.012
302.357
293.767
294.085
295.064
293.769
293.976
294.642
300.09
300.066
300.594
293.903
294.163
294.814
293.468
293.784
293.285
298.097
298.792
302.723
293.958
294.137
293.575
293.219
293.665
293.387
298.129
299.82
302.325
293.755
294.045
293.709
292.724
293.673
294.021
298.108
300.162
300.943
293.21
294.068
293.792
292.46
293.164
292.075
298.217
298.353
298.351
292.957
293.26
291.88
291.431
292.683
292.947
297.938
296.42
295.82
291.705
292.665
293.022
287.933
287.309
287.285
285.037
282.625
283.266
288.099
287.502
287.492
293.568
294.133
293.959
302.724
298.792
298.096
293.289
293.786
293.468
293.703
294.039
293.713
302.325
299.82
298.128
293.388
293.667
293.243
293.787
294.057
293.181
300.943
300.162
298.106
294.022
293.678
292.708
291.883
293.265
292.942
298.351
298.353
298.216
292.069
293.157
292.449
293.018
292.659
291.736
295.821
296.422
297.94
292.954
292.692
291.44
287.495
287.505
288.102
283.267
282.626
285.038
287.283
287.306
287.931
)
;

boundaryField
{
    fuel
    {
        type            fixedValue;
        value           uniform 293;
    }
    primary_air
    {
        type            fixedValue;
        value           uniform 293;
    }
    Secondary_air_RHS
    {
        type            fixedValue;
        value           uniform 293;
    }
    Secondary_air_LHS
    {
        type            fixedValue;
        value           uniform 293;
    }
    outlet
    {
        type            inletOutlet;
        inletValue      uniform 293;
        value           nonuniform List<scalar> 
18
(
293
283.267
293
293
282.625
293
293
285.038
293
293
285.038
293
293
282.625
293
293
283.266
293
)
;
    }
    stove_body
    {
        type            fixedValue;
        value           uniform 293;
    }
    frontAndBack
    {
        type            empty;
    }
}


// ************************************************************************* //
