/*--------------------------------*- C++ -*----------------------------------*\
  =========                 |
  \\      /  F ield         | OpenFOAM: The Open Source CFD Toolbox
   \\    /   O peration     | Website:  https://openfoam.org
    \\  /    A nd           | Version:  6
     \\/     M anipulation  |
\*---------------------------------------------------------------------------*/
FoamFile
{
    version     2.0;
    format      ascii;
    class       volVectorField;
    location    "4";
    object      U;
}
// * * * * * * * * * * * * * * * * * * * * * * * * * * * * * * * * * * * * * //

dimensions      [0 1 -1 0 0 0 0];

internalField   nonuniform List<vector> 
297
(
(138.942 -0.000940928 0.261409)
(139.124 0.00583431 0.258066)
(138.98 -0.0118794 0.26115)
(-2.36815e-07 0.104495 -0.568264)
(-2.35499e-07 0.0296477 -0.577578)
(-2.33778e-07 -0.112809 -0.574517)
(-138.942 -0.000940532 0.26141)
(-139.124 0.00583494 0.258067)
(-138.98 -0.0118792 0.261151)
(138.776 -0.026873 0.604838)
(139.013 0.00236717 0.618714)
(138.817 0.0109259 0.609615)
(-2.05603e-07 -0.0351935 -0.316988)
(-2.04502e-07 0.0136369 -0.313658)
(-2.03992e-07 -0.0050757 -0.315236)
(-138.776 -0.0268725 0.604842)
(-139.012 0.00236805 0.618718)
(-138.816 0.0109263 0.609619)
(131.204 -0.0800368 0.947079)
(132.125 -0.00102188 0.966699)
(131.327 0.0519399 0.953636)
(-2.02912e-07 -0.0483672 0.512385)
(-2.02625e-07 0.0121621 0.529107)
(-2.02233e-07 0.00951503 0.521676)
(-131.203 -0.0800353 0.94708)
(-132.125 -0.00102 0.966701)
(-131.326 0.0519401 0.953637)
(92.6183 -2.63975 -3.33555)
(93.9618 0.374006 -8.18056)
(92.6374 2.6668 -4.11699)
(0.00222949 -1.1474 3.27614)
(-3.56291e-06 -0.000684361 3.01303)
(-0.00224206 1.1553 3.27147)
(-92.6361 -2.65175 -4.08107)
(-93.962 -0.373088 -8.17898)
(-92.6197 2.65063 -3.37062)
(94.7889 0.422791 8.7713)
(94.9977 1.35973 -14.6831)
(95.0744 -3.15187 7.13344)
(0.00489588 1.63341 24.6523)
(1.7873e-05 0.00284205 16.6298)
(-0.00485463 -1.66154 24.654)
(-95.0745 3.10729 7.0927)
(-94.9978 -1.36023 -14.6836)
(-94.7895 -0.465843 8.81805)
(95.2268 13.985 -11.038)
(94.5187 2.33588 -15.8018)
(95.6142 -8.53948 -2.0318)
(0.0185588 -1.57287 30.2413)
(0.000203153 3.3151e-05 2.94817)
(-0.0185059 1.56713 30.2379)
(-95.6159 8.54207 -2.00235)
(-94.4809 -2.33081 -15.8043)
(-95.2267 -13.987 -11.0647)
(94.2303 8.06324 -22.5318)
(94.5458 -1.94733 -16.5628)
(94.491 -1.01332 -19.3542)
(-0.00933361 0.865037 0.449927)
(3.606e-05 0.00898665 -7.86028)
(0.00921154 -0.871166 0.454242)
(-94.4922 1.01804 -19.3232)
(-94.5641 1.94992 -16.5747)
(-94.2295 -8.05471 -22.5611)
(94.1469 12.1922 -17.7081)
(94.1857 -2.75404 -21.9081)
(94.7824 -6.6055 -12.4194)
(-0.0185163 1.53443 4.32826)
(-0.000286132 0.00669155 0.686279)
(0.017955 -1.53911 4.32493)
(-94.7831 6.61015 -12.4074)
(-94.1862 2.76198 -21.9123)
(-94.1478 -12.1932 -17.7138)
(94.1153 15.6057 -24.1432)
(93.9526 -6.88361 -22.885)
(94.3421 -15.7277 -23.1585)
(-0.0284741 -0.459846 14.0262)
(-9.21857e-05 0.00102132 6.66686)
(0.0284184 0.454605 14.0215)
(-94.3418 15.7278 -23.1614)
(-93.9528 6.88202 -22.8859)
(-94.1159 -15.6061 -24.145)
(87.9705 17.8054 -18.8204)
(88.0058 1.33639 -11.5926)
(89.7604 -10.2791 -16.932)
(-0.0107063 -1.77597 38.948)
(0.000609563 0.00476855 -22.1043)
(0.0108475 1.76474 38.9382)
(-89.7469 10.3099 -16.9029)
(-89.9947 -1.29143 -11.6319)
(-87.9856 -17.7752 -18.8503)
(86.0769 12.0998 -22.0632)
(90.0343 -0.117534 -9.44812)
(87.5374 -4.37259 -18.9067)
(-0.00979951 -1.91745 42.1904)
(0.000490983 0.00878302 -21.1126)
(0.00985747 1.90336 42.1832)
(-87.645 4.40537 -18.8866)
(-91.4979 0.18811 -9.40848)
(-86.0077 -12.0641 -22.0882)
(80.957 10.7591 -21.7259)
(94.4945 -0.262427 -10.244)
(82.7571 -3.48353 -18.7689)
(-0.00797777 -2.08177 41.2787)
(-0.000147041 0.00784641 -17.3675)
(0.0079217 2.06687 41.2762)
(-82.7745 3.49511 -18.747)
(-93.5132 0.305053 -10.2272)
(-80.9398 -10.7435 -21.7479)
(92.1056 24.7745 -5.41032)
(92.9731 -7.64115 -8.14447)
(91.6646 -29.0417 -6.82383)
(-0.0107469 -8.41714 13.6163)
(0.000365942 0.00123113 -5.39197)
(0.0120007 8.41456 13.6127)
(-91.6632 29.0501 -6.82645)
(-92.9731 7.63638 -8.14482)
(-92.1037 -24.7855 -5.41385)
(93.31 19.9451 -1.35347)
(93.6308 -3.5808 -3.73268)
(93.1821 -23.8731 -1.74272)
(-0.00587554 -10.2781 7.43145)
(0.000482919 0.000628891 -4.49528)
(0.00746425 10.2769 7.4274)
(-93.1809 23.8807 -1.74422)
(-93.6307 3.57681 -3.7336)
(-93.3077 -19.9564 -1.3555)
(93.9971 3.36825 0.840329)
(94.1409 -2.3649 -1.12401)
(93.9607 -6.60401 2.28923)
(-0.00142788 -5.56906 -0.0411496)
(0.00054471 0.000352694 -0.86264)
(0.00318311 5.5685 -0.0420869)
(-93.9587 6.6115 2.28869)
(-94.1403 2.36288 -1.1238)
(-93.9954 -3.37869 0.839613)
(90.1834 -31.6724 -1.48724)
(91.4517 -36.3973 -4.39911)
(91.7138 -38.0577 -5.76404)
(-0.00627591 15.6053 9.75336)
(-0.00695904 13.1705 5.94023)
(-0.00951044 11.8658 7.41604)
(-90.7337 -26.9347 -0.751166)
(-91.6276 -31.6424 -2.89791)
(-91.8062 -33.3746 -3.90985)
(90.8036 -24.8388 4.05229)
(92.2007 -29.3457 3.37657)
(92.8168 -30.4679 1.61705)
(-0.00106651 19.2759 1.85839)
(0.000817304 19.3666 -3.31931)
(-0.00125601 18.9387 -0.604925)
(-91.3968 -20.9831 3.64762)
(-92.2556 -25.2829 3.13169)
(-92.5268 -26.7058 1.99602)
(93.395 -8.26675 7.62721)
(93.8941 -4.1554 7.72271)
(93.8698 4.84379 8.11967)
(0.000696969 11.2223 -5.29653)
(0.00221537 10.8628 -3.32164)
(-0.00291915 15.0782 -0.634494)
(-93.5792 -4.9713 6.18771)
(-93.8424 -1.2175 6.2102)
(-93.5364 3.76566 7.47675)
(91.7999 33.3696 -3.91034)
(91.6244 31.6337 -2.89836)
(90.7398 26.9206 -0.751181)
(0.0110346 -11.8594 7.41711)
(0.00900839 -13.1661 5.94119)
(0.00858576 -15.6046 9.75528)
(-91.7238 38.0715 -5.76445)
(-91.458 36.4138 -4.39917)
(-90.1765 31.6899 -1.48752)
(92.5219 26.7038 1.9943)
(92.2556 25.274 3.13167)
(91.4062 20.9691 3.64734)
(0.00276228 -18.935 -0.6038)
(0.00135478 -19.3644 -3.31814)
(0.00346535 -19.2758 1.86112)
(-92.8282 30.4788 1.61803)
(-92.207 29.3623 3.37631)
(-90.7958 24.8554 4.05232)
(93.5387 -3.76353 7.47505)
(93.8451 1.20987 6.20977)
(93.5829 4.959 6.18812)
(0.00434568 -15.0749 -0.635857)
(4.66054e-05 -10.8616 -3.32331)
(0.00171947 -11.2226 -5.29757)
(-93.8648 -4.83384 8.12096)
(-93.8897 4.17142 7.72343)
(-93.3914 8.28208 7.62727)
(91.2093 15.2418 -16.8448)
(89.6208 19.1735 -10.7409)
(92.3481 31.218 -8.23309)
(0.0561229 8.31552 -3.66177)
(0.0464215 5.46448 4.6212)
(0.0264549 -4.49057 10.73)
(-90.9197 17.4634 -19.5184)
(-89.6805 21.6573 -13.0872)
(-92.2776 34.5713 -10.6114)
(91.7444 4.21276 -30.2604)
(91.3354 11.8261 -16.233)
(93.5201 24.114 -1.80025)
(0.0494591 4.39215 -7.04877)
(0.0343475 3.05319 8.34453)
(0.0154184 -10.9068 8.35505)
(-91.6054 5.87581 -32.4108)
(-91.1507 11.3511 -18.7637)
(-93.5946 25.2714 -2.2707)
(95.1493 2.17944 -39.3812)
(91.0979 9.13753 -12.8469)
(92.3992 6.9932 5.52845)
(0.0452933 4.48519 -11.7654)
(0.0240999 -6.48019 19.2591)
(0.0108516 -17.4823 11.7584)
(-95.3679 3.2744 -41.1399)
(-90.15 5.66694 -15.3044)
(-92.9532 17.5938 3.12471)
(93.8195 -6.61216 -55.2195)
(93.2902 1.26695 -1.03695)
(92.707 7.2982 56.5842)
(0.0251877 -6.97014 13.0487)
(0.021683 7.09276 38.3833)
(0.0230864 -2.11082 58.4726)
(-93.9824 -7.34828 -56.3838)
(-93.2175 -0.882898 -8.72735)
(-92.67 11.6913 58.8325)
(91.8832 -2.18394 -74.2677)
(91.2107 -7.97849 -18.3191)
(91.009 0.057732 12.0703)
(-0.0209319 -1.1781 30.5381)
(-0.0199266 -0.435325 68.212)
(-0.0173605 -0.71651 86.5265)
(-92.0635 -1.71228 -78.3362)
(-91.2131 -8.4756 -33.06)
(-91.0811 0.414818 -0.246905)
(86.3827 -1.90574 -120.248)
(85.7635 -3.15779 -109.621)
(86.1461 -1.43276 -106.835)
(-0.0892814 -2.02527 176.333)
(-0.0902349 -2.68447 187.374)
(-0.0906981 -1.55221 183.444)
(-86.7904 -1.71611 -122.935)
(-86.0946 -2.77392 -112.923)
(-86.3719 -1.45386 -109.508)
(92.2776 -34.56 -10.6124)
(89.6776 -21.6526 -13.0896)
(90.9278 -17.4614 -19.5238)
(-0.0255654 4.49953 10.7306)
(-0.0463973 -5.46066 4.62328)
(-0.0565749 -8.31466 -3.66018)
(-92.3463 -31.2196 -8.2306)
(-89.6233 -19.1705 -10.7366)
(-91.2071 -15.2406 -16.8385)
(93.5965 -25.2665 -2.27459)
(91.1495 -11.3518 -18.7699)
(91.6031 -5.87854 -32.4256)
(-0.0149335 10.9126 8.35471)
(-0.0350198 -3.05064 8.34856)
(-0.0509454 -4.39156 -7.04623)
(-93.5187 -24.1093 -1.7927)
(-91.3411 -11.8176 -16.2214)
(-91.7588 -4.20869 -30.2405)
(92.9553 -17.5938 3.11915)
(90.1465 -5.68307 -15.3131)
(95.3478 -3.27838 -41.1727)
(-0.0110752 17.486 11.7611)
(-0.0257131 6.48018 19.2621)
(-0.0478501 -4.48481 -11.7626)
(-92.399 -6.98606 5.53969)
(-91.1053 -9.11839 -12.8317)
(-95.157 -2.17209 -39.3501)
(92.6693 -11.6938 58.8155)
(93.2142 0.872165 -8.7375)
(93.9615 7.33972 -56.4002)
(-0.0271226 2.10983 58.4716)
(-0.0266923 -7.09342 38.3817)
(-0.0315619 6.97108 13.0466)
(-92.7094 -7.29541 56.5968)
(-93.2966 -1.25524 -1.03155)
(-93.8278 6.61983 -55.2126)
(91.0842 -0.409099 -0.252856)
(91.2174 8.49503 -33.0727)
(92.1029 1.72433 -78.3347)
(0.0231537 0.715718 86.5248)
(0.0271617 0.435599 68.209)
(0.0301279 1.17832 30.5351)
(-91.0074 -0.0648209 12.0749)
(-91.2075 7.95933 -18.3123)
(-91.8672 2.17228 -74.2729)
(86.3714 1.45398 -109.495)
(86.094 2.77403 -112.91)
(86.8 1.71638 -122.935)
(0.0894857 1.55193 183.444)
(0.089069 2.68433 187.374)
(0.0882121 2.02516 176.335)
(-86.1473 1.43259 -106.843)
(-85.7648 3.15749 -109.629)
(-86.3793 1.90559 -120.247)
)
;

boundaryField
{
    fuel
    {
        type            fixedValue;
        value           uniform (0 0 0.25);
    }
    primary_air
    {
        type            fixedValue;
        value           uniform (0 0 2.5);
    }
    Secondary_air_RHS
    {
        type            fixedValue;
        value           uniform (0 25 0);
    }
    Secondary_air_LHS
    {
        type            fixedValue;
        value           uniform (0 -25 0);
    }
    outlet
    {
        type            pressureInletOutletVelocity;
        value           nonuniform List<vector> 
18
(
(0 0 -109.495)
(0.0894857 1.55193 183.444)
(0 0 -106.843)
(0 0 -112.91)
(0.089069 2.68433 187.374)
(0 0 -109.629)
(0 0 -122.935)
(0.0882121 2.02516 176.335)
(0 0 -120.247)
(0 0 -120.248)
(-0.0892814 -2.02527 176.333)
(0 0 -122.935)
(0 0 -109.621)
(-0.0902349 -2.68447 187.374)
(0 0 -112.923)
(0 0 -106.835)
(-0.0906981 -1.55221 183.444)
(0 0 -109.508)
)
;
    }
    stove_body
    {
        type            noSlip;
    }
    frontAndBack
    {
        type            empty;
    }
}


// ************************************************************************* //
