/*--------------------------------*- C++ -*----------------------------------*\
  =========                 |
  \\      /  F ield         | OpenFOAM: The Open Source CFD Toolbox
   \\    /   O peration     | Website:  https://openfoam.org
    \\  /    A nd           | Version:  6
     \\/     M anipulation  |
\*---------------------------------------------------------------------------*/
FoamFile
{
    version     2.0;
    format      ascii;
    class       volScalarField;
    location    "3.5";
    object      O2;
}
// * * * * * * * * * * * * * * * * * * * * * * * * * * * * * * * * * * * * * //

dimensions      [0 0 0 0 0 0 0];

internalField   nonuniform List<scalar> 
297
(
0
0
0
0
0
0
0
0
0
0
0
0
0
0
0
0
0
0
0
0
0
0
0
0
0
0
0
0.127029
0.0487717
0.126225
0.186943
0.171472
0.185312
0.127184
0.0486676
0.126708
0.0320004
0.000344013
0.0322186
0.113202
0.11606
0.112908
0.0321862
0.000297043
0.0321447
0
0
0
0.0757138
0.0195165
0.0754204
0
0
0
0
1.73292e-10
0
0
0
0
0
0
0
5.49342e-17
4.20614e-15
3.75626e-17
4.85387e-19
2.9338e-14
7.91476e-19
2.33606e-15
4.80344e-15
2.36947e-15
2.66082e-15
2.14145e-15
2.75105e-15
6.02225e-15
1.93839e-14
6.13852e-15
2.69187e-15
1.95556e-15
2.7312e-15
0
0
0
0.0296533
2.22438e-07
0.0293504
0
0
0
0
0
0
0.0126127
0
0.0121951
0
0
0
0
0
0
0
0
0
0
0
0
1.93991e-15
1.38769e-15
1.97634e-15
5.82341e-15
1.06522e-15
5.89978e-15
1.96074e-15
1.3882e-15
1.96596e-15
1.05141e-15
9.66167e-16
1.0546e-15
5.27353e-15
1.06208e-15
5.3939e-15
1.01293e-15
1.00256e-15
1.05486e-15
8.71781e-16
8.85857e-16
8.92807e-16
1.3925e-15
1.08375e-15
1.34088e-15
8.48845e-16
8.88007e-16
9.08462e-16
1.13581e-15
6.4441e-16
2.42254e-16
5.89448e-15
5.89352e-15
5.89339e-15
1.1379e-15
6.46762e-16
2.33956e-16
1.06997e-15
2.94026e-16
1.7528e-16
4.4589e-15
4.50558e-15
5.27383e-15
1.0555e-15
2.87889e-16
1.67804e-16
8.70032e-16
2.77652e-16
1.97076e-16
1.27068e-15
1.16547e-15
3.16165e-15
8.90332e-16
2.77509e-16
1.94124e-16
3.36696e-16
5.38126e-16
1.12439e-15
5.82148e-15
5.82037e-15
5.82067e-15
2.48528e-16
4.54796e-16
1.14414e-15
1.79121e-16
2.88678e-16
1.04207e-15
5.23238e-15
4.42577e-15
4.37783e-15
1.55307e-16
2.68552e-16
1.046e-15
2.29084e-16
2.88896e-16
8.43659e-16
2.95753e-15
1.13559e-15
1.30997e-15
1.78429e-16
2.48855e-16
8.04674e-16
1.2817e-18
2.0406e-17
2.08653e-17
3.4034e-18
3.41401e-18
2.0123e-15
1.43556e-18
2.48891e-17
2.51095e-17
3.74613e-18
5.58279e-17
6.94033e-17
3.89716e-18
4.55517e-18
3.25126e-15
4.12217e-18
6.62614e-17
7.60982e-17
3.75509e-18
1.00445e-16
2.09881e-16
4.08057e-18
1.36606e-15
3.20462e-15
4.11952e-18
1.20743e-16
1.72351e-16
3.75247e-18
1.84503e-17
1.07895e-16
4.07067e-18
6.04623e-16
2.02196e-15
4.11675e-18
1.29329e-17
8.72204e-17
4.27502e-18
1.98231e-17
4.28193e-17
3.67393e-17
4.95084e-16
1.35069e-15
4.42747e-18
1.37326e-17
3.45592e-17
2.91961e-22
2.12366e-21
4.13412e-21
3.76835e-17
2.43061e-16
5.46386e-16
5.36308e-22
2.10737e-21
4.11182e-21
2.10852e-17
2.15157e-17
4.30573e-18
2.0682e-15
4.63759e-18
4.53376e-18
2.20228e-17
2.1808e-17
4.57206e-18
8.13453e-17
7.2692e-17
4.29761e-18
3.29967e-15
5.05068e-18
4.55493e-18
6.99591e-17
5.63491e-17
4.57174e-18
1.77638e-16
1.23085e-16
4.29015e-18
3.26144e-15
1.38504e-15
4.5637e-18
2.07386e-16
1.01745e-16
4.56952e-18
9.20312e-17
1.4478e-17
4.24337e-18
1.74359e-15
5.10272e-16
4.53428e-18
1.05017e-16
1.60421e-17
4.56702e-18
3.6756e-17
1.6e-17
4.20103e-18
1.38153e-15
4.4929e-16
3.70106e-17
4.15503e-17
1.82288e-17
4.56829e-18
4.37823e-21
2.06216e-21
2.85675e-22
5.81962e-16
2.24715e-16
3.63423e-17
4.3908e-21
2.06867e-21
5.2937e-22
)
;

boundaryField
{
    fuel
    {
        type            fixedValue;
        value           uniform 0;
    }
    primary_air
    {
        type            fixedValue;
        value           uniform 0.23;
    }
    Secondary_air_RHS
    {
        type            fixedValue;
        value           uniform 0.23;
    }
    Secondary_air_LHS
    {
        type            fixedValue;
        value           uniform 0.23;
    }
    outlet
    {
        type            inletOutlet;
        inletValue      uniform 0;
        value           nonuniform List<scalar> 
18
(
0
5.81962e-16
0
0
2.24715e-16
0
0
3.63423e-17
0
0
3.76835e-17
0
0
2.43061e-16
0
0
5.46386e-16
0
)
;
    }
    stove_body
    {
        type            fixedValue;
        value           uniform 0;
    }
    frontAndBack
    {
        type            empty;
    }
}


// ************************************************************************* //
