/*--------------------------------*- C++ -*----------------------------------*\
  =========                 |
  \\      /  F ield         | OpenFOAM: The Open Source CFD Toolbox
   \\    /   O peration     | Website:  https://openfoam.org
    \\  /    A nd           | Version:  6
     \\/     M anipulation  |
\*---------------------------------------------------------------------------*/
FoamFile
{
    version     2.0;
    format      ascii;
    class       volScalarField;
    location    "3.5";
    object      p;
}
// * * * * * * * * * * * * * * * * * * * * * * * * * * * * * * * * * * * * * //

dimensions      [1 -1 -2 0 0 0 0];

internalField   nonuniform List<scalar> 
297
(
110737
110737
110737
181658
181658
181658
110737
110737
110737
110737
110737
110737
181658
181658
181658
110737
110737
110737
110737
110737
110737
181659
181659
181659
110737
110737
110737
97264.1
97284.6
97264.9
159757
159743
159757
97264.3
97284.6
97264.6
97217.4
97237.9
97218.3
159555
159589
159554
97217.1
97235.9
97217.3
97115.6
97253.7
97122.1
158208
158958
158211
97117.1
97250.6
97120
97020.8
97145
97018.5
159416
159168
159413
97020.9
97144.8
97020.1
96986.1
97098.2
96982.3
159430
159396
159430
96984.4
97098.6
96983.7
96891.9
97088
96886.3
159210
159289
159208
96888.7
97086.9
96887.2
96759.4
97359
96758.2
155512
158400
155509
96758.5
97357.7
96758.1
96695
97348.8
96692.6
155217
158480
155213
96694.2
97349.2
96692.8
96661
97322.3
96658
155488
158664
155484
96660.8
97326
96658.7
97337.6
97398.4
97335.3
159241
159291
159240
97335.9
97397.5
97336.1
97431
97464.2
97429.5
159327
159310
159326
97429.7
97462.5
97430.5
97473.2
97479
97472.7
159373
159345
159372
97472.3
97477.7
97473.4
97482.7
97383.7
97319.1
159017
159159
159348
97486.6
97389.7
97326.1
97397.4
97248.7
97130
159160
159203
159345
97401.5
97254.8
97136.8
97361
97208.8
97099.8
159219
159180
159174
97365
97214.7
97105.8
97316
97381.6
97481.5
159341
159156
159016
97316.8
97382.4
97482.2
97128.2
97247.5
97396.5
159339
159201
159159
97128.4
97247.3
97396.4
97097.9
97207.8
97359.8
159170
159178
159220
97098.3
97207.4
97359.6
98598.4
98228.1
97628.6
159377
159349
159383
98602.8
98231.9
97630.8
98185.4
97706.3
97288.1
159209
159116
159245
98190.2
97710
97289.8
97763.5
97316.4
97040.2
158980
158790
158873
97768.2
97319.5
97041.8
96320.2
96228.4
96209
157527
157429
157369
96321.7
96229.7
96210.3
94774.6
94834.9
94907
153351
153338
153338
94771.8
94832.2
94904.6
91448
91523
91592.8
141603
141626
141658
91443.2
91518.2
91588.1
97634.2
98236.9
98608.8
159392
159359
159387
97641.5
98245.4
98618.9
97292.2
97713.7
98194.6
159253
159125
159217
97298.5
97719.9
98202.5
97043.6
97322.1
97771
158879
158796
158986
97048.2
97326.6
97776.5
96212.8
96232.6
96325.6
157368
157428
157526
96207.9
96228.2
96321.1
94895.1
94822.2
94761.7
153315
153314
153326
94892.4
94819.6
94758.9
91589
91519.1
91443.9
141661
141630
141606
91587.3
91517.2
91441.9
)
;

boundaryField
{
    fuel
    {
        type            zeroGradient;
    }
    primary_air
    {
        type            zeroGradient;
    }
    Secondary_air_RHS
    {
        type            zeroGradient;
    }
    Secondary_air_LHS
    {
        type            zeroGradient;
    }
    outlet
    {
        type            totalPressure;
        rho             rho;
        psi             none;
        gamma           1;
        p0              uniform 100000;
        value           nonuniform List<scalar> 
18
(
93087
100000
93088.1
92746.2
100000
92746.5
91844.4
100000
91833.4
91824.3
100000
91814.9
92758.8
100000
92757.6
93099
100000
93095.6
)
;
    }
    stove_body
    {
        type            zeroGradient;
    }
    frontAndBack
    {
        type            empty;
    }
}


// ************************************************************************* //
