/*--------------------------------*- C++ -*----------------------------------*\
  =========                 |
  \\      /  F ield         | OpenFOAM: The Open Source CFD Toolbox
   \\    /   O peration     | Website:  https://openfoam.org
    \\  /    A nd           | Version:  6
     \\/     M anipulation  |
\*---------------------------------------------------------------------------*/
FoamFile
{
    version     2.0;
    format      ascii;
    class       surfaceScalarField;
    location    "3.5";
    object      phi;
}
// * * * * * * * * * * * * * * * * * * * * * * * * * * * * * * * * * * * * * //

dimensions      [1 0 -1 0 0 0 0];

internalField   nonuniform List<scalar> 
675
(
-2.09692e-06
-0.000208746
0.000328113
2.13583e-06
-0.000218314
0.000331364
-0.000208598
0.000328006
8.63738e-06
0.000208746
-0.000233773
-9.12364e-06
0.000218315
-0.000226482
0.000208599
-0.000233961
-2.09697e-06
0.000328114
2.13577e-06
0.000331365
0.000328008
-2.15781e-06
1.69795e-05
0.0003133
2.22465e-06
9.71142e-06
0.000317291
1.70668e-05
0.000313173
4.35291e-06
-1.69785e-05
-0.000204224
-4.48227e-06
-9.71022e-06
-0.000198211
-1.70656e-05
-0.000204368
-2.15787e-06
0.000313303
2.22462e-06
0.000317293
0.000313176
-6.10248e-06
0.000202143
6.2693e-06
0.000187675
0.00020218
7.64143e-06
-0.000202145
-7.57104e-06
-0.000187677
-0.000202183
-6.10246e-06
6.26929e-06
-0.00617433
0.00601222
0.00336125
0.00623682
0.00276914
-0.0119792
0.00601117
0.00342631
0.000828792
-0.0060006
0.0164389
-0.000822888
-0.00273056
0.0124072
-0.0060013
0.0164473
-0.00621916
0.00341829
0.00624864
-0.0119978
0.0034487
-0.000168393
0.00852113
-0.00499252
-0.000166503
0.00435063
-0.0163724
0.00853331
-0.00527683
-0.00168641
-0.0085299
0.0351772
0.00144696
-0.00448378
0.0181057
-0.0085268
0.0349522
-0.000102946
-0.00500623
-0.000149264
-0.0163938
-0.00522689
0.0042198
0.0169035
-0.0261182
-0.0036743
0.00842954
-0.0169803
0.0170727
-0.0260305
-0.0364737
-0.0169531
0.105509
0.0364356
-0.00852668
-0.0378527
-0.0170099
0.105465
0.00410936
-0.0260647
-0.00385042
-0.0168914
-0.0260868
-0.00411596
-0.00895354
-0.0211013
0.0341662
0.00422742
0.0080116
-0.0307846
0.0144189
-0.00893913
-0.0208918
0.0340564
0.019307
0.00894052
0.042975
-0.0801767
-0.0193966
-0.00800988
0.00279289
0.0519301
0.00894323
0.0429257
-0.0802057
-0.00416018
-0.0210102
0.0341079
0.00420381
-0.0307672
0.0144021
-0.0209697
0.0341139
0.00152885
-0.00578133
-0.0168571
-0.00148241
-0.00276853
-0.0250127
-0.00574038
-0.016632
0.00882437
0.00575284
0.0226076
-0.00882826
0.00275775
0.0149145
0.00575419
0.0226054
0.00150829
-0.0167691
-0.00149364
-0.0250069
-0.0167078
0.00243352
-0.00287456
-0.0164191
-0.00295759
-0.00100131
-0.0186129
-0.00309823
-0.0164782
-0.0101285
0.00295534
0.0269038
0.0104084
0.00100391
-0.00762135
0.00302292
0.0269021
0.00262656
-0.0164403
-0.00276492
-0.0186099
-0.0164495
0.000698367
-0.00245251
-0.0286078
-0.000662693
-0.00183224
-0.0137863
-0.00241555
-0.0285216
-0.00327675
0.00244232
0.0970726
0.00327249
0.00174945
-0.0479838
0.00242662
0.0970771
0.000692717
-0.0285561
-0.000674897
-0.0137729
-0.0285762
0.000193291
-0.00128146
-0.0317602
-0.000166891
-0.00107723
-0.0123422
-0.00126383
-0.0316652
-0.00151181
0.00127783
0.0892197
0.00150774
0.00104417
-0.0531219
0.0012677
0.0892477
0.000189238
-0.0317063
-0.000175381
-0.0123697
-0.0317227
9.66951e-05
-0.0019289
-7.59428e-05
0.00225286
-0.00192285
-0.00162905
0.00192558
0.00162384
-0.00219458
0.00192545
8.885e-05
-7.83502e-05
0.00452056
-0.00352664
-0.00479987
-0.0126136
-0.00463609
-0.00094486
-0.00850956
-0.00358652
-0.00486839
-0.0126559
-0.00128427
0.0035496
0.00946065
0.0116509
0.00134143
0.00094639
-0.0121376
0.00356425
0.00937263
0.0117201
0.00456837
-0.00482091
-0.0126382
-0.00458809
-0.00850703
-0.00483971
-0.0126366
0.00436678
0.000169434
0.0010169
-0.0103534
-0.00450288
0.00164562
-0.00128372
0.000151207
0.000883672
-0.0104039
-0.000823711
-0.00016249
0.000736987
0.00987924
0.000859356
-0.00164351
-0.010531
-0.000156349
0.000602776
0.00993597
0.00440633
0.000988359
-0.0103782
-0.00446602
-0.00128024
0.000919835
-0.0103849
0.00226256
0.0024312
-0.00367728
-0.00214515
0.00312558
0.00244287
-0.00370176
0.00219
-0.00243308
0.00340998
-0.00209028
-0.00312468
-0.00243982
0.0033943
0.00224078
-0.00368563
-0.00216464
-0.00368834
-0.01229
-0.00190099
0.00153604
-0.0131314
-0.000738218
0.00158119
-0.000788696
0.00141735
-0.0137562
0.00799428
0.0018952
-7.14885e-05
0.00650778
0.00073695
9.71473e-06
0.000789226
0.0034489
0.00147935
-0.0122806
0.0015374
-0.0131281
0.00158294
0.00141877
-0.0137579
-0.010078
-0.00188054
0.0030918
-0.0103157
-0.000445722
0.00226668
-0.000162366
0.000827988
-0.00956095
0.00900795
0.00187529
-0.00290068
0.00749535
0.000443816
0.000631143
0.000164096
0.00619815
0.00441899
-0.010068
0.00309371
-0.0103113
0.00226838
0.000836858
-0.00956613
-0.000928665
0.000319453
0.00050364
0.000834995
0.000484237
0.000847755
0.00113232
-0.000320467
0.00342975
-0.000832977
-0.000475778
0.0105848
-0.00091711
0.000516678
0.000877117
0.0130977
-0.00078971
0.00141022
-0.0137187
0.0122583
-0.000733195
0.00157204
-0.00189341
0.00153763
-0.00644369
0.00078631
0.0034136
0.00145377
-0.00790255
0.000732243
-6.93231e-06
0.00189943
-4.48061e-05
0.0131248
0.00140555
-0.013744
0.0122816
0.00157543
0.00154273
0.0102826
-0.000162987
0.000827893
-0.00953776
0.0100396
-0.000442967
0.00225751
-0.00187352
0.00309683
-0.00745272
0.000156861
0.00616459
0.00438156
-0.00895527
0.000441903
0.00061044
0.00187996
-0.00287458
0.0102987
0.000814843
-0.00955116
0.0100573
0.00225869
0.00310179
-0.000528037
0.000476301
0.000879207
0.000898915
0.000830102
0.000318103
-0.00344039
-0.000480976
0.010562
-0.0011703
-0.000829941
-0.000317264
-0.000527624
0.000861482
0.000901115
0.00845423
0.000575045
-0.00902959
0.0138062
-0.0007641
-0.0045881
0.000189893
-0.000102812
0.0060386
-0.000575998
-0.0048877
0.00238545
0.000757816
0.00213105
-0.000190107
0.00421892
0.00846338
-0.00903938
0.0138248
-0.00460364
-0.000109319
0.00607076
0.000446243
-0.0155466
0.00926924
-0.000413315
-0.0073734
0.000527454
-0.000899028
0.00494
-0.000451935
-0.00892957
3.24591e-05
0.000413568
0.00621156
-0.000528179
0.00968834
0.00607122
-0.0155625
0.00927359
-0.00739245
-0.000915077
0.0055044
0.00275669
-0.0238078
0.00494321
-0.00101015
-0.00580219
-8.75776e-05
0.0050108
0.00186864
-0.00276722
-0.00527435
-0.00598367
0.00102051
0.0120331
8.23521e-05
0.0140966
0.00550209
-0.0238318
0.0049661
-0.00583595
0.00499484
0.00242608
0.00776152
-0.0339948
0.0057194
0.00343932
-0.0125342
0.00291166
0.00781917
0.0102106
-0.00777411
5.12511e-05
0.0106207
-0.00344439
0.0185073
-0.00292213
0.0305517
0.00240457
-0.0340105
0.00573525
-0.012611
0.00780803
-0.0141728
0.00994811
-0.0297698
-0.0132267
0.00658124
-0.0200613
0.00648523
-0.0118924
-0.00140643
-0.0099535
0.0213597
-0.00481027
-0.00656858
0.0350614
-0.00647773
0.0387048
-0.0141699
-0.0297939
-0.0132421
-0.0201071
-0.0119116
-0.00750979
0.0218093
-0.00672404
0.0209666
0.022325
-0.00809367
-0.0218
-0.0082347
-0.0209377
-0.0223104
-0.00750185
-0.00672913
-0.0138362
0.000188855
-0.000105474
-0.00846885
-0.000757298
-0.00460674
0.000577449
-0.00904303
-0.00236901
-0.000190967
0.00422753
-0.00604748
0.000762702
0.00215843
-0.000579493
-0.00488977
-0.0138454
-0.000103084
-0.00847832
-0.00460358
-0.00905659
-0.00928144
0.000529341
-0.000911832
-0.0060679
-0.000415416
-0.00740356
0.000445442
-0.015558
-2.97542e-05
-0.000529615
0.00973459
-0.00494894
0.000412199
0.00625024
-0.000449802
-0.00894256
-0.00929912
-0.000899948
-0.00608964
-0.00740086
-0.0155955
-0.0049828
-8.12219e-05
0.00500083
-0.0054931
-0.001026
-0.00586793
0.00275264
-0.023812
0.00598259
8.84787e-05
0.0141683
-0.00187551
0.00100989
0.0120728
-0.00276517
-0.00529983
-0.00495823
0.00502406
-0.00552043
-0.00582755
-0.0238758
-0.00577553
0.00295324
0.00782162
-0.00247312
0.00343273
-0.012608
0.00778677
-0.0341035
-0.0106026
-0.00294909
0.030688
-0.0101914
-0.0034464
0.0185469
-0.00778659
8.58363e-05
-0.00574852
0.00783666
-0.00244086
-0.0125671
-0.0340597
0.0132695
0.00648434
-0.0119245
0.0141795
0.00658112
-0.0200913
0.00988983
-0.0297907
0.00491218
-0.00647385
0.0387344
0.00163276
-0.00657045
0.0350953
-0.00990563
0.0214809
0.0132664
-0.0119181
0.0142212
-0.0201086
-0.0297983
0.00675022
0.0222936
0.00753181
0.0209683
0.0217599
0.00824864
-0.0222973
0.00814646
-0.0209649
-0.0217712
0.00675234
0.00752191
)
;

boundaryField
{
    fuel
    {
        type            calculated;
        value           nonuniform List<scalar> 
36
(
0.000117264
0.000192367
0.000117264
0.000117264
0.000192366
0.000117264
0.000117264
0.000192367
0.000117264
-0.000117264
-0.000192366
-0.000117264
-0.000117264
-0.000192366
-0.000117264
-0.000117264
-0.000192366
-0.000117264
0
0
0
0
0
0
0
0
0
0
0
0
0
0
0
0
0
0
)
;
    }
    primary_air
    {
        type            calculated;
        value           nonuniform List<scalar> 9(-0.00319843 -0.00525344 -0.00319843 -0.0031991 -0.00525297 -0.0031991 -0.00319845 -0.00525344 -0.00319844);
    }
    Secondary_air_RHS
    {
        type            calculated;
        value           nonuniform List<scalar> 9(0.00424238 0.00681831 0.00424238 0.00423951 0.00680535 0.00423952 0.00423799 0.00681723 0.00423802);
    }
    Secondary_air_LHS
    {
        type            calculated;
        value           nonuniform List<scalar> 9(0.00424244 0.00681845 0.0042424 0.00423961 0.00680551 0.00423958 0.00423812 0.0068174 0.00423811);
    }
    outlet
    {
        type            calculated;
        value           nonuniform List<scalar> 
18
(
-0.0409719
0.0750741
-0.0409692
-0.0418445
0.0771221
-0.0418438
-0.0440225
0.0731716
-0.0440479
-0.0440688
0.0730638
-0.0440914
-0.041813
0.0771077
-0.0418168
-0.0409409
0.0751064
-0.0409505
)
;
    }
    stove_body
    {
        type            calculated;
        value           uniform 0;
    }
    frontAndBack
    {
        type            empty;
        value           nonuniform 0();
    }
}


// ************************************************************************* //
