/*--------------------------------*- C++ -*----------------------------------*\
  =========                 |
  \\      /  F ield         | OpenFOAM: The Open Source CFD Toolbox
   \\    /   O peration     | Website:  https://openfoam.org
    \\  /    A nd           | Version:  6
     \\/     M anipulation  |
\*---------------------------------------------------------------------------*/
FoamFile
{
    version     2.0;
    format      ascii;
    class       volVectorField;
    location    "3.5";
    object      U;
}
// * * * * * * * * * * * * * * * * * * * * * * * * * * * * * * * * * * * * * //

dimensions      [0 1 -1 0 0 0 0];

internalField   nonuniform List<vector> 
297
(
(118.355 0.00404588 0.267605)
(118.517 3.24603e-05 0.264134)
(118.353 -0.00407054 0.267578)
(3.35896e-08 0.0953736 -0.54273)
(-4.42167e-08 -0.000734934 -0.547994)
(-1.35384e-07 -0.0962643 -0.542698)
(-118.355 0.00404581 0.267607)
(-118.517 3.21857e-05 0.264136)
(-118.353 -0.00407079 0.267579)
(118.218 -0.0177089 0.599431)
(118.431 0.000200974 0.609567)
(118.216 0.0178389 0.599193)
(2.84119e-08 -0.0130587 -0.3081)
(-4.63162e-08 0.000319372 -0.308334)
(-1.16647e-07 0.0127449 -0.307866)
(-118.218 -0.017709 0.599434)
(-118.431 0.000200759 0.609571)
(-118.216 0.0178388 0.599196)
(111.135 -0.0600124 0.925782)
(111.939 0.000532852 0.940694)
(111.134 0.0603866 0.925468)
(2.75814e-08 -0.0281961 0.5238)
(-5.30626e-08 0.000435088 0.536282)
(-1.16742e-07 0.0281827 0.523518)
(-111.135 -0.0600118 0.925783)
(-111.939 0.000532915 0.940696)
(-111.134 0.0603859 0.925469)
(79.4976 -3.04752 -5.40989)
(81.5818 0.0276616 -8.93694)
(79.5045 3.11093 -5.46373)
(2.37021e-05 -1.50842 2.96744)
(6.1572e-06 -0.010332 3.1159)
(-5.43208e-05 1.5403 2.99026)
(-79.5117 -3.08052 -5.52043)
(-81.6232 0.0096088 -8.9768)
(-79.516 3.12133 -5.52727)
(83.32 3.85234 12.0362)
(82.9661 0.116125 -14.9828)
(83.3894 -4.40103 11.8064)
(-5.2861e-05 2.34537 29.3083)
(-0.000378886 0.0687 16.7972)
(-0.000183676 -2.67467 29.256)
(-83.3458 3.94979 12.0753)
(-82.8158 0.0585285 -15.0329)
(-83.3945 -4.32553 11.9242)
(83.6747 15.4513 -7.23044)
(82.4392 0.234648 -15.9358)
(83.7418 -15.2241 -6.96307)
(0.000283913 -1.48822 36.1029)
(-0.000606498 0.031375 0.347215)
(-0.000416314 1.43672 36.0936)
(-83.6927 15.3759 -7.12844)
(-82.3231 0.131613 -15.9724)
(-83.7328 -15.3133 -7.12752)
(81.9947 5.36117 -27.9376)
(81.6108 -0.161525 -18.9726)
(82.0349 -4.98621 -27.8501)
(3.44293e-05 3.03914 -1.2225)
(-3.66982e-05 -0.0401111 -10.0515)
(0.000314519 -3.08141 -1.20168)
(-82.0066 5.23277 -27.8888)
(-81.601 -0.0529083 -18.9691)
(-82.0284 -5.10421 -27.9001)
(82.0321 11.4595 -18.6049)
(81.3334 -0.228283 -24.7652)
(82.0825 -11.0678 -18.4349)
(-0.000334303 3.12716 2.53621)
(6.71634e-05 0.0128257 1.16282)
(0.000283461 -3.20384 2.52982)
(-82.0431 11.3326 -18.5363)
(-81.3334 -0.0732628 -24.763)
(-82.066 -11.2009 -18.4964)
(81.5649 18.0875 -26.5998)
(80.9313 -0.436528 -26.3207)
(81.6117 -17.8845 -26.5265)
(-0.000624443 0.328531 11.2699)
(-0.00022906 0.0880481 3.04536)
(0.000197762 -0.298218 11.2697)
(-81.5884 18.0347 -26.5798)
(-80.9274 -0.130586 -26.3192)
(-81.5991 -17.9444 -26.5465)
(76.3883 18.9243 -22.7271)
(78.0157 0.0718179 -12.791)
(76.5003 -18.514 -22.6749)
(-0.000195867 -0.483531 45.6636)
(-0.000242931 0.00832496 -24.8248)
(-1.54267e-05 0.435028 45.6852)
(-76.4178 18.7906 -22.6964)
(-75.6803 0.0599366 -12.7496)
(-76.4704 -18.6313 -22.7074)
(74.265 11.345 -27.4975)
(79.0616 -0.0095652 -10.3305)
(74.1656 -10.9107 -27.3903)
(-0.000140953 0.22898 49.2925)
(9.45982e-05 0.00407088 -23.6858)
(4.23912e-05 -0.277403 49.3284)
(-74.291 11.2076 -27.4532)
(-77.8893 0.0295654 -10.3712)
(-74.1399 -11.0368 -27.4418)
(69.6153 9.08149 -27.3147)
(80.5697 -0.0374609 -11.7842)
(69.6869 -8.69004 -27.2205)
(-3.67876e-05 0.789433 47.9737)
(0.000757461 0.000171507 -19.8658)
(0.000102771 -0.838027 48.0139)
(-69.6344 8.94923 -27.27)
(-82.3364 0.0139234 -11.7994)
(-69.6511 -8.80859 -27.2674)
(79.3175 29.9217 -6.70459)
(79.9719 -0.298849 -9.09229)
(79.3458 -30.0272 -6.79014)
(-0.000339822 -7.80789 11.3309)
(-0.000182523 0.0348389 -6.64332)
(0.000163927 7.96886 11.3185)
(-79.3307 29.9847 -6.73567)
(-79.9649 -0.0682344 -9.08902)
(-79.3295 -29.9681 -6.7529)
(80.0096 25.373 -1.71785)
(80.3432 -0.345636 -4.25884)
(80.034 -25.5067 -1.75154)
(-0.000258739 -9.43119 3.05078)
(-0.000318445 0.0191406 -5.16641)
(0.000205435 9.56786 3.00304)
(-79.9914 25.4321 -1.72121)
(-80.3681 -0.178782 -4.25592)
(-80.0216 -25.4474 -1.73796)
(80.5683 5.89842 2.53801)
(80.7376 0.202487 -1.26372)
(80.6009 -5.69958 2.43754)
(-0.000180978 -1.68822 -1.70697)
(-0.000261795 0.243081 -1.29397)
(0.000133161 1.57805 -1.84414)
(-80.5557 5.84325 2.51969)
(-80.7387 0.122806 -1.2642)
(-80.6042 -5.71952 2.45961)
(77.7767 -31.8586 -1.3222)
(78.9953 -39.3415 -5.22591)
(79.1196 -41.6964 -7.37531)
(0.000776892 17.891 9.0559)
(0.00118547 15.0413 7.93457)
(0.00139391 12.6871 10.3401)
(-77.7485 -31.8024 -1.31257)
(-78.9533 -39.2983 -5.20803)
(-79.0533 -41.6635 -7.35051)
(78.0464 -26.4179 4.44162)
(79.4138 -32.1221 3.59598)
(80.0158 -33.426 0.725972)
(0.000806833 16.432 -3.88784)
(0.00118405 15.2308 -4.75928)
(0.00132245 15.7752 2.84734)
(-78.0226 -26.3645 4.44155)
(-79.3774 -32.0824 3.59685)
(-79.9619 -33.3983 0.72906)
(80.1552 -7.90614 8.59823)
(80.4913 -4.30993 9.34487)
(80.4486 6.80389 10.6868)
(0.000790781 2.39234 -4.33857)
(0.00114882 2.1984 3.36181)
(0.00114225 16.6526 6.94498)
(-80.1529 -7.85646 8.59269)
(-80.4736 -4.26691 9.3305)
(-80.4314 6.75573 10.6747)
(79.1027 41.5486 -7.33881)
(78.8734 39.2078 -5.21212)
(77.7331 31.7337 -1.30977)
(0.000154744 -12.6071 10.3273)
(0.000165381 -14.8885 7.94866)
(0.0001355 -17.7816 9.1037)
(-79.0454 41.6153 -7.38128)
(-78.8329 39.2759 -5.24598)
(-77.7512 31.7956 -1.32176)
(79.9523 33.2959 0.714592)
(79.3644 31.9918 3.57529)
(78.0115 26.2882 4.43606)
(2.55795e-05 -15.7 2.81399)
(-3.83709e-05 -15.1522 -4.76417)
(-1.48827e-05 -16.3476 -3.84249)
(-79.9376 33.3499 0.691783)
(-79.3548 32.0524 3.57529)
(-78.006 26.3437 4.44605)
(80.4416 -6.78178 10.6424)
(80.4593 4.20678 9.29572)
(80.118 7.7915 8.59337)
(7.87138e-05 -16.6049 6.87854)
(-7.62984e-05 -2.24145 3.3042)
(-4.78402e-05 -2.44076 -4.27956)
(-80.4028 -6.85466 10.6723)
(-80.4408 4.24194 9.33098)
(-80.1047 7.82226 8.61737)
(77.703 18.2554 -22.1688)
(76.8091 23.2197 -15.7927)
(79.1205 37.8243 -12.751)
(0.000854569 9.40045 -7.51511)
(0.000737881 7.69929 -0.480581)
(0.000416786 5.65555 6.26415)
(-77.7278 18.2882 -22.208)
(-76.8299 23.2566 -15.8366)
(-79.1364 37.8677 -12.7916)
(78.1932 5.33199 -36.6067)
(78.0669 14.0634 -21.7738)
(80.125 27.423 -3.3362)
(0.000909967 4.06298 -11.5342)
(0.000698627 6.12793 3.58222)
(0.000331693 1.10988 12.7463)
(-78.2236 5.35568 -36.6231)
(-78.0673 14.0385 -21.8151)
(-80.1281 27.4399 -3.34522)
(81.3629 2.31146 -46.0665)
(77.6351 7.75736 -15.9503)
(79.6104 13.7058 4.37173)
(0.000891397 3.45422 -15.4916)
(0.000584405 -4.55378 17.0355)
(0.000301726 -14.3446 17.4443)
(-81.3817 2.32738 -46.0787)
(-77.6021 7.71356 -16.0276)
(-79.5947 13.8689 4.31887)
(80.5206 -8.35523 -60.987)
(79.972 -0.602042 -5.54673)
(79.422 10.5374 63.5425)
(0.000301184 -7.58429 9.7418)
(0.00024261 7.30251 35.8019)
(0.000243887 -2.63125 58.8986)
(-80.5448 -8.36696 -60.9945)
(-79.9252 -0.636988 -5.73785)
(-79.3883 10.6007 63.5297)
(78.7691 -1.59538 -83.6544)
(78.1974 -9.27962 -38.8642)
(78.1424 0.0270164 -0.447833)
(-0.000567684 -0.849168 29.6423)
(-0.000539424 -1.18153 66.5724)
(-0.000485349 -1.16917 86.5092)
(-78.7943 -1.58443 -83.7255)
(-78.1467 -9.28182 -39.0907)
(-78.1313 0.0357974 -0.548179)
(74.3934 -1.78278 -124.442)
(73.9347 -2.89365 -116.523)
(74.169 -1.51597 -113.545)
(-0.000948435 -1.98075 177.404)
(-0.000954894 -2.92709 186.362)
(-0.00094635 -1.72992 181.92)
(-74.3972 -1.78434 -124.52)
(-73.9336 -2.8931 -116.533)
(-74.1716 -1.51737 -113.575)
(79.2266 -37.9406 -12.8033)
(76.9337 -23.314 -15.8528)
(77.8691 -18.3404 -22.238)
(0.00141882 -5.61547 6.24971)
(0.00161016 -7.7234 -0.422507)
(0.00193243 -9.43402 -7.50709)
(-79.1517 -37.9426 -12.7784)
(-76.8331 -23.2971 -15.8355)
(-77.7436 -18.3114 -22.2254)
(80.2238 -27.4956 -3.33934)
(78.178 -14.0547 -21.8664)
(78.3758 -5.38595 -36.723)
(0.0012363 -1.06929 12.8163)
(0.00119357 -6.16233 3.63139)
(0.00148332 -4.08475 -11.548)
(-80.1448 -27.5137 -3.35036)
(-78.0788 -14.1146 -21.8508)
(-78.1962 -5.34573 -36.727)
(79.6715 -13.9509 4.31719)
(77.6857 -7.71782 -16.1187)
(81.557 -2.35796 -46.2078)
(0.000858013 14.3885 17.5314)
(0.000864376 4.53871 17.1071)
(0.00103264 -3.4879 -15.5583)
(-79.6193 -13.7339 4.38243)
(-77.6361 -7.78831 -16.0252)
(-81.3874 -2.31616 -46.2127)
(79.4276 -10.6468 63.5789)
(79.9535 0.62209 -5.91857)
(80.3692 8.34267 -61.2344)
(-0.000956435 2.64563 58.9717)
(-0.000849386 -7.31963 35.8313)
(-0.000895285 7.59555 9.68936)
(-79.4228 -10.5693 63.6339)
(-79.9684 0.605881 -5.59361)
(-80.5702 8.37133 -61.145)
(78.1455 -0.0582974 -0.514425)
(78.1997 9.30974 -38.952)
(78.6014 1.60264 -83.936)
(-0.000520806 1.18491 86.54)
(-0.000517338 1.22967 66.643)
(-0.00055964 0.889509 29.819)
(-78.1429 -0.0373755 -0.477298)
(-78.1976 9.31565 -39.0255)
(-78.6306 1.59929 -83.8605)
(74.1755 1.52082 -113.651)
(73.947 2.90359 -116.633)
(74.3912 1.78873 -124.276)
(-0.000347123 1.73111 181.907)
(-0.00037324 2.94115 186.167)
(-0.000394849 1.99396 177.572)
(-74.1752 1.5218 -113.641)
(-73.9452 2.90103 -116.629)
(-74.3888 1.78743 -124.366)
)
;

boundaryField
{
    fuel
    {
        type            fixedValue;
        value           uniform (0 0 0.25);
    }
    primary_air
    {
        type            fixedValue;
        value           uniform (0 0 2.5);
    }
    Secondary_air_RHS
    {
        type            fixedValue;
        value           uniform (0 33.3333 0);
    }
    Secondary_air_LHS
    {
        type            fixedValue;
        value           uniform (0 -33.3333 0);
    }
    outlet
    {
        type            pressureInletOutletVelocity;
        value           nonuniform List<vector> 
18
(
(0 0 -113.651)
(-0.000347123 1.73111 181.907)
(0 0 -113.641)
(0 0 -116.633)
(-0.00037324 2.94115 186.167)
(0 0 -116.629)
(0 0 -124.276)
(-0.000394849 1.99396 177.572)
(0 0 -124.366)
(0 0 -124.442)
(-0.000948435 -1.98075 177.404)
(0 0 -124.52)
(0 0 -116.523)
(-0.000954894 -2.92709 186.362)
(0 0 -116.533)
(0 0 -113.545)
(-0.00094635 -1.72992 181.92)
(0 0 -113.575)
)
;
    }
    stove_body
    {
        type            noSlip;
    }
    frontAndBack
    {
        type            empty;
    }
}


// ************************************************************************* //
