/*--------------------------------*- C++ -*----------------------------------*\
  =========                 |
  \\      /  F ield         | OpenFOAM: The Open Source CFD Toolbox
   \\    /   O peration     | Website:  https://openfoam.org
    \\  /    A nd           | Version:  6
     \\/     M anipulation  |
\*---------------------------------------------------------------------------*/
FoamFile
{
    version     2.0;
    format      ascii;
    class       surfaceScalarField;
    location    "5";
    object      phi;
}
// * * * * * * * * * * * * * * * * * * * * * * * * * * * * * * * * * * * * * //

dimensions      [1 0 -1 0 0 0 0];

internalField   nonuniform List<scalar> 
675
(
-4.93135e-07
-4.45814e-05
0.000167532
4.84706e-09
-4.45209e-05
0.000166481
-4.45771e-05
0.00016704
-3.92619e-06
4.45813e-05
0.000118558
4.35934e-06
4.45208e-05
0.000106467
4.4577e-05
0.000118999
-4.92695e-07
0.000167532
5.17856e-09
0.000166481
0.00016704
1.56892e-06
-7.30524e-05
0.000239008
-1.78726e-06
-7.87743e-05
0.000248605
-7.34438e-05
0.000238688
8.54594e-06
7.30534e-05
-3.61018e-05
-5.77905e-06
7.87742e-05
-3.67599e-05
7.3443e-05
-3.36759e-05
1.56957e-06
0.000239008
-1.78674e-06
0.000248605
0.000238688
4.29834e-06
0.00011225
-5.04221e-06
0.000135486
0.000111186
-1.53765e-05
-0.000112249
1.50891e-05
-0.000135486
-0.000111187
4.2997e-06
-5.04102e-06
0.0131759
0.0120047
-0.0220709
-0.00229627
0.0125987
0.00593083
0.0136523
-0.0128405
0.00929915
-0.0119915
0.0201561
-0.00321359
-0.0125871
0.0430874
-0.0136361
0.029551
0.013158
-0.0220303
-0.00229774
0.0059538
-0.0128155
0.0402611
0.0289766
-0.091254
-0.0373337
-0.0129431
0.0965608
0.0298096
-0.0799366
0.017131
-0.0289396
0.0609462
-0.0214082
0.0129655
0.055675
-0.0297697
0.0676893
0.0402164
-0.0912304
-0.0373114
0.0965127
-0.0799433
0.00715093
0.0674247
-0.165855
-0.00721612
0.00300809
0.10775
0.0708802
-0.158035
-0.12162
-0.0674387
0.31688
0.118843
-0.00314923
-0.178956
-0.0708962
0.327797
0.00696843
-0.165592
-0.00704243
0.108213
-0.15779
-0.0669837
-0.0757099
-0.0530874
0.195468
0.0647567
0.0143358
-0.0560509
-0.0896314
-0.0776432
-0.0463051
0.188371
0.00964317
0.0757161
0.0992421
-0.260228
0.00587467
-0.0142062
-0.177885
0.21189
0.07764
0.122921
-0.272283
-0.0668163
-0.0530875
0.195217
0.064623
-0.0560831
-0.0894601
-0.0463264
0.188119
0.00589446
-0.0289328
-0.0302503
-0.0206018
0.0104207
-0.0399463
-0.0412863
-0.0257845
0.0608521
0.0289349
-0.0194768
-0.0481387
-0.0104006
-0.0479034
0.0412296
-0.00767584
0.00595939
-0.0301737
-0.0206154
-0.0398761
-0.0257474
-0.00956026
0.00370325
-0.0243685
-0.0229399
-0.000544094
-0.0260207
-0.0236442
-0.0250747
0.0285527
-0.00366319
-0.040644
0.0196573
0.000598321
-0.0401767
0.0235646
-0.0352181
-0.0094964
-0.0243269
-0.0228274
-0.0259684
-0.0250111
-0.00235324
-0.00167005
-0.17567
0.00242068
0.000436198
0.102629
-0.00159627
-0.168022
-0.00729283
0.00167128
0.298048
0.0076884
-0.000433592
-0.193175
0.00159765
0.309375
-0.00234965
-0.175414
0.00241575
0.102889
-0.167782
-0.00225673
-0.000620797
-0.186333
0.00224513
-0.00059282
0.0988699
-0.000539606
-0.178942
-0.00324595
0.000622231
0.278088
0.00358391
0.000593436
-0.20145
0.000541216
0.289781
-0.00225386
-0.186084
0.00224212
0.0989162
-0.178702
-0.00531772
0.000459286
0.00524281
-0.00115261
0.000540085
-0.00375036
-0.000454444
0.00404706
0.00115318
-0.000534814
-0.00532856
0.00525331
0.00917147
-0.00211759
-0.0106232
-0.0207915
-0.00870106
-0.00148293
-0.00666611
-0.0024588
-0.0103608
-0.0209513
0.00873858
0.0021231
-0.0269446
-0.0266792
-0.0116243
0.00149403
-0.0228075
0.00246046
-0.0251882
-0.0265759
0.00913881
-0.0106249
-0.0207126
-0.00866547
-0.00667602
-0.0103517
-0.0208602
0.00521387
0.000202464
-0.00154771
-0.0144843
-0.00624214
0.00177894
0.00300985
-7.20827e-05
-0.0018746
-0.0146512
0.00513668
-0.000190227
-0.0124456
-0.0192446
-0.00512226
-0.00176644
-0.00902182
8.21885e-05
-0.0111296
-0.0193374
0.00519778
-0.00155947
-0.0144484
-0.00622416
0.00297318
-0.00188204
-0.0146068
-0.00017594
0.00180195
-0.00316616
0.000170789
0.00266206
0.00162985
-0.00332777
0.0013393
-0.00178392
-0.0102013
-0.00239125
-0.00264872
-0.00161388
-0.0102798
-0.000160877
-0.00317757
0.000157059
-0.00333379
-0.0190367
-0.000635352
-0.00127727
-0.0196779
0.00222288
-0.0015814
0.00268775
-0.00682909
-0.0155386
-0.0256942
0.000636648
-0.00215394
-0.0225839
-0.00221436
0.00132711
-0.00267767
0.00315098
-0.0203685
-0.0189467
-0.00127334
-0.0195834
-0.00157439
-0.00681095
-0.0154482
-0.0145391
-0.000711289
-0.000675807
-0.014707
0.00148937
-0.00290087
0.000183996
-0.00762793
-0.0140902
-0.0215167
0.000713208
-0.00139832
-0.0177844
-0.00148339
0.000568291
-0.000179416
0.0039377
-0.0182109
-0.0144942
-0.000669238
-0.0146633
-0.00288559
-0.00761259
-0.0140392
-0.00413306
0.000132522
-0.0067403
-0.000291313
-0.00212702
-0.0122405
-0.0114177
-0.000128284
-0.0114311
0.000289309
0.00212561
-0.0117477
-0.0041279
-0.00672109
-0.0122063
0.0194993
0.00266994
-0.006772
-0.015397
0.0188755
0.00222249
-0.00159718
-0.000602021
-0.00131141
0.0224226
-0.00266122
0.00309454
-0.0201883
0.0255293
-0.00221448
0.00132907
0.000604245
-0.00235666
0.0194203
-0.00676226
-0.0153177
0.018798
-0.00158969
-0.00130739
0.014592
0.000181671
-0.00755851
-0.0139868
0.0144267
0.00150183
-0.00293222
-0.000672365
-0.000694167
0.0176557
-0.00017464
0.00387303
-0.0180801
0.0214263
-0.00149547
0.000554483
0.000675381
-0.00152319
0.0145548
-0.00755019
-0.0139401
0.0143896
-0.00291742
-0.000687908
0.00670294
-0.00210813
-0.012153
0.00402454
-0.000252289
0.000166694
0.0113465
0.00210777
-0.0116915
0.0113968
0.000250777
-0.000161418
0.00668824
-0.0121293
0.00402407
0.00671807
0.0022087
-0.00892793
0.0103885
0.00194498
-0.00561633
0.00227856
-0.00728763
0.0094621
-0.00219542
-0.0050609
0.0152983
-0.00193354
-0.00196045
-0.00226679
-0.000347009
0.00666194
-0.00885778
0.0103166
-0.00558829
-0.00726753
0.0050056
0.00192058
-0.015855
0.00931823
0.00177263
-0.0117024
0.00121857
-0.0131752
0.00710357
-0.00191029
-0.00833629
0.013432
-0.00176497
-0.00475378
-0.00120804
-0.00257066
0.00497315
-0.0157416
0.00927937
-0.0116594
-0.0131359
0.00603058
0.00413709
-0.0260233
0.00659698
0.00205401
-0.0143233
0.000839238
-0.0195706
0.00777066
-0.0041179
-0.00785411
0.012434
-0.00205517
-0.00530998
-0.000838475
-0.000152289
0.0059865
-0.0258464
0.00657378
-0.0143022
-0.0195296
-0.00730134
0.0131252
-0.0318456
-0.0012148
0.0110544
-0.0314626
0.0107925
-0.0315763
0.00178656
-0.0131246
0.0166092
-0.00246137
-0.0110928
0.0210854
-0.0108159
0.018995
-0.00721438
-0.0317572
-0.00117715
-0.0314328
-0.0315229
0.000162098
0.00561363
-0.0376217
0.000694938
0.00569526
-0.0376911
0.00630285
-0.0371846
-0.00295346
-0.00565374
0.0308319
-0.00190101
-0.00573543
0.0314655
-0.00633743
0.0297362
0.000185407
-0.0375963
0.000692069
-0.0376749
-0.0371682
-9.74236e-05
0.0176762
-0.000265956
0.0176569
0.0176476
-0.000468524
-0.0176881
0.000200396
-0.0176686
-0.017659
-9.22023e-05
-0.000263554
-0.0104798
0.00229087
-0.00735165
-0.00678135
0.00195353
-0.005653
0.00222779
-0.00901039
-0.0154396
-0.00227766
-0.00036043
-0.00955755
-0.00194121
-0.00199064
-0.00221378
-0.00512032
-0.0104023
-0.00732317
-0.00671935
-0.00562461
-0.00893412
-0.00938523
0.00122713
-0.0132821
-0.00504938
0.00178622
-0.0117751
0.00193733
-0.015998
-0.0135534
-0.00122018
-0.00257675
-0.00717216
-0.00177925
-0.00481114
-0.00192644
-0.0084327
-0.00934744
-0.0132349
-0.00501391
-0.0117379
-0.0158755
-0.00664063
0.000836824
-0.019719
-0.00607945
0.00207234
-0.0144094
0.00416777
-0.0262461
-0.0125591
-0.000837078
-9.3129e-05
-0.0078442
-0.00207349
-0.00538295
-0.00414593
-0.00796622
-0.00661764
-0.0196604
-0.00603184
-0.0143977
-0.0260542
0.00122151
0.0108145
-0.0317528
0.00735706
0.0110874
-0.0316304
0.0131927
-0.03208
0.0024982
-0.0108342
0.0190584
-0.00180118
-0.0111255
0.0211301
-0.0131843
0.01661
0.00119127
-0.0316857
0.00727225
-0.0316043
-0.0319666
-0.000687613
0.00628231
-0.0373474
-0.000134707
0.00567081
-0.037854
0.00558825
-0.0378029
0.00197386
-0.00632429
0.0296926
0.00306127
-0.00571988
0.0314342
-0.00563536
0.0308964
-0.000681856
-0.0373276
-0.000170385
-0.0378351
-0.0377717
0.000269611
0.017597
0.000104546
0.0176067
0.0176196
-0.000232631
-0.0176109
0.000399225
-0.0176208
-0.0176339
0.000266749
9.76289e-05
)
;

boundaryField
{
    fuel
    {
        type            calculated;
        value           nonuniform List<scalar> 
36
(
0.000122467
0.000203807
0.000122467
0.000122467
0.000203807
0.000122467
0.000122467
0.000203807
0.000122467
-0.000122467
-0.000203807
-0.000122467
-0.000122467
-0.000203807
-0.000122467
-0.000122467
-0.000203807
-0.000122467
0
0
0
0
0
0
0
0
0
0
0
0
0
0
0
0
0
0
)
;
    }
    primary_air
    {
        type            calculated;
        value           nonuniform List<scalar> 9(-0.00318238 -0.00528192 -0.00318234 -0.00318299 -0.00528403 -0.00318305 -0.00318248 -0.00528386 -0.00318247);
    }
    Secondary_air_RHS
    {
        type            calculated;
        value           nonuniform List<scalar> 9(0.0140207 0.0229158 0.0140165 0.0137224 0.022102 0.0137175 0.0141534 0.0226277 0.0141479);
    }
    Secondary_air_LHS
    {
        type            calculated;
        value           nonuniform List<scalar> 9(0.0138561 0.0227957 0.0138526 0.0135606 0.0219932 0.0135566 0.0140188 0.022541 0.0140141);
    }
    outlet
    {
        type            calculated;
        value           nonuniform List<scalar> 
18
(
-0.0552143
0.0651329
-0.0552055
-0.0552959
0.0660307
-0.055287
-0.0553183
0.066549
-0.0553083
-0.0552006
0.0666647
-0.0551921
-0.0551796
0.066122
-0.055172
-0.0550982
0.0652432
-0.0550908
)
;
    }
    stove_body
    {
        type            calculated;
        value           uniform 0;
    }
    frontAndBack
    {
        type            empty;
        value           nonuniform 0();
    }
}


// ************************************************************************* //
