/*--------------------------------*- C++ -*----------------------------------*\
  =========                 |
  \\      /  F ield         | OpenFOAM: The Open Source CFD Toolbox
   \\    /   O peration     | Website:  https://openfoam.org
    \\  /    A nd           | Version:  6
     \\/     M anipulation  |
\*---------------------------------------------------------------------------*/
FoamFile
{
    version     2.0;
    format      ascii;
    class       volScalarField;
    location    "5";
    object      T;
}
// * * * * * * * * * * * * * * * * * * * * * * * * * * * * * * * * * * * * * //

dimensions      [0 0 0 1 0 0 0];

internalField   nonuniform List<scalar> 
297
(
292.693
292.69
292.693
293.025
293.023
293.026
292.693
292.69
292.693
292.783
292.746
292.797
293.567
293.245
293.637
292.783
292.746
292.797
293.06
292.875
293.105
293.429
290.356
294.081
293.06
292.875
293.105
265.394
271.418
263.773
275.876
284.699
278.14
265.518
271.525
263.848
261.509
260.774
256.631
260.297
266.727
257.187
261.646
260.856
256.717
261.774
259.383
257.212
259.53
275.44
256.302
261.93
259.487
257.316
261
273.841
258.411
257.079
275.058
256.433
261.121
274.033
258.502
282.247
291.444
272.69
268.698
277.508
258.773
282.48
291.742
272.808
303.804
303.901
303.983
304.652
304.473
304.753
304.31
304.324
304.29
248.669
258.861
245.522
253.405
274.533
249.937
248.782
258.455
245.574
250.716
258.837
250.493
250.587
274.028
244.947
250.846
258.842
250.575
255.33
258.887
252.935
246.351
273.587
242.665
255.468
259.159
253.022
303.028
304.345
303.056
304.605
305.068
304.687
303.563
304.872
303.634
303.81
304.263
304.054
305.299
305.155
305.285
304.254
304.7
304.486
304.303
304.239
304.242
305.581
305.088
305.577
304.607
304.663
304.644
302.73
302.774
303.024
304.237
304.26
304.522
303.428
303.555
303.843
303.922
303.696
303.82
305.109
305.045
305.219
304.405
304.19
304.286
304.415
304.289
304.021
305.78
305.792
305.745
304.818
304.694
304.444
303.035
302.795
302.728
304.384
304.146
304.117
303.774
303.514
303.409
303.725
303.608
303.829
305.189
304.989
305.077
304.223
304.1
304.289
304.074
304.33
304.457
305.812
305.859
305.836
304.388
304.632
304.757
303.334
303.573
303.242
305.467
305.218
304.75
304.61
304.587
304.085
303.481
303.794
303.498
305.993
305.815
305.53
304.495
304.495
304.093
303.39
303.773
303.507
306.235
305.976
305.907
304.271
304.134
303.877
303.329
303.756
303.332
307.071
306.022
306.429
303.973
303.782
303.691
300.031
300.108
300.105
303.612
303.533
305.21
300.029
300.103
300.102
292.629
292.663
292.709
292.768
292.817
293.144
292.628
292.662
292.708
303.278
303.695
303.553
304.93
305.383
305.553
304.166
304.685
304.736
303.614
304.085
303.681
305.509
305.819
306.097
304.163
304.56
304.542
303.451
303.941
303.597
305.83
305.956
306.296
303.949
304.216
304.342
303.145
303.755
302.992
306.78
306.186
307.069
303.758
303.851
304.045
300.147
300.151
300.068
305.506
303.602
303.601
300.143
300.146
300.065
292.726
292.68
292.648
293.311
292.943
292.85
292.725
292.679
292.647
)
;

boundaryField
{
    fuel
    {
        type            fixedValue;
        value           uniform 293;
    }
    primary_air
    {
        type            fixedValue;
        value           uniform 293;
    }
    Secondary_air_RHS
    {
        type            fixedValue;
        value           uniform 293;
    }
    Secondary_air_LHS
    {
        type            fixedValue;
        value           uniform 293;
    }
    outlet
    {
        type            inletOutlet;
        inletValue      uniform 293;
        value           nonuniform List<scalar> 
18
(
293
293.311
293
293
292.942
293
293
292.85
293
293
292.768
293
293
292.817
293
293
293.144
293
)
;
    }
    stove_body
    {
        type            fixedValue;
        value           uniform 293;
    }
    frontAndBack
    {
        type            empty;
    }
}


// ************************************************************************* //
