/*--------------------------------*- C++ -*----------------------------------*\
  =========                 |
  \\      /  F ield         | OpenFOAM: The Open Source CFD Toolbox
   \\    /   O peration     | Website:  https://openfoam.org
    \\  /    A nd           | Version:  6
     \\/     M anipulation  |
\*---------------------------------------------------------------------------*/
FoamFile
{
    version     2.0;
    format      ascii;
    class       volScalarField;
    location    "3.5";
    object      p;
}
// * * * * * * * * * * * * * * * * * * * * * * * * * * * * * * * * * * * * * //

dimensions      [1 -1 -2 0 0 0 0];

internalField   nonuniform List<scalar> 
297
(
120808
120808
120808
199664
199664
199664
120808
120808
120808
120808
120808
120808
199664
199664
199664
120808
120808
120808
120808
120808
120808
199664
199664
199664
120808
120808
120808
97134.1
97165.5
97170.2
160494
160519
160560
97056.3
97082.3
97094.4
97195.9
97211.7
97196.4
160246
160357
160323
97091.1
97135.4
97149.7
97053.5
97182.3
97020.6
158422
159535
158392
96950.4
97088.6
96955.2
96484.7
96689
96470.6
159462
159292
159499
96361.5
96491.8
96230
96664.1
96931.9
96672.6
160179
159932
160161
96680.3
96645.1
96539.8
96702.6
97048.3
96707.4
160168
160086
160072
96813.9
96846.6
96625
95793.4
97167.7
95842.3
153906
158732
154252
95703.5
96980.4
95914.1
95599.5
97132.2
95654.3
153375
158759
153725
95506.3
96945.2
95742.5
95521.1
97076.1
95570.6
153744
158876
154091
95420.4
96889.1
95699.4
97299.7
97386.4
97266.8
160170
160141
160089
97152.6
97217.4
97020.9
97421.9
97452.1
97352.8
160190
160184
160183
97242.2
97276.5
97113.2
97474.4
97465.3
97391.1
160196
160225
160255
97263.1
97261.4
97149.4
97603.3
97766.2
98350.7
159869
159863
159784
96966.8
96890.4
96792.8
97308.4
97297.1
97708.5
159933
159805
159620
96904.9
96661.2
96380.8
97199.2
97040.1
96983.2
159982
159773
159493
96907.8
96611.3
96266.9
98378
97858.4
97688.7
159985
160048
160045
96856.9
96960.4
97051.9
97777.7
97404.6
97409.2
159784
159989
160047
96583.1
96837.8
97032.6
97141.9
97174.9
97326.2
159648
159910
160036
96493.7
96806
97039
98769.7
98932.7
98822.2
159721
159730
159818
98593.2
98012.2
97183.3
98482.8
98582.3
98334.1
159398
159408
159521
97818.9
97127.5
96594.7
98116.3
98186.4
97790
158841
158961
159042
96861.3
96346.4
96087.5
95823.4
95732.7
95695.8
155248
155203
155024
93150.9
93065.3
92989.2
91118.7
91053.1
91058.4
148209
148175
148122
89690.6
89675
89628.4
85378.5
85362.4
85345.4
136604
136502
136412
88022.2
88191.5
88358
98818.2
98921.5
98764.6
159676
159622
159626
97251.2
98331.1
99080.8
98265.6
98512
98444.4
159402
159292
159317
96480.3
97198.6
98133.1
97681.6
98072.9
98055.3
158933
158868
158798
95902.9
96304.6
97050.2
95544.1
95561.3
95618.3
154652
154876
154916
92792.6
92871.4
92949
90697
90692.3
90761.9
147288
147354
147380
89120.4
89188.8
89221.5
84783.9
84799.8
84815.6
135238
135325
135416
87475.7
87253.3
87094.3
)
;

boundaryField
{
    fuel
    {
        type            zeroGradient;
    }
    primary_air
    {
        type            zeroGradient;
    }
    Secondary_air_RHS
    {
        type            zeroGradient;
    }
    Secondary_air_LHS
    {
        type            zeroGradient;
    }
    outlet
    {
        type            totalPressure;
        rho             rho;
        psi             none;
        gamma           1;
        p0              uniform 100000;
        value           nonuniform List<scalar> 
18
(
87101.2
100000
99993.6
86803.3
100000
93605.9
87131.9
100000
88136.5
87493.3
100000
88789.9
87267.5
100000
93902.5
87441.8
100000
99990.6
)
;
    }
    stove_body
    {
        type            zeroGradient;
    }
    frontAndBack
    {
        type            empty;
    }
}


// ************************************************************************* //
