/*--------------------------------*- C++ -*----------------------------------*\
  =========                 |
  \\      /  F ield         | OpenFOAM: The Open Source CFD Toolbox
   \\    /   O peration     | Website:  https://openfoam.org
    \\  /    A nd           | Version:  6
     \\/     M anipulation  |
\*---------------------------------------------------------------------------*/
FoamFile
{
    version     2.0;
    format      ascii;
    class       volScalarField;
    location    "4";
    object      O2;
}
// * * * * * * * * * * * * * * * * * * * * * * * * * * * * * * * * * * * * * //

dimensions      [0 0 0 0 0 0 0];

internalField   nonuniform List<scalar> 
297
(
0
0
0
0
0
0
0
0
0
0
0
0
0
0
0
0
0
0
0
0
0
0
0
0
0
0
0
0.102995
0.176841
0.109783
0.19537
0.218524
0.197918
0.102774
0.176917
0.110275
0
0.0491675
0
0.0399941
0.165546
0.0430643
0
0.0491915
0
0
0.0465983
0
0.0260017
0.0403322
0.0264694
0
0.0466106
0
0.00713862
0.0193296
0.0070993
0
0.00314943
0
0.00725016
0.0193244
0.00721538
4.20852e-07
3.84857e-07
7.73772e-07
1.09799e-06
3.09928e-07
2.17963e-06
4.24018e-07
3.85887e-07
7.78204e-07
7.12438e-12
1.5455e-11
1.91413e-11
1.99327e-11
1.27434e-11
4.07536e-11
7.1773e-12
1.55088e-11
1.92165e-11
0
0.0457238
0
0
0.00315034
0
0
0.045733
0
0
0.0452989
0
0
0.00314975
0
0
0.0453074
0
0
0.0439003
0
0
0.00314955
0
0
0.043908
0
2.09993e-16
9.74101e-16
5.99039e-16
3.984e-16
3.52832e-16
8.29746e-16
2.32589e-16
9.47451e-16
6.10611e-16
2.85854e-20
2.74984e-19
1.01758e-19
3.5318e-20
6.22278e-20
4.57633e-20
2.3321e-20
2.50266e-19
8.35956e-20
2.42418e-23
9.78332e-20
1.1268e-22
9.73372e-24
2.3866e-20
1.16108e-23
2.036e-23
8.95791e-20
1.16901e-22
1.12648e-20
3.60753e-25
5.53585e-30
1.15467e-20
1.75688e-25
2.85479e-30
1.14821e-20
3.67732e-25
5.64597e-30
1.78284e-24
7.62095e-29
3.05199e-33
1.28957e-24
6.65464e-27
2.82692e-31
1.46291e-24
7.69449e-29
3.47464e-33
9.0158e-27
1.9436e-29
2.37766e-33
7.61316e-28
3.11157e-28
2.58805e-32
9.01947e-27
1.94579e-29
2.37946e-33
1.01559e-30
6.66661e-26
3.95327e-21
1.16534e-30
7.6148e-26
5.54969e-21
2.2617e-30
7.41603e-26
4.37779e-21
1.15451e-33
2.0276e-29
5.32388e-25
1.2357e-31
2.92022e-27
8.26864e-25
1.71363e-33
3.42936e-29
8.20485e-25
1.58002e-33
4.45931e-30
2.07074e-27
1.98854e-32
6.76824e-29
4.93188e-28
1.65573e-33
7.00517e-30
1.83569e-27
1.10933e-43
1.69427e-39
4.4799e-35
6.37611e-43
3.48168e-39
3.10702e-35
7.4458e-43
7.24502e-39
9.99005e-35
2.88778e-46
2.50699e-42
5.77667e-38
8.62883e-45
8.26409e-41
2.52294e-36
1.78878e-45
3.32564e-42
7.75411e-38
2.59951e-46
7.99453e-43
3.50232e-38
4.64879e-45
1.95486e-41
5.3222e-37
1.72165e-45
1.03928e-42
3.9601e-38
3.33261e-46
4.57452e-45
1.47638e-43
6.64189e-45
2.3586e-41
2.66819e-40
1.77384e-45
1.28893e-44
2.92488e-43
8.63098e-48
2.85086e-46
3.28698e-45
9.89965e-43
3.07782e-41
3.14123e-40
8.96122e-48
4.66485e-46
3.56537e-45
1.7374e-48
5.96723e-47
6.83726e-46
4.9559e-43
1.58942e-41
1.79644e-40
3.10899e-48
1.12204e-46
1.29939e-45
1.30164e-34
9.20117e-39
9.18929e-43
7.67239e-35
3.81053e-39
9.00336e-43
2.47234e-34
9.61756e-39
9.6486e-43
1.2275e-37
5.27167e-42
8.8833e-46
5.71598e-36
1.85194e-40
1.6861e-44
1.41536e-37
4.98647e-42
5.37729e-45
5.88839e-38
1.35101e-42
8.17201e-46
7.03007e-37
2.58944e-41
6.71295e-45
5.72882e-38
1.52555e-42
5.2986e-45
2.70678e-43
8.99008e-45
1.01622e-45
2.53821e-39
3.10652e-41
7.50801e-45
4.58113e-43
3.38055e-44
5.33294e-45
4.52226e-45
2.34133e-46
5.72421e-48
1.0627e-39
3.46536e-41
1.02521e-42
5.80819e-45
2.40577e-46
8.21995e-48
9.78084e-46
4.6575e-47
1.58666e-48
3.3668e-40
1.38158e-41
4.7107e-43
1.53829e-45
8.17573e-47
2.78103e-48
)
;

boundaryField
{
    fuel
    {
        type            fixedValue;
        value           uniform 0;
    }
    primary_air
    {
        type            fixedValue;
        value           uniform 0.23;
    }
    Secondary_air_RHS
    {
        type            fixedValue;
        value           uniform 0.23;
    }
    Secondary_air_LHS
    {
        type            fixedValue;
        value           uniform 0.23;
    }
    outlet
    {
        type            inletOutlet;
        inletValue      uniform 0;
        value           nonuniform List<scalar> 
18
(
0
3.3668e-40
0
0
1.38158e-41
0
0
4.7107e-43
0
0
4.9559e-43
0
0
1.58942e-41
0
0
1.79644e-40
0
)
;
    }
    stove_body
    {
        type            fixedValue;
        value           uniform 0;
    }
    frontAndBack
    {
        type            empty;
    }
}


// ************************************************************************* //
