/*--------------------------------*- C++ -*----------------------------------*\
  =========                 |
  \\      /  F ield         | OpenFOAM: The Open Source CFD Toolbox
   \\    /   O peration     | Website:  https://openfoam.org
    \\  /    A nd           | Version:  6
     \\/     M anipulation  |
\*---------------------------------------------------------------------------*/
FoamFile
{
    version     2.0;
    format      ascii;
    class       volScalarField;
    location    "4";
    object      p;
}
// * * * * * * * * * * * * * * * * * * * * * * * * * * * * * * * * * * * * * //

dimensions      [1 -1 -2 0 0 0 0];

internalField   nonuniform List<scalar> 
297
(
111538
111538
111538
185857
185857
185857
111538
111538
111538
111538
111538
111538
185857
185857
185857
111538
111538
111538
111538
111538
111538
185857
185857
185857
111538
111538
111538
97601.3
97496
97591.1
162305
162239
162306
97602
97496.1
97590.3
97823.9
97005.5
97854
161714
161665
161738
97826.3
97006.2
97853.5
95210.7
94651.4
95478.7
154075
158235
154391
95214.3
94651.4
95476.9
92820.2
95099.3
92563.3
157855
156831
157749
92817.5
95100
92569.4
96917.7
97003.1
96842.3
161632
160784
161633
96918.1
97003.7
96843.1
97015.5
97238.4
96987.3
161574
161952
161656
97015.4
97238.3
96987.4
78111
92557.4
78384.5
127910
154082
127082
78086.5
92556.5
78379.4
78052.2
92467
78126.9
126646
154120
125407
78028
92466.1
78122.5
80056.6
92744.9
79984.3
128870
155088
127345
80037.9
92744.1
79980.7
97382.8
97470.6
97381.8
162127
162311
162131
97382.3
97470
97380.2
97452.3
97472.1
97449.4
162287
162366
162278
97451.7
97471.5
97447.6
97453.8
97467.5
97452.2
162364
162385
162349
97453.2
97467
97450.5
97528
97634.2
97881.6
162247
162319
162459
97521
97625.5
97872.3
97471.3
97498.7
97657.3
162257
162267
162328
97464.9
97490.7
97648.4
97411.5
97339.3
97278.2
162315
162271
162244
97406
97332.5
97271.6
97889.9
97642.2
97527.7
162477
162336
162256
97890.1
97642
97527.2
97659.7
97503.4
97471.5
162344
162285
162271
97659.7
97503.1
97471
97275.2
97344.1
97414.5
162263
162289
162331
97274.8
97343.7
97413.9
98439.5
98336.2
98148
162939
162843
162680
98438.8
98335.6
98147.9
98309.5
98174.4
97952.8
162757
162672
162513
98309.2
98174.2
97952.9
98156.2
98005.4
97733.7
162513
162422
162307
98156.1
98005.5
97733.8
97194.7
97141.1
97038.8
161291
161248
161160
97194.6
97141.1
97038.9
92238
92251.1
92290.1
152984
152990
152991
92238.2
92251.2
92290.2
85038
85038
85041.3
137120
137122
137116
85038.1
85038.2
85041.4
98154.9
98347
98444.5
162676
162842
162921
98143.2
98333.2
98429.1
97956.5
98175
98303.3
162513
162670
162737
97945.1
98161.8
98288.9
97733.1
97997.3
98140.2
162302
162415
162491
97723.1
97985.6
98128.4
97017
97128.3
97184.7
161098
161180
161226
97019.8
97133.3
97191.7
92241.4
92204.2
92189.4
152894
152893
152888
92235
92196.4
92180.6
84988.2
84985.3
84985.8
137037
137043
137039
84987.7
84984.9
84985.5
)
;

boundaryField
{
    fuel
    {
        type            zeroGradient;
    }
    primary_air
    {
        type            zeroGradient;
    }
    Secondary_air_RHS
    {
        type            zeroGradient;
    }
    Secondary_air_LHS
    {
        type            zeroGradient;
    }
    outlet
    {
        type            totalPressure;
        rho             rho;
        psi             none;
        gamma           1;
        p0              uniform 100000;
        value           nonuniform List<scalar> 
18
(
88613.7
100000
88613.3
88587.1
100000
88586.7
88583.7
100000
88583.4
88626
100000
88626.2
88628.3
100000
88628.4
88655.6
100000
88655.8
)
;
    }
    stove_body
    {
        type            zeroGradient;
    }
    frontAndBack
    {
        type            empty;
    }
}


// ************************************************************************* //
