/*--------------------------------*- C++ -*----------------------------------*\
  =========                 |
  \\      /  F ield         | OpenFOAM: The Open Source CFD Toolbox
   \\    /   O peration     | Website:  https://openfoam.org
    \\  /    A nd           | Version:  6
     \\/     M anipulation  |
\*---------------------------------------------------------------------------*/
FoamFile
{
    version     2.0;
    format      ascii;
    class       surfaceScalarField;
    location    "4";
    object      phi;
}
// * * * * * * * * * * * * * * * * * * * * * * * * * * * * * * * * * * * * * //

dimensions      [1 0 -1 0 0 0 0];

internalField   nonuniform List<scalar> 
675
(
1.07847e-05
-3.53175e-05
0.000142567
-1.08579e-05
5.32062e-06
0.000134357
-3.52839e-05
0.000142461
-1.63504e-05
3.531e-05
0.000142682
1.64778e-05
-5.32373e-06
0.000174769
3.52794e-05
0.000142873
1.0788e-05
0.000142557
-1.08548e-05
0.000134354
0.000142459
6.67105e-06
-5.8447e-05
0.000194265
-6.78032e-06
4.72519e-06
0.000143006
-5.81877e-05
0.00019379
-2.75801e-05
5.84163e-05
5.35478e-05
2.84441e-05
-4.72824e-06
0.00012834
5.81871e-05
5.50915e-05
6.67885e-06
0.000194215
-6.77593e-06
0.000143003
0.000193792
3.70208e-06
7.23624e-05
-4.78659e-06
3.33035e-05
7.08039e-05
1.5893e-06
-7.22791e-05
-1.28296e-07
-3.33067e-05
-7.08344e-05
3.73625e-06
-4.75818e-06
0.00327384
0.00390025
-0.00396623
-0.00299096
0.00520573
0.00426183
0.00373608
-0.00351952
0.00538268
-0.00389946
0.00774767
-0.00523519
-0.00520627
0.0263521
-0.0037286
0.00755989
0.00329018
-0.00398174
-0.00296833
0.00425502
-0.00348944
0.0087482
0.00833898
-0.0210544
-0.00823398
-0.00483405
0.0260769
0.00798401
-0.0197385
0.00280501
-0.00835968
0.0216394
-0.00357503
0.00483102
0.0230626
-0.00794867
0.0199156
0.00872437
-0.0210668
-0.00823339
0.0260426
-0.0196725
0.000383247
0.0176297
-0.0390682
-0.000686698
-0.0071359
0.0342815
0.0174942
-0.0379203
-0.0431816
-0.0176323
0.100081
0.0432899
0.00713275
-0.0776822
-0.0174597
0.0981571
0.000414845
-0.0391148
-0.000659398
0.0342484
-0.0377924
-0.0244738
-0.0223011
-0.0184908
0.0652644
0.024124
0.00879711
-0.0316289
-0.0257677
-0.0231316
-0.0173598
0.0646144
-0.00226282
0.0223123
0.0178037
-0.0601555
0.00434367
-0.00879164
-0.0904151
0.101393
0.0231073
0.0179382
-0.0598344
-0.0244929
-0.0184863
0.0652903
0.0240735
-0.0316189
-0.0257408
-0.0173123
0.0644922
0.00540898
-0.00773429
-0.016167
-0.00900448
0.0117787
-0.0289963
-0.0109599
-0.0154049
0.0179784
0.00772023
-0.0156303
-0.0109173
-0.0117865
-0.0379569
0.0109441
-0.0148845
0.0054065
-0.0161735
-0.00901799
-0.0289827
-0.0153869
-0.00126515
0.00264263
-0.01754
-0.0130073
0.000211644
-0.0174618
-0.0102369
-0.0181662
0.0184008
-0.00265256
-0.0287372
0.00951151
-0.000212996
-0.0286497
0.0102358
-0.0258648
-0.00128755
-0.0175301
-0.0130202
-0.0174572
-0.0181627
-0.00162305
-0.000416487
-0.0473031
0.00153029
-0.000123259
0.0312514
-0.000327203
-0.0463732
-0.00284908
0.000417877
0.0852706
0.0031724
0.000123541
-0.0839508
0.000329243
0.0839572
-0.0016275
-0.0473407
0.00152363
0.0312208
-0.0462493
-0.00150426
0.000208275
-0.0562738
0.00146564
-0.000523006
0.0288044
0.000310667
-0.0554947
-0.00314578
-0.000207268
0.0721734
0.00323609
0.000523235
-0.0913792
-0.00030589
0.0713142
-0.00150633
-0.0563051
0.00146112
0.0287765
-0.05537
-0.00215618
0.000616335
0.00210646
-0.00122602
0.000705251
-0.00370149
-0.000615464
0.00386041
0.00122575
-0.000704931
-0.00215828
0.0021031
0.00616714
-0.000741897
-0.00883078
-0.014134
-0.00549098
-0.000690527
-0.00511449
-0.000806076
-0.00870586
-0.0141484
0.00620701
0.000741645
-0.0175326
-0.0188931
-0.00824042
0.000690301
-0.0155836
0.00080739
-0.0167999
-0.018923
0.00616725
-0.00882454
-0.0141305
-0.00548736
-0.0051134
-0.00870785
-0.0141358
0.00269005
0.000239353
-0.00210305
-0.00965655
-0.00332769
0.000479377
0.000422345
0.000133027
-0.00256083
-0.00961007
0.00438952
-0.000239295
-0.00708637
-0.0143538
-0.00430296
-0.000479634
-0.00593199
-0.00013074
-0.00633003
-0.014513
0.00269258
-0.00210015
-0.00965563
-0.00332741
0.00042565
-0.00256174
-0.00960563
0.000318786
0.000181278
-0.00260234
-1.74473e-05
0.000757073
0.00023335
-0.00281647
0.00166281
-0.000180928
-0.00838253
-0.00275532
-0.000756198
-0.000232139
-0.00862377
0.000318881
-0.00259934
-1.29976e-05
-0.00280834
-0.0129078
-5.80135e-05
-0.00118492
-0.0132158
0.00157265
-0.00126434
0.00190616
-0.00467336
-0.0104472
-0.0179125
5.85191e-05
-0.00112925
-0.0159488
-0.00157162
0.00117696
-0.00190256
0.00182611
-0.0139723
-0.0128897
-0.00118816
-0.0131967
-0.00126676
-0.00466803
-0.0104343
-0.01001
-9.05094e-05
-0.000697437
-0.0100825
0.00103632
-0.00222919
0.00051594
-0.00530842
-0.00996328
-0.015521
9.17931e-05
-0.000305885
-0.0131548
-0.00103557
0.000879176
-0.000513647
0.00271002
-0.013015
-0.0100011
-0.000701121
-0.0100665
-0.00223793
-0.00530039
-0.0099493
-0.00340667
-0.000110604
-0.00510352
-0.000534832
-0.00111021
-0.00930295
-0.00915347
0.000110957
-0.00934883
0.000536432
0.00111156
-0.00886602
-0.00339828
-0.00509953
-0.00928737
0.0131878
0.00194896
-0.00483804
-0.0102975
0.0128638
0.00159091
-0.00126669
-6.31611e-05
-0.00120685
0.01582
-0.00194931
0.00197346
-0.0138958
0.0178085
-0.00159052
0.00119238
6.35332e-05
-0.00121117
0.0131847
-0.00484352
-0.0102895
0.0128609
-0.00126666
-0.00120599
0.0101636
0.000447614
-0.00545725
-0.00999126
0.0100591
0.00102775
-0.00218998
-9.64662e-05
-0.000707912
0.0130233
-0.000445553
0.00283426
-0.0129917
0.0153918
-0.00102722
0.000878246
9.6821e-05
-0.000366178
0.0101646
-0.00546424
-0.00998893
0.0100587
-0.00218822
-0.000706286
0.00480713
-0.0011508
-0.00911387
0.00316849
-0.00055166
-0.000142111
0.0092594
0.00115147
-0.0087284
0.00903327
0.000552047
0.000142632
0.0048002
-0.0091135
0.00316349
0.00439623
0.00171605
-0.00611131
0.00695653
0.00163909
-0.00419869
0.00169034
-0.00503031
0.00636528
-0.00171533
-0.00293386
0.0102211
-0.00163845
-0.000578516
-0.00169006
-0.000294431
0.00439126
-0.00610573
0.00694631
-0.00419294
-0.00503244
0.00357716
0.00151588
-0.011203
0.00686083
0.00147667
-0.00895801
0.00110685
-0.00926653
0.00469421
-0.00151569
-0.00459646
0.00931409
-0.00147618
-0.00224577
-0.00110446
-0.00176101
0.00357259
-0.0111928
0.00685463
-0.00895025
-0.00927028
0.00471294
0.00303631
-0.0189509
0.00525459
0.00165514
-0.0111536
0.000878581
-0.0140035
0.00521647
-0.00303655
-0.00374003
0.00868886
-0.00165596
-0.00240723
-0.000879457
-4.27804e-05
0.00470927
-0.0189373
0.00524897
-0.0111448
-0.0140134
-0.00577259
0.0115936
-0.0247731
-0.00183422
0.0102578
-0.0253493
0.00953569
-0.025373
0.00117427
-0.0115935
0.0182673
-0.000579162
-0.0102618
0.0198618
-0.0095409
0.0184509
-0.00576131
-0.0247701
-0.00181942
-0.025347
-0.0253719
0.000542092
0.006388
-0.0317026
0.000925993
0.00636264
-0.0320962
0.00691249
-0.0313605
-0.000937694
-0.00639027
0.0319814
-0.000859249
-0.00636399
0.0325079
-0.00691371
0.0314155
0.000543096
-0.0317027
0.00092688
-0.032095
-0.0313599
1.43532e-05
0.019139
-0.000294316
0.0190642
0.0191444
-0.000218438
-0.0191394
4.99772e-05
-0.0190647
-0.0191448
1.36929e-05
-0.000294421
-0.00715012
0.00166423
-0.00496097
-0.00451975
0.00160794
-0.00423729
0.00171001
-0.00622841
-0.0102133
-0.00165964
-0.000441501
-0.00629779
-0.00160347
-0.000711148
-0.00170574
-0.00288941
-0.00714394
-0.00495117
-0.00451312
-0.00423567
-0.0062213
-0.00685824
0.00114506
-0.00921078
-0.00359016
0.001425
-0.00892884
0.00148203
-0.0112986
-0.00920216
-0.00114218
-0.00197311
-0.00466985
-0.00141985
-0.0024054
-0.00147676
-0.0046079
-0.00685836
-0.00918523
-0.00359692
-0.00891894
-0.0112978
-0.00517189
0.001076
-0.0144176
-0.00458366
0.0018267
-0.0113414
0.00294641
-0.0188251
-0.00872172
-0.00107182
2.46713e-05
-0.00508351
-0.00181951
-0.00240399
-0.00294146
-0.00381114
-0.00517401
-0.01437
-0.00459464
-0.0113197
-0.0188365
0.00167191
0.00967731
-0.0257428
0.00566766
0.0102075
-0.0254882
0.0116003
-0.0246811
0.000543385
-0.00963694
0.0187634
-0.00143705
-0.0102089
0.019956
-0.0116094
0.0179152
0.00177825
-0.0257512
0.00575348
-0.0254989
-0.0246918
-0.00110873
0.00690438
-0.0315358
-0.000707553
0.0063519
-0.032244
0.00637286
-0.0317684
0.00105909
-0.0069009
0.0315063
0.00118944
-0.0063485
0.0325223
-0.0063693
0.0318431
-0.00111196
-0.0315406
-0.000710176
-0.0322468
-0.0317684
0.000255076
0.0190956
-6.55914e-05
0.0190144
0.0191103
6.45104e-05
-0.0190957
0.000361658
-0.0190145
-0.0191107
0.000253288
-6.76394e-05
)
;

boundaryField
{
    fuel
    {
        type            calculated;
        value           nonuniform List<scalar> 
36
(
0.000118112
0.000196812
0.000118112
0.000118112
0.000196812
0.000118112
0.000118112
0.000196812
0.000118112
-0.000118112
-0.000196812
-0.000118112
-0.000118112
-0.000196812
-0.000118112
-0.000118112
-0.000196812
-0.000118112
0
0
0
0
0
0
0
0
0
0
0
0
0
0
0
0
0
0
)
;
    }
    primary_air
    {
        type            calculated;
        value           nonuniform List<scalar> 9(-0.00320951 -0.00533723 -0.00320954 -0.00320605 -0.00533506 -0.00320605 -0.00320918 -0.00533727 -0.00320915);
    }
    Secondary_air_RHS
    {
        type            calculated;
        value           nonuniform List<scalar> 9(0.0103104 0.0167158 0.0103097 0.0102765 0.0164955 0.0102759 0.0105208 0.0167504 0.0105203);
    }
    Secondary_air_LHS
    {
        type            calculated;
        value           nonuniform List<scalar> 9(0.0102744 0.0168247 0.0102712 0.0102666 0.0166585 0.0102635 0.0105303 0.016951 0.0105278);
    }
    outlet
    {
        type            calculated;
        value           nonuniform List<scalar> 
18
(
-0.0508815
0.0696433
-0.0508823
-0.0509326
0.0702642
-0.0509332
-0.0509389
0.0704358
-0.0509395
-0.0508566
0.07048
-0.0508562
-0.0508522
0.0703702
-0.0508519
-0.0507997
0.0697566
-0.0507994
)
;
    }
    stove_body
    {
        type            calculated;
        value           uniform 0;
    }
    frontAndBack
    {
        type            empty;
        value           nonuniform 0();
    }
}


// ************************************************************************* //
