/*--------------------------------*- C++ -*----------------------------------*\
  =========                 |
  \\      /  F ield         | OpenFOAM: The Open Source CFD Toolbox
   \\    /   O peration     | Website:  https://openfoam.org
    \\  /    A nd           | Version:  6
     \\/     M anipulation  |
\*---------------------------------------------------------------------------*/
FoamFile
{
    version     2.0;
    format      ascii;
    class       volVectorField;
    location    "4";
    object      U;
}
// * * * * * * * * * * * * * * * * * * * * * * * * * * * * * * * * * * * * * //

dimensions      [0 1 -1 0 0 0 0];

internalField   nonuniform List<vector> 
297
(
(12.3995 0.0177357 0.274339)
(12.4001 -0.000179122 0.249327)
(12.3995 -0.0179096 0.274025)
(1.27888e-08 -0.0235855 0.252023)
(1.3021e-08 0.000152234 0.24936)
(1.31946e-08 0.0237342 0.252)
(-12.3995 0.0177459 0.274325)
(-12.4001 -0.00016613 0.249325)
(-12.3995 -0.0179012 0.274022)
(12.399 0.0129533 0.29697)
(12.4001 -0.000242534 0.259718)
(12.3991 -0.0131958 0.297147)
(1.29912e-08 -0.0700147 0.0586237)
(1.31309e-08 0.00221358 0.228075)
(1.331e-08 0.0712699 0.0631057)
(-12.399 0.0129797 0.29697)
(-12.4001 -0.00021555 0.259714)
(-12.3991 -0.0131823 0.297136)
(11.3297 0.0266048 0.445546)
(12.3853 -0.00455668 0.398275)
(11.4224 -0.0279067 0.447173)
(9.29641e-09 0.0921948 0.207719)
(1.31644e-08 -0.0168584 0.0965363)
(9.96187e-09 -0.0718476 0.20426)
(-11.34 0.0266877 0.445716)
(-12.3853 -0.00428975 0.398266)
(-11.4194 -0.0278698 0.447096)
(54.9004 -7.0469 12.6023)
(29.5707 0.443313 16.8893)
(55.3191 7.22971 10.552)
(3.62508e-05 -0.796166 16.778)
(2.91656e-06 0.234129 10.3091)
(-3.97059e-05 0.402028 16.0179)
(-54.9746 -7.09997 12.5077)
(-29.5909 0.53957 16.877)
(-55.4067 7.15476 10.6055)
(89.0439 -34.852 51.8403)
(75.0577 2.01309 127.077)
(94.2687 36.3357 59.2907)
(0.000404432 8.04876 210.225)
(5.07109e-05 -1.08241 130.635)
(-0.000103619 -6.88898 213.052)
(-89.0412 -34.9668 51.7379)
(-75.2276 1.91407 127.228)
(-94.7629 36.2334 59.849)
(87.1456 -88.0063 -50.756)
(68.3104 -1.23582 167.077)
(92.2125 99.036 -42.0765)
(0.000524582 -59.9164 269.962)
(3.97597e-06 1.31865 -23.4201)
(-0.000270396 60.8599 279.821)
(-87.1407 -88.1672 -50.4701)
(-68.4473 -0.884596 167.299)
(-92.6965 99.1987 -42.3272)
(54.7486 -55.3984 -212.984)
(38.0788 -3.57506 -28.6303)
(57.6872 63.6405 -217.592)
(-0.000600016 -106.381 -23.7048)
(5.0389e-05 0.759579 -120.661)
(0.00137139 114.743 -24.3473)
(-54.7661 -55.3988 -213.052)
(-38.1291 -3.72821 -28.6727)
(-57.7199 63.6201 -217.815)
(25.2415 46.0436 -132.247)
(15.3461 -8.63997 -89.7252)
(30.5767 -38.0741 -140.441)
(4.9326e-05 -0.884492 -115.322)
(3.68697e-05 6.48728 -100.474)
(0.000116388 7.5576 -121.902)
(-25.2186 46.0434 -132.272)
(-15.3483 -8.66915 -89.7197)
(-30.5736 -38.0674 -140.313)
(8.45885 23.1988 -21.1168)
(8.45953 -8.70396 -16.772)
(8.46202 -22.0141 -21.5574)
(-1.54696e-06 20.5941 -19.5551)
(-4.51734e-07 7.90166 -22.1001)
(1.50938e-06 -16.5578 -18.1953)
(-8.46062 23.1778 -21.1094)
(-8.45967 -8.71312 -16.7651)
(-8.46288 -22.0206 -21.5523)
(77.0018 -85.6363 -516.267)
(65.2215 -5.34762 211.687)
(80.392 100.919 -520.131)
(-0.00481285 -80.6259 401.884)
(-5.4315e-05 5.46916 -151.098)
(-0.00104957 85.5842 423.354)
(-76.8812 -85.8539 -516.247)
(-65.3511 -5.31796 211.909)
(-80.9159 101.033 -521.986)
(68.9863 -64.0126 -412.077)
(59.187 -5.45769 206.752)
(66.7271 75.3825 -414.544)
(-0.00512242 -76.4008 454.576)
(-5.65572e-05 4.87179 -152.764)
(-0.00104159 80.1598 482.758)
(-69.0254 -64.0962 -412.308)
(-59.2988 -5.45605 206.966)
(-66.9987 75.401 -415.591)
(61.7142 -68.3113 -358.218)
(59.4894 -4.86495 189.322)
(64.305 78.9852 -360.702)
(-0.00461237 -107.518 500.408)
(-5.95657e-05 3.74153 -143.593)
(-0.000918243 117.841 530.121)
(-61.7454 -68.4583 -358.423)
(-59.6005 -4.89089 189.506)
(-64.5759 78.9716 -361.48)
(8.42603 36.8555 -10.3717)
(8.45109 1.68109 -10.3893)
(8.42674 -36.5767 -10.6218)
(-9.08179e-06 28.4831 -11.3065)
(-1.1303e-05 -3.15146 -11.252)
(-3.29797e-05 -28.9284 -10.425)
(-8.42778 36.8585 -10.3671)
(-8.45105 1.68312 -10.3867)
(-8.42805 -36.5649 -10.6224)
(8.4589 20.1822 -3.86475)
(8.46997 -2.30004 -2.00939)
(8.4601 -19.4636 -4.05082)
(-1.06679e-05 18.9799 -4.74605)
(-1.1084e-05 0.443954 -5.55745)
(-3.56917e-05 -19.6831 -4.49329)
(-8.45952 20.1824 -3.86268)
(-8.47029 -2.28726 -2.00699)
(-8.46052 -19.48 -4.05539)
(8.47059 -0.904787 -4.91962)
(8.47154 0.526604 0.467624)
(8.47096 0.968803 -5.13135)
(-1.10062e-05 8.97394 -2.83631)
(-1.011e-05 -1.8862 -2.19443)
(-3.29168e-05 -9.50572 -2.34198)
(-8.47111 -0.908404 -4.91613)
(-8.47193 0.528391 0.467092)
(-8.47096 0.987685 -5.12639)
(8.42194 -39.369 -4.53346)
(8.44581 -35.6393 -6.68295)
(8.43657 -31.1507 -9.03067)
(-0.000136186 -31.489 -3.80196)
(-0.000170297 -29.2805 -3.72029)
(-0.000182436 -25.111 -4.06331)
(-8.42345 -39.329 -4.53524)
(-8.44744 -35.5774 -6.68585)
(-8.43827 -31.1417 -9.02855)
(8.44765 -29.6527 -2.26328)
(8.46088 -30.8045 -7.4903)
(8.43482 -27.2505 -13.8422)
(-0.000124664 -26.2121 0.0405201)
(-0.000155957 -26.1603 0.995013)
(-0.000173326 -22.0747 1.71967)
(-8.44842 -29.6305 -2.2797)
(-8.46182 -30.7643 -7.4992)
(-8.43602 -27.2221 -13.828)
(8.47493 -6.36693 -4.42092)
(8.47363 -17.4815 -12.9456)
(8.44121 -23.5536 -19.9206)
(-0.000107412 -15.3533 2.49056)
(-0.000132923 -15.9846 3.56353)
(-0.000129365 -16.6283 3.54218)
(-8.47526 -6.33631 -4.40634)
(-8.47401 -17.4534 -12.9521)
(-8.44168 -23.5087 -19.8744)
(8.43525 30.38 -9.1524)
(8.44429 35.1757 -6.71538)
(8.42106 39.4608 -4.56996)
(3.00801e-06 24.52 -4.17673)
(-3.90061e-06 29.0864 -3.88602)
(-9.74065e-06 31.5523 -3.96455)
(-8.43687 30.3576 -9.15447)
(-8.44624 35.1726 -6.7159)
(-8.42284 39.464 -4.56864)
(8.43291 27.1369 -14.3068)
(8.46027 30.9642 -7.72335)
(8.44744 29.8367 -2.3313)
(-2.94548e-07 21.6225 2.19085)
(-6.43091e-06 25.9934 1.35358)
(-1.03279e-05 26.1361 0.18456)
(-8.43335 27.1297 -14.3223)
(-8.46073 30.9672 -7.72706)
(-8.44788 29.8392 -2.33005)
(8.4395 23.4023 -20.1056)
(8.47174 16.5723 -12.5709)
(8.47432 5.72202 -4.37658)
(-8.27946e-06 16.3509 3.25498)
(-8.28225e-06 15.9607 3.14027)
(-1.04256e-05 15.0999 2.2169)
(-8.43991 23.3983 -20.1237)
(-8.47208 16.5541 -12.5654)
(-8.47467 5.71386 -4.37269)
(8.42039 9.18649 -15.4922)
(8.42043 13.8296 -11.248)
(8.42766 22.1777 -12.8942)
(-1.34032e-05 7.39405 -7.82498)
(-1.16751e-05 12.4956 -4.29572)
(-2.7508e-06 18.6062 -5.04743)
(-8.42289 9.17136 -15.4855)
(-8.42272 13.8192 -11.2376)
(-8.42918 22.1645 -12.8933)
(8.42372 3.99811 -22.5433)
(8.42749 12.7849 -17.8351)
(8.42624 22.845 -21.5934)
(-6.14753e-06 5.22635 -5.21911)
(-4.25382e-06 10.0364 -1.30543)
(1.20704e-06 17.4587 -1.24386)
(-8.42544 3.97808 -22.517)
(-8.42853 12.7815 -17.8092)
(-8.42681 22.8434 -21.5926)
(8.45201 3.44689 -27.5878)
(8.42928 14.6537 -26.3262)
(8.42926 15.0312 -30.9667)
(-1.73771e-06 4.44301 -8.39158)
(1.59497e-06 11.0269 -5.04299)
(1.99284e-06 13.863 0.441266)
(-8.4539 3.43108 -27.5621)
(-8.43001 14.6605 -26.3054)
(-8.42975 15.0166 -30.9948)
(8.44572 -1.67497 -44.5671)
(8.44193 -3.219 -44.6184)
(8.44454 -9.65634 -47.7821)
(-1.76286e-06 -1.96999 16.8667)
(1.24982e-06 3.03027 20.8302)
(2.52918e-06 -9.59072 19.7852)
(-8.44716 -1.65556 -44.5561)
(-8.44204 -3.21013 -44.6175)
(-8.44469 -9.65484 -47.7865)
(8.34399 0.626426 -111.563)
(8.33981 -0.716583 -113.588)
(8.34236 4.37368 -110.632)
(3.4272e-06 -0.860483 61.3577)
(1.83634e-06 0.955746 62.7879)
(1.51792e-06 -1.7773 60.0494)
(-8.34371 0.624041 -111.562)
(-8.33972 -0.718106 -113.581)
(-8.34177 4.37595 -110.622)
(7.99855 -0.00514497 -149.403)
(7.99885 -0.0634112 -149.386)
(7.9997 -0.0709209 -149.183)
(3.58159e-06 -0.328086 180.461)
(3.66432e-06 0.359432 180.2)
(3.58343e-06 -0.55889 178.778)
(-7.99854 -0.00529825 -149.402)
(-7.99885 -0.0636057 -149.385)
(-7.99969 -0.0709453 -149.182)
(8.42831 -22.0091 -12.8575)
(8.4211 -14.3375 -11.4792)
(8.42044 -10.0984 -15.728)
(-0.000226794 -18.3842 -4.99535)
(-0.00026851 -12.1731 -4.28958)
(-0.000299682 -7.9584 -7.71547)
(-8.43035 -21.9906 -12.8363)
(-8.42369 -14.317 -11.4633)
(-8.42373 -10.0914 -15.7036)
(8.42771 -22.3683 -21.6361)
(8.42847 -12.4404 -18.0999)
(8.42391 -5.11684 -23.5154)
(-0.000222156 -17.2425 -1.55552)
(-0.00025787 -9.68099 -1.58114)
(-0.000281831 -6.12009 -5.26873)
(-8.42923 -22.3504 -21.601)
(-8.43047 -12.4447 -18.0926)
(-8.42717 -5.16736 -23.509)
(8.4386 -15.1693 -30.7646)
(8.43764 -13.4808 -26.0135)
(8.4519 -3.71122 -28.1052)
(-0.00019609 -14.3541 0.0317128)
(-0.000229414 -10.3719 -5.32714)
(-0.000230641 -5.16889 -8.38018)
(-8.43966 -15.1762 -30.6568)
(-8.43922 -13.4773 -25.9977)
(-8.4546 -3.77209 -28.1232)
(8.44513 9.94342 -49.0674)
(8.43881 2.66562 -44.8337)
(8.44203 3.1307 -44.448)
(5.51212e-05 9.2174 20.7569)
(9.94836e-05 -2.8821 21.4119)
(0.000139627 2.22752 16.141)
(-8.44483 9.96299 -49.0126)
(-8.43849 2.7274 -44.8314)
(-8.44325 3.12837 -44.4695)
(8.34194 -4.44311 -111.299)
(8.33997 0.684139 -114.095)
(8.34383 -0.986375 -111.611)
(-0.00013231 1.79364 60.5546)
(-0.000161426 -0.85563 62.9265)
(-0.000182024 0.839975 60.9853)
(-8.34247 -4.43768 -111.345)
(-8.33982 0.668137 -114.126)
(-8.34476 -0.961185 -111.639)
(8.00034 0.0617102 -149.494)
(7.99947 0.0416653 -149.691)
(7.99914 -0.00700137 -149.716)
(-1.21619e-05 0.589336 178.514)
(-9.11282e-06 -0.310879 179.966)
(-6.49686e-06 0.345039 180.391)
(-8.00038 0.0612479 -149.497)
(-7.99951 0.0407071 -149.694)
(-7.99917 -0.00758574 -149.719)
)
;

boundaryField
{
    fuel
    {
        type            fixedValue;
        value           uniform (0 0 0.25);
    }
    primary_air
    {
        type            fixedValue;
        value           uniform (0 0 2.5);
    }
    Secondary_air_RHS
    {
        type            fixedValue;
        value           uniform (0 100 0);
    }
    Secondary_air_LHS
    {
        type            fixedValue;
        value           uniform (0 -100 0);
    }
    outlet
    {
        type            pressureInletOutletVelocity;
        value           nonuniform List<vector> 
18
(
(0 0 -149.494)
(-1.21619e-05 0.589336 178.514)
(0 0 -149.497)
(0 0 -149.691)
(-9.11282e-06 -0.310879 179.966)
(0 0 -149.694)
(0 0 -149.716)
(-6.49686e-06 0.345039 180.391)
(0 0 -149.719)
(0 0 -149.403)
(3.58159e-06 -0.328086 180.461)
(0 0 -149.402)
(0 0 -149.386)
(3.66432e-06 0.359432 180.2)
(0 0 -149.385)
(0 0 -149.183)
(3.58343e-06 -0.55889 178.778)
(0 0 -149.182)
)
;
    }
    stove_body
    {
        type            noSlip;
    }
    frontAndBack
    {
        type            empty;
    }
}


// ************************************************************************* //
