/*--------------------------------*- C++ -*----------------------------------*\
  =========                 |
  \\      /  F ield         | OpenFOAM: The Open Source CFD Toolbox
   \\    /   O peration     | Website:  https://openfoam.org
    \\  /    A nd           | Version:  6
     \\/     M anipulation  |
\*---------------------------------------------------------------------------*/
FoamFile
{
    version     2.0;
    format      ascii;
    class       volScalarField;
    location    "0.5";
    object      O2;
}
// * * * * * * * * * * * * * * * * * * * * * * * * * * * * * * * * * * * * * //

dimensions      [0 0 0 0 0 0 0];

internalField   nonuniform List<scalar> 
297
(
0
0
0
0
0
0
0
0
0
0
0
0
0
0
0
0
0
0
0
0
0
0
0
0
0
0
0
0.0879098
0.145445
0.0909816
0.184064
0.18306
0.185752
0.0862421
0.144762
0.0923627
0
1.64456e-05
0
0.0778309
0.149692
0.0796224
0
1.20469e-05
0
0
0
0
0.0540201
0.0368815
0.0551554
0
0
0
0
3.05907e-07
0
0
0
0
2.92728e-05
9.34596e-08
0
0
0
0
0
0
0
0
0
0
0
0
0
0
5.00518e-13
0
0
2.76559e-15
0
0
3.6316e-06
0
0.0133455
7.46702e-07
0.0140404
0
3.77097e-06
0
0
5.43346e-06
0
0
0
0
0
3.10358e-06
0
0
3.45872e-06
0
0
0
0
0
1.00109e-06
0
0
2.49789e-17
1.26019e-16
0
1.86844e-18
7.17742e-16
0
6.02287e-18
4.4831e-17
5.14897e-24
6.1754e-21
1.62194e-20
1.3964e-20
1.22443e-19
6.63581e-19
5.64022e-23
1.69832e-21
3.59132e-21
2.48085e-25
8.57997e-22
7.0803e-24
1.30948e-22
6.1808e-22
2.631e-22
1.87978e-24
7.999e-22
1.03602e-23
3.65096e-21
1.31012e-25
7.08915e-29
2.47408e-20
1.11389e-24
5.84883e-29
1.7224e-21
9.07093e-26
7.65169e-29
1.20511e-24
2.49439e-28
1.63875e-28
1.90601e-23
7.88089e-27
4.6268e-30
9.78338e-25
2.78091e-28
1.52471e-28
5.30805e-25
3.45193e-28
3.3615e-28
9.01293e-25
4.42157e-26
1.04011e-27
9.13901e-25
4.68887e-28
3.21762e-28
1.46276e-30
1.28516e-26
3.1309e-22
1.74118e-29
1.64253e-25
0
2.09307e-30
1.27814e-26
2.70268e-22
1.25314e-30
1.00585e-28
1.36571e-24
5.70727e-30
8.78609e-28
5.15876e-24
1.22262e-30
1.97869e-28
1.99286e-24
1.49146e-30
3.89521e-29
4.04666e-25
7.42591e-30
4.73253e-28
2.51589e-25
1.46938e-30
5.69812e-29
4.77239e-25
1.49706e-38
3.05442e-38
2.23447e-34
4.8958e-37
1.06514e-36
1.69721e-33
2.46834e-37
1.18179e-37
3.94195e-34
3.79944e-39
8.56843e-39
9.02255e-35
4.32068e-37
3.10353e-37
1.03365e-33
1.49436e-37
1.16076e-38
8.86683e-35
3.98112e-40
1.18092e-39
4.75582e-35
3.27418e-37
1.09776e-37
8.55716e-34
3.58665e-39
1.76593e-39
4.80713e-35
1.39766e-41
2.17083e-42
3.06134e-40
1.39734e-37
1.0712e-38
2.95849e-38
7.50475e-41
1.85614e-41
5.92609e-40
9.95414e-43
3.37358e-43
4.65922e-43
7.33627e-38
1.74893e-38
2.47853e-38
7.76246e-43
3.48673e-43
3.14315e-43
1.21892e-43
3.51402e-44
4.88615e-44
3.43753e-38
9.5221e-39
1.27596e-38
2.25547e-43
6.80173e-44
9.91752e-44
1.7941e-32
3.30815e-36
8.53884e-37
5.51781e-33
1.33483e-36
3.07014e-37
1.9387e-32
2.97331e-36
9.47935e-37
1.67571e-32
1.4788e-36
3.74892e-38
1.73416e-32
4.21644e-36
1.50393e-37
1.57103e-32
1.00607e-36
1.09732e-37
1.24939e-32
4.12753e-37
3.87756e-38
7.83073e-32
5.96654e-36
1.01504e-37
1.21633e-32
4.30983e-37
6.54376e-38
1.02201e-37
9.52249e-42
1.78245e-42
7.15226e-37
4.72207e-38
2.40526e-38
1.01749e-37
2.70479e-41
2.98677e-41
1.44396e-42
1.19099e-43
1.50354e-43
2.1677e-37
1.26752e-38
1.55763e-38
1.52493e-42
9.31514e-44
1.76531e-43
2.07344e-43
1.41457e-44
2.63499e-44
7.00313e-38
4.38239e-39
7.33945e-39
3.33833e-43
2.47659e-44
5.04116e-44
)
;

boundaryField
{
    fuel
    {
        type            fixedValue;
        value           uniform 0;
    }
    primary_air
    {
        type            fixedValue;
        value           uniform 0.23;
    }
    Secondary_air_RHS
    {
        type            fixedValue;
        value           uniform 0.23;
    }
    Secondary_air_LHS
    {
        type            fixedValue;
        value           uniform 0.23;
    }
    outlet
    {
        type            inletOutlet;
        inletValue      uniform 0;
        value           nonuniform List<scalar> 
18
(
0
7.00313e-38
0
0
4.38239e-39
0
0
7.33945e-39
0
0
3.43753e-38
0
0
9.5221e-39
0
0
1.27596e-38
0
)
;
    }
    stove_body
    {
        type            fixedValue;
        value           uniform 0;
    }
    frontAndBack
    {
        type            empty;
    }
}


// ************************************************************************* //
