/*--------------------------------*- C++ -*----------------------------------*\
  =========                 |
  \\      /  F ield         | OpenFOAM: The Open Source CFD Toolbox
   \\    /   O peration     | Website:  https://openfoam.org
    \\  /    A nd           | Version:  6
     \\/     M anipulation  |
\*---------------------------------------------------------------------------*/
FoamFile
{
    version     2.0;
    format      ascii;
    class       volScalarField;
    location    "0.5";
    object      p;
}
// * * * * * * * * * * * * * * * * * * * * * * * * * * * * * * * * * * * * * //

dimensions      [1 -1 -2 0 0 0 0];

internalField   nonuniform List<scalar> 
297
(
122704
122704
122704
203619
203619
203619
122707
122707
122707
122704
122704
122704
203619
203619
203619
122707
122707
122707
122704
122704
122704
203619
203619
203619
122707
122707
122707
97515.8
97518.5
97509.1
161567
161578
161575
97513.8
97517.5
97511.2
97577.2
97517.3
97575.4
161217
161391
161227
97578.6
97517.2
97570.2
97186.5
97212.7
97193.5
158591
160325
158596
97187.4
97215.2
97197
96229.3
96874.8
96206.3
160223
159964
160209
96230.6
96872.9
96204.3
97067.9
97161.2
97041.7
161325
161074
161326
97070.4
97170
97051.3
97214.6
97320.1
97206.2
161455
161452
161485
97220.8
97320
97207.2
94158.7
97208.4
94275.4
151420
159018
151392
94159.8
97214.7
94283.1
93854.8
97205.4
93939.5
150778
159026
150721
93855.7
97211.8
93946.4
93964.9
97186.6
94009.5
151557
159239
151482
93965.8
97192.5
94015.3
97472.7
97552
97477.1
161523
161523
161546
97473.4
97553
97478.7
97528.8
97574.7
97525.3
161563
161547
161579
97528.3
97576
97526.9
97541
97564.1
97536.8
161577
161562
161594
97540.3
97565.2
97538.4
97592.8
97712.3
97940.6
161646
161710
161742
97593.4
97712.5
97941.6
97526.5
97570.1
97740
161638
161672
161648
97527.3
97571.2
97741.8
97490.4
97438.5
97468.2
161648
161657
161654
97491.9
97440.8
97471.3
97986.5
97714.4
97581.5
161689
161650
161591
97988.9
97715.7
97582.1
97744.5
97550.2
97512.6
161577
161606
161589
97746.3
97550.9
97512.7
97436.1
97399.2
97467.8
161580
161595
161597
97437.5
97399.6
97467.6
97993.9
98051.5
98107.5
161798
161774
161744
97997.2
98054.7
98110.4
97968.4
98003.5
97966.4
161715
161695
161649
97971.5
98006.6
97969.1
97964
97998.5
97846.5
161609
161632
161607
97966.6
98001.1
97848.7
97677.3
97631.1
97572.4
161095
161099
161039
97676.8
97630.4
97571.6
94086.4
94065.7
94073.5
154536
154532
154528
94085.3
94064.6
94072.4
87819
87815.4
87815.6
139293
139283
139274
87818.1
87814.6
87814.8
98059.1
98033.3
97977.4
161777
161799
161825
98059.2
98031
97975.5
97931.9
97975.1
97956.8
161691
161727
161752
97933.7
97974.9
97955.1
97812.6
97963.2
97959.3
161654
161671
161657
97815.3
97963.2
97957.8
97608.6
97660.4
97704.8
161128
161177
161178
97613.3
97665
97709.3
94232.4
94225
94240.7
154794
154799
154802
94235.8
94228.4
94244.2
88056.3
88055.3
88057.2
139631
139639
139648
88061.3
88060.3
88062.1
)
;

boundaryField
{
    fuel
    {
        type            zeroGradient;
    }
    primary_air
    {
        type            zeroGradient;
    }
    Secondary_air_RHS
    {
        type            zeroGradient;
    }
    Secondary_air_LHS
    {
        type            zeroGradient;
    }
    outlet
    {
        type            totalPressure;
        rho             rho;
        psi             none;
        gamma           1;
        p0              uniform 100000;
        value           nonuniform List<scalar> 
18
(
90924.2
100000
90928.7
90878.5
100000
90882.5
90916.6
100000
90919.9
90707
100000
90705.9
90650.2
100000
90649
90705.8
100000
90704.7
)
;
    }
    stove_body
    {
        type            zeroGradient;
    }
    frontAndBack
    {
        type            empty;
    }
}


// ************************************************************************* //
