/*--------------------------------*- C++ -*----------------------------------*\
  =========                 |
  \\      /  F ield         | OpenFOAM: The Open Source CFD Toolbox
   \\    /   O peration     | Website:  https://openfoam.org
    \\  /    A nd           | Version:  6
     \\/     M anipulation  |
\*---------------------------------------------------------------------------*/
FoamFile
{
    version     2.0;
    format      ascii;
    class       surfaceScalarField;
    location    "0.5";
    object      phi;
}
// * * * * * * * * * * * * * * * * * * * * * * * * * * * * * * * * * * * * * //

dimensions      [1 0 -1 0 0 0 0];

internalField   nonuniform List<scalar> 
675
(
1.47746e-06
-1.73178e-05
0.000146849
-1.46315e-06
-1.73773e-05
0.000151374
-1.73195e-05
0.000146893
-8.51419e-06
1.28145e-05
0.000192829
8.57155e-06
1.28408e-05
0.000167154
1.28164e-05
0.000192865
-4.51097e-07
0.000144265
4.45506e-07
0.000142994
0.000144295
6.11574e-07
-2.83249e-05
0.00017561
-4.1658e-07
1.37123e-05
0.000139725
-2.83307e-05
0.000175852
-6.42654e-06
2.39138e-05
0.000145816
6.35954e-06
-6.4336e-06
0.000173417
2.39826e-05
0.000145724
-2.95319e-06
0.000172195
3.1067e-06
0.000131584
0.000172449
-1.4627e-05
5.93377e-05
1.44258e-05
-2.09275e-05
5.9334e-05
4.80356e-05
-6.15794e-05
-4.78627e-05
3.5054e-05
-6.15598e-05
-1.92588e-05
1.90275e-05
0.00271504
0.00597953
-0.00544686
-0.00180055
0.00788573
-0.000134919
0.0060958
-0.00469342
3.83257e-05
-0.00583733
0.0170385
-0.00029852
-0.00786915
0.0213421
-0.00620772
0.0172935
0.00297957
-0.00554779
-0.0015177
-0.000132821
-0.00450552
0.0109344
0.00848077
-0.024915
-0.00982522
0.00426338
0.0163854
0.00834571
-0.0227191
0.00108973
-0.00837721
0.0327968
-0.00110163
-0.00422295
0.0320118
-0.00832011
0.0329248
0.0109511
-0.0249103
-0.00967464
0.0163199
-0.0223847
0.00191547
0.0250705
-0.0519417
-0.00230848
0.009776
0.0108463
0.0248719
-0.0497501
-0.0503568
-0.0249546
0.133126
0.0509215
-0.00976319
-0.0497405
-0.0247884
0.133586
0.00184951
-0.0518149
-0.00232975
0.0108031
-0.0494368
-0.0244762
-0.0196451
-0.0230388
0.0671564
0.0226775
-0.00277058
-0.03743
-0.0068553
-0.0201293
-0.0223337
0.0652202
0.011041
0.0196206
0.0488737
-0.0991827
-0.00929173
0.00304699
-0.054276
0.0688541
0.0202635
0.0502357
-0.0998031
-0.0244067
-0.0230067
0.0670109
0.0225611
-0.0371431
-0.00686376
-0.0220523
0.0649291
0.00355864
-0.0111372
-0.015533
-0.00492604
-0.00578554
-0.0230276
-0.0120779
-0.0151398
0.0220651
0.011046
0.00464645
-0.0209487
0.00582845
-0.0226704
0.0122413
0.00510349
0.0034276
-0.0154443
-0.00484392
-0.0230491
-0.0146426
0.0017093
-0.00259913
-0.0146268
-0.00779221
0.00175808
-0.0152331
-0.00745608
-0.0154306
0.00871601
0.00249427
-0.00919227
0.00141919
-0.00183376
-0.0116449
0.00737508
-0.00849386
0.00137445
-0.0143996
-0.00824276
-0.0152165
-0.0154488
-0.00049198
-0.00233507
-0.0563406
0.00042623
-0.000491715
0.0104209
-0.00233348
-0.0542146
-0.00289322
0.00234369
0.11972
0.00303962
0.000490743
-0.0566562
0.00233596
0.120344
-0.000496207
-0.0562024
0.000425692
0.0103749
-0.0539057
-0.00102607
-0.000720739
-0.061796
0.000902324
-0.000425663
0.0089125
-0.000752138
-0.0597588
-0.00170626
0.000728031
0.108406
0.00180912
0.000427826
-0.0610251
0.000757357
0.109083
-0.00102763
-0.0616509
0.000896548
0.00888217
-0.059456
-0.00206023
0.000210477
0.00187475
-0.0018724
0.000131635
-0.00198987
-0.000206765
0.00207705
0.00188953
-0.000128877
-0.00205971
0.00186559
0.0049142
-0.00307864
-0.0054414
-0.0110252
-0.00408154
-0.00156497
-0.004675
-0.00354395
-0.00515017
-0.0108273
0.00301036
0.00305572
-0.0087641
-0.00957297
-0.00184787
0.00154009
-0.00989619
0.00348122
-0.0088125
-0.00855686
0.00504782
-0.00536408
-0.0110315
-0.00397796
-0.00465245
-0.0051259
-0.0108283
0.00325823
0.00033936
-0.000387626
-0.00865587
-0.00397453
0.000894243
0.00165969
0.000139762
-0.000404169
-0.00887184
0.00172353
-0.00032268
-0.00449043
-0.00533713
-0.00147866
-0.000916225
-0.00489162
-0.000164773
-0.00543407
-0.00455604
0.00337557
-0.000386152
-0.00867996
-0.0039029
0.00170706
-0.000345578
-0.00885852
0.000709415
0.00183402
-0.00293716
0.000137242
0.00222862
0.00200494
-0.00228077
0.000692011
-0.00183303
-0.00151958
0.000264141
-0.00224528
-0.00203487
-0.00113428
0.000722976
-0.00294758
0.000180452
-0.00220764
-0.00945591
-0.00104411
-0.000332467
-0.00975446
0.0010694
-0.000775328
0.0011434
-0.00445597
-0.00644519
-0.00999885
0.001041
-0.000642883
-0.00708789
-0.0010706
-0.000769591
-0.00109124
0.00146057
-0.00631111
-0.00944587
-0.000347108
-0.00972821
-0.00079368
-0.00444564
-0.00637805
-0.00864581
-0.000870074
0.000305001
-0.00893449
0.000647529
-0.00113963
-0.000930215
-0.00519008
-0.00727433
-0.00638172
0.000860548
-0.000546411
-0.00473711
-0.000649327
-0.00111495
0.000953248
0.00145388
-0.00660994
-0.00863853
0.000286577
-0.00893048
-0.00115764
-0.00518311
-0.00724529
-0.00242086
0.000439732
-0.00414028
0.000576159
-0.00216364
-0.00717242
-0.000783437
-0.000455991
-0.000737051
-0.000582492
0.0021551
-0.00359845
-0.002382
-0.0041275
-0.00716106
0.0102732
0.00134411
-0.00515279
-0.00646789
0.00995417
0.0011066
-0.00079222
-0.000915678
-0.000159551
0.00834238
-0.00134309
0.00136735
-0.00701496
0.0109726
-0.00110801
-0.000409926
0.000915125
-0.000427529
0.0102844
-0.0051563
-0.00647394
0.00996607
-0.000793485
-0.000153689
0.00913913
-0.000884061
-0.00590138
-0.00751104
0.00865855
0.000683709
-0.00100022
-0.000826439
0.000665673
0.00541409
0.000886306
0.00135422
-0.00716381
0.00712421
-0.000684292
-0.000746233
0.000830953
-0.000294163
0.00915335
-0.00590781
-0.0075196
0.00867252
-0.00100121
0.000666651
0.00409859
-0.00230101
-0.00770332
0.00257327
0.000520737
0.000298672
0.00091498
0.00230427
-0.00415834
0.00121529
-0.000520647
-0.000297453
0.00410641
-0.0077139
0.00258093
-0.00155475
0.0012341
0.00031857
0.0011882
0.00114208
-0.00388786
0.00099731
-0.00628
-0.000128638
-0.00123597
0.00260504
0.00374305
-0.00114346
-0.00157954
-0.000997299
-0.0012705
-0.00155637
0.000318005
0.00119079
-0.0038935
-0.00628297
-0.000185592
0.00119463
-0.000692605
0.0041134
0.000720236
-0.00890928
-0.000168165
-0.00951183
0.000910002
-0.00119684
0.00409293
0.00511706
-0.000722747
-0.00433733
0.000166833
-0.00364597
-0.000187888
-0.000693508
0.00411998
-0.00892641
-0.00951805
-0.00117139
0.00135046
-0.000873601
0.00400701
0.00284644
-0.0169355
0.00043612
-0.0136453
0.00109522
-0.00135088
0.00570553
0.00538368
-0.00285584
-0.00291697
-0.00043848
-0.00153973
-0.00118168
-0.00086491
0.00402761
-0.0169931
-0.0136438
0.00691797
0.00819127
-0.015967
0.00138467
0.00992569
-0.0213116
0.00909409
-0.0213357
-0.00276233
-0.00818228
0.0248769
-0.00254314
-0.00992514
0.0167555
-0.00909122
0.0141346
0.00694082
-0.0159725
0.00136864
-0.0213302
-0.0213479
0.00317099
0.0075956
-0.0267143
0.00219583
0.00736678
-0.0276824
0.00749766
-0.0266187
0.00445784
-0.00758857
0.0356343
0.00303142
-0.00736065
0.0329297
-0.00749131
0.0321795
0.00317814
-0.0267198
0.00219762
-0.0276893
-0.0266225
0.000356636
0.0197742
-0.000286135
0.0199275
0.0199438
0.00243727
-0.0197712
0.00178417
-0.0199248
-0.0199408
0.000356631
-0.000287556
-0.00171949
0.000984005
-0.00571134
0.00139918
0.00110558
-0.0042277
0.00123501
0.00016163
-0.00377693
-0.000958099
-0.0005903
-0.000240183
-0.00110698
-0.00132155
-0.00123396
0.00223223
-0.0016253
-0.00571339
0.0014005
-0.00413744
0.000163368
-0.00427019
-0.000293728
-0.00842404
7.99691e-06
0.000642951
-0.00915182
0.00115137
-0.000985545
-0.0051949
0.000298742
-0.00259572
-0.00102999
-0.000634346
-0.00420723
-0.00115246
0.00350983
-0.00425372
-0.00840892
6.47618e-06
-0.00903518
-0.000985745
-0.00320583
8.64952e-05
-0.012478
0.00070078
0.00258283
-0.0156433
0.00136271
-0.00165061
-0.00534776
-6.37405e-05
-0.000694435
-0.00139981
-0.00255105
-0.00301961
-0.00136695
0.00484284
-0.0032173
-0.0124177
0.000687656
-0.0154935
-0.00166878
-0.00102725
0.00873216
-0.0201667
-0.00589996
0.00963231
-0.0203898
0.00815332
-0.015689
0.00241991
-0.00874365
0.014369
0.00268226
-0.00964655
0.0160195
-0.00819098
0.0238943
-0.00104695
-0.0200994
-0.00577945
-0.0203954
-0.0156279
-0.00187863
0.0076136
-0.025885
-0.00285051
0.00745264
-0.0268519
0.00768235
-0.0262075
-0.00251331
-0.00763236
0.03214
-0.00419066
-0.00747062
0.0326477
-0.00770334
0.0351149
-0.00185997
-0.0258549
-0.00287614
-0.0268308
-0.0261897
0.000327089
0.0201422
-0.000187515
0.020116
0.019975
-0.00143673
-0.0201557
-0.00221528
-0.0201285
-0.0199894
0.000332917
-0.000182828
)
;

boundaryField
{
    fuel
    {
        type            calculated;
        value           nonuniform List<scalar> 
36
(
0.000129937
0.000215621
0.00012994
0.000129937
0.000215621
0.00012994
0.000129937
0.000215621
0.00012994
-0.000129937
-0.000215621
-0.00012994
-0.000129937
-0.000215621
-0.00012994
-0.000129937
-0.000215621
-0.00012994
0
0
0
0
0
0
0
0
0
0
0
0
0
0
0
0
0
0
)
;
    }
    primary_air
    {
        type            calculated;
        value           nonuniform List<scalar> 9(-0.0032067 -0.00531296 -0.00320664 -0.00320679 -0.00531332 -0.00320676 -0.00320648 -0.00531323 -0.00320655);
    }
    Secondary_air_RHS
    {
        type            calculated;
        value           nonuniform List<scalar> 9(0.00723367 0.0116162 0.00723426 0.0072079 0.0115647 0.00720843 0.00721327 0.0116231 0.00721371);
    }
    Secondary_air_LHS
    {
        type            calculated;
        value           nonuniform List<scalar> 9(0.00722472 0.0116183 0.0072248 0.0072014 0.0115691 0.00720147 0.00720985 0.0116289 0.00720991);
    }
    outlet
    {
        type            calculated;
        value           nonuniform List<scalar> 
18
(
-0.0463319
0.0739073
-0.0463216
-0.0464323
0.0737055
-0.0464231
-0.0463489
0.0728924
-0.0463414
-0.0468275
0.0727797
-0.0468298
-0.0469498
0.0734619
-0.0469526
-0.0468299
0.0738899
-0.0468321
)
;
    }
    stove_body
    {
        type            calculated;
        value           uniform 0;
    }
    frontAndBack
    {
        type            empty;
        value           nonuniform 0();
    }
}


// ************************************************************************* //
