/*--------------------------------*- C++ -*----------------------------------*\
  =========                 |
  \\      /  F ield         | OpenFOAM: The Open Source CFD Toolbox
   \\    /   O peration     | Website:  https://openfoam.org
    \\  /    A nd           | Version:  6
     \\/     M anipulation  |
\*---------------------------------------------------------------------------*/
FoamFile
{
    version     2.0;
    format      ascii;
    class       volScalarField;
    location    "0.5";
    object      Qdot;
}
// * * * * * * * * * * * * * * * * * * * * * * * * * * * * * * * * * * * * * //

dimensions      [1 -1 -3 0 0 0 0];

internalField   nonuniform List<scalar> 
297
(
-7.3726e-05
-7.3726e-05
0
0
0
-0.000147452
-2.92977e-05
-2.92977e-05
0
-7.3726e-05
-7.3726e-05
-7.3726e-05
0
-8.88566e-05
-8.88566e-05
-4.44283e-05
0
-4.44283e-05
0
-3.66221e-06
-4.44282e-05
8.55561e-10
0
-1.4648e-05
0
-3.66221e-06
-4.44283e-05
4.2778e-10
3.64898e-10
4.2778e-10
8.55561e-10
8.55561e-10
0
4.2778e-10
0
3.96339e-10
4.2778e-10
4.27776e-10
4.2778e-10
-3.14409e-11
8.55561e-10
8.55561e-10
4.2778e-10
4.2778e-10
4.2778e-10
4.2778e-10
4.2778e-10
4.2778e-10
0
0
8.55561e-10
4.2778e-10
0
4.2778e-10
4.2778e-10
8.55561e-10
4.2778e-10
0
0
8.55561e-10
4.27773e-10
4.2778e-10
4.2778e-10
0
0
4.2778e-10
0
0
0
0
0
0
0
8.55561e-10
8.55561e-10
8.55561e-10
8.55561e-10
8.55561e-10
8.55561e-10
0
8.55561e-10
0
0
4.2778e-10
0
-2.39875e-16
8.5163e-10
4.2778e-10
4.27779e-10
0
0
0
4.2778e-10
8.55561e-10
0
8.55561e-10
0
0
0
0
4.2778e-10
0
0
8.55561e-10
8.55561e-10
4.2778e-10
-2.39875e-16
0
0
-6.98129e-27
-5.58503e-26
1.71112e-09
1.71112e-09
1.71112e-09
0
0
-1.39626e-26
-1.66447e-33
-1.70442e-30
8.55561e-10
1.71112e-09
-1.09083e-28
-4.3633e-28
8.55561e-10
-8.52208e-31
8.55561e-10
8.55561e-10
-4.26104e-31
-3.32894e-33
1.71112e-09
1.71112e-09
1.71112e-09
-8.32234e-34
-4.26104e-31
0
8.55561e-10
0
0
1.71112e-09
1.71112e-09
-5.07955e-38
0
0
8.55561e-10
-4.16117e-34
8.55561e-10
0
-1.33157e-32
-6.50183e-36
0
8.55561e-10
8.55561e-10
-5.07955e-38
-2.08059e-34
0
8.55561e-10
0
0
-8.12729e-37
8.55561e-10
8.55561e-10
8.55561e-10
0
-6.50183e-36
8.55561e-10
1.71112e-09
0
0
-7.9368e-40
8.55561e-10
8.55561e-10
8.55561e-10
8.55561e-10
8.55561e-10
-3.17472e-39
-4.06364e-37
-3.32894e-33
8.55561e-10
-1.01591e-37
8.55561e-10
0
-1.26989e-38
8.55561e-10
1.71112e-09
1.71112e-09
1.71112e-09
-7.9368e-40
-2.53978e-38
8.55561e-10
-5.91338e-48
8.55561e-10
-9.68848e-44
0
1.71112e-09
0
-9.46141e-47
0
0
8.55561e-10
8.55561e-10
0
1.71112e-09
0
-7.75079e-43
8.55561e-10
8.55561e-10
0
0
-3.69586e-49
8.55561e-10
-1.89228e-46
1.71112e-09
0
0
8.55561e-10
-2.42212e-44
8.55561e-10
8.55561e-10
0
0
1.71112e-09
0
8.55561e-10
8.55561e-10
-1.84793e-49
-3.60924e-52
8.55561e-10
-1.80462e-52
-4.7307e-47
-1.18268e-47
0
-3.60924e-52
8.55561e-10
0
8.55561e-10
-1.12789e-53
8.55561e-10
8.55561e-10
8.55561e-10
8.55561e-10
0
8.55561e-10
0
8.55561e-10
8.55561e-10
8.55561e-10
-3.10031e-42
1.71112e-09
0
-6.20063e-42
0
8.55561e-10
-6.20063e-42
8.55561e-10
8.55561e-10
-1.24013e-41
0
-9.46141e-47
-6.20063e-42
8.55561e-10
8.55561e-10
8.55561e-10
8.55561e-10
8.55561e-10
0
0
-4.7307e-47
0
8.55561e-10
-2.36535e-47
-4.7307e-47
0
8.55561e-10
0
1.71112e-09
1.71112e-09
8.55561e-10
8.55561e-10
8.55561e-10
-7.21848e-52
8.55561e-10
8.55561e-10
8.55561e-10
8.55561e-10
-1.18268e-47
0
0
0
8.55561e-10
8.55561e-10
8.55561e-10
8.55561e-10
0
8.55561e-10
8.55561e-10
-1.12789e-53
0
)
;

boundaryField
{
    fuel
    {
        type            calculated;
        value           uniform 0;
    }
    primary_air
    {
        type            calculated;
        value           uniform 0;
    }
    Secondary_air_RHS
    {
        type            calculated;
        value           uniform 0;
    }
    Secondary_air_LHS
    {
        type            calculated;
        value           uniform 0;
    }
    outlet
    {
        type            calculated;
        value           uniform 0;
    }
    stove_body
    {
        type            calculated;
        value           uniform 0;
    }
    frontAndBack
    {
        type            empty;
    }
}


// ************************************************************************* //
