/*--------------------------------*- C++ -*----------------------------------*\
  =========                 |
  \\      /  F ield         | OpenFOAM: The Open Source CFD Toolbox
   \\    /   O peration     | Website:  https://openfoam.org
    \\  /    A nd           | Version:  6
     \\/     M anipulation  |
\*---------------------------------------------------------------------------*/
FoamFile
{
    version     2.0;
    format      ascii;
    class       volScalarField;
    location    "0.5";
    object      T;
}
// * * * * * * * * * * * * * * * * * * * * * * * * * * * * * * * * * * * * * //

dimensions      [0 0 0 1 0 0 0];

internalField   nonuniform List<scalar> 
297
(
291.979
291.985
291.979
292.959
292.967
292.959
291.98
291.987
291.98
292.37
293.293
292.37
293.418
294.339
293.425
292.386
293.338
292.386
320.658
416.343
320.528
350.519
475.424
351.372
321.895
421.679
321.742
412.157
363.647
411.5
333.217
328.57
331.287
413.933
364.368
411.903
482.966
486.058
490.815
420.87
364.501
422.489
485.954
489.086
495.358
481.146
486.534
494.039
439.885
448.114
444.04
485.06
488.518
498.024
419.135
372.468
428.166
514.146
467.843
519.474
421.232
377.676
430.31
394.399
346.139
394.476
514.034
444.33
518.257
394.794
349.94
410.105
302.453
306.146
324.098
372.687
313.744
380.246
310.301
303.206
323.774
479.451
485.903
493.46
466.158
467.607
471.18
482.205
487.662
496.973
455.669
485.267
456.839
487.191
467.549
492.56
458.316
487.087
459.623
435.857
483.148
446.01
509.642
467.671
515.425
438.197
484.153
448.569
298.151
298.499
298.297
299.193
299.274
299.425
298.171
298.524
298.342
298.331
298.523
298.518
299.229
299.273
299.394
298.351
298.545
298.55
298.365
298.165
298.536
299.241
299.207
299.34
298.401
298.46
298.588
298.154
298.154
298.293
299.418
299.387
299.418
298.216
298.21
298.34
298.375
298.259
298.298
299.49
299.485
299.474
298.415
298.291
298.305
298.596
298.476
298.261
299.528
299.515
299.495
298.667
298.542
298.232
298.381
298.188
298.132
299.235
299.166
299.147
298.421
298.231
298.166
298.409
298.311
298.368
299.233
299.258
299.233
298.421
298.341
298.393
298.371
298.444
298.443
299.271
299.33
299.311
298.38
298.467
298.473
298.224
298.354
298.347
299.097
299.187
299.225
298.325
298.382
298.383
298.232
298.36
298.316
299.068
299.212
299.239
298.335
298.375
298.332
298.379
298.302
298.206
299.069
299.199
299.272
298.378
298.311
298.219
298.225
298.28
298.182
298.01
298.934
299.227
298.23
298.282
298.191
296.38
296.331
296.536
297.259
297.574
298.452
296.375
296.332
296.537
290.857
290.796
290.737
285.824
285.947
285.711
290.857
290.797
290.737
298.232
298.341
298.298
299.388
299.383
299.347
298.29
298.412
298.485
298.143
298.181
298.276
299.403
299.332
299.364
298.143
298.196
298.497
298.024
298.087
298.231
299.35
299.225
299.33
298.029
298.089
298.33
298.004
298.067
298.111
299.156
299.076
297.718
298.011
298.065
298.073
296.417
296.214
296.17
298.42
298.184
297.163
296.42
296.216
296.217
290.656
290.7
290.774
285.65
285.606
285.737
290.655
290.699
290.774
)
;

boundaryField
{
    fuel
    {
        type            fixedValue;
        value           uniform 293;
    }
    primary_air
    {
        type            fixedValue;
        value           uniform 293;
    }
    Secondary_air_RHS
    {
        type            fixedValue;
        value           uniform 293;
    }
    Secondary_air_LHS
    {
        type            fixedValue;
        value           uniform 293;
    }
    outlet
    {
        type            inletOutlet;
        inletValue      uniform 293;
        value           nonuniform List<scalar> 
18
(
293
285.649
293
293
285.605
293
293
285.737
293
293
285.823
293
293
285.946
293
293
285.709
293
)
;
    }
    stove_body
    {
        type            fixedValue;
        value           uniform 293;
    }
    frontAndBack
    {
        type            empty;
    }
}


// ************************************************************************* //
