# Probe 0 (0 -0.07 0.5)
# Probe 1 (0 -0.04 0.5)
# Probe 2 (0 -0.07 0.3)
# Probe 3 (0 -0.07 0.33)
# Probe 4 (0 -0.04 0.3)
# Probe 5 (0 -0.04 0.33)
# Probe 6 (0 0 0.33)
# Probe 7 (0 0 0.3)
# Probe 8 (0 0.1 0.33)
# Probe 9 (0 0.1 0.3)
# Probe 10 (0 0.14 0.3)
# Probe 11 (0 0.14 0.33)
# Probe 12 (0 0.17 0.3)
# Probe 13 (0 0.17 0.33)
# Probe 14 (0 0.14 0.5)
# Probe 15 (0 0.14 0.33)
#       Probe             0             1             2             3             4             5             6             7             8             9            10            11            12            13            14            15
#        Time
       0.0025       292.725       292.684       356.532       338.435       348.848       295.373       265.427       279.478       263.779        273.02       348.096       295.397       342.988       338.197       292.066       295.397
        0.005       292.565       292.119       363.016       342.375       338.075        344.99         340.5       295.228       336.269       290.063        342.81       338.601       367.621       339.167       292.046       338.601
       0.0075       292.109       292.111       368.239       346.423       345.611       355.551       353.318       333.033       346.565       306.525       342.779       349.593       367.833       340.885       292.148       349.593
         0.01       292.647       292.424       365.517       335.256       345.757       352.734       352.205       343.764       345.238       346.307       341.104       352.333       364.916       338.774        292.09       352.333
       0.0125       292.625       292.621        363.82        336.46        346.43       352.288       355.865       343.535       350.135       349.154         343.6       357.029       365.904        339.61       292.053       357.029
