# Probe 0 (0 -0.07 0.5)
# Probe 1 (0 -0.04 0.5)
# Probe 2 (0 -0.07 0.3)
# Probe 3 (0 -0.07 0.33)
# Probe 4 (0 -0.04 0.3)
# Probe 5 (0 -0.04 0.33)
# Probe 6 (0 0 0.33)
# Probe 7 (0 0 0.3)
# Probe 8 (0 0.1 0.33)
# Probe 9 (0 0.1 0.3)
# Probe 10 (0 0.14 0.3)
# Probe 11 (0 0.14 0.33)
# Probe 12 (0 0.17 0.3)
# Probe 13 (0 0.17 0.33)
# Probe 14 (0 0.14 0.5)
# Probe 15 (0 0.14 0.33)
#       Probe             0             1             2             3             4             5             6             7             8             9            10            11            12            13            14            15
#        Time
          0.5       292.855       292.855       305.555       305.211       304.726       305.686       305.833        305.54       305.867       305.656       304.928       305.766       306.019       305.557       292.855       305.766
            1       292.898       292.898       305.677       305.363       305.021       306.258       306.403       305.861       306.452       306.147       305.342       306.364       306.412       306.047       292.898       306.364
          1.5       292.962       292.962       306.523       305.899       305.285       306.081       306.712       305.415       307.113       305.973       305.476       306.099       307.193       306.654       292.962       306.099
