/*--------------------------------*- C++ -*----------------------------------*\
  =========                 |
  \\      /  F ield         | OpenFOAM: The Open Source CFD Toolbox
   \\    /   O peration     | Website:  https://openfoam.org
    \\  /    A nd           | Version:  6
     \\/     M anipulation  |
\*---------------------------------------------------------------------------*/
FoamFile
{
    version     2.0;
    format      ascii;
    class       volScalarField;
    location    "4.5";
    object      O2;
}
// * * * * * * * * * * * * * * * * * * * * * * * * * * * * * * * * * * * * * //

dimensions      [0 0 0 0 0 0 0];

internalField   nonuniform List<scalar> 
297
(
0
0
0
0
0
0
0
0
0
0
0
0
0
0
0
0
0
0
0
0
0
0
0
0
0
0
0
0.102893
0.06025
0.132678
0.19234
0.149974
0.196215
0.108726
0.110073
0.165249
0
7.58489e-06
0.00890919
0.0925743
0.109894
0.106402
0
1.22567e-05
7.73787e-05
0
0
0
0.0553354
0.0236794
0.0665273
0
0
0
0
5.44464e-11
0
0
0
0
0
0
0
9.79484e-19
1.25915e-16
0
5.97756e-21
2.95826e-19
9.58026e-21
4.5509e-21
8.12499e-20
1.50105e-20
2.83107e-21
6.8554e-21
1.23579e-20
7.88955e-21
1.07666e-19
3.15726e-20
3.61875e-21
8.74663e-21
1.69989e-20
0
0
0
0.0162499
5.64505e-07
0.0242816
0
0
0
0
0
0
0
7.69844e-09
0.00680658
0
0
0
0
0
0
0
0
0
0
0
0
2.05054e-21
4.40633e-21
8.66696e-21
8.36393e-21
1.10233e-20
3.50692e-20
1.47876e-21
2.92999e-21
5.03608e-21
4.26312e-22
1.38594e-21
4.86052e-21
2.29968e-21
1.0496e-20
3.42399e-20
5.94363e-22
2.27313e-21
3.06334e-21
8.56252e-23
5.95454e-22
2.39301e-21
3.03884e-21
8.06765e-21
2.02284e-20
1.01669e-21
2.44811e-21
3.09584e-21
1.95634e-21
4.50278e-22
4.75229e-22
2.23236e-20
1.60276e-22
1.10067e-22
7.89263e-22
1.48943e-22
2.03445e-22
5.22002e-21
1.70373e-21
2.00561e-21
3.30438e-20
3.06862e-20
2.24048e-20
3.07015e-21
1.08445e-21
1.066e-21
3.53488e-21
1.61077e-21
3.31354e-21
2.05192e-20
2.09136e-20
2.17928e-20
3.07164e-21
1.99603e-21
5.3257e-21
5.20473e-23
4.84462e-23
9.33221e-22
1.30663e-21
7.7241e-21
7.94554e-21
1.38247e-22
6.95274e-22
1.15921e-21
1.74342e-22
1.42233e-22
4.70008e-22
2.81833e-21
3.82459e-21
2.37443e-21
2.85005e-22
3.83251e-22
6.2689e-22
3.61747e-22
1.71264e-22
2.15457e-22
2.65656e-21
2.5267e-21
2.6754e-21
6.8367e-22
4.37848e-22
5.58786e-22
7.06183e-28
1.55223e-27
9.34892e-27
3.05779e-25
4.42901e-26
2.36173e-24
2.08408e-24
2.66828e-23
2.63785e-23
1.59354e-27
3.12393e-27
1.45078e-26
1.21628e-24
3.7733e-25
4.9052e-23
9.49732e-24
6.6695e-23
6.31281e-23
3.91571e-27
3.62449e-27
1.51521e-26
1.19289e-22
7.05748e-22
1.94681e-21
1.58461e-23
1.08886e-22
6.39839e-22
2.98163e-27
3.71328e-27
7.71044e-27
1.5501e-22
5.65889e-22
9.47936e-22
2.34599e-23
2.06169e-22
4.80212e-22
7.76512e-28
1.84719e-27
5.6897e-27
1.05081e-22
2.18821e-22
5.7176e-22
3.40436e-23
9.5827e-23
4.45476e-22
1.82595e-28
4.15958e-28
1.39852e-27
5.01942e-23
1.17152e-22
3.87443e-22
2.80188e-23
1.08183e-22
4.08558e-22
8.70351e-26
1.73183e-26
5.9254e-27
3.07502e-23
2.33345e-23
6.99885e-23
2.57065e-22
2.57211e-22
1.96988e-22
1.36505e-25
2.87413e-26
8.37188e-27
7.23807e-22
3.06276e-23
7.05986e-23
4.85094e-22
4.95678e-22
1.95865e-22
1.37496e-25
3.33228e-26
2.89946e-26
1.66018e-20
6.87554e-21
1.44465e-21
5.0748e-21
6.8728e-22
1.95514e-22
6.91597e-26
3.45086e-26
1.8067e-26
8.07749e-21
5.50751e-21
1.42261e-21
3.73661e-21
9.88548e-22
1.9526e-22
3.94116e-26
1.96912e-26
9.88998e-27
5.3042e-21
2.21894e-21
1.16267e-21
3.54424e-21
1.18613e-21
1.93261e-22
1.25494e-26
3.99249e-27
3.03255e-27
3.43933e-21
1.12607e-21
5.37129e-22
3.257e-21
1.0484e-21
1.44635e-22
)
;

boundaryField
{
    fuel
    {
        type            fixedValue;
        value           uniform 0;
    }
    primary_air
    {
        type            fixedValue;
        value           uniform 0.23;
    }
    Secondary_air_RHS
    {
        type            fixedValue;
        value           uniform 0.23;
    }
    Secondary_air_LHS
    {
        type            fixedValue;
        value           uniform 0.23;
    }
    outlet
    {
        type            inletOutlet;
        inletValue      uniform 0;
        value           nonuniform List<scalar> 
18
(
0
3.43933e-21
0
0
1.12607e-21
0
0
5.37129e-22
0
0
5.01942e-23
0
0
1.17152e-22
0
0
3.87443e-22
0
)
;
    }
    stove_body
    {
        type            fixedValue;
        value           uniform 0;
    }
    frontAndBack
    {
        type            empty;
    }
}


// ************************************************************************* //
