/*--------------------------------*- C++ -*----------------------------------*\
  =========                 |
  \\      /  F ield         | OpenFOAM: The Open Source CFD Toolbox
   \\    /   O peration     | Website:  https://openfoam.org
    \\  /    A nd           | Version:  6
     \\/     M anipulation  |
\*---------------------------------------------------------------------------*/
FoamFile
{
    version     2.0;
    format      ascii;
    class       volScalarField;
    location    "4.5";
    object      p;
}
// * * * * * * * * * * * * * * * * * * * * * * * * * * * * * * * * * * * * * //

dimensions      [1 -1 -2 0 0 0 0];

internalField   nonuniform List<scalar> 
297
(
120939
120939
120939
199894
199894
199894
120939
120939
120939
120939
120939
120939
199894
199894
199894
120939
120939
120939
120939
120939
120939
199894
199894
199894
120939
120939
120939
97219.1
97239.3
97233.2
160609
160623
160644
97109.8
97127.2
97128.4
97227.9
97246.8
97226
160302
160416
160370
97118.3
97151.6
97158.5
97048.1
97197
97031.4
158423
159556
158396
96977.8
97106.3
96992.7
96487.8
96707.2
96467
159463
159293
159453
96439.5
96577.9
96345.6
96758.6
96780.1
96753
160237
160059
160226
96678.1
96734.4
96581.3
96791.3
96936.7
96789.5
160205
160238
160142
96771.4
96906.6
96643.7
95782
97195.6
95832.1
153853
158713
153982
95722.7
97011.7
95801.2
95588
97159.7
95639.3
153322
158742
153404
95529.2
96977.8
95619.6
95510.2
97102.4
95552.1
153699
158867
153754
95452
96926.9
95549.2
97353.4
97455.5
97355.6
160181
160201
160135
97153.5
97250.5
97074.1
97461.9
97548.7
97444.5
160192
160226
160212
97254.7
97308.5
97178.3
97509.7
97564.6
97479.4
160192
160263
160267
97281.3
97296.1
97215.5
97661.4
97834.7
98427.8
159958
159955
159862
97038.7
96951.8
96824.6
97363
97355.6
97788.5
159990
159875
159692
96981.7
96736.9
96447.6
97254
97103.6
97100.3
160024
159834
159571
96983.6
96687.7
96338.7
98390.6
97865.5
97700.7
160026
160078
160061
96887.8
96999.1
97083.3
97797.1
97414.6
97419.4
159828
160021
160063
96592.4
96863.4
97062.1
97176.7
97191.1
97337.6
159692
159942
160054
96497.1
96827.5
97070
98817.7
98974.1
98851.5
159786
159792
159873
98659.8
98066.6
97215.9
98526.5
98620.5
98361.8
159461
159466
159574
97862.3
97143.8
96596.6
98153
98216.3
97813.1
158903
159017
159093
96893.1
96340.3
96071.1
95822.4
95732.4
95696.4
155256
155210
155025
93149.3
93066
92992.1
91072.1
91006.8
91012.2
148108
148075
148022
89639.5
89621
89569.6
85309.8
85293.9
85276.9
136410
136309
136222
87843.2
88006
88190
98930
99050.8
98880.4
159757
159708
159706
97226.5
98220.3
98913.6
98401.8
98666
98560.3
159469
159367
159378
96516
97172.3
98029.1
97809.8
98244
98168.7
158996
158936
158830
95963.6
96317.2
96982.5
95528.3
95575.9
95682.1
154627
154851
154902
92819.6
92900
92973.8
90696.2
90688.2
90755.6
147325
147387
147417
89168.1
89236.6
89268.2
84829.3
84844.3
84859
135393
135477
135565
87591.8
87378.6
87219.8
)
;

boundaryField
{
    fuel
    {
        type            zeroGradient;
    }
    primary_air
    {
        type            zeroGradient;
    }
    Secondary_air_RHS
    {
        type            zeroGradient;
    }
    Secondary_air_LHS
    {
        type            zeroGradient;
    }
    outlet
    {
        type            totalPressure;
        rho             rho;
        psi             none;
        gamma           1;
        p0              uniform 100000;
        value           nonuniform List<scalar> 
18
(
87143.4
100000
99991.3
86823.1
100000
93623
87156.7
100000
88228.8
87434.4
100000
88639
87207.3
100000
93875.4
87384.2
100000
99991.7
)
;
    }
    stove_body
    {
        type            zeroGradient;
    }
    frontAndBack
    {
        type            empty;
    }
}


// ************************************************************************* //
