/*--------------------------------*- C++ -*----------------------------------*\
  =========                 |
  \\      /  F ield         | OpenFOAM: The Open Source CFD Toolbox
   \\    /   O peration     | Website:  https://openfoam.org
    \\  /    A nd           | Version:  6
     \\/     M anipulation  |
\*---------------------------------------------------------------------------*/
FoamFile
{
    version     2.0;
    format      ascii;
    class       surfaceScalarField;
    location    "4.5";
    object      phi;
}
// * * * * * * * * * * * * * * * * * * * * * * * * * * * * * * * * * * * * * //

dimensions      [1 0 -1 0 0 0 0];

internalField   nonuniform List<scalar> 
675
(
-4.28221e-06
-3.24467e-05
0.000165475
1.21628e-06
-4.25671e-05
0.000165876
-3.20012e-05
0.000161985
1.0329e-05
3.24444e-05
0.000135219
-1.73492e-06
4.25644e-05
0.000137322
3.20013e-05
0.000144657
-4.28729e-06
0.000165457
1.21041e-06
0.000165861
0.000161972
-9.51537e-07
-5.2344e-05
0.000219429
-1.70431e-06
-5.86541e-05
0.000225996
-4.97389e-05
0.000210654
4.44168e-05
5.23482e-05
-1.52167e-05
-2.64198e-05
5.865e-05
8.95258e-05
4.97416e-05
1.74283e-05
-9.55624e-07
0.00021942
-1.71111e-06
0.000225985
0.000210646
-1.76966e-05
0.000109652
3.14754e-06
7.76667e-05
8.62958e-05
-8.65208e-06
-0.000109649
2.26058e-05
-7.76713e-05
-8.62946e-05
-1.7698e-05
3.13713e-06
-0.00017162
0.00716608
-0.00383848
0.00547881
0.00649309
-0.00898529
0.00725347
0.00138774
-0.000997595
-0.00513188
0.0184866
-0.000662203
-0.00482038
0.0161817
-0.00664401
0.0184352
0.00170738
-0.00368211
0.0034753
-0.00343405
-3.89369e-05
0.00680772
0.00930882
-0.0199522
0.00184592
0.00846766
-0.0125262
0.0103818
-0.00718739
0.00214294
-0.00720989
0.03283
0.00164971
-0.00520616
0.0303076
-0.00884877
0.0392333
0.00956497
-0.0204882
0.00480583
-0.00388397
-0.00409388
-0.00261449
0.0243525
-0.0416777
-0.00373519
0.0132839
-0.0247462
0.0249374
-0.03581
-0.046154
-0.0237247
0.127113
0.0439384
-0.0141753
-0.0322573
-0.0249154
0.133093
-0.00260976
-0.0416299
-0.00336907
-0.017272
-0.0323322
-0.00690681
-0.0155109
-0.0292712
0.0516004
0.00643327
0.00351932
-0.0448488
0.0281241
-0.0151057
-0.0251216
0.0466242
0.0118004
0.0162957
0.0553189
-0.0989067
-0.00819427
-0.00241092
-0.015423
0.0413556
0.0136484
0.0693199
-0.106226
-0.00558766
-0.0296085
0.0515848
0.00990522
-0.0394225
0.0214651
-0.0195919
0.0432574
0.000432923
-0.00878436
-0.0207936
-0.00259041
-0.00804079
-0.033288
-0.00970855
-0.0178297
0.0169304
0.00915217
0.0200311
-0.0164195
0.00788935
0.00195376
0.00900175
0.0338557
0.00258948
-0.0229093
-0.000845642
-0.0282846
-0.0112652
0.00416006
-0.0061092
-0.0188399
-0.00698821
-0.000586368
-0.0211085
-0.00682254
-0.0179957
0.00244772
0.002385
0.00859455
0.0079967
0.00234768
-0.00678844
0.00912611
0.025442
-0.00474905
-0.0156334
-0.0133615
-0.0175417
-0.0152929
5.64087e-06
-0.00242116
-0.0445142
-0.000179207
-0.000826714
-0.0237318
-0.00223883
-0.0390011
-0.00341817
0.00242255
0.117258
0.00343406
0.000291353
-0.0402248
0.00195606
0.123899
-1.72683e-06
-0.0444476
1.48736e-06
-0.0169853
-0.0356203
-0.000390407
-0.00110754
-0.0482589
0.0003123
0.000103562
-0.0245322
-0.000904616
-0.0430267
-0.00176839
0.00110477
0.108415
0.00155195
-0.000246563
-0.0431931
0.000813623
0.115331
-0.000372114
-0.0482011
0.00042996
-0.0180354
-0.0396103
-0.000349452
-0.00154751
0.000273789
0.00297531
-0.00136704
-0.00200621
0.00154715
0.00177757
-0.00264459
0.00109468
-0.000295045
0.000488599
0.0054597
-0.00363036
-0.006083
-0.01462
-0.00537053
-0.00122197
-0.00899197
-0.00366659
-0.00434805
-0.015394
-0.0023902
0.00204056
-0.00166603
0.00691248
-0.0001993
0.00100515
-0.0112724
0.00298364
0.013837
0.0046978
0.00446638
-0.00450769
-0.013508
-0.00673383
-0.00535272
-0.00341726
-0.0155998
0.00616646
0.000636783
-0.000229063
-0.0126909
-0.00497379
0.00167079
0.000524359
3.70902e-05
0.00303041
-0.0124393
-7.29098e-05
-0.00169634
-0.00410155
0.00480502
-0.00158546
-0.00119988
-0.00695892
-0.000799686
0.00540465
0.00763066
0.00334466
0.0016408
-0.0111567
-0.00703028
0.00380686
0.0015941
-0.0128193
-0.00106016
0.00369908
-0.00290508
-0.00452853
0.0040279
0.00263916
-0.0041891
-0.00322516
-0.00328351
0.00607897
-0.00334727
-0.00286881
-0.00247083
0.00710905
-0.00106171
-0.000550598
-0.000138048
-0.000989539
-0.0148806
-0.00236796
0.00183693
-0.0160097
0.000911579
0.000206179
0.00278268
-0.00723972
-0.0115612
-0.00209959
0.00104742
0.00336773
-0.00363292
0.00227
0.000172614
0.00206612
0.00206182
-0.0049839
-0.0165963
0.00203511
-0.0166592
0.00231979
0.00241108
-0.0170213
-0.0120917
-0.00166638
0.00314386
-0.013197
0.00103622
0.000262515
-0.000125577
-0.00965088
-0.0106696
0.00763878
0.000954541
0.000727723
0.00649058
7.21445e-05
0.00227223
0.000459187
0.00747102
0.000478654
-0.0127595
0.00292924
-0.0123714
0.00199074
0.00219838
-0.0117166
-0.00142962
0.000373039
-0.00212317
0.000950215
-0.00178125
-0.0100033
0.00840889
-0.000208334
0.011647
-2.05935e-05
0.00119816
0.0161272
0.00172807
0.00368826
0.00707139
0.0150345
0.00255766
-0.00669182
-0.0109061
0.0141223
0.000349028
0.000556605
-0.00240273
0.00189249
-0.00153455
0.00160967
0.00498455
-0.00250499
-0.00480511
0.00159072
0.00202046
0.000634186
-0.000926787
0.0149055
0.00231774
-0.0156243
0.0144332
0.00204878
0.00155771
0.0127335
2.56841e-06
-0.0091576
-0.0102791
0.0118246
0.00139218
6.47455e-05
-0.00137291
0.00238885
-0.00360769
0.00099554
0.00734927
0.000252087
-0.00293535
0.000442786
0.00231
0.000520308
-0.000949234
0.0112297
0.00279743
-0.0107248
0.0115736
0.00213955
0.00249585
0.00195363
-0.00150126
-0.00961949
0.0011015
0.000913141
0.000578211
-0.00986354
0.00098131
0.0147313
-0.00630821
-0.000326815
-0.000598661
-0.00315733
0.0069281
-0.001349
-0.00361337
0.00265685
0.000949683
0.00403138
0.00268873
-0.0103476
0.00229661
-0.00917984
0.000483547
-0.00136524
0.00353253
0.00125188
0.000341007
0.00157056
-0.000623821
0.00166362
0.0106388
-0.0120091
0.0166092
-0.00563545
0.000352807
-0.00200131
0.00211892
0.000824739
0.00570907
0.00243683
-0.0204945
0.00167921
-0.0154344
0.000874646
-0.00112481
0.00589572
0.00189504
0.00039531
0.00258247
-0.000588774
0.00607329
0.00773474
-0.0208741
0.0121019
-0.00961341
0.00113341
-0.00405339
0.001258
0.00361167
0.00970562
0.00599362
-0.0402387
0.0019961
-0.0173391
-0.00387394
-0.0034561
0.0144772
-0.00735949
0.000739658
0.0113126
0.0013236
0.0141148
0.0089101
-0.0332435
0.0032313
-0.00320091
0.0126105
0.0166897
0.010615
-0.0236911
-0.00403819
0.0154267
-0.0348771
0.0145642
-0.0359203
-0.00674668
-0.00148006
0.033325
-0.00697708
0.00454152
0.0224482
0.00281486
0.0188988
0.00997653
-0.0446883
0.0141173
-0.00279353
0.0295502
0.00779568
0.00639053
-0.0378386
0.00496183
0.00704278
-0.0390489
0.00741342
-0.0383366
0.0135642
-0.00431514
0.0305083
0.0143702
-0.00310489
0.031831
0.00121867
0.0395048
-0.00448716
-0.0444859
0.00207194
-0.0124298
0.0328687
0.000933545
0.0147183
-7.11017e-05
0.0158307
0.0151699
0.00566223
-0.0242886
0.00571669
-0.022835
-0.0215569
-0.0178675
-0.0141243
-0.00410261
0.00235311
-0.00981842
0.00392497
0.00286155
-0.0108967
0.00284316
0.00107381
-0.00283642
-0.000638717
0.000835057
-0.00147913
0.000310167
0.00118151
-0.00151912
0.00287272
-0.017872
0.000199041
-0.0113942
-0.00617902
-0.0129234
-0.00605286
0.00171052
-0.0161447
0.00200357
0.00247365
-0.0214231
0.00221235
0.000858087
-0.00259351
-0.000608896
0.00621077
-0.00189847
0.000442931
0.00250655
-0.00122201
0.00439876
-0.0129797
0.00084098
-0.00838087
-0.0103456
-0.0225342
-0.0101182
0.00175144
-0.0177767
0.00419824
0.00608896
-0.041827
0.00131732
0.00373161
0.0085353
0.00132831
0.0142126
0.00434255
0.000813347
0.0119599
-0.00377098
0.0138169
-0.00347281
0.0127033
-0.00941909
-0.00359587
-0.0357296
0.00460893
0.014441
-0.0368026
-0.017197
0.0156707
-0.0356433
0.0108818
-0.0243366
0.00617043
0.00213984
0.0203682
0.00700225
0.00364514
0.0231615
-0.00192037
0.033624
-0.0153776
0.0302101
-0.00811427
-0.00722431
-0.0457516
-0.00467432
0.00717746
-0.0392656
-0.00779324
0.00727085
-0.0397561
0.00650676
-0.0385972
-0.0138989
0.00116729
0.0403226
-0.0120812
-0.00317843
0.0318284
-0.00349052
0.0315755
-0.00201467
0.0334053
0.00435955
-0.0167612
-0.044858
9.00384e-07
0.0147563
-0.000893689
0.0156918
0.0145084
-0.00521668
-0.020819
-0.00504711
-0.0220631
-0.0233599
0.0155226
0.0164905
)
;

boundaryField
{
    fuel
    {
        type            calculated;
        value           nonuniform List<scalar> 
36
(
0.000128068
0.000211676
0.000128068
0.000128068
0.000211676
0.000128068
0.000128068
0.000211676
0.000128068
-0.000128068
-0.000211676
-0.000128068
-0.000128068
-0.000211676
-0.000128068
-0.000128068
-0.000211676
-0.000128068
0
0
0
0
0
0
0
0
0
0
0
0
0
0
0
0
0
0
)
;
    }
    primary_air
    {
        type            calculated;
        value           nonuniform List<scalar> 9(-0.00319695 -0.00528147 -0.00319335 -0.00319761 -0.00528193 -0.00319392 -0.00319741 -0.00528261 -0.00319396);
    }
    Secondary_air_RHS
    {
        type            calculated;
        value           nonuniform List<scalar> 9(0.00525222 0.0084392 0.00525053 0.00524166 0.00840754 0.00524058 0.00523688 0.00842674 0.00523672);
    }
    Secondary_air_LHS
    {
        type            calculated;
        value           nonuniform List<scalar> 9(0.00524948 0.00843214 0.00524623 0.00523885 0.00840305 0.00523563 0.00523458 0.00842371 0.00523139);
    }
    outlet
    {
        type            calculated;
        value           nonuniform List<scalar> 
18
(
-0.0540066
0.0811209
-0.00293209
-0.0545371
0.0694287
-0.0397734
-0.0539842
0.0644105
-0.051708
-0.0534638
0.0638809
-0.0508876
-0.0538481
0.0704676
-0.0389896
-0.05355
0.0819743
-0.00279965
)
;
    }
    stove_body
    {
        type            calculated;
        value           uniform 0;
    }
    frontAndBack
    {
        type            empty;
        value           nonuniform 0();
    }
}


// ************************************************************************* //
