/*--------------------------------*- C++ -*----------------------------------*\
  =========                 |
  \\      /  F ield         | OpenFOAM: The Open Source CFD Toolbox
   \\    /   O peration     | Website:  https://openfoam.org
    \\  /    A nd           | Version:  6
     \\/     M anipulation  |
\*---------------------------------------------------------------------------*/
FoamFile
{
    version     2.0;
    format      ascii;
    class       volScalarField;
    location    "4.5";
    object      T;
}
// * * * * * * * * * * * * * * * * * * * * * * * * * * * * * * * * * * * * * //

dimensions      [0 0 0 1 0 0 0];

internalField   nonuniform List<scalar> 
297
(
291.133
291.123
291.134
293.016
293.014
293.016
291.133
291.123
291.134
291.192
291.154
291.183
293.537
293.306
293.433
291.192
291.154
291.183
291.538
291.463
291.567
296.138
299.667
311.124
291.538
291.463
291.567
324.818
325.19
309.591
301.261
309.322
297.32
322.679
320.081
307.24
351.385
336.723
353.147
330.351
319.87
325.924
349.905
344.51
353.038
351.75
328.463
360.458
335.437
336.346
334.855
349.681
331.109
363.519
335.001
322.976
338.943
353.845
350.919
356.91
332.875
324.852
339.789
330.174
322.639
330.944
353.857
355.318
356.791
324.889
324.528
337.993
320.983
314.483
324.329
353.846
336.236
352.584
313.832
314.783
324.774
352.789
322.634
360.724
342.621
348.339
346.048
350.256
325.436
363.992
346.169
321.693
348.977
347.119
348.324
348.084
343.784
324.95
350.6
340.682
321.608
345.581
351.819
348.558
354.75
338.441
324.882
346.782
309.161
309.613
312.987
341.632
319.382
352.453
306.393
305.99
307.529
302.873
304.737
309.323
307.062
317.78
350.477
302.316
304.318
305.004
302.627
303.414
305.967
307.848
314.736
331.14
302.852
304.473
305.13
305.273
302.628
303.003
334.672
304.661
304.479
301.234
300.147
299.533
309.518
304.377
304.978
348.529
345.21
334.189
304.755
301.717
301.407
307.342
304.771
306.638
331.375
332.025
332.904
305.047
303.477
308.026
301.905
301.609
306.114
309.943
335.934
338.111
299.065
302.044
303.794
302.223
301.912
303.025
314.248
317.256
307.155
300.857
301.502
302.32
302.578
302.481
302.818
310.572
308.235
307.385
302.534
301.897
302.343
302.626
302.129
301.788
302.737
304.313
303.595
298.034
298.963
298.28
302.906
301.523
301.251
302.859
304.053
303.904
297.703
300.109
299.856
302.923
301.349
300.896
303.052
306.07
308.542
297.323
301.05
302.498
301.424
301.18
300.202
301.09
305.313
306.006
297.042
301.726
301.02
298.204
298.012
297.06
300.23
302.908
304.359
294.027
294.864
296.894
291.595
291.41
290.688
291.344
288.779
285.749
290.516
290.211
298.845
302.17
302.403
303.177
304.244
304.457
303.841
299.38
300.155
299.822
301.805
302.063
303.215
305.129
304.367
303.866
300.529
300.814
299.329
301.521
301.88
303.561
325.957
313.671
305.549
307.692
301.266
298.526
300.882
301.708
302.701
314.754
311.212
303.231
303.842
301.321
297.939
294.35
297.92
296.313
311.445
306.884
301.963
299.79
295.931
292.663
290.746
291.51
291.598
289.384
290.421
292.066
301.707
291.411
290.797
)
;

boundaryField
{
    fuel
    {
        type            fixedValue;
        value           uniform 293;
    }
    primary_air
    {
        type            fixedValue;
        value           uniform 293;
    }
    Secondary_air_RHS
    {
        type            fixedValue;
        value           uniform 293;
    }
    Secondary_air_LHS
    {
        type            fixedValue;
        value           uniform 293;
    }
    outlet
    {
        type            inletOutlet;
        inletValue      uniform 293;
        value           nonuniform List<scalar> 
18
(
293
289.385
293
293
290.421
293
293
292.066
293
293
291.347
293
293
288.783
293
293
285.752
293
)
;
    }
    stove_body
    {
        type            fixedValue;
        value           uniform 293;
    }
    frontAndBack
    {
        type            empty;
    }
}


// ************************************************************************* //
