/*--------------------------------*- C++ -*----------------------------------*\
  =========                 |
  \\      /  F ield         | OpenFOAM: The Open Source CFD Toolbox
   \\    /   O peration     | Website:  https://openfoam.org
    \\  /    A nd           | Version:  6
     \\/     M anipulation  |
\*---------------------------------------------------------------------------*/
FoamFile
{
    version     2.0;
    format      ascii;
    class       volVectorField;
    location    "4.5";
    object      U;
}
// * * * * * * * * * * * * * * * * * * * * * * * * * * * * * * * * * * * * * //

dimensions      [0 1 -1 0 0 0 0];

internalField   nonuniform List<vector> 
297
(
(84.3988 -0.0301765 0.232548)
(84.3957 -0.00764091 0.253557)
(84.3991 0.030861 0.226771)
(1.11624e-06 0.0600921 0.331291)
(-6.0786e-08 0.0167134 0.357659)
(-1.13203e-06 -0.0496813 0.332645)
(-84.3988 -0.0302 0.232532)
(-84.3957 -0.00766837 0.253522)
(-84.3991 0.0308614 0.226759)
(84.4049 -0.0169829 0.268568)
(84.3959 0.00281218 0.288311)
(84.4039 -6.36477e-05 0.264844)
(9.2918e-07 0.163457 -0.141394)
(2.21062e-07 0.0638884 -0.0276368)
(-1.43806e-06 -0.191382 -0.0529398)
(-84.4049 -0.016982 0.268543)
(-84.3959 0.00278513 0.288282)
(-84.4039 -9.05326e-05 0.264824)
(84.5083 -0.171801 0.570498)
(84.4953 -0.0202698 0.5496)
(84.523 0.102738 0.563082)
(4.00278e-07 -0.411866 0.426187)
(3.03555e-07 -0.0483513 0.319252)
(-1.72624e-06 0.58867 0.358053)
(-84.5084 -0.171757 0.570476)
(-84.4953 -0.0203043 0.549593)
(-84.5231 0.102673 0.563066)
(61.5148 2.39059 0.669659)
(61.8973 1.0255 -4.37248)
(58.402 2.21491 -2.9719)
(-0.0144618 -0.081385 5.39572)
(-0.0153153 -0.412021 3.62622)
(-0.0136784 0.878419 4.09716)
(-61.1209 3.35237 0.955782)
(-60.6089 1.47393 -0.655321)
(-57.807 0.582568 -1.94022)
(67.2536 8.87335 0.84291)
(64.4713 3.20289 -8.28034)
(67.6104 -5.20589 15.7034)
(-0.0161423 8.33805 35.4901)
(-0.0134976 0.432933 21.668)
(-0.00977711 -4.91973 37.1648)
(-67.0215 11.2417 0.0391735)
(-65.9601 5.06402 -0.48463)
(-67.6881 -1.15244 14.3887)
(66.4486 10.6885 -8.8118)
(62.4549 -3.34107 -17.3247)
(68.1138 -12.4319 0.743065)
(-0.0106635 -3.63172 46.8707)
(-0.0135963 -1.32138 11.2362)
(-0.00584978 3.85864 49.5891)
(-66.1086 13.2762 -8.30742)
(-63.0953 -5.93798 -4.71455)
(-68.7415 -8.43829 8.62415)
(63.4967 3.79134 -45.0114)
(61.495 -0.972037 -30.337)
(64.3129 -2.98536 -40.6013)
(-0.00766469 -0.902143 5.83325)
(-0.0206305 1.3882 -9.28602)
(-0.0194429 0.864669 14.551)
(-63.117 5.43276 -44.6823)
(-61.9826 -2.44137 -25.5634)
(-64.7186 2.34433 -36.6297)
(63.3264 13.9729 -28.6463)
(61.6 -1.63375 -34.8066)
(63.4537 -13.4163 -24.9486)
(-0.0128356 0.723475 2.03124)
(-0.00731194 0.32625 1.01063)
(-0.02756 -1.82785 12.829)
(-62.3322 14.8167 -29.0034)
(-61.9928 -4.83757 -30.5755)
(-64.9968 -6.212 -19.0366)
(61.5488 25.7279 -32.9361)
(60.239 -1.54056 -34.8289)
(62.1227 -25.9035 -30.6706)
(-0.00317191 -1.60439 7.19219)
(-0.00456901 3.54687 -6.72015)
(-0.0231457 0.889285 13.9379)
(-60.2707 20.6204 -29.9822)
(-60.1983 -11.9425 -27.7273)
(-62.2532 -20.5763 -22.2145)
(59.3538 14.2938 -42.5755)
(58.415 -1.56053 -20.6466)
(61.4482 -15.3009 -37.5972)
(-0.00956576 -2.38844 62.0979)
(-0.0263024 -0.865498 -23.0011)
(-0.00506939 2.24991 65.7307)
(-59.0024 16.6745 -42.2482)
(-60.1851 -3.41148 -14.5919)
(-62.4559 -11.0425 -34.9258)
(56.9884 8.3473 -47.0747)
(59.9844 -1.19776 -22.1768)
(58.245 -8.33716 -42.6562)
(-0.00790683 -1.9569 68.2417)
(-0.0270058 -0.715325 -23.5668)
(-0.00261547 1.74767 72.4833)
(-56.6755 10.3401 -46.7273)
(-60.9825 -3.31225 -16.2513)
(-58.9186 -3.69212 -39.2403)
(52.6131 6.69292 -46.7184)
(61.2692 -1.30836 -24.2344)
(54.3223 -6.30398 -42.3032)
(-0.00743442 -1.47229 67.0579)
(-0.0286449 -0.51089 -20.19)
(-0.000366706 1.22632 71.6894)
(-52.3543 8.54975 -46.4046)
(-61.9414 -3.00691 -18.9031)
(-56.518 -1.56522 -39.0843)
(57.8349 38.0753 -8.16012)
(58.2758 1.28763 -9.8132)
(58.4799 -39.9002 -7.53251)
(-0.0306368 -8.30142 3.61315)
(-0.029514 -3.90174 -6.6671)
(-0.0443229 6.64355 12.1022)
(-57.9151 33.7884 -6.80937)
(-57.8232 -5.03186 -7.93171)
(-57.9804 -37.6449 -7.92584)
(57.3126 34.226 -3.14066)
(57.7795 3.57259 -5.99496)
(58.5429 -34.9292 -1.93305)
(-0.0286335 -0.375511 -3.29666)
(-0.0343784 -4.40631 -3.23385)
(-0.0419406 5.9641 8.45581)
(-57.6017 26.7518 1.39375)
(-57.8034 -9.16779 -0.923164)
(-58.1189 -31.0865 2.92548)
(57.7035 -3.67565 1.55444)
(57.9349 -7.27744 2.26773)
(58.3113 -12.1102 5.56017)
(-0.0316943 -9.02473 -1.8352)
(-0.0379901 -5.57996 -0.943046)
(-0.0394474 2.61489 0.749985)
(-57.9018 -7.99716 -2.90149)
(-58.1855 -5.27996 1.75232)
(-58.3813 10.5902 -3.28621)
(55.8497 -42.9909 -3.68271)
(56.9738 -46.519 -11.7644)
(57.2066 -28.3724 -22.0792)
(-0.0935126 5.72667 6.69907)
(-0.121369 -6.28668 -7.97237)
(-0.218856 -7.97321 -11.5417)
(-56.6679 -43.6025 -3.55445)
(-55.9379 -48.6753 -7.95976)
(-55.7119 -52.3563 -8.77269)
(57.5214 -35.9032 3.19615)
(58.0123 -42.0742 -7.56657)
(56.8862 -25.4034 -23.4982)
(-0.059489 16.1432 4.69138)
(-0.0950545 15.2135 5.39862)
(-0.201731 9.50205 11.0676)
(-57.5131 -34.2926 8.04522)
(-57.5891 -40.066 7.12911)
(-57.4606 -42.3929 4.22875)
(58.3794 -11.7338 12.8438)
(58.2643 -4.59257 5.38829)
(56.8939 -22.2772 -31.2934)
(-0.0406359 14.6367 0.0973221)
(-0.0619535 17.8748 1.10872)
(-0.112266 30.5517 7.94696)
(-58.1686 -1.14661 7.48932)
(-58.0474 4.95259 8.49692)
(-58.4309 17.3938 12.107)
(57.0803 27.3165 -21.0116)
(56.6273 44.1219 -9.11887)
(55.8745 40.1342 -2.73895)
(-0.208337 2.27013 -3.07569)
(-0.130284 -10.1845 4.31918)
(-0.0932654 -11.7092 2.45619)
(-55.9657 48.5701 -7.52369)
(-56.6147 42.586 -5.50061)
(-57.3986 38.1653 -2.69633)
(56.4872 25.2164 -21.9957)
(57.6343 39.6402 -7.79612)
(56.4727 35.6036 2.51787)
(-0.170315 -5.3208 8.60059)
(-0.078435 -5.68736 0.0214787)
(-0.0491691 -9.21354 -3.70576)
(-57.0554 38.3035 5.07794)
(-57.3436 33.9842 6.60415)
(-57.2302 30.7514 6.79211)
(56.3089 21.778 -29.4535)
(57.7176 3.00989 8.77144)
(57.4679 11.1237 11.3231)
(-0.0935182 -25.2898 8.78312)
(-0.0502511 -13.6564 2.46155)
(-0.0372521 -12.4088 0.00221323)
(-57.3827 -15.3995 11.0501)
(-57.7431 -5.56951 6.50826)
(-57.6726 0.527928 5.89259)
(56.7572 -8.04005 -11.8933)
(56.5811 1.8899 -30.504)
(56.6205 20.7292 -27.4061)
(-0.0214489 2.54663 -4.1522)
(-0.124267 -3.99257 -8.9735)
(-0.222555 9.50581 -8.32712)
(-55.1311 22.6716 -28.2498)
(-54.6297 28.5101 -20.2248)
(-56.3736 46.8605 -14.9227)
(56.7656 -3.85537 8.70026)
(56.6579 6.74741 -37.4235)
(56.5863 19.6908 -36.7969)
(-0.08976 1.32157 13.3396)
(-0.201419 -1.34792 8.06548)
(-0.240486 8.04367 10.2086)
(-55.6435 6.04195 -50.1196)
(-55.7698 19.1751 -26.2623)
(-57.253 37.0075 -3.13828)
(56.4209 0.723125 3.74962)
(59.6177 6.46338 -46.0572)
(57.6489 11.5343 -46.2672)
(-0.168326 -1.2182 11.3272)
(-0.252004 -10.4129 8.6989)
(-0.231281 -19.1422 16.7371)
(-58.0489 4.04283 -65.7327)
(-56.2471 19.374 -20.4272)
(-56.1508 -8.28285 21.373)
(56.6764 5.33255 -11.2063)
(57.2537 3.06624 -64.0649)
(56.8571 -8.08334 -80.6778)
(-0.372806 0.900429 61.1683)
(-0.376472 -1.20267 34.9686)
(-0.383446 -12.2667 32.6701)
(-57.5582 -7.87108 -96.7503)
(-58.0227 9.40159 20.1777)
(-57.9777 -0.47738 62.8255)
(55.8758 1.13499 -124.625)
(55.9677 1.404 -131.191)
(55.7765 7.05985 -127.909)
(-0.208314 3.30493 80.5347)
(-0.203668 4.7813 71.0964)
(-0.213477 0.986491 67.0109)
(-56.3211 2.34452 -129.88)
(-56.3553 -5.04171 -31.753)
(-56.2951 2.32654 105.699)
(53.6537 0.144918 -158.098)
(53.7088 0.307615 -159.728)
(53.4708 -0.994017 -158.46)
(0.379851 -0.0442135 160.328)
(0.403431 2.05897 175.872)
(0.427056 0.682732 203.343)
(-52.8223 -7.06642 -149.305)
(-52.315 -6.92727 -106.523)
(-53.5458 -2.58237 -3.7981)
(56.6406 -22.3742 -30.1885)
(56.6062 -1.55772 -32.5907)
(56.8017 8.72662 -12.5973)
(-0.231409 -10.705 -11.6873)
(-0.113671 0.898441 -11.3059)
(0.00452929 -3.76822 -6.15116)
(-56.5016 -50.802 -16.9675)
(-54.5833 -30.7145 -22.3726)
(-55.2314 -24.2476 -31.0346)
(56.6163 -21.0247 -38.1471)
(56.7125 -7.59019 -39.2193)
(56.7572 4.15461 9.32166)
(-0.257968 -8.97534 11.7156)
(-0.203702 -0.904875 8.67965)
(-0.0721389 -2.14927 12.7089)
(-57.4044 -40.0311 -4.31858)
(-55.7144 -20.9686 -28.6085)
(-55.763 -6.457 -53.4705)
(57.6264 -12.9016 -48.8396)
(59.8355 -7.37018 -47.9921)
(56.4904 -0.915518 3.73304)
(-0.257559 22.9711 17.1332)
(-0.264739 11.895 9.13885)
(-0.160197 1.5783 8.63723)
(-57.0876 8.18114 22.2573)
(-56.1477 -20.5228 -21.4921)
(-58.3168 -3.80428 -69.3492)
(56.9083 8.76566 -81.6192)
(57.3333 -2.80678 -65.5739)
(56.8691 -5.68888 -11.9274)
(-0.39604 14.1275 36.4112)
(-0.385832 0.459461 37.6283)
(-0.381169 -0.816088 60.8289)
(-58.4915 0.379065 64.6221)
(-57.9552 -9.35846 22.0653)
(-57.719 8.641 -99.6448)
(55.1315 -7.16915 -131.322)
(55.8744 -1.19282 -133.856)
(55.4006 -1.21826 -127.112)
(-0.232158 -0.322262 70.3286)
(-0.216872 -4.78927 71.4595)
(-0.218786 -3.3203 83.4841)
(-56.8064 -2.99578 108.46)
(-56.5227 6.47007 -59.1497)
(-55.8849 -2.70976 -133.262)
(53.3754 0.858352 -160.186)
(53.669 -0.322794 -162.468)
(53.5539 -0.125968 -160.091)
(0.412454 -0.456608 203.856)
(0.381308 -1.86993 174.313)
(0.357242 -0.0716077 162.229)
(-54.0301 2.64706 -3.89087)
(-52.5201 7.309 -108.841)
(-52.8047 6.57833 -152.329)
)
;

boundaryField
{
    fuel
    {
        type            fixedValue;
        value           uniform (0 0 0.25);
    }
    primary_air
    {
        type            fixedValue;
        value           uniform (0 0 2.5);
    }
    Secondary_air_RHS
    {
        type            fixedValue;
        value           uniform (0 41.6667 0);
    }
    Secondary_air_LHS
    {
        type            fixedValue;
        value           uniform (0 -41.6667 0);
    }
    outlet
    {
        type            pressureInletOutletVelocity;
        value           nonuniform List<vector> 
18
(
(0 0 -160.186)
(0.412454 -0.456608 203.856)
(0 0 -3.89087)
(0 0 -162.468)
(0.381308 -1.86993 174.313)
(0 0 -108.841)
(0 0 -160.091)
(0.357242 -0.0716077 162.229)
(0 0 -152.329)
(0 0 -158.098)
(0.379851 -0.0442135 160.328)
(0 0 -149.305)
(0 0 -159.728)
(0.403431 2.05897 175.872)
(0 0 -106.523)
(0 0 -158.46)
(0.427056 0.682732 203.343)
(0 0 -3.7981)
)
;
    }
    stove_body
    {
        type            noSlip;
    }
    frontAndBack
    {
        type            empty;
    }
}


// ************************************************************************* //
