/*--------------------------------*- C++ -*----------------------------------*\
  =========                 |
  \\      /  F ield         | OpenFOAM: The Open Source CFD Toolbox
   \\    /   O peration     | Website:  https://openfoam.org
    \\  /    A nd           | Version:  6
     \\/     M anipulation  |
\*---------------------------------------------------------------------------*/
FoamFile
{
    version     2.0;
    format      ascii;
    class       volScalarField;
    location    "3.5";
    object      O2;
}
// * * * * * * * * * * * * * * * * * * * * * * * * * * * * * * * * * * * * * //

dimensions      [0 0 0 0 0 0 0];

internalField   nonuniform List<scalar> 
297
(
0
0
0
0
0
0
0
0
0
0
0
0
0
0
0
0
0
0
0
0
0
0
0
0
0
0
0
0.148513
0.199471
0.122829
0.208268
0.222514
0.19899
0.146062
0.200602
0.127598
0
0.0701361
0
0.0469638
0.156257
0.0316887
0
0.0714409
0
0
0.0673472
0
0.0289992
0.0558486
0.0264731
0
0.0683014
0
0.0130467
0.0343255
0.0126615
0
0.00835641
0
0.0134832
0.0347513
0.0127671
5.45726e-06
1.81003e-06
5.14652e-06
1.07061e-05
1.76395e-06
7.91433e-06
5.41964e-06
1.69257e-06
4.20511e-06
1.39752e-07
2.46428e-08
2.51116e-08
1.00874e-06
2.34584e-07
1.06619e-07
5.32983e-08
1.60758e-08
3.99226e-08
0
0.0640933
0
0.0028648
0.00835557
0
0
0.0647019
0
0
0.0635578
0
0
0.00835453
0
0
0.0642248
0
0
0.0618012
0
0
0.00835536
0
0
0.0626071
0
6.15149e-12
7.29319e-12
4.40296e-12
3.39366e-11
2.6879e-11
2.72765e-11
3.07718e-12
5.49151e-12
5.16999e-12
2.98465e-13
1.86148e-12
2.049e-12
7.41844e-14
5.29767e-13
1.42932e-12
5.4848e-14
1.50307e-12
2.64798e-12
9.97783e-13
1.78797e-12
1.76469e-12
3.04482e-13
1.05189e-12
1.78086e-12
1.46918e-12
1.59023e-12
2.35834e-12
9.41408e-13
1.83726e-13
1.71191e-13
2.70795e-11
1.74826e-11
7.86222e-14
1.50357e-12
7.62231e-13
1.02215e-13
2.05665e-12
8.06163e-13
4.71796e-13
1.32164e-11
1.53284e-11
4.73899e-12
2.72597e-12
1.65986e-12
3.60861e-13
1.83131e-12
2.88511e-12
8.91301e-13
2.85881e-12
9.46518e-12
8.54528e-12
2.72285e-12
4.14798e-12
3.99394e-12
2.31605e-24
5.40115e-21
1.42927e-16
1.08874e-22
2.39524e-19
6.53343e-16
1.7049e-21
2.7549e-18
2.64642e-15
7.20196e-24
6.0789e-20
1.1541e-17
1.3467e-22
2.11082e-18
9.77162e-16
4.28948e-21
2.72723e-17
5.21268e-14
2.50196e-23
2.78888e-19
1.2462e-16
2.32368e-22
2.69753e-18
3.06229e-14
7.21253e-21
1.23637e-16
8.93189e-13
2.10103e-32
5.14342e-32
4.5571e-28
1.27687e-28
3.77586e-29
3.76874e-26
1.72204e-28
7.49501e-29
3.89575e-25
5.3665e-32
3.56214e-32
5.92433e-28
1.22621e-28
1.34749e-29
5.41134e-26
6.95569e-29
2.25067e-29
3.05935e-25
1.51243e-32
1.15361e-32
5.88562e-28
1.01932e-28
4.17447e-30
4.046e-26
4.69589e-30
4.05399e-30
1.72244e-25
3.59175e-33
9.38699e-34
2.5317e-33
6.21857e-29
5.53853e-31
1.64006e-30
3.27829e-31
9.6657e-32
1.39506e-30
7.92776e-34
2.41362e-34
6.56414e-35
4.90793e-29
9.98099e-30
2.38971e-30
5.95115e-34
2.38984e-34
4.43694e-35
9.72299e-35
2.38658e-35
5.28203e-36
2.60957e-29
6.30203e-30
1.42793e-30
1.84999e-34
4.595e-35
1.00908e-35
8.96255e-17
2.688e-17
2.73515e-17
3.45733e-14
3.7432e-14
4.46268e-14
1.03872e-13
1.03744e-13
9.4151e-14
9.32367e-17
2.6623e-17
2.75005e-17
3.53001e-14
3.96917e-14
4.44407e-14
1.32356e-13
1.3334e-13
9.44315e-14
8.39608e-17
2.65151e-17
3.519e-17
5.32503e-12
2.05754e-12
5.34178e-13
3.56845e-12
1.54802e-13
9.44809e-14
4.53468e-17
1.4777e-17
1.29206e-17
2.38224e-12
1.2009e-12
4.97636e-13
2.00353e-12
4.35588e-13
9.45031e-14
1.39331e-17
7.82366e-18
2.87183e-18
1.56305e-12
6.86134e-13
3.42069e-13
1.49848e-12
3.41609e-13
6.79641e-14
6.85573e-18
2.34737e-18
1.03833e-18
1.17229e-12
3.99167e-13
1.75416e-13
1.399e-12
3.41012e-13
6.36059e-14
)
;

boundaryField
{
    fuel
    {
        type            fixedValue;
        value           uniform 0;
    }
    primary_air
    {
        type            fixedValue;
        value           uniform 0.23;
    }
    Secondary_air_RHS
    {
        type            fixedValue;
        value           uniform 0.23;
    }
    Secondary_air_LHS
    {
        type            fixedValue;
        value           uniform 0.23;
    }
    outlet
    {
        type            inletOutlet;
        inletValue      uniform 0;
        value           nonuniform List<scalar> 
18
(
0
1.17229e-12
0
0
3.99167e-13
0
0
1.75416e-13
0
0
2.60957e-29
0
0
6.30203e-30
0
0
1.42793e-30
0
)
;
    }
    stove_body
    {
        type            fixedValue;
        value           uniform 0;
    }
    frontAndBack
    {
        type            empty;
    }
}


// ************************************************************************* //
