/*--------------------------------*- C++ -*----------------------------------*\
  =========                 |
  \\      /  F ield         | OpenFOAM: The Open Source CFD Toolbox
   \\    /   O peration     | Website:  https://openfoam.org
    \\  /    A nd           | Version:  6
     \\/     M anipulation  |
\*---------------------------------------------------------------------------*/
FoamFile
{
    version     2.0;
    format      ascii;
    class       surfaceScalarField;
    location    "3.5";
    object      phi;
}
// * * * * * * * * * * * * * * * * * * * * * * * * * * * * * * * * * * * * * //

dimensions      [1 0 -1 0 0 0 0];

internalField   nonuniform List<scalar> 
675
(
8.18907e-08
-2.71441e-05
0.000145462
-1.82342e-07
-2.71886e-05
0.000145852
-2.70886e-05
0.000145306
-4.92796e-07
2.70713e-05
0.000143598
7.71135e-07
2.7062e-05
0.000141807
2.70271e-05
0.000143977
2.50661e-08
0.000145446
-1.3156e-07
0.000145618
0.000145295
1.55406e-07
-4.78595e-05
0.000193141
-3.16318e-07
-5.00904e-05
0.000196389
-4.75468e-05
0.000192511
1.08012e-06
4.77014e-05
4.69252e-05
-5.82148e-07
4.92336e-05
4.41133e-05
4.74356e-05
4.838e-05
6.3372e-08
0.000193059
-2.29204e-07
0.000195119
0.000192476
-1.00177e-07
7.47907e-05
-8.2745e-07
7.86653e-05
7.32334e-05
-6.16179e-07
-7.48208e-05
2.25365e-06
-7.71599e-05
-7.33214e-05
-2.12596e-07
-7.04254e-07
0.0026176
0.00323081
-0.00150028
-0.00345941
0.00411371
0.00364879
0.00314879
-0.00287634
0.00541039
-0.002835
0.00588502
-0.00696818
-0.00455287
0.0263801
-0.00276226
0.00441522
0.00148845
-0.00212258
-0.00231108
0.00401666
-0.00248709
0.00485782
0.00733658
-0.0148828
-0.00637977
-0.00606915
0.0209014
0.00748325
-0.0154324
0.0056738
-0.0074438
0.0150067
-0.00586942
0.00600992
0.0258961
-0.00712709
0.0132311
0.00536127
-0.0138335
-0.00543826
0.0208991
-0.0163947
0.00041839
0.0184339
-0.0325547
0.00120648
-0.0116355
0.0311697
0.0168562
-0.0325056
-0.0284374
-0.0171636
0.0789596
0.0293319
0.0112865
-0.0546961
-0.0182247
0.0776056
-0.00117381
-0.0309746
0.000213005
0.0313119
-0.0329663
-0.0182602
-0.0186953
-0.0107409
0.0460467
0.0161312
0.00974944
-0.0192279
-0.0246772
-0.0172179
-0.0100637
0.0458985
-0.0044328
0.016862
0.0274044
-0.058496
0.00333852
-0.00977887
-0.0610789
0.0727637
0.0192453
0.024718
-0.0578398
-0.0165232
-0.00924809
0.0442611
0.0180175
-0.0195195
-0.0249465
-0.011856
0.0465683
0.00502166
-0.00772508
-0.00392847
-0.00110391
0.00884884
-0.0223922
-0.0101795
-0.00480559
0.00869847
0.00962287
0.00141348
-0.00670721
-0.0091861
-0.0276184
0.00823774
-0.000457157
0.001529
-0.00507655
-0.00416306
-0.0226162
-0.00394074
0.0100584
-0.00297128
-0.0115536
-0.00835887
0.00531334
-0.0091354
-0.00335585
-0.00905466
0.0105187
0.000987404
-0.0128036
0.00589927
-0.00589436
-0.0114373
0.00606906
-0.004166
0.00907039
-0.0122237
-0.00960387
-0.00985359
-0.00826065
-0.00107316
-0.000236069
-0.0370953
0.00110365
-0.00035644
0.0293456
-0.000230441
-0.0369353
-0.00268684
0.000265401
0.071745
0.00276742
0.000358289
-0.0608702
0.000142508
0.070697
-0.00111574
-0.0353412
0.00105697
0.0295243
-0.037597
-0.00118025
4.85118e-05
-0.0417266
0.00122029
-0.000353445
0.0273004
2.39208e-05
-0.0414828
-0.00201863
2.7743e-06
0.0646584
0.00203438
0.00035666
-0.0656356
-0.000130061
0.0638439
-0.00118143
-0.0398654
0.00120718
0.0275087
-0.0422193
-0.00185107
0.000292573
0.00168331
-0.000909086
0.000211145
-0.00266506
-0.000188053
0.002646
0.000905543
-0.000346808
-0.00165276
0.00181986
0.00678022
-0.000300581
-0.00684601
-0.0111767
-0.00242218
0.000526679
-0.000459636
-0.000871477
0.000197997
-0.0108033
0.0122591
0.000267666
-0.0106394
-0.0149719
0.0103037
-0.000673644
-0.00827667
0.000670848
-0.00254113
0.00714253
0.00291116
-0.00382357
-0.0110448
-0.0071867
-0.000424393
-0.0016831
-0.0130896
-0.0011548
0.00106117
-2.90283e-05
-0.00663153
-0.00515261
0.00095049
0.00258478
-0.000349358
0.00172611
-0.00638243
0.00710509
-0.000675988
-0.0048083
-0.0111623
0.00420856
-0.00177605
-0.00265063
-0.000831877
-0.00177853
0.00393294
0.00267123
3.04447e-05
-0.00726445
-0.00308823
0.00356338
0.00243543
-0.00798104
-0.00101202
0.00157338
-0.000644524
0.000166864
0.00141062
0.00077228
0.00115816
0.00246765
-0.000854606
-0.00485342
0.00322338
-0.00198745
-0.00174488
0.00396765
-0.00103795
0.000266711
0.000537154
0.00119207
-0.0102206
-0.000291477
-0.000285494
-0.0108365
0.000791281
-0.000176163
0.00179148
-0.00450876
-0.00812283
0.00339365
0.000577767
0.00288156
-0.00107552
0.000823341
0.00443843
0.000554209
0.00421062
-0.00404984
-0.0133564
0.000842452
-0.0133521
0.000819354
0.000473546
-0.0132691
-0.00619188
-0.000449908
-3.04477e-05
-0.0061482
-0.000244777
2.25118e-05
0.000579564
-0.00578782
-0.00545092
0.00452322
0.000497192
0.00134548
0.00286401
0.00102195
0.00482999
0.00104783
0.00706499
-0.000460878
-0.00795758
0.00132091
-0.0077091
0.00159567
0.00212971
-0.00831557
0.00123203
-0.000102792
0.00143163
-0.000175853
-8.04417e-05
-0.00427548
0.00472578
0.000486137
0.0081817
0.00119886
0.00099944
0.0141664
0.00299915
0.00579482
0.00892219
0.010029
0.0014202
-0.00437507
-0.0070717
0.0100559
0.00149025
-0.00151722
8.61801e-05
-0.00121392
0.0113669
-0.00156776
0.0010555
-0.00943026
0.0138269
-0.00142536
0.000461094
-1.95824e-05
-0.0010372
0.00991619
-0.00447991
-0.00700447
0.0101335
-0.00164136
-0.000921912
0.00763873
0.000363399
-0.00508493
-0.00729239
0.00760734
0.00106437
-0.00254657
0.000157041
-0.000386105
0.00905746
-0.000458528
0.00168629
-0.00886316
0.0114945
-0.00100435
9.68736e-05
-0.000156685
-0.000385673
0.00753473
-0.0052506
-0.00722035
0.00788951
-0.00300173
-0.000457908
0.00355177
-0.000791382
-0.00784653
0.00138501
-0.000379788
0.000353729
0.00528225
0.000730766
-0.00511382
0.00470685
0.000296231
-0.000173156
0.0030615
-0.00757591
0.000359899
-0.00158018
0.00145655
0.0001267
0.00201363
0.00160116
-0.0051941
0.00115658
-0.00621499
-0.00094006
-0.00141256
0.00381171
0.00454056
-0.00156044
-0.00231714
-0.00125792
-0.00247305
-0.00149201
7.86549e-05
0.00213329
-0.00518469
-0.00612759
-0.000684304
0.00146905
-0.000656789
0.00422526
0.00142677
-0.01153
0.000841908
-0.0101234
-1.59304e-06
-0.00143841
0.00672243
0.00505072
-0.0013959
-0.00454483
-0.000965739
-0.00447547
-0.00066385
-0.000694792
0.00414346
-0.0113868
-0.0101686
-0.00305992
0.00137167
0.00103182
0.00659964
0.0035926
-0.02478
0.00151147
-0.0128805
-0.000165701
-0.00134448
0.00960584
0.00444838
-0.00349118
-0.00207227
-0.00158093
-0.00204475
-0.00297352
0.000936253
0.00644667
-0.0242976
-0.012878
0.00987705
0.00844812
-0.017289
-0.00173073
0.00999325
-0.0231593
0.00999599
-0.024601
-0.00207426
-0.00845153
0.0285874
-0.00424271
-0.00996779
0.0200637
-0.0100426
0.0137583
0.00967588
-0.0171926
-0.0015459
-0.0230444
-0.0244661
0.00371555
0.00708797
-0.0280815
0.00352771
0.00653867
-0.029499
0.00714113
-0.0282027
0.00578973
-0.00714826
0.0370425
0.00403
-0.00660977
0.0349783
-0.00719759
0.0321339
0.00370446
-0.02804
0.00352152
-0.0294657
-0.028137
0.000527536
0.0193497
-0.000262338
0.0193008
0.0195244
0.00315769
-0.0193815
0.00275514
-0.0193322
-0.0195593
0.000523391
-0.000279608
-0.00207498
0.00200396
-0.00805528
0.00351344
0.00255022
-0.00814341
0.00253236
0.000975275
-0.00378185
-0.000882669
0.00261672
-0.00242087
-0.0012168
0.00240281
-0.00233075
0.00243713
-0.0136132
-0.000540288
-0.00879565
-0.00603449
-0.0111269
-0.00220491
0.00139861
-0.0127031
0.00209484
0.00188734
-0.0143349
0.00220396
0.000862747
-0.0027696
-0.000381858
0.00670389
-0.00345816
-0.000702634
0.00567884
-0.00198407
0.00316402
-0.00956537
0.00033112
-0.00715105
-0.00914804
-0.0202541
-0.00424635
0.0011389
-0.0138741
0.00251109
0.00277114
-0.0238674
0.00172305
0.0016502
0.00818717
0.000235235
0.0135862
0.00271472
-0.000394718
0.0143159
-0.00367797
0.0112789
-0.000564925
0.0100547
-0.00819758
-0.00190834
-0.0321339
0.000370782
0.0165942
-0.0307973
-0.0105628
0.0161663
-0.0290576
0.0142091
-0.0230843
0.005672
0.003855
0.0206655
0.00844392
0.00397588
0.0237444
0.00205631
0.0318852
-0.0156708
0.0295845
-0.00664077
-0.00696341
-0.0367244
-0.00289329
0.00788314
-0.0357799
-0.00398504
0.0075748
-0.0355338
0.00788286
-0.0349448
-0.010536
-0.00211704
0.041204
-0.00813986
-0.00403018
0.0329557
-0.0029155
0.0345466
-0.00635669
0.033825
0.00113369
-0.0184814
-0.0384932
-0.000342408
0.0159725
-0.000529254
0.0160451
0.015864
-0.00232594
-0.0232568
-0.0015909
-0.023439
-0.0217761
0.0129501
0.0112328
)
;

boundaryField
{
    fuel
    {
        type            calculated;
        value           nonuniform List<scalar> 
36
(
0.000118425
0.000197354
0.000118425
0.000118425
0.000197354
0.000118425
0.000118425
0.000197354
0.000118425
-0.000118425
-0.000197354
-0.000118425
-0.000118425
-0.000197354
-0.000118425
-0.000118425
-0.000197354
-0.000118425
0
0
0
0
0
0
0
0
0
0
0
0
0
0
0
0
0
0
)
;
    }
    primary_air
    {
        type            calculated;
        value           nonuniform List<scalar> 9(-0.0031837 -0.00535509 -0.00325105 -0.0032246 -0.00535144 -0.00320503 -0.003239 -0.00535599 -0.00319772);
    }
    Secondary_air_RHS
    {
        type            calculated;
        value           nonuniform List<scalar> 9(0.00572836 0.00931086 0.00589183 0.00565147 0.00904753 0.00582455 0.00579751 0.009214 0.00594706);
    }
    Secondary_air_LHS
    {
        type            calculated;
        value           nonuniform List<scalar> 9(0.00587606 0.00940722 0.00575658 0.00581354 0.00915739 0.00568983 0.00593863 0.00931419 0.00583744);
    }
    outlet
    {
        type            calculated;
        value           nonuniform List<scalar> 
18
(
-0.051407
0.0827612
-0.00238331
-0.0513891
0.0717083
-0.0402009
-0.0513353
0.0705991
-0.0490343
-0.0479531
0.0726261
-0.0479377
-0.0480042
0.0740234
-0.0479878
-0.0479839
0.0739818
-0.0479688
)
;
    }
    stove_body
    {
        type            calculated;
        value           uniform 0;
    }
    frontAndBack
    {
        type            empty;
        value           nonuniform 0();
    }
}


// ************************************************************************* //
