/*--------------------------------*- C++ -*----------------------------------*\
  =========                 |
  \\      /  F ield         | OpenFOAM: The Open Source CFD Toolbox
   \\    /   O peration     | Website:  https://openfoam.org
    \\  /    A nd           | Version:  6
     \\/     M anipulation  |
\*---------------------------------------------------------------------------*/
FoamFile
{
    version     2.0;
    format      ascii;
    class       volScalarField;
    location    "3.5";
    object      Qdot;
}
// * * * * * * * * * * * * * * * * * * * * * * * * * * * * * * * * * * * * * //

dimensions      [1 -1 -3 0 0 0 0];

internalField   nonuniform List<scalar> 
297
(
0.000320416
0
0
0
0
0
0
0
0
0.000320416
0
0
0.000211295
0.000211295
0.000211295
0
0
0.000320416
0
0
0.000105647
0
0
0
-7.71287e-10
-7.71287e-10
0.000105647
0
0
0
-3.08515e-09
3.08515e-09
2.26752e-10
0
-1.13376e-10
0
0
0
0
0
-7.71287e-10
-3.78557e-10
0
0
0
0
-3.85643e-10
0
0
0
0
-3.85643e-10
0
0
0
1.4172e-11
0
0
0
0
0
0
0
0
0
8.64989e-16
3.45996e-15
0
-1.72998e-15
0
0
-3.85643e-10
-3.08515e-09
-5.40618e-17
5.40618e-17
0
-6.17029e-09
-6.1703e-09
1.08124e-16
0
1.08124e-16
0
0
-1.92822e-10
-3.85643e-10
0
0
-1.92822e-10
0
-1.92822e-10
0
0
0
0
0
0
-1.92822e-10
0
0
0
0
0
0
0
0
0
0
0
0
0
0
0
0
1.05589e-19
0
0
0
0
0
-6.1703e-09
0
3.29967e-21
0
0
0
0
0
0
0
0
0
-1.23406e-08
3.29967e-21
0
0
-6.1703e-09
-4.12459e-22
0
1.05589e-19
0
0
3.29967e-21
1.64984e-21
0
0
-6.1703e-09
0
0
0
0
0
-3.29967e-21
0
0
0
0
0
0
0
6.59934e-21
0
0
0
0
0
0
0
0
0
6.29362e-27
0
0
0
0
-1.23406e-08
0
0
0
1.00698e-25
0
9.6033e-32
0
0
0
0
1.03115e-22
0
0
0
0
0
0
0
1.83169e-37
0
0
0
0
-6.1703e-09
0
0
0
4.57921e-38
0
0
0
0
0
0
0
0
0
0
0
0
3.75129e-34
0
0
-5.58986e-42
0
0
5.72402e-39
0
0
-2.86201e-39
0
6.98732e-43
0
0
0
0
0
0
0
0
4.36708e-44
-1.09177e-44
9.15843e-38
0
0
0
8.73415e-44
0
0
0
0
0
0
0
0
0
0
0
0
-6.1703e-09
-1.23406e-08
0
0
0
0
2.06229e-22
2.01396e-25
-6.1703e-09
0
0
-1.23406e-08
-1.23406e-08
0
0
2.06229e-22
1.00698e-25
0
0
0
0
0
0
0
2.06229e-22
-6.1703e-09
0
0
0
0
0
0
0
0
0
0
0
0
0
0
0
-6.1703e-09
0
)
;

boundaryField
{
    fuel
    {
        type            calculated;
        value           uniform 0;
    }
    primary_air
    {
        type            calculated;
        value           uniform 0;
    }
    Secondary_air_RHS
    {
        type            calculated;
        value           uniform 0;
    }
    Secondary_air_LHS
    {
        type            calculated;
        value           uniform 0;
    }
    outlet
    {
        type            calculated;
        value           uniform 0;
    }
    stove_body
    {
        type            calculated;
        value           uniform 0;
    }
    frontAndBack
    {
        type            empty;
    }
}


// ************************************************************************* //
