/*--------------------------------*- C++ -*----------------------------------*\
  =========                 |
  \\      /  F ield         | OpenFOAM: The Open Source CFD Toolbox
   \\    /   O peration     | Website:  https://openfoam.org
    \\  /    A nd           | Version:  6
     \\/     M anipulation  |
\*---------------------------------------------------------------------------*/
FoamFile
{
    version     2.0;
    format      ascii;
    class       volScalarField;
    location    "3.5";
    object      T;
}
// * * * * * * * * * * * * * * * * * * * * * * * * * * * * * * * * * * * * * //

dimensions      [0 0 0 1 0 0 0];

internalField   nonuniform List<scalar> 
297
(
292.995
292.995
292.995
293.012
293.012
293.012
292.995
292.995
292.995
292.987
292.986
292.985
292.948
292.95
292.939
292.987
292.987
292.985
292.601
292.192
292.594
278.725
278.825
278.046
292.605
292.387
292.597
2356.67
1149.74
2988.61
911.479
526.156
1163.82
2415.58
1115.47
2864.93
5000
4150.26
5000
4609.13
2181.93
5000
5000
4109.7
5000
5000
3498.83
5000
4146.82
2155.62
4200.43
5000
3484.4
5000
3861.89
2439.11
3995.58
5000
2121.21
5000
3879.69
2415.07
3937.06
3772.3
1151.17
3966.76
5000
2033.18
5000
3803.6
1128.06
3830.8
375.983
314.317
309.988
884.482
382.775
343.116
329.001
306.071
312.79
5000
3437.07
5000
4444.85
2117.5
4537.85
5000
3411
5000
4781.98
3425.03
4684.11
4936.04
2116.56
4996.68
4864.1
3399.64
4597.42
4262.03
3400.73
4412.01
5000
2118.83
5000
4308.12
3377.54
4337.25
299.888
300.758
301.563
299.95
300.184
300.292
299.78
300.39
299.983
300.43
301.724
301.648
300.074
300.412
300.669
299.974
300.397
300.467
301.052
301.864
301.809
300.298
300.768
300.886
300.349
300.416
300.607
301.52
301.581
301.797
300.331
300.958
301.8
299.843
299.663
299.534
301.694
301.752
301.849
300.501
300.703
301.611
300.412
300.356
300.129
301.704
301.477
301.817
300.812
300.723
300.796
300.632
300.561
300.479
299.898
299.79
299.765
299.959
299.897
299.874
299.874
299.784
299.742
299.969
300.001
300.032
300.033
300.02
300.026
299.943
299.951
299.984
299.97
300.06
300.114
300.18
300.2
300.18
299.954
300.006
300.105
299.986
299.921
299.896
300.022
300.031
300.02
299.963
299.89
299.877
299.987
299.884
299.881
299.973
300.04
300.064
299.972
299.869
299.863
299.985
299.869
299.826
299.941
299.982
300.21
299.968
299.852
299.825
299.84
299.837
299.732
298.713
299.58
300.451
299.819
299.82
299.739
297.557
297.378
297.642
297.852
297.984
298.715
297.544
297.364
297.652
291.54
291.427
291.408
286.202
286.012
286.11
291.534
291.42
291.401
301.785
302.225
302.326
301.618
301.652
301.41
299.485
299.859
299.783
301.654
302.051
302.459
301.637
301.667
301.494
299.992
299.993
299.589
301.39
301.771
302.506
300.987
301.478
301.378
300.403
300.139
299.273
300.918
301.401
301.599
301.691
301.517
300.272
299.129
299.179
298.891
296.898
298.392
298.264
300.274
300.212
299.308
295.099
294.43
294.855
291.499
292.205
292.266
281.865
286.895
287.971
299.143
290.417
291.096
)
;

boundaryField
{
    fuel
    {
        type            fixedValue;
        value           uniform 293;
    }
    primary_air
    {
        type            fixedValue;
        value           uniform 293;
    }
    Secondary_air_RHS
    {
        type            fixedValue;
        value           uniform 293;
    }
    Secondary_air_LHS
    {
        type            fixedValue;
        value           uniform 293;
    }
    outlet
    {
        type            inletOutlet;
        inletValue      uniform 293;
        value           nonuniform List<scalar> 
18
(
293
281.865
293
293
286.895
293
293
287.971
293
293
286.202
293
293
286.012
293
293
286.11
293
)
;
    }
    stove_body
    {
        type            fixedValue;
        value           uniform 293;
    }
    frontAndBack
    {
        type            empty;
    }
}


// ************************************************************************* //
