/*--------------------------------*- C++ -*----------------------------------*\
  =========                 |
  \\      /  F ield         | OpenFOAM: The Open Source CFD Toolbox
   \\    /   O peration     | Website:  https://openfoam.org
    \\  /    A nd           | Version:  6
     \\/     M anipulation  |
\*---------------------------------------------------------------------------*/
FoamFile
{
    version     2.0;
    format      ascii;
    class       volScalarField;
    location    "1";
    object      O2;
}
// * * * * * * * * * * * * * * * * * * * * * * * * * * * * * * * * * * * * * //

dimensions      [0 0 0 0 0 0 0];

internalField   nonuniform List<scalar> 
297
(
0
0
0
0
0
0
0
0
0
0
0
0
0
0
0
0
0
0
0
0
0
0
0
0
0
0
0
0.0550039
0.117305
0.0823469
0.159743
0.189649
0.174534
0.0548912
0.117077
0.0830824
0
0.0175286
0
0.0296453
0.10918
0.0387582
0
0.0175687
0
0
0.0150284
0
0.0187254
0.0315715
0.0210339
0
0.015017
0
0.00206414
0.0059578
0.00201339
0
0.000327037
0
0.00206525
0.00594866
0.0020066
0
3.85739e-08
0
0
0
0
0
3.84423e-08
0
1.12857e-13
5.08648e-13
1.19732e-13
0
0
4.80554e-13
8.0554e-14
4.7825e-13
5.46175e-14
0
0.0150268
0
0
0.000333693
0
0
0.0150154
0
0
0.0148917
0
0
0.000326955
0
0
0.0148803
0
0
0.0142854
0
0
0.000326998
0
0
0.0142744
0
2.71454e-18
1.92005e-17
2.31393e-18
0
1.23279e-18
4.57434e-18
1.39313e-18
1.71739e-17
1.55572e-18
4.21316e-22
4.7636e-21
4.0337e-22
2.96499e-23
1.35191e-21
1.90583e-22
2.09185e-22
4.08136e-21
2.83774e-22
2.7461e-22
4.63363e-21
5.33114e-22
2.98736e-23
1.64928e-21
4.3366e-23
1.89027e-22
3.82058e-21
4.35048e-22
3.38287e-23
8.28895e-28
9.69629e-33
4.85432e-23
5.31151e-28
6.16694e-33
2.31118e-23
5.69196e-28
6.69264e-33
1.20397e-26
6.51734e-31
3.62836e-35
2.34851e-27
3.65839e-29
8.85042e-34
8.72176e-27
5.88573e-31
3.31645e-35
4.13772e-26
2.03188e-30
6.16053e-35
1.07333e-27
7.23443e-31
1.48214e-34
3.38085e-26
1.67063e-30
5.2982e-35
5.90852e-33
5.03853e-28
3.88382e-23
1.26967e-33
6.29113e-29
0
6.14235e-33
2.60861e-28
2.00115e-23
2.02868e-35
4.71726e-31
1.15109e-26
1.44438e-34
4.46707e-30
2.44084e-28
1.97246e-35
3.8807e-31
5.98798e-27
2.70844e-35
1.0372e-30
2.13593e-26
2.34387e-35
1.0205e-31
7.20331e-28
2.86296e-35
1.09857e-30
1.46199e-26
3.26597e-46
1.1166e-41
1.99828e-37
7.65509e-46
5.27155e-42
4.27043e-38
9.23899e-46
1.17184e-41
2.088e-37
3.04773e-48
4.85701e-44
8.81827e-40
1.29489e-47
6.64759e-44
2.41958e-39
1.2687e-47
3.02359e-44
8.37406e-40
3.59717e-48
1.4693e-44
5.19862e-40
9.93923e-48
1.53047e-44
5.39859e-40
1.17737e-47
1.35549e-44
6.03307e-40
5.32007e-48
3.331e-47
1.91595e-45
9.4426e-48
7.60795e-46
9.43664e-45
1.14804e-47
1.03649e-46
3.77437e-45
2.81609e-52
5.72578e-51
4.76574e-50
3.43405e-47
7.42038e-46
5.82035e-45
2.813e-52
8.51385e-51
4.82588e-50
5.86954e-53
1.17068e-51
8.46455e-51
1.72237e-47
3.39059e-46
2.48803e-45
9.86482e-53
1.97939e-51
1.41794e-50
1.75459e-37
9.79254e-42
7.68951e-46
1.14112e-37
3.87133e-42
6.55821e-46
2.27477e-37
6.99717e-42
5.77678e-46
1.52466e-39
7.6488e-44
1.40087e-47
1.44189e-38
3.75971e-43
4.63804e-47
1.47278e-39
4.80971e-44
3.30082e-47
1.31634e-39
3.58298e-44
1.31855e-47
3.25512e-39
8.69409e-44
2.93103e-47
1.12418e-39
2.60679e-44
3.15842e-47
4.81578e-45
8.56915e-47
1.35294e-47
3.95962e-44
3.05e-45
2.5518e-47
7.01286e-45
2.82938e-46
3.10308e-47
1.34678e-49
2.2965e-50
1.24961e-51
2.45548e-44
2.98102e-45
2.2285e-46
1.88613e-49
2.27715e-50
1.75197e-51
3.59257e-50
4.74396e-51
3.70783e-52
1.05483e-44
1.37066e-45
1.08469e-46
6.01921e-50
8.03133e-51
6.21195e-52
)
;

boundaryField
{
    fuel
    {
        type            fixedValue;
        value           uniform 0;
    }
    primary_air
    {
        type            fixedValue;
        value           uniform 0.23;
    }
    Secondary_air_RHS
    {
        type            fixedValue;
        value           uniform 0.23;
    }
    Secondary_air_LHS
    {
        type            fixedValue;
        value           uniform 0.23;
    }
    outlet
    {
        type            inletOutlet;
        inletValue      uniform 0;
        value           nonuniform List<scalar> 
18
(
0
1.05483e-44
0
0
1.37066e-45
0
0
1.08469e-46
0
0
1.72237e-47
0
0
3.39059e-46
0
0
2.48803e-45
0
)
;
    }
    stove_body
    {
        type            fixedValue;
        value           uniform 0;
    }
    frontAndBack
    {
        type            empty;
    }
}


// ************************************************************************* //
