/*--------------------------------*- C++ -*----------------------------------*\
  =========                 |
  \\      /  F ield         | OpenFOAM: The Open Source CFD Toolbox
   \\    /   O peration     | Website:  https://openfoam.org
    \\  /    A nd           | Version:  6
     \\/     M anipulation  |
\*---------------------------------------------------------------------------*/
FoamFile
{
    version     2.0;
    format      ascii;
    class       surfaceScalarField;
    location    "1";
    object      phi;
}
// * * * * * * * * * * * * * * * * * * * * * * * * * * * * * * * * * * * * * //

dimensions      [1 0 -1 0 0 0 0];

internalField   nonuniform List<scalar> 
675
(
1.95874e-06
-1.13504e-05
0.00014088
-2.05733e-06
-1.19055e-05
0.000147624
-1.13809e-05
0.000140806
3.78318e-07
1.1371e-05
0.000189522
-3.09691e-07
1.19208e-05
0.000190133
1.13644e-05
0.000189567
2.05682e-06
0.000140801
-2.03982e-06
0.000147721
0.000140811
3.581e-06
-2.3426e-05
0.000162601
-3.7897e-06
-1.99315e-05
0.000177083
-2.33533e-05
0.000162239
4.00063e-06
2.33587e-05
0.000135509
-3.81568e-06
1.94276e-05
0.000156013
2.3353e-05
0.000135821
3.79965e-06
0.000162236
-3.73103e-06
0.000176837
0.000162306
1.14306e-05
2.33876e-05
-1.21472e-05
7.32046e-05
2.23693e-05
-4.13194e-05
-2.24381e-05
4.19738e-05
-7.35313e-05
-2.24625e-05
1.20945e-05
-1.2054e-05
0.00758772
0.00580037
-0.010162
-0.00170977
0.00905783
0.00348363
0.00723542
-0.00571556
0.00403276
-0.0057229
0.0128385
-0.00451396
-0.00904636
0.0320039
-0.00728871
0.0153478
0.00769264
-0.0101894
-0.00157753
0.00346783
-0.00563661
0.0190243
0.0140155
-0.0431669
-0.0161483
-0.00424718
0.0429424
0.0135089
-0.0353372
0.00791738
-0.0141601
0.0331427
-0.00929833
0.00425701
0.0407554
-0.0133706
0.0329832
0.0187198
-0.0430346
-0.0164024
0.0428863
-0.035374
4.56286e-05
0.0334634
-0.0766461
-0.00341086
0.000170706
0.046259
0.0315959
-0.070311
-0.0702543
-0.0334315
0.170343
0.072014
-0.000223899
-0.101085
-0.0316584
0.168304
0.000351263
-0.0767875
-0.0031751
0.0462196
-0.0701746
-0.0390775
-0.0386486
-0.0311313
0.108885
0.0363815
0.00367012
-0.0452895
-0.033807
-0.0395357
-0.0271713
0.103119
0.00444233
0.0386974
0.0391681
-0.120914
0.00224573
-0.00363755
-0.118301
0.127834
0.0395177
0.0456192
-0.12238
-0.0391826
-0.0310446
0.108953
0.0362877
-0.0453019
-0.0337732
-0.027192
0.103028
0.00622401
-0.0136808
-0.0236727
-0.0138028
0.00926964
-0.034515
-0.0216753
-0.0192687
0.0342233
0.0136609
-0.0223682
-0.0174046
-0.00925304
-0.0481288
0.0216641
-0.0150703
0.0062893
-0.0236708
-0.0137535
-0.034495
-0.0192513
-0.00610332
0.00431826
-0.0218887
-0.019098
0.00120554
-0.0227303
-0.0154161
-0.0229502
0.0223083
-0.0042992
-0.0360599
0.0134996
-0.00115154
-0.036962
0.0153884
-0.0323757
-0.0061182
-0.0218528
-0.019059
-0.0227101
-0.0229215
-0.00223396
-8.54127e-05
-0.0872846
0.00209938
4.72962e-05
0.0418802
7.91379e-05
-0.0812616
-0.00424758
9.36617e-05
0.153968
0.00508387
-4.72648e-05
-0.110319
-7.83473e-05
0.153308
-0.00224397
-0.0873992
0.00208733
0.0418429
-0.0811405
-0.00240786
0.000504847
-0.098265
0.00235118
-0.000733193
0.0378562
0.000602057
-0.0923898
-0.00249914
-0.000495776
0.137391
0.00309781
0.000733371
-0.117381
-0.000601809
0.137816
-0.00241058
-0.0983588
0.00234041
0.0378271
-0.0922832
-0.00307407
0.000580664
0.00303435
-0.00205732
0.000670764
-0.00291181
-0.000577462
0.00342925
0.00205734
-0.000671969
-0.0030896
0.00302348
0.00836243
-0.00143208
-0.0102931
-0.0185259
-0.00736583
-0.00117968
-0.00582186
-0.00158823
-0.0101277
-0.0186002
0.00823844
0.00143457
-0.0228245
-0.0243406
-0.0106563
0.00118555
-0.0204343
0.00158854
-0.0218386
-0.0243706
0.00834431
-0.0102973
-0.0184652
-0.00733258
-0.00584712
-0.0101266
-0.0185389
0.00419424
0.000102441
-0.00205085
-0.012539
-0.00470919
0.00111682
0.00196525
1.58244e-05
-0.00225607
-0.012597
0.00536797
-8.94072e-05
-0.00993006
-0.0180708
-0.00529569
-0.0011087
-0.00754745
-1.03816e-05
-0.00884795
-0.0182607
0.00419867
-0.00207102
-0.0125143
-0.00468688
0.0019302
-0.00225857
-0.0125656
-0.000169958
0.000761575
-0.00264259
0.00035133
0.00144416
0.000716231
-0.00262145
0.00177628
-0.00074834
-0.0101965
-0.00288918
-0.00144027
-0.000708985
-0.0103125
-0.00014154
-0.00267789
0.000348555
-0.0026194
-0.0169445
-0.000293971
-0.00136269
-0.0174039
0.00203323
-0.00157488
0.00248567
-0.00623885
-0.0136517
-0.0232859
0.000294109
-0.0016709
-0.0206038
-0.00202882
0.00138195
-0.00247991
0.00259854
-0.0182352
-0.0168846
-0.00136116
-0.0173431
-0.0015714
-0.00623092
-0.013593
-0.0128499
-0.000338644
-0.000772215
-0.0129433
0.00136227
-0.00284491
0.000408886
-0.00697609
-0.0126158
-0.0197757
0.000340048
-0.000832533
-0.0165427
-0.00135967
0.00087306
-0.000404117
0.00350692
-0.0166363
-0.0128198
-0.00076787
-0.0129126
-0.00283945
-0.00696825
-0.0125802
-0.0033995
4.85859e-06
-0.00574039
-0.000505125
-0.00163217
-0.0110853
-0.0111341
-3.82873e-06
-0.011268
0.000504309
0.00163127
-0.0110224
-0.00339204
-0.00572825
-0.0110662
0.0173343
0.00247682
-0.00623121
-0.0135809
0.0168771
0.0020259
-0.00156982
-0.00028868
-0.00136106
0.0204955
-0.00246719
0.00257899
-0.018129
0.0231508
-0.00201784
0.00139047
0.00029081
-0.00176752
0.0172756
-0.00621286
-0.0135309
0.0168177
-0.001561
-0.00135763
0.0129026
0.000400381
-0.00696932
-0.0125657
0.0128124
0.00135364
-0.00283436
-0.00033748
-0.000751079
0.0164534
-0.000397014
0.00348305
-0.0165584
0.0196587
-0.00134623
0.00088709
0.000342732
-0.000857876
0.0128766
-0.00695055
-0.0125368
0.0127851
-0.00281678
-0.000745021
0.00571737
-0.00163158
-0.011056
0.00339118
-0.000509159
-3.32599e-06
0.0111976
0.00163289
-0.0109772
0.011066
0.000511825
1.04254e-05
0.00571928
-0.0110378
0.00341332
0.0059213
0.00209372
-0.00801532
0.00916276
0.00193844
-0.0051803
0.00213795
-0.00655661
0.00833376
-0.00208303
-0.00415552
0.0134161
-0.00192885
-0.00121377
-0.00212785
-0.000445954
0.00588628
-0.0079696
0.00912424
-0.00516722
-0.00653501
0.00451254
0.00178497
-0.0143131
0.00842318
0.00171058
-0.010802
0.00129089
-0.0119906
0.00623294
-0.00177668
-0.00682558
0.0118436
-0.00170465
-0.00340804
-0.00128825
-0.00258042
0.00449132
-0.0142379
0.00840572
-0.0107867
-0.0119549
0.00548738
0.00370369
-0.0235047
0.00599673
0.00192238
-0.0132341
0.00102391
-0.0180743
0.00682378
-0.00368946
-0.00625512
0.0109411
-0.00191898
-0.0036829
-0.00101665
-0.000574965
0.00546269
-0.0233906
0.0059947
-0.0132381
-0.0180152
-0.00655937
0.0125188
-0.029464
-0.00113202
0.010737
-0.0293982
0.0104944
-0.0297005
0.00144902
-0.01252
0.0173366
-0.00177219
-0.0107607
0.0210383
-0.0105035
0.0186528
-0.00651226
-0.0293983
-0.0011312
-0.0293797
-0.0296497
0.000350536
0.00578574
-0.0355994
0.000901526
0.00585187
-0.0357999
0.00652338
-0.035322
-0.00212492
-0.00581654
0.0310641
-0.0014118
-0.00588414
0.0320565
-0.00655229
0.0303159
0.000367404
-0.0355813
0.000892682
-0.0357879
-0.0353089
-3.65106e-05
0.0182201
-0.000216117
0.0181462
0.0181668
-0.000600392
-0.0182294
0.000156643
-0.018155
-0.0181757
-3.33711e-05
-0.000215083
-0.00922289
0.00214322
-0.0065725
-0.00595801
0.00194346
-0.00520872
0.00210231
-0.00806057
-0.0134905
-0.00213473
-0.000465487
-0.00838565
-0.00193488
-0.00122504
-0.00209283
-0.00418881
-0.00916891
-0.00655928
-0.00591698
-0.00518718
-0.00801006
-0.00846509
0.00130333
-0.0120271
-0.00453575
0.00171844
-0.0108569
0.00179224
-0.0143889
-0.0119039
-0.00129439
-0.00259885
-0.00626741
-0.00171274
-0.00342893
-0.00178446
-0.00687802
-0.00843516
-0.0119992
-0.00451059
-0.0108249
-0.0143055
-0.00603039
0.00102393
-0.0181065
-0.00552358
0.0019257
-0.0132899
0.0037185
-0.0236315
-0.0109941
-0.00102454
-0.00057756
-0.00685842
-0.00192669
-0.00371088
-0.00370404
-0.00631256
-0.00601156
-0.018079
-0.00549013
-0.0132735
-0.0235002
0.00116128
0.010499
-0.0297663
0.00660954
0.01075
-0.0294878
0.0125455
-0.0295675
0.00175775
-0.0105208
0.0186862
-0.00147329
-0.0107788
0.0210503
-0.0125475
0.0173087
0.00113168
-0.0297309
0.00654424
-0.0294645
-0.0295035
-0.0008895
0.00651705
-0.0353944
-0.00034508
0.00584217
-0.0358741
0.0057704
-0.0356818
0.00144266
-0.00654163
0.0302998
0.00216409
-0.00587031
0.0320419
-0.00580117
0.0310441
-0.000889563
-0.0353835
-0.000360798
-0.0358633
-0.0356643
0.000219124
0.0181501
4.15618e-05
0.0181293
0.0182023
-0.000147787
-0.0181579
0.000612753
-0.0181372
-0.0182108
0.000217463
3.7948e-05
)
;

boundaryField
{
    fuel
    {
        type            calculated;
        value           nonuniform List<scalar> 
36
(
0.000129559
0.000215796
0.000129559
0.000129558
0.000215794
0.000129558
0.000129559
0.000215796
0.000129559
-0.000129559
-0.000215796
-0.000129559
-0.000129558
-0.000215794
-0.000129558
-0.000129559
-0.000215796
-0.000129559
0
0
0
0
0
0
0
0
0
0
0
0
0
0
0
0
0
0
)
;
    }
    primary_air
    {
        type            calculated;
        value           nonuniform List<scalar> 9(-0.00319263 -0.00530459 -0.00319257 -0.0031929 -0.00530597 -0.00319287 -0.00319319 -0.00530672 -0.00319318);
    }
    Secondary_air_RHS
    {
        type            calculated;
        value           nonuniform List<scalar> 9(0.012973 0.0202415 0.012977 0.0128796 0.0197965 0.0128835 0.013095 0.0202105 0.0130984);
    }
    Secondary_air_LHS
    {
        type            calculated;
        value           nonuniform List<scalar> 9(0.01296 0.0204462 0.0129515 0.0128855 0.020079 0.0128764 0.0131159 0.0205502 0.0131082);
    }
    outlet
    {
        type            calculated;
        value           nonuniform List<scalar> 
18
(
-0.0537646
0.066755
-0.0537599
-0.0538268
0.0675468
-0.0538219
-0.0538434
0.0680694
-0.0538381
-0.0537841
0.068113
-0.0537785
-0.0537679
0.0676019
-0.0537626
-0.0537061
0.0668142
-0.0537008
)
;
    }
    stove_body
    {
        type            calculated;
        value           uniform 0;
    }
    frontAndBack
    {
        type            empty;
        value           nonuniform 0();
    }
}


// ************************************************************************* //
