/*--------------------------------*- C++ -*----------------------------------*\
  =========                 |
  \\      /  F ield         | OpenFOAM: The Open Source CFD Toolbox
   \\    /   O peration     | Website:  https://openfoam.org
    \\  /    A nd           | Version:  6
     \\/     M anipulation  |
\*---------------------------------------------------------------------------*/
FoamFile
{
    version     2.0;
    format      ascii;
    class       volScalarField;
    location    "1";
    object      T;
}
// * * * * * * * * * * * * * * * * * * * * * * * * * * * * * * * * * * * * * //

dimensions      [0 0 0 1 0 0 0];

internalField   nonuniform List<scalar> 
297
(
292.835
292.831
292.835
292.973
292.964
292.973
292.835
292.831
292.835
293.061
292.859
293.051
294.289
293.065
294.281
293.051
292.859
293.059
295.16
293.935
294.603
461.523
296.662
460.767
294.541
293.936
295.155
755.907
598.707
759.665
486.324
396.365
475.872
756.335
598.283
758.524
893.619
892.465
1003.15
812.795
635.084
882.678
893.798
894.428
1004.8
894.778
902.43
1005.36
733.942
570.628
783.089
894.984
903.365
1006.99
672.842
606.761
740.934
948.518
537.391
1003.14
673.187
607.071
741.143
452.528
391.732
584.789
720.846
518.83
835.848
452.662
391.92
584.949
303.059
303.274
303.276
303.683
303.612
303.849
303.503
303.593
303.519
867.179
901.737
974.182
776.331
537.086
827.149
865.491
902.618
977.728
785.089
898.538
838.538
806.405
536.646
889.488
785.344
899.406
839.621
724.461
887.929
801.549
918.918
537.097
975.792
724.778
888.761
802.514
302.505
303.592
302.644
303.571
304.058
303.61
302.986
303.978
303.054
303.074
303.407
303.309
304.101
304.133
304.089
303.534
303.774
303.585
303.386
303.385
303.57
304.474
304.186
304.55
303.753
303.72
303.768
302.457
302.521
302.714
303.278
303.291
303.464
302.902
302.987
303.193
303.329
303.16
303.21
303.921
303.907
304.068
303.621
303.466
303.54
303.778
303.691
303.458
304.632
304.616
304.598
303.961
303.877
303.662
302.543
302.348
302.282
303.439
303.252
303.214
303.156
302.951
302.867
303.002
302.933
303.105
304.039
303.877
303.918
303.499
303.427
303.58
303.22
303.468
303.554
304.554
304.572
304.588
303.62
303.836
303.923
302.853
303.027
302.725
304.278
304.073
303.723
303.794
303.777
303.389
302.95
303.167
302.844
304.69
304.54
304.317
303.705
303.701
303.385
302.875
303.123
302.757
304.89
304.692
304.66
303.522
303.388
303.217
302.819
303.092
302.591
305.527
304.713
305.306
303.308
303.14
303.067
299.729
299.737
299.755
302.493
302.493
304.11
299.729
299.734
299.753
292.508
292.544
292.588
291.364
291.441
291.816
292.507
292.543
292.587
302.883
303.172
303.075
303.727
304.049
304.191
303.429
303.821
303.838
303.026
303.225
302.984
304.351
304.602
304.751
303.424
303.743
303.748
303.021
303.186
302.925
304.708
304.741
304.95
303.255
303.427
303.559
302.89
303.157
302.856
305.12
304.742
305.592
303.104
303.178
303.345
299.779
299.761
299.748
303.97
302.456
302.54
299.778
299.759
299.748
292.599
292.555
292.518
291.81
291.478
291.413
292.599
292.554
292.517
)
;

boundaryField
{
    fuel
    {
        type            fixedValue;
        value           uniform 293;
    }
    primary_air
    {
        type            fixedValue;
        value           uniform 293;
    }
    Secondary_air_RHS
    {
        type            fixedValue;
        value           uniform 293;
    }
    Secondary_air_LHS
    {
        type            fixedValue;
        value           uniform 293;
    }
    outlet
    {
        type            inletOutlet;
        inletValue      uniform 293;
        value           nonuniform List<scalar> 
18
(
293
291.81
293
293
291.478
293
293
291.413
293
293
291.364
293
293
291.441
293
293
291.816
293
)
;
    }
    stove_body
    {
        type            fixedValue;
        value           uniform 293;
    }
    frontAndBack
    {
        type            empty;
    }
}


// ************************************************************************* //
