/*--------------------------------*- C++ -*----------------------------------*\
  =========                 |
  \\      /  F ield         | OpenFOAM: The Open Source CFD Toolbox
   \\    /   O peration     | Website:  https://openfoam.org
    \\  /    A nd           | Version:  6
     \\/     M anipulation  |
\*---------------------------------------------------------------------------*/
FoamFile
{
    version     2.0;
    format      ascii;
    class       volVectorField;
    location    "1";
    object      U;
}
// * * * * * * * * * * * * * * * * * * * * * * * * * * * * * * * * * * * * * //

dimensions      [0 1 -1 0 0 0 0];

internalField   nonuniform List<vector> 
297
(
(22.4178 -0.00671017 0.227703)
(22.4174 -0.000146977 0.235406)
(22.4178 0.0066291 0.227616)
(5.13608e-08 0.0101899 0.260344)
(1.82418e-07 0.000125371 0.260822)
(3.10546e-08 -0.010147 0.260311)
(-22.4178 -0.00668356 0.227638)
(-22.4174 -4.9506e-06 0.236125)
(-22.4178 0.00669533 0.227633)
(22.4347 -0.00371876 0.261574)
(22.4193 -0.000443263 0.268481)
(22.4339 0.00311805 0.26163)
(9.77513e-08 0.0296405 0.242911)
(2.05722e-07 0.00031844 0.179168)
(3.06094e-08 -0.0293364 0.243002)
(-22.4339 -0.0031663 0.261576)
(-22.4193 0.00016401 0.267791)
(-22.4345 0.00335753 0.26158)
(20.2357 0.00613621 0.364944)
(22.2038 -0.00214231 0.42402)
(20.3915 -0.00782115 0.366006)
(1.42424e-07 -0.0234785 -0.0146102)
(1.91801e-07 -0.000324847 0.224923)
(2.94322e-08 0.0279468 -0.0142816)
(-20.3403 0.00809815 0.365207)
(-22.2199 0.000409007 0.424451)
(-20.3823 -0.00864894 0.366296)
(37.961 13.95 2.45687)
(29.8608 6.10472 10.3757)
(38.054 -11.9272 7.70804)
(-0.000110833 4.42899 8.86808)
(-3.82478e-05 1.73678 6.09065)
(-5.06035e-06 -6.56845 9.28163)
(-37.9833 13.9364 2.26927)
(-29.8407 6.4317 10.0059)
(-37.994 -11.9305 7.81937)
(44.9794 19.0948 12.1323)
(45.0286 3.03561 49.9614)
(50.4855 -17.3867 30.8195)
(0.00120851 34.4393 113.541)
(0.000151863 -1.07496 91.3547)
(-0.000698802 -36.1505 124.43)
(-44.984 19.1567 12.6554)
(-45.1253 1.86592 50.5003)
(-50.5691 -17.3596 30.6653)
(44.0489 -1.0469 -48.7463)
(45.9624 -3.03601 78.4387)
(49.4455 4.64744 -34.8902)
(0.000385915 -26.94 160.675)
(0.000235196 2.33566 -10.6543)
(0.000667836 27.9073 175.621)
(-44.0557 -1.53411 -48.5099)
(-46.0084 -1.68746 78.2606)
(-49.5243 4.30151 -35.0726)
(34.359 -30.1519 -149.477)
(30.2761 -5.00718 -28.6935)
(37.8862 36.0461 -152.193)
(-0.000598877 -15.1852 -17.1603)
(-7.67225e-05 1.46004 -83.2337)
(0.000283014 22.1689 -4.41837)
(-34.3786 -30.233 -149.574)
(-30.2918 -5.15856 -28.7641)
(-37.8963 35.9972 -152.194)
(22.9289 39.6078 -86.508)
(19.728 -11.4553 -71.7025)
(29.6284 -33.7117 -91.0304)
(4.47931e-05 16.4655 -68.975)
(-2.09196e-05 7.2177 -69.0638)
(4.2063e-05 -8.29893 -67.2849)
(-22.9355 39.5633 -86.6128)
(-19.7374 -11.3558 -71.7154)
(-29.6365 -33.7149 -91.0082)
(15.3476 26.9245 -25.4213)
(15.3467 -13.6686 -20.9343)
(15.3669 -29.6117 -25.2694)
(-1.02076e-05 26.5419 -23.2361)
(-4.90033e-05 9.41075 -24.6023)
(1.1287e-05 -19.7714 -21.1184)
(-15.3701 26.8521 -25.4123)
(-15.363 -13.6479 -20.9528)
(-15.3792 -29.5699 -25.2706)
(37.8543 5.2407 -264.632)
(45.052 -4.55122 107.114)
(42.0603 1.61495 -273.439)
(-0.00598634 -21.3891 233.158)
(-2.90694e-06 7.08894 -102.059)
(0.00309234 23.1732 254.451)
(-37.7905 4.86952 -264.789)
(-45.096 -4.67225 107.123)
(-42.1854 1.39231 -273.689)
(36.8225 -14.0738 -236.773)
(41.0069 -4.56621 104.071)
(39.0733 20.8696 -241.302)
(-0.00569227 -17.8163 265.245)
(-2.73498e-05 6.43896 -102.8)
(0.00271068 21.5642 290.36)
(-36.8319 -14.2253 -237.29)
(-41.0453 -4.75728 104.084)
(-39.1046 20.7362 -241.362)
(35.2967 -10.4892 -213.201)
(41.2469 -3.53265 93.3897)
(38.7065 17.3587 -217.676)
(-0.00503174 -13.0456 264.679)
(-6.75533e-05 5.25342 -96.9126)
(0.00229347 18.8194 290.092)
(-35.329 -10.688 -213.493)
(-41.2839 -3.84874 93.4046)
(-38.745 17.2695 -217.7)
(15.208 49.2816 -12.8632)
(15.2965 2.77147 -13.7613)
(15.2158 -49.3819 -13.3815)
(-4.03526e-05 36.8001 -14.4873)
(-5.23758e-05 -3.63211 -15.0305)
(-2.3817e-05 -37.5082 -13.2935)
(-15.2324 49.2024 -12.8659)
(-15.3161 2.81403 -13.7698)
(-15.2367 -49.2879 -13.3796)
(15.3324 29.005 -4.7815)
(15.3785 -1.60993 -1.28763)
(15.3454 -29.0766 -4.85243)
(-3.58495e-05 22.4836 -6.6899)
(-3.76968e-05 0.781137 -6.81601)
(-2.50838e-05 -23.6888 -6.35403)
(-15.3556 28.9751 -4.7899)
(-15.3972 -1.55542 -1.31797)
(-15.3595 -29.0188 -4.86711)
(15.3844 -3.35261 -4.8284)
(15.3896 -0.0807948 2.46974)
(15.3927 3.84825 -4.87295)
(-4.05502e-05 8.93871 -4.44473)
(-3.2358e-05 -2.03916 -2.48037)
(-2.49023e-05 -9.21475 -3.85539)
(-15.4031 -3.2483 -4.87826)
(-15.4068 -0.0717905 2.42309)
(-15.4028 3.82005 -4.8676)
(15.1991 -52.231 -5.64711)
(15.3029 -47.0822 -8.53821)
(15.2663 -40.3497 -11.5316)
(-4.19665e-05 -41.297 -4.87701)
(-5.9103e-05 -38.7806 -4.62657)
(-0.000120728 -32.6327 -4.91656)
(-15.2218 -52.1355 -5.6261)
(-15.3266 -46.9758 -8.51142)
(-15.2909 -40.2487 -11.507)
(15.2975 -38.3812 -2.90886)
(15.3584 -40.0617 -9.92387)
(15.2366 -34.2337 -18.4303)
(-2.53091e-05 -33.8638 -0.0886339)
(-2.87299e-05 -33.8959 1.45078)
(-6.43956e-05 -28.2713 2.79608)
(-15.3122 -38.3291 -2.92168)
(-15.374 -40.0007 -9.92421)
(-15.2532 -34.1774 -18.4281)
(15.4098 -5.48494 -4.55216)
(15.4016 -20.2031 -16.58)
(15.264 -29.2388 -26.2811)
(-1.47345e-05 -18.9432 2.2435)
(1.52488e-08 -19.9003 3.76531)
(1.22007e-05 -21.0207 3.64041)
(-15.4192 -5.47954 -4.52159)
(-15.411 -20.1709 -16.5551)
(-15.2744 -29.1981 -26.2528)
(15.2583 40.1286 -11.4876)
(15.2944 46.8405 -8.49819)
(15.1909 51.988 -5.61929)
(-0.000194691 32.5308 -4.91653)
(-0.000117302 38.5048 -4.59121)
(-7.74925e-05 41.2528 -4.9018)
(-15.2898 40.0685 -11.4718)
(-15.3253 46.7729 -8.47826)
(-15.2207 51.9129 -5.60269)
(15.2265 34.0843 -18.3878)
(15.3472 39.873 -9.91093)
(15.2868 38.2492 -2.91758)
(-0.00014109 28.1421 2.7687)
(-9.09458e-05 33.7092 1.51969)
(-6.23084e-05 33.7311 -0.170036)
(-15.2522 34.0692 -18.3811)
(-15.3725 39.8469 -9.90299)
(-15.3108 38.2362 -2.91712)
(15.2527 29.1184 -26.2077)
(15.3906 20.117 -16.4846)
(15.3986 5.46351 -4.44609)
(-4.26505e-05 20.8961 3.63202)
(-5.84764e-05 19.7986 3.74817)
(-5.84878e-05 18.8168 2.25253)
(-15.2732 29.1152 -26.166)
(-15.4096 20.1535 -16.4324)
(-15.4174 5.59704 -4.43329)
(15.1861 12.5958 -20.0614)
(15.1936 18.6074 -14.0395)
(15.2259 28.9798 -16.284)
(-0.000413765 11.5211 -9.84616)
(-0.000350626 16.0991 -5.3289)
(-0.000278218 24.4007 -6.07225)
(-15.2346 12.5773 -19.995)
(-15.2323 18.5746 -14.0035)
(-15.2601 28.9237 -16.2545)
(15.2121 5.25531 -30.3653)
(15.2307 16.2253 -22.1891)
(15.2033 28.5411 -27.659)
(-0.000338031 8.21064 -8.12606)
(-0.000280565 12.7816 -3.10224)
(-0.000229238 22.4049 -2.6508)
(-15.2511 5.26979 -30.2697)
(-15.2585 16.1981 -22.1893)
(-15.2316 28.521 -27.6514)
(15.3369 4.33025 -37.5162)
(15.2542 18.3316 -33.8064)
(15.2265 16.8015 -42.2552)
(-0.000263654 6.42299 -13.3711)
(-0.000213865 14.0739 -8.29198)
(-0.000156302 17.4812 -1.14747)
(-15.3702 4.33616 -37.4093)
(-15.2684 18.3172 -33.8011)
(-15.25 16.8173 -42.1647)
(15.3099 -4.6718 -59.94)
(15.3141 -3.63741 -56.6685)
(15.3095 -10.2278 -61.3329)
(5.35685e-05 -5.44378 9.55754)
(5.66289e-05 2.44946 18.9151)
(6.44645e-05 -9.00115 15.6432)
(-15.3345 -4.63454 -59.816)
(-15.3165 -3.6429 -56.6879)
(-15.3334 -10.2255 -61.2345)
(15.0933 1.97261 -125.703)
(15.0868 -1.12744 -126.791)
(15.0835 4.7616 -125.57)
(0.000141213 -1.84863 62.5944)
(0.000131657 0.761548 66.0099)
(0.000134201 -1.96668 60.6921)
(-15.0928 1.95076 -125.627)
(-15.0864 -1.11208 -126.756)
(-15.0831 4.74992 -125.523)
(14.4071 -0.0321071 -160.533)
(14.4089 -0.0392047 -160.465)
(14.4107 -0.0893362 -160.209)
(0.000100692 -0.603402 175.454)
(9.90905e-05 0.36724 174.174)
(9.85172e-05 -0.5648 172.352)
(-14.4068 -0.0311014 -160.51)
(-14.4086 -0.0384022 -160.444)
(-14.4104 -0.0888451 -160.188)
(15.2331 -29.1624 -16.3649)
(15.1997 -18.7142 -14.1323)
(15.1958 -12.6785 -20.1789)
(-0.000221848 -24.5913 -6.10472)
(-0.000334043 -16.1853 -5.36275)
(-0.000418881 -11.5905 -9.90209)
(-15.2611 -29.066 -16.3203)
(-15.2333 -18.6619 -14.065)
(-15.2354 -12.6362 -20.0927)
(15.2122 -28.6816 -27.7755)
(15.2327 -16.2758 -22.328)
(15.2126 -5.26912 -30.5496)
(-0.000146904 -22.5335 -2.70302)
(-0.000241453 -12.852 -3.12243)
(-0.000331764 -8.24791 -8.20198)
(-15.2323 -28.6341 -27.7418)
(-15.2595 -16.2551 -22.2769)
(-15.252 -5.28003 -30.4294)
(15.2387 -16.8811 -42.4034)
(15.2563 -18.4087 -33.9864)
(15.339 -4.33792 -37.7519)
(-8.5356e-05 -17.5607 -1.1764)
(-0.000173327 -14.1472 -8.35709)
(-0.000252959 -6.44716 -13.4808)
(-15.251 -16.8569 -42.355)
(-15.2693 -18.3842 -33.9452)
(-15.3715 -4.34725 -37.6222)
(15.3244 10.2295 -61.5578)
(15.3171 3.69518 -56.9558)
(15.3117 4.72983 -60.2722)
(7.74139e-05 8.97758 15.6007)
(6.42331e-05 -2.44926 18.8397)
(5.30428e-05 5.50436 9.37424)
(-15.335 10.2347 -61.4854)
(-15.3181 3.66261 -56.938)
(-15.3362 4.67247 -60.1467)
(15.0845 -4.74609 -125.833)
(15.0879 1.12378 -127.061)
(15.0941 -1.99591 -126.01)
(0.000119717 1.98522 60.7256)
(0.000123392 -0.762149 66.0587)
(0.000141239 1.87566 62.6203)
(-15.0841 -4.74809 -125.79)
(-15.0875 1.11738 -127.025)
(-15.0937 -1.96988 -125.939)
(14.4112 0.0901241 -160.445)
(14.4093 0.0411134 -160.702)
(14.4075 0.0336034 -160.772)
(8.81521e-05 0.570586 172.197)
(8.91159e-05 -0.366368 174.056)
(9.09437e-05 0.610929 175.372)
(-14.4109 0.0896166 -160.425)
(-14.409 0.0399634 -160.682)
(-14.4073 0.0324647 -160.75)
)
;

boundaryField
{
    fuel
    {
        type            fixedValue;
        value           uniform (0 0 0.25);
    }
    primary_air
    {
        type            fixedValue;
        value           uniform (0 0 2.5);
    }
    Secondary_air_RHS
    {
        type            fixedValue;
        value           uniform (0 125 0);
    }
    Secondary_air_LHS
    {
        type            fixedValue;
        value           uniform (0 -125 0);
    }
    outlet
    {
        type            pressureInletOutletVelocity;
        value           nonuniform List<vector> 
18
(
(0 0 -160.445)
(8.81521e-05 0.570586 172.197)
(0 0 -160.425)
(0 0 -160.702)
(8.91159e-05 -0.366368 174.056)
(0 0 -160.682)
(0 0 -160.772)
(9.09437e-05 0.610929 175.372)
(0 0 -160.75)
(0 0 -160.533)
(0.000100692 -0.603402 175.454)
(0 0 -160.51)
(0 0 -160.465)
(9.90905e-05 0.36724 174.174)
(0 0 -160.444)
(0 0 -160.209)
(9.85172e-05 -0.5648 172.352)
(0 0 -160.188)
)
;
    }
    stove_body
    {
        type            noSlip;
    }
    frontAndBack
    {
        type            empty;
    }
}


// ************************************************************************* //
