/*--------------------------------*- C++ -*----------------------------------*\
  =========                 |
  \\      /  F ield         | OpenFOAM: The Open Source CFD Toolbox
   \\    /   O peration     | Website:  https://openfoam.org
    \\  /    A nd           | Version:  6
     \\/     M anipulation  |
\*---------------------------------------------------------------------------*/
FoamFile
{
    version     2.0;
    format      ascii;
    class       volScalarField;
    location    "4";
    object      O2;
}
// * * * * * * * * * * * * * * * * * * * * * * * * * * * * * * * * * * * * * //

dimensions      [0 0 0 0 0 0 0];

internalField   nonuniform List<scalar> 
297
(
0
0
0
0
0
0
0
0
0
0
0
0
0
0
0
0
0
0
0
0
0
0
0
0
0
0
0
0.0560353
0.070488
0.139467
0.150642
0.159363
0.201595
0.055812
0.0705155
0.140238
0
8.2221e-06
0.0192686
0.065665
0.116628
0.101187
0
8.31371e-06
0.0199079
0
0
0
0.0436535
0.0276001
0.0727696
0
0
0
0
0
0
0
0
0
3.87388e-05
1.19208e-09
0
0
0
0
0
0
0
0
0
0
0
0
0
0
0
0
0
0
0
0
0
0
0.00327461
6.85433e-07
0.0314749
0
0
0
0
0
0
0
0
0.00969851
0
0
0
0
0
0
0
0
0
0
0
0
2.36336e-14
0
0
3.62902e-14
0
0
1.67408e-14
0
0
1.04235e-17
4.46046e-17
5.24627e-17
0
0
0
6.57367e-18
7.77444e-17
6.00921e-16
3.99707e-18
4.14224e-17
5.09997e-17
2.69307e-18
0
0
3.79232e-17
6.62672e-17
4.69634e-17
0
1.28716e-22
4.56961e-24
0
0
1.29531e-22
0
0
3.14018e-27
0
0
0
0
0
0
0
0
0
2.04863e-21
8.17371e-22
0
0
0
0
0
4.44016e-24
0
8.42192e-25
1.09877e-21
1.04678e-18
6.14223e-21
1.22109e-19
8.95017e-18
4.13043e-20
4.22452e-20
4.82949e-19
5.60014e-24
1.54666e-22
3.71332e-19
2.68592e-19
4.27212e-18
4.16186e-18
8.28944e-20
1.8168e-19
4.70399e-19
2.25966e-23
1.08134e-21
1.76063e-19
1.76629e-18
2.45605e-18
2.39135e-18
2.27181e-18
3.53052e-18
5.66019e-18
2.12604e-25
3.17456e-25
5.88728e-25
1.12953e-20
8.91126e-21
9.77934e-21
2.26213e-20
4.67381e-20
4.68123e-20
3.00796e-25
1.00186e-24
2.11961e-24
1.5118e-20
1.11004e-20
1.16654e-20
3.30136e-20
6.79289e-20
6.69493e-20
3.18121e-25
1.43425e-24
4.55436e-24
1.60806e-20
2.30375e-19
8.11727e-19
4.06974e-20
8.17165e-20
1.63834e-18
3.90799e-25
1.80416e-24
3.31851e-24
3.25016e-20
1.89243e-19
4.14809e-19
4.50531e-20
1.74525e-19
8.54648e-19
2.66333e-25
9.79379e-25
2.44068e-24
2.58164e-20
1.15375e-19
2.79178e-19
5.37229e-20
1.97737e-19
7.37816e-19
1.47459e-25
4.15216e-25
1.19965e-24
2.65769e-20
1.14748e-19
3.34904e-19
4.42616e-20
1.96392e-19
6.86317e-19
3.53364e-27
3.50404e-27
4.93024e-27
3.25728e-27
1.34332e-27
1.76939e-27
1.55937e-29
1.5286e-32
3.04914e-32
4.74756e-28
5.45702e-28
4.94593e-27
0
1.35393e-27
1.87524e-27
6.67596e-30
0
1.57346e-32
0
0
4.94614e-27
0
0
1.86774e-27
0
0
1.11047e-32
7.34707e-26
8.39267e-27
4.94377e-27
0
0
0
0
0
7.86445e-33
7.05583e-26
1.95904e-26
4.92104e-27
0
0
1.73439e-28
4.05479e-32
3.36223e-32
1.13285e-32
6.6655e-26
1.91098e-26
4.35144e-27
9.95712e-27
6.00001e-27
1.72263e-27
5.61554e-32
3.36513e-32
9.63449e-33
)
;

boundaryField
{
    fuel
    {
        type            fixedValue;
        value           uniform 0;
    }
    primary_air
    {
        type            fixedValue;
        value           uniform 0.23;
    }
    Secondary_air_RHS
    {
        type            fixedValue;
        value           uniform 0.23;
    }
    Secondary_air_LHS
    {
        type            fixedValue;
        value           uniform 0.23;
    }
    outlet
    {
        type            inletOutlet;
        inletValue      uniform 0;
        value           nonuniform List<scalar> 
18
(
0
9.95712e-27
0
0
6.00001e-27
0
0
1.72263e-27
0
0
2.65769e-20
0
0
1.14748e-19
0
0
3.34904e-19
0
)
;
    }
    stove_body
    {
        type            fixedValue;
        value           uniform 0;
    }
    frontAndBack
    {
        type            empty;
    }
}


// ************************************************************************* //
