/*--------------------------------*- C++ -*----------------------------------*\
  =========                 |
  \\      /  F ield         | OpenFOAM: The Open Source CFD Toolbox
   \\    /   O peration     | Website:  https://openfoam.org
    \\  /    A nd           | Version:  6
     \\/     M anipulation  |
\*---------------------------------------------------------------------------*/
FoamFile
{
    version     2.0;
    format      ascii;
    class       surfaceScalarField;
    location    "4";
    object      phi;
}
// * * * * * * * * * * * * * * * * * * * * * * * * * * * * * * * * * * * * * //

dimensions      [1 0 -1 0 0 0 0];

internalField   nonuniform List<scalar> 
675
(
-9.98448e-06
-3.42333e-05
0.000171299
7.48941e-06
-6.18275e-05
0.000171535
-3.43216e-05
0.000168897
1.53546e-05
3.42147e-05
0.000126904
-7.17292e-06
6.17369e-05
0.000109667
3.432e-05
0.000134893
-9.8919e-06
0.000171283
7.39938e-06
0.00017152
0.000168891
-6.78536e-06
-5.70364e-05
0.000235096
3.75684e-06
-8.56754e-05
0.000246826
-5.3588e-05
0.000226227
4.00517e-05
5.707e-05
-2.7236e-05
-2.95943e-05
8.55361e-05
8.0949e-06
5.36244e-05
-1.83042e-06
-6.70179e-06
0.000235085
3.6739e-06
0.000246543
0.000226214
-1.38206e-05
0.0001218
2.40806e-06
0.000103335
0.000101522
5.51797e-06
-0.000121763
9.75887e-06
-0.000103393
-0.000101483
-1.37845e-05
2.3735e-06
0.00756241
0.00557791
-0.0099345
0.00885852
0.00578476
-0.003871
0.0088347
0.00323822
0.0014581
-0.00556731
0.0149914
-0.00424353
-0.00569976
0.0224977
-0.00874592
0.0186528
0.00762796
-0.00998823
0.00892777
-0.00379299
0.00338637
0.0156295
0.00679307
-0.0323511
0.0121352
0.00287353
-0.00325129
0.00862546
0.00673423
0.00586123
-0.00668564
0.022634
0.00891155
-0.00266959
0.024998
-0.00840159
0.0445741
0.0158691
-0.0325336
0.0122578
-0.00284648
0.00724429
-0.00671453
0.0237071
-0.0493201
-0.00536189
0.0110793
-0.0156824
0.0172882
-0.0159058
-0.0472528
-0.0235947
0.117146
0.0415455
-0.0107357
-0.0419812
-0.0169591
0.120389
-0.00670046
-0.0493486
-0.00525308
-0.015031
-0.0149653
-0.0169766
-0.0140118
-0.0299122
0.0608536
0.00623682
-0.000160091
-0.0418847
0.0188282
-0.00961143
-0.0162984
0.0321329
0.0180619
0.0137096
0.0406448
-0.086391
-0.00454166
-0.000207569
-0.0298964
0.052515
0.00987526
0.0635244
-0.0875661
-0.0173504
-0.0298811
0.0608356
0.00563008
-0.0413569
0.0181538
-0.0158416
0.0313294
0.00414694
-0.0101333
-0.0238927
-0.000163617
-0.0085672
-0.0289911
-0.0065007
-0.0099509
0.0154598
0.0101338
0.00492272
-0.0120492
0.00776607
-0.0187019
0.007176
0.0378101
0.00499393
-0.0247435
-0.000193273
-0.0284008
-0.00886764
-0.00505808
-0.00121602
-0.0176016
-0.0151631
-0.0004096
-0.0185176
-0.00916301
-0.0160068
0.00975641
0.000955021
-0.00697426
7.8919e-05
-8.7942e-05
-0.0093547
0.00899769
0.0197153
-0.00566436
-0.0181123
-0.014844
-0.0192997
-0.0147063
-0.000904056
-0.0025127
-0.0521678
-0.00133035
-0.000611523
-0.0146438
-0.00200836
-0.0215414
-0.00320146
0.0025059
0.10529
0.002651
0.000636107
-0.0490774
0.00197105
0.108845
-0.000928059
-0.052189
-0.00135887
-0.0139592
-0.0206655
-0.00115466
-0.000698952
-0.0565618
-0.00029516
-2.82114e-05
-0.0154743
-0.00101224
-0.0271272
-0.00148973
0.000690114
0.0953875
0.00230201
5.33047e-05
-0.0529466
0.00098089
0.0989724
-0.00118469
-0.0565697
-0.000317635
-0.014768
-0.0263033
-0.00191985
-3.50161e-05
-5.73948e-05
0.00149243
-0.00134702
-0.00111329
3.36106e-05
0.00145595
-0.00150457
0.00132976
-0.00194869
-6.22177e-05
0.00543041
-0.00301937
-0.00448735
-0.0155309
-0.00609345
-0.000943073
-0.00602313
-0.00292754
-0.00281084
-0.0163474
-0.00249887
0.00221078
-0.00792018
-0.0017891
-0.00294442
0.00159649
-0.0114457
0.0034709
0.0118744
-0.00150316
0.00557605
-0.00484304
-0.0166377
-0.0058542
-0.00627571
-0.00229683
-0.014805
0.00378608
0.00122568
0.002064
-0.0115722
-0.00592321
0.00150611
0.0021875
0.000284489
0.002614
-0.0115704
-0.00144128
-0.00211176
-0.00575137
0.0025982
-0.0037657
-0.00130605
-0.00629883
0.000403374
0.00479003
0.00321005
0.00242063
0.00267644
-0.0120565
-0.00704363
0.00187744
0.00197308
-0.0109047
0.000380554
0.00352721
-0.00185343
-0.000907383
0.0034834
0.00238469
-0.000662879
-0.00383092
-0.0031931
0.00478808
-0.003952
-0.00268773
-0.00183966
0.00506897
-0.00187733
0.00135551
-0.00269289
-0.00256166
-0.017147
-0.000966742
0.00177573
-0.0170179
-0.00180745
0.00167958
-0.00161647
0.00184173
-0.0172508
-0.00613818
0.00251214
0.00116465
-0.00823196
0.000108408
0.000180489
-0.00172445
0.00226565
-0.0103978
-0.0141439
0.00185368
-0.0151177
0.00108322
-0.00217156
-0.0146693
-0.0117829
-0.000846656
0.00283417
-0.0117907
-0.000928281
0.00261037
-0.00131419
0.00284996
-0.0114913
0.00369186
0.00158602
-0.00174893
0.000836443
-0.000195767
0.00231158
-0.00131659
0.00742442
-0.00431237
-0.0102893
0.00281992
-0.0102134
0.000810873
-0.00365655
-0.0100447
0.00172252
0.000453909
0.00410557
0.00022971
-0.00132777
0.00828465
0.00429433
-0.000519895
0.00768665
-0.000844562
-0.000895395
0.0146752
-0.000263406
-0.000298466
-0.00484953
0.0156536
0.00167638
-0.0021539
-0.0151761
0.014665
-0.000137471
0.00112363
-0.00259022
0.0017204
0.00834761
0.00165483
0.00233558
-0.0106634
0.00673439
0.0018905
-0.000419249
0.000980105
0.0013688
0.0171232
0.00184207
-0.0173102
0.0172951
0.00171784
0.00163633
0.0107271
0.00128522
-0.0036485
-0.0105178
0.010861
8.67172e-05
0.000900152
-0.00173766
0.00274242
-0.000758662
0.00118637
0.00778005
-0.00458885
-0.0035491
0.000678907
0.0017716
0.000528511
-0.00185423
0.0118901
0.00260406
-0.0114655
0.0122042
0.00208098
0.0023114
9.76055e-05
0.000996486
-0.00474297
-1.73654e-05
0.00101213
0.000867641
-0.00710767
0.00126747
0.0146139
-0.00415075
-0.000178631
-0.00035623
-0.00521024
0.00908173
-0.00330897
0.00658775
0.0031109
-0.00969536
0.0116874
0.0028751
-0.00797196
0.00184126
-0.00532821
0.00923048
-0.00169578
-0.00442149
0.0111027
-0.000121437
0.0011261
-0.000821568
0.00310263
0.0116522
-0.0133465
0.0181052
-0.00657315
-2.5712e-05
0.00506508
0.0020611
-0.0168186
0.00800801
0.00196484
-0.0128772
0.00170307
-0.00953956
0.00790021
-0.00138432
-0.00887414
0.00681916
1.3367e-05
0.00416019
-0.000733375
0.00776973
0.00861921
-0.0233488
0.0129586
-0.010898
0.000734762
0.00626275
0.00469998
-0.027779
0.0063019
0.00285594
-0.0157704
0.00203044
-0.0100099
0.00212566
-0.00432351
-0.00197456
-0.00675258
0.000287682
0.0156078
0.00115352
0.0165077
0.00943568
-0.0371075
0.00235093
-0.00352456
0.0133216
-0.0103056
0.0170389
-0.0345081
-0.00694909
0.0139897
-0.0331124
0.0154926
-0.0324476
-0.0033163
-0.00281682
0.0211968
-0.00511905
0.00269685
0.0287048
0.00111411
0.0257659
0.00630241
-0.0462245
0.0170068
-0.0115279
0.0314491
-0.00111453
0.00760192
-0.0410243
-0.000510462
0.00709277
-0.0408386
0.00764563
-0.0406323
0.00453326
-0.00191998
0.0262122
0.00948986
-0.00269178
0.0336317
0.000930891
0.0420017
-0.00292034
-0.0452488
0.00254634
-0.019714
0.0348968
-0.000158512
0.0147708
-0.000151988
0.0147258
0.0147304
-4.89183e-05
-0.0229112
0.00161538
-0.0221582
-0.021226
-0.0153272
-0.0163349
-0.0180794
0.000776865
4.46735e-05
-0.011613
8.12002e-05
-0.00654854
0.00165382
-0.0132538
-0.0108759
-0.00182402
0.00307657
-0.0090796
-0.00282677
0.00111493
-0.00306102
-0.00436278
-0.0113456
-0.00514467
-0.00636868
-0.00780036
-0.00942606
-0.0130088
0.000659119
0.000902228
-0.00864239
-7.78962e-05
-0.0108209
0.00133493
-0.0231831
-0.00653205
-0.00169364
0.0076533
-0.00783212
-0.00193116
0.00426695
-0.00203508
-0.00882829
-0.00775336
-0.00912892
-0.00490827
-0.012575
-0.0163673
-0.00276957
-0.00121848
0.0131729
-0.00951844
-0.000392273
-0.00364967
0.00426434
-0.0369004
0.00744213
-0.00189591
0.0155737
-0.00178217
-0.00275129
0.0158526
-0.00461956
-0.00172081
-0.0060116
-0.00986114
-0.00604861
-0.015288
-0.0270336
-0.0167206
-0.00127364
0.0311729
-0.00647358
-0.00305236
-0.010813
0.00267916
-0.0460434
0.00469536
-0.015456
0.0250813
0.00305328
-0.0139681
0.0284217
-0.0171067
0.0211389
0.00702432
-0.032323
0.0103546
-0.0325682
-0.0337664
-0.00251199
-0.00081444
0.0345039
0.00315582
0.00282915
-0.0193199
0.00195604
-0.0450522
-0.0100581
-0.00754559
0.0418693
-0.00488153
-0.00732355
0.0333995
-0.00784585
0.0260597
0.000470316
-0.0403411
0.00100536
-0.0404279
-0.0406092
0.0160793
0.0210381
0.0153096
0.0221367
0.0227813
-0.00177862
-0.0145868
0.000163484
-0.0148257
-0.0149218
0.000156587
0.000184155
)
;

boundaryField
{
    fuel
    {
        type            calculated;
        value           nonuniform List<scalar> 
36
(
0.00012712
0.00021069
0.00012712
0.00012712
0.000210689
0.00012712
0.00012712
0.000210689
0.00012712
-0.00012712
-0.000210689
-0.00012712
-0.00012712
-0.000210689
-0.00012712
-0.00012712
-0.000210689
-0.00012712
0
0
0
0
0
0
0
0
0
0
0
0
0
0
0
0
0
0
)
;
    }
    primary_air
    {
        type            calculated;
        value           nonuniform List<scalar> 9(-0.00320245 -0.0052956 -0.00320236 -0.00320295 -0.00529673 -0.00320285 -0.00320264 -0.00529869 -0.00320256);
    }
    Secondary_air_RHS
    {
        type            calculated;
        value           nonuniform List<scalar> 9(0.00631487 0.0102181 0.00631498 0.00630392 0.0101838 0.00630415 0.0062961 0.0101877 0.0062965);
    }
    Secondary_air_LHS
    {
        type            calculated;
        value           nonuniform List<scalar> 9(0.00626506 0.0100486 0.00626361 0.0062482 0.0100112 0.00624689 0.00624791 0.010048 0.00624687);
    }
    outlet
    {
        type            calculated;
        value           nonuniform List<scalar> 
18
(
-0.00260263
0.0792823
-0.0550729
-0.0406851
0.0684282
-0.0552694
-0.0525242
0.0639304
-0.0553351
-0.0556085
0.0639251
-0.0528007
-0.0555435
0.0687616
-0.0408346
-0.0554868
0.0795611
-0.00263713
)
;
    }
    stove_body
    {
        type            calculated;
        value           uniform 0;
    }
    frontAndBack
    {
        type            empty;
        value           nonuniform 0();
    }
}


// ************************************************************************* //
