/*--------------------------------*- C++ -*----------------------------------*\
  =========                 |
  \\      /  F ield         | OpenFOAM: The Open Source CFD Toolbox
   \\    /   O peration     | Website:  https://openfoam.org
    \\  /    A nd           | Version:  6
     \\/     M anipulation  |
\*---------------------------------------------------------------------------*/
FoamFile
{
    version     2.0;
    format      ascii;
    class       volScalarField;
    location    "4";
    object      T;
}
// * * * * * * * * * * * * * * * * * * * * * * * * * * * * * * * * * * * * * //

dimensions      [0 0 0 1 0 0 0];

internalField   nonuniform List<scalar> 
297
(
291.789
291.782
291.788
293
292.997
292.997
291.789
291.782
291.788
291.865
291.822
291.827
293.612
293.264
293.324
291.865
291.821
291.827
292.172
292.042
292.052
295.891
296.541
313.066
292.172
292.042
292.052
409.985
400.336
358.376
354.26
352.99
336.454
409.889
400.571
358.292
446.701
448.359
411.534
397.918
369.941
356.007
446.405
449.955
411.194
446.658
455.768
587.994
428.072
450.583
435.111
446.487
469.463
599.544
400.963
383.484
456.531
495.187
483.616
522.319
399.402
386.624
464.696
369.811
381.998
439.118
495.093
461.359
522.433
366.302
386.26
458.512
319.28
360.982
400.392
398.774
411.5
522.338
315.213
352.733
408.941
444.911
404.478
639.628
451.533
479.67
476.476
443.325
418.043
664.253
426.728
381.512
526.464
471.064
479.577
486.431
425.192
389.001
539.869
412.271
379.918
497.706
491.993
479.657
518.938
410.757
387.079
508.584
308.205
322.335
328.86
340.012
419.233
508.495
304.948
329.298
336.028
304.987
313.514
318.467
322.971
376.305
503.452
303.296
321.021
326.683
304.524
313.905
318.624
326.428
356.343
415.671
312.618
321.669
322.161
301.338
301.31
300.855
301.667
304.63
304.519
301.754
302.926
302.964
318.553
306.942
302.022
445.214
427.153
314.897
319.587
302.936
303.05
318.563
311.678
317.649
403.37
394.315
370.941
318.432
303.114
302.78
303.05
303
303.317
304.31
305.066
305.112
300.19
300.604
300.881
303.065
302.951
304.932
305.015
318.407
318.763
301.721
302.532
303.237
302.876
303.163
304.101
314.091
318.48
322.619
304.578
303.976
304.807
303.934
303.824
303.34
304.037
304.288
304.158
299.684
300.808
300.055
303.791
303.616
303.197
304.368
304.519
304.317
299.813
301.733
301.572
303.331
303.214
302.748
304.398
305.725
308.485
299.34
302.016
304.22
302.971
302.652
302.008
305.466
305.115
305.569
298.978
299.635
299.981
298.888
298.966
298.297
303.1
302.707
302.682
295.186
294.664
295.75
292.072
292.049
291.44
293.184
290.189
286.861
291.139
290.733
299.274
300.601
301.254
301.034
304.409
304.531
304.399
303.224
303.572
303.76
301.391
301.534
300.929
304.488
304.725
304.594
303.135
303.543
303.595
315.12
301.911
300.845
335.666
313.888
304.628
302.703
303.096
303.191
303.916
301.268
299.781
319.103
312.306
305.674
302.035
302.605
302.837
301.544
296.137
294.041
311.001
305.348
304.321
296.235
298.829
298.833
304.564
292.218
291.455
292.244
292.405
293.192
291.311
291.996
292.056
)
;

boundaryField
{
    fuel
    {
        type            fixedValue;
        value           uniform 293;
    }
    primary_air
    {
        type            fixedValue;
        value           uniform 293;
    }
    Secondary_air_RHS
    {
        type            fixedValue;
        value           uniform 293;
    }
    Secondary_air_LHS
    {
        type            fixedValue;
        value           uniform 293;
    }
    outlet
    {
        type            inletOutlet;
        inletValue      uniform 293;
        value           nonuniform List<scalar> 
18
(
293
292.244
293
293
292.404
293
293
293.193
293
293
293.185
293
293
290.205
293
293
286.862
293
)
;
    }
    stove_body
    {
        type            fixedValue;
        value           uniform 293;
    }
    frontAndBack
    {
        type            empty;
    }
}


// ************************************************************************* //
