/*--------------------------------*- C++ -*----------------------------------*\
  =========                 |
  \\      /  F ield         | OpenFOAM: The Open Source CFD Toolbox
   \\    /   O peration     | Website:  https://openfoam.org
    \\  /    A nd           | Version:  6
     \\/     M anipulation  |
\*---------------------------------------------------------------------------*/
FoamFile
{
    version     2.0;
    format      ascii;
    class       volVectorField;
    location    "4";
    object      U;
}
// * * * * * * * * * * * * * * * * * * * * * * * * * * * * * * * * * * * * * //

dimensions      [0 1 -1 0 0 0 0];

internalField   nonuniform List<vector> 
297
(
(69.1006 -0.0410942 0.255238)
(69.0984 -0.0056638 0.278582)
(69.1002 0.0410401 0.251294)
(-7.85634e-06 0.0620256 0.319557)
(-4.71539e-05 0.0143957 0.343707)
(-6.62157e-06 -0.051234 0.329852)
(-69.0997 -0.0408886 0.255239)
(-69.0742 -0.00566051 0.278476)
(-69.0997 0.0408527 0.251307)
(69.1097 -0.0281364 0.288251)
(69.0978 -0.00246634 0.306076)
(69.1017 0.0157593 0.282584)
(-5.47567e-06 0.13711 -0.181497)
(-3.50217e-05 0.0403924 -0.196927)
(-5.87216e-06 -0.174356 -0.15561)
(-69.1097 -0.027876 0.288219)
(-69.0747 -0.00246644 0.305843)
(-69.1017 0.0155009 0.282563)
(69.1837 -0.114347 0.567691)
(69.1543 -0.0219292 0.562212)
(69.1585 0.0700379 0.555209)
(-3.49106e-06 -0.252361 0.445044)
(-1.36307e-05 -0.0404231 0.451094)
(-4.23119e-06 0.415072 0.468236)
(-69.1837 -0.114156 0.56765)
(-69.1539 -0.0219309 0.561871)
(-69.1585 0.0698528 0.555159)
(63.6357 7.13543 -7.66668)
(62.0355 6.53763 -3.85608)
(55.1475 3.42438 3.0552)
(-0.000344002 1.9141 4.27546)
(-0.000398317 -0.332263 4.07923)
(-0.0003161 0.353389 6.27262)
(-63.6253 7.08853 -7.63781)
(-62.073 6.63714 -3.6882)
(-55.1302 3.43184 3.37271)
(69.6489 11.5751 -14.5388)
(69.9226 10.147 -10.3762)
(64.1443 11.0426 11.2951)
(-0.000940019 11.2832 38.152)
(-0.00121837 1.46424 29.1086)
(-0.000959882 0.320967 35.8979)
(-69.6067 11.4998 -14.9019)
(-70.1759 10.4305 -10.6116)
(-64.0868 11.2143 11.0965)
(68.7222 9.00614 -19.5225)
(70.8299 -11.5368 -3.22652)
(90.7838 -16.1336 34.5321)
(-0.00135335 -8.30219 53.9956)
(-0.00205064 -4.56374 12.77)
(-0.0020337 10.4566 56.9016)
(-68.7 8.80297 -19.9502)
(-72.9671 -11.883 -3.37542)
(-92.5732 -15.8971 36.4232)
(62.5804 -0.658578 -53.6375)
(59.5385 -5.99059 -30.607)
(70.9712 -0.199364 -38.147)
(0.00332435 0.756423 -1.48575)
(0.00398489 8.44864 -37.4897)
(0.00647507 -5.29835 32.0565)
(-62.3276 -0.794986 -53.4539)
(-60.0174 -6.46936 -30.5465)
(-72.1782 -0.104221 -37.6448)
(57.972 20.7514 -38.7886)
(59.47 -4.91149 -38.5735)
(68.942 -9.30149 -22.1909)
(0.00160768 -1.62805 -11.162)
(0.00151749 3.46898 -17.1841)
(0.00808253 -8.14053 23.4991)
(-57.4112 20.9327 -38.4881)
(-60.16 -5.01197 -38.5657)
(-71.9088 -7.11084 -21.8154)
(50.0347 22.3715 -30.8654)
(56.3145 -15.383 -30.0688)
(62.544 -24.2867 -24.1626)
(0.00161942 0.889202 -3.95259)
(-0.000160551 2.92953 -21.792)
(0.000160564 -4.88726 22.2307)
(-49.3914 22.4346 -30.6749)
(-55.0378 -16.7618 -29.2035)
(-63.8773 -21.6813 -24.2424)
(58.0203 11.6853 -64.4207)
(59.278 -19.0987 -16.3749)
(91.4401 -41.5597 -30.5752)
(-0.00383423 -6.12364 74.7827)
(-0.000214498 -3.31597 -39.5406)
(0.000312078 1.21341 76.1358)
(-57.8251 11.4634 -64.2273)
(-61.1988 -20.1526 -16.1094)
(-95.0294 -43.4893 -29.9563)
(58.1611 6.74556 -67.6146)
(57.0967 -13.4385 -15.3462)
(74.747 -15.2576 -41.406)
(-0.00298897 -4.44062 83.5672)
(-1.93297e-05 0.723614 -41.2197)
(0.000629513 1.55061 83.0823)
(-57.9378 6.52702 -67.4033)
(-58.1731 -14.2197 -14.9659)
(-76.7483 -15.6943 -41.3332)
(59.7304 3.19394 -64.1463)
(58.495 -10.7255 -20.2796)
(67.3096 -8.77456 -40.0153)
(-0.00231067 -2.70205 82.862)
(0.000270133 2.87447 -39.9132)
(0.00104596 -5.3466 89.7556)
(-59.5412 2.99964 -63.9187)
(-59.6117 -11.2707 -19.8432)
(-68.8843 -8.89212 -39.6706)
(47.2779 38.0917 -8.19459)
(49.6845 -0.727248 -9.63547)
(50.6016 -40.2201 -9.05214)
(-0.0036515 -3.65953 -4.80933)
(0.00174743 -8.45981 -5.71014)
(0.0152277 -2.59855 15.8762)
(-46.9351 40.3086 -9.85195)
(-50.6355 -5.66008 -10.6883)
(-51.5288 -37.2788 -7.12114)
(47.3162 29.723 -0.546989)
(48.6424 -5.25622 -1.77766)
(49.5303 -30.0689 3.05267)
(0.000495482 0.150392 -3.33055)
(0.000124385 -7.81814 -5.16977)
(0.00488407 -0.625426 7.71279)
(-47.1613 28.1582 3.72988)
(-49.7846 -15.5069 -2.46995)
(-50.6806 -30.1115 -0.298275)
(47.5137 1.53022 2.1584)
(48.9784 -2.20218 0.308579)
(49.7727 2.55866 -1.73273)
(0.00142884 -8.27648 -1.68499)
(0.000509978 -6.57665 -0.767797)
(0.00406702 2.62827 0.0729679)
(-48.7272 -7.54297 -2.54094)
(-50.0918 -9.22002 1.74895)
(-50.2389 -4.83695 3.5069)
(46.3369 -45.4859 -4.65981)
(46.1605 -50.4218 -8.49758)
(45.9712 -53.6384 -9.50273)
(0.0347133 -2.81386 -1.61176)
(0.0391409 -13.219 -2.93267)
(0.0779157 -18.3045 -3.36739)
(-45.4175 -39.911 -3.04615)
(-46.6653 -45.5148 -7.68649)
(-47.0482 -41.4099 -14.2511)
(49.1948 -32.657 7.52948)
(47.6187 -35.0765 7.063)
(46.7877 -41.2697 5.02958)
(0.0252857 7.17108 1.67828)
(0.042063 17.6546 4.23015)
(0.0831459 -6.85755 10.2442)
(-48.83 -31.2385 3.98999)
(-47.1464 -34.9635 -1.79366)
(-47.2165 -26.5787 -10.1682)
(49.7247 1.99379 8.55412)
(48.7686 7.74153 9.40998)
(49.2151 18.7021 11.7638)
(0.015784 9.6289 -1.86144)
(0.0358802 18.1772 1.4014)
(0.0771444 25.9263 5.3699)
(-49.6354 -9.04947 12.6009)
(-47.4074 1.09703 13.5187)
(-47.2976 -15.168 -16.4532)
(47.0655 42.8298 -14.523)
(46.6855 47.1623 -7.87081)
(45.6181 41.551 -2.89746)
(-0.0730214 18.8695 -3.09686)
(-0.0334081 12.6146 -4.10836)
(-0.031655 4.97087 0.336863)
(-45.8016 53.6702 -9.58966)
(-45.9758 50.2567 -8.5696)
(-46.2481 45.778 -5.05894)
(47.2294 28.0444 -11.0616)
(47.0733 36.1405 -2.00964)
(46.5112 31.9243 3.16859)
(-0.0728847 8.09968 9.71242)
(-0.0228476 -15.1337 1.82215)
(-0.0120004 -4.48559 -1.59703)
(-46.7587 41.3955 5.37491)
(-46.9525 35.2706 7.60674)
(-46.8384 33.1252 8.13957)
(47.327 15.9378 -14.9424)
(47.4319 -2.37572 15.0044)
(47.446 8.48403 12.2711)
(-0.0584514 -22.2809 5.41554)
(-0.0224262 -13.0107 1.37769)
(-0.00584281 -8.3524 -0.215305)
(-47.2229 -19.9062 9.33136)
(-47.4802 -11.0441 5.38937)
(-47.426 -6.43939 3.78614)
(46.7835 7.54413 -24.9461)
(46.8595 20.8459 -22.7364)
(46.8296 32.4203 -17.7747)
(0.0161069 12.9632 -9.60093)
(-0.0299954 14.7773 -6.44878)
(-0.0863685 20.6398 -3.01042)
(-45.2542 24.2487 -31.7709)
(-44.9889 31.1406 -23.5012)
(-46.3686 51.415 -17.7783)
(46.4503 5.49659 -36.9179)
(46.5018 13.8279 -32.0837)
(46.9326 22.1452 -24.8669)
(-0.0444023 7.29309 -8.47718)
(-0.103426 10.9986 2.87986)
(-0.121257 15.4994 12.1229)
(-45.715 6.01158 -55.0277)
(-45.8088 21.9294 -30.1422)
(-47.05 39.492 -4.836)
(47.7479 -0.693826 -48.9945)
(47.2313 7.67351 -44.6054)
(47.5368 9.38923 -33.4376)
(-0.107076 4.50047 -18.2356)
(-0.137026 -5.938 16.2678)
(-0.130748 -17.8511 19.317)
(-47.5504 3.47502 -71.5158)
(-46.1233 20.6449 -21.7263)
(-46.2149 -15.1664 22.2671)
(46.7832 -3.90522 -77.7565)
(46.4993 -6.3884 -71.3039)
(46.4677 -3.87897 -72.2541)
(-0.322344 -2.41853 34.5112)
(-0.326962 -0.375689 48.3926)
(-0.335648 -10.8455 44.2048)
(-47.2611 -8.7174 -103.717)
(-47.0305 11.2576 14.3202)
(-47.1753 -2.88058 68.7778)
(45.9767 0.906027 -137.826)
(45.9317 0.428582 -137.017)
(45.8215 0.793539 -136.594)
(-0.141803 1.15761 71.8226)
(-0.152105 3.5416 78.1198)
(-0.168017 -1.67766 75.9367)
(-45.9345 2.69382 -138.274)
(-45.944 -5.51014 -76.272)
(-45.866 1.68883 111.793)
(44.0433 -0.143665 -167.11)
(44.022 -0.0524727 -166.816)
(43.9143 -0.116973 -166.562)
(0.300953 -1.14972 162.662)
(0.316957 0.589607 173.525)
(0.338225 -0.878104 199.135)
(-43.2354 -5.54999 -156.56)
(-42.989 -7.57596 -112.464)
(-44.018 -3.61553 -3.51982)
(46.4535 -51.3779 -17.5729)
(45.0617 -31.1573 -23.5094)
(45.4692 -24.3724 -31.7783)
(0.0870837 -20.1773 -2.87177)
(0.0278449 -14.4985 -6.17881)
(-0.0187952 -12.8639 -9.41999)
(-46.8245 -31.4925 -17.2112)
(-46.8381 -20.0997 -22.303)
(-46.7784 -7.27499 -24.0499)
(47.0315 -39.8058 -4.79662)
(45.7889 -21.7841 -30.0869)
(45.8939 -6.27782 -54.8948)
(0.126085 -15.0644 12.4882)
(0.104997 -10.8422 2.71572)
(0.0440709 -7.27757 -8.42253)
(-46.9307 -21.5107 -23.6291)
(-46.5161 -13.406 -31.1865)
(-46.4499 -5.14894 -35.8989)
(47.8302 13.1409 23.3827)
(46.1018 -20.699 -21.7741)
(47.7776 -3.60192 -71.1769)
(0.150529 20.7784 19.6906)
(0.146673 7.30436 17.3255)
(0.108607 -4.62223 -17.9241)
(-47.5021 -8.63735 -31.8565)
(-47.193 -7.66949 -42.9168)
(-47.7161 0.789124 -47.4753)
(47.7952 1.88571 69.3518)
(47.2843 -10.3872 16.6828)
(47.3817 8.84116 -102.97)
(0.357704 11.7245 44.4338)
(0.341028 0.259034 48.8256)
(0.327745 1.9836 34.8889)
(-46.4574 3.66004 -72.0996)
(-46.4803 6.37139 -70.1617)
(-46.7455 3.89844 -75.9781)
(46.743 -2.32717 112.464)
(46.1618 5.78298 -74.7719)
(45.6912 -2.5242 -137.45)
(0.170081 1.69386 76.6344)
(0.151562 -3.74718 77.7462)
(0.139978 -1.41509 71.0166)
(-45.4753 -0.703636 -135.183)
(-45.9082 -0.49314 -135.584)
(-45.9588 -0.913929 -136.341)
(44.7875 3.21745 -3.40351)
(43.2069 7.6327 -111.987)
(43.2422 5.50427 -155.46)
(-0.343415 0.765286 202.122)
(-0.317797 -0.587758 173.95)
(-0.298903 1.12556 162.658)
(-43.8692 0.0922999 -164.804)
(-44.0094 0.0718035 -165.661)
(-44.034 0.145576 -165.956)
)
;

boundaryField
{
    fuel
    {
        type            fixedValue;
        value           uniform (0 0 0.25);
    }
    primary_air
    {
        type            fixedValue;
        value           uniform (0 0 2.5);
    }
    Secondary_air_RHS
    {
        type            fixedValue;
        value           uniform (0 50 0);
    }
    Secondary_air_LHS
    {
        type            fixedValue;
        value           uniform (0 -50 0);
    }
    outlet
    {
        type            pressureInletOutletVelocity;
        value           nonuniform List<vector> 
18
(
(0 0 -3.40351)
(-0.343415 0.765286 202.122)
(0 0 -164.804)
(0 0 -111.987)
(-0.317797 -0.587758 173.95)
(0 0 -165.661)
(0 0 -155.46)
(-0.298903 1.12556 162.658)
(0 0 -165.956)
(0 0 -167.11)
(0.300953 -1.14972 162.662)
(0 0 -156.56)
(0 0 -166.816)
(0.316957 0.589607 173.525)
(0 0 -112.464)
(0 0 -166.562)
(0.338225 -0.878104 199.135)
(0 0 -3.51982)
)
;
    }
    stove_body
    {
        type            noSlip;
    }
    frontAndBack
    {
        type            empty;
    }
}


// ************************************************************************* //
