# Probe 0 (0 -0.07 0.5)
# Probe 1 (0 -0.04 0.5)
# Probe 2 (0 -0.07 0.3)
# Probe 3 (0 -0.07 0.33)
# Probe 4 (0 -0.04 0.3)
# Probe 5 (0 -0.04 0.33)
# Probe 6 (0 0 0.33)
# Probe 7 (0 0 0.3)
# Probe 8 (0 0.1 0.33)
# Probe 9 (0 0.1 0.3)
# Probe 10 (0 0.14 0.3)
# Probe 11 (0 0.14 0.33)
# Probe 12 (0 0.17 0.3)
# Probe 13 (0 0.17 0.33)
# Probe 14 (0 0.14 0.5)
# Probe 15 (0 0.14 0.33)
#       Probe             0             1             2             3             4             5             6             7             8             9            10            11            12            13            14            15
#        Time
          0.5       287.935       287.287       293.463       292.729       293.558        293.78       294.677       295.063       294.846       295.753       293.748       293.909        293.96        293.17       287.496       293.909
            1       287.935       287.287       293.462       292.693       293.554       293.774       294.659       295.033       294.826       295.715       293.745       293.908       293.962       293.244       287.495       293.908
          1.5       287.931       287.282       293.466       292.686       293.553       293.773       294.659       295.033       294.821       295.714       293.743       293.902       293.961       293.253       287.493       293.902
            2       287.934       287.285       293.464       292.702       293.549       293.768       294.657       295.034       294.823       295.717       293.735       293.895       293.958       293.135       287.494       293.895
          2.5        287.93       287.282       293.471       292.775       293.554       293.773       294.658       295.033       294.821       295.715       293.742       293.901       293.959       293.246       287.494       293.901
            3       287.933       287.285       293.464       292.738       293.552       293.772       294.656       295.032       294.822       295.717       293.737       293.897       293.958       293.135       287.494       293.897
          3.5        287.93       287.282       293.465       292.671       293.553       293.772        294.66       295.033       294.822       295.715       293.741       293.901       293.955       293.211       287.493       293.901
            4       287.933       287.285       293.468       292.724        293.55       293.769       294.656       295.033       294.821       295.717       293.737       293.897       293.959       293.181       287.495       293.897
          4.5       287.931       287.283       293.467       292.789       293.552       293.773       294.658       295.033       294.824       295.715       293.742       293.902       293.961       293.184       287.492       293.902
            5       287.932       287.284       293.461       292.684       293.548       293.769       294.656       295.031       294.821       295.715        293.74       293.899       293.961        293.22       287.493       293.899
