/*--------------------------------*- C++ -*----------------------------------*\
  =========                 |
  \\      /  F ield         | OpenFOAM: The Open Source CFD Toolbox
   \\    /   O peration     | Website:  https://openfoam.org
    \\  /    A nd           | Version:  6
     \\/     M anipulation  |
\*---------------------------------------------------------------------------*/
FoamFile
{
    version     2.0;
    format      ascii;
    class       volScalarField;
    location    "2.5";
    object      O2;
}
// * * * * * * * * * * * * * * * * * * * * * * * * * * * * * * * * * * * * * //

dimensions      [0 0 0 0 0 0 0];

internalField   nonuniform List<scalar> 
297
(
0
0
0
0
0
0
0
0
0
0
0
0
0
0
0
0
0
0
0
0
0
0
0
0
0
0
0
0.0971234
0.0619324
0.135071
0.182952
0.15225
0.202109
0.0921105
0.103453
0.169951
0
7.61054e-06
0.0076931
0.0817665
0.112236
0.106388
0
1.326e-05
0.005456
0
0
0
0.0533932
0.0256563
0.0705268
0
0
0
0
1.23895e-10
0
0
0
0
0
0
0
2.11152e-17
2.98309e-16
0
1.13032e-20
7.46576e-19
1.52493e-20
3.45588e-19
1.01295e-18
6.82791e-19
1.05152e-19
3.85155e-19
6.76946e-19
1.27544e-20
4.43628e-18
1.08833e-18
4.32758e-19
8.67655e-19
7.76625e-19
0
0
0
0.0147081
6.69019e-07
0.0269744
0
0
0
0
7.99046e-10
0
0
1.28478e-08
0.009809
0
3.651e-08
0
0
0
0
0
0
0
0
0
0
1.01348e-19
1.74638e-19
2.91641e-19
2.18251e-19
8.27888e-19
1.16395e-18
9.12149e-20
2.4311e-19
2.54318e-19
1.15448e-19
1.10675e-19
2.36552e-19
6.41732e-19
7.06358e-19
1.26291e-18
1.10012e-19
2.17131e-19
2.12555e-19
4.62277e-20
2.57354e-20
1.16945e-19
5.07664e-19
6.5471e-19
1.06839e-18
3.79257e-19
4.16173e-19
5.69534e-19
8.76166e-20
2.34425e-20
2.20587e-20
9.19414e-19
1.48066e-20
7.17672e-21
5.5433e-20
2.179e-20
2.76192e-20
2.21607e-19
8.28983e-20
9.25202e-20
1.30025e-18
1.26763e-18
1.05508e-18
1.83091e-19
8.47038e-20
7.91115e-20
1.76846e-19
9.3486e-20
1.64552e-19
1.13861e-18
1.17438e-18
1.18076e-18
2.23959e-19
1.63117e-19
3.49692e-19
1.45567e-20
1.40453e-20
3.66141e-20
3.30763e-20
3.72589e-19
2.7676e-19
1.06049e-20
4.34173e-20
5.17354e-20
3.93786e-20
3.38774e-20
1.07949e-19
3.32649e-19
5.76781e-19
7.52006e-19
4.94669e-20
6.15232e-20
9.67222e-20
7.72331e-20
4.7845e-20
8.45645e-20
4.82624e-19
5.59184e-19
5.48184e-19
1.53242e-19
1.1141e-19
1.28092e-19
2.46689e-25
3.9395e-25
2.24556e-24
1.64818e-22
2.28081e-23
1.82905e-21
1.00772e-21
1.05893e-20
1.08063e-20
6.97038e-25
7.35454e-25
3.25686e-24
6.25857e-22
1.97165e-22
2.74049e-21
4.48635e-21
2.43055e-20
2.39774e-20
1.24761e-24
8.55837e-25
3.38494e-24
2.21721e-20
1.28043e-19
3.53214e-19
7.17586e-21
3.30786e-20
1.47807e-19
8.16786e-25
9.26092e-25
2.04011e-24
3.54048e-20
1.19347e-19
2.09616e-19
1.02221e-20
6.45622e-20
1.24297e-19
2.13752e-25
5.10172e-25
1.67186e-24
2.61217e-20
6.36806e-20
1.53161e-19
1.39825e-20
4.29364e-20
1.33625e-19
5.42608e-26
1.40152e-25
4.39901e-25
1.43982e-20
3.84746e-20
1.18062e-19
1.02215e-20
3.82339e-20
1.33036e-19
5.48145e-24
1.66384e-24
5.12368e-25
4.62123e-21
4.5552e-21
1.07775e-20
3.14597e-20
3.08197e-20
2.49039e-20
8.73756e-24
2.32475e-24
6.21035e-25
8.19387e-20
5.42646e-21
1.08737e-20
5.12992e-20
5.11909e-20
2.36775e-20
9.07484e-24
2.72204e-24
2.34032e-24
9.49596e-19
4.50605e-19
1.00326e-19
3.43924e-19
7.94636e-20
2.33349e-20
4.90787e-24
2.67516e-24
1.62213e-24
5.0921e-19
3.72367e-19
1.16536e-19
2.89637e-19
1.60884e-19
2.30959e-20
3.38076e-24
1.79576e-24
1.04562e-24
3.76697e-19
1.82968e-19
1.05502e-19
3.04872e-19
1.36824e-19
2.12424e-20
1.03581e-24
3.7251e-25
3.07798e-25
2.77097e-19
1.02499e-19
5.19781e-20
3.01627e-19
1.01773e-19
1.48909e-20
)
;

boundaryField
{
    fuel
    {
        type            fixedValue;
        value           uniform 0;
    }
    primary_air
    {
        type            fixedValue;
        value           uniform 0.23;
    }
    Secondary_air_RHS
    {
        type            fixedValue;
        value           uniform 0.23;
    }
    Secondary_air_LHS
    {
        type            fixedValue;
        value           uniform 0.23;
    }
    outlet
    {
        type            inletOutlet;
        inletValue      uniform 0;
        value           nonuniform List<scalar> 
18
(
0
2.77097e-19
0
0
1.02499e-19
0
0
5.19781e-20
0
0
1.43982e-20
0
0
3.84746e-20
0
0
1.18062e-19
0
)
;
    }
    stove_body
    {
        type            fixedValue;
        value           uniform 0;
    }
    frontAndBack
    {
        type            empty;
    }
}


// ************************************************************************* //
