/*--------------------------------*- C++ -*----------------------------------*\
  =========                 |
  \\      /  F ield         | OpenFOAM: The Open Source CFD Toolbox
   \\    /   O peration     | Website:  https://openfoam.org
    \\  /    A nd           | Version:  6
     \\/     M anipulation  |
\*---------------------------------------------------------------------------*/
FoamFile
{
    version     2.0;
    format      ascii;
    class       volScalarField;
    location    "2.5";
    object      p;
}
// * * * * * * * * * * * * * * * * * * * * * * * * * * * * * * * * * * * * * //

dimensions      [1 -1 -2 0 0 0 0];

internalField   nonuniform List<scalar> 
297
(
120922
120922
120922
199816
199816
199816
120922
120922
120922
120922
120922
120922
199816
199816
199816
120922
120922
120922
120922
120922
120922
199816
199816
199816
120922
120922
120922
97229
97248.1
97235.1
160584
160594
160609
97122.7
97137.7
97137.3
97229
97246.6
97233.3
160256
160376
160338
97115.7
97157.8
97167.9
97061.1
97194.5
97022
158412
159505
158374
96949
97101.4
96995.6
96525.4
96721.9
96511.1
159500
159317
159573
96414
96532.2
96283.4
96706.5
96857
96733.7
160150
159952
160103
96671.7
96655.1
96521.5
96658.6
96968.7
96798.8
160082
160065
160026
96773.5
96814.5
96582.5
95879
97189.5
95858.1
154035
158682
154182
95778.3
97003.6
95973
95695.5
97154.5
95668.4
153520
158711
153666
95588.1
96968
95807.1
95620.7
97094.3
95582.1
153884
158845
154047
95501.4
96914
95758.4
97263.4
97404.2
97377.9
160112
160098
160106
97141.7
97194
97034
97386.3
97497
97467.1
160135
160141
160209
97235.7
97260.1
97145.4
97451.9
97517.1
97497.2
160144
160181
160275
97260.3
97248.4
97185.7
97673.4
97812.3
98340.4
159931
159926
159817
97081.6
97003.4
96870.1
97396.7
97370.8
97747
159996
159863
159644
97028.4
96803.8
96516.1
97302.5
97160.9
97108.6
160033
159816
159503
97026.3
96753.8
96409
98467.9
97891.3
97680.5
160017
160047
160001
96928.1
97024.5
97090.2
97823.1
97400.6
97380.7
159809
159994
160015
96636.2
96889
97066.3
97138.3
97120.4
97270.8
159664
159905
160009
96540.7
96852.1
97073.2
98906.9
99077.9
98954.2
159779
159787
159867
98710
98114.5
97262.6
98608.9
98704.3
98430.8
159438
159442
159549
97908.1
97198.3
96649.1
98236.8
98291.3
97840.6
158863
158985
159059
96935.7
96398.1
96127.1
95802.8
95697.5
95645.9
155169
155126
154943
93168.9
93090.9
93013.3
90940.3
90875.3
90885.1
147906
147876
147825
89556.1
89534.4
89476.6
85119.2
85102.3
85082.7
136100
136001
135915
87661.2
87820.7
88008
98830.2
98916
98698.4
159677
159602
159605
97280.2
98272.6
98963
98318.2
98486.1
98344.7
159386
159255
159301
96586.9
97237.7
98087.6
97750.1
98043.9
97973
158923
158851
158842
96044.3
96394.1
97057.4
95915.9
95989.3
96063.3
155074
155302
155343
92999.8
93077.8
93155
91001.6
90999.8
91060.5
147723
147785
147815
89394.3
89457.4
89484.4
84994.3
85009.5
85024.8
135541
135630
135726
87761.1
87552.7
87391.8
)
;

boundaryField
{
    fuel
    {
        type            zeroGradient;
    }
    primary_air
    {
        type            zeroGradient;
    }
    Secondary_air_RHS
    {
        type            zeroGradient;
    }
    Secondary_air_LHS
    {
        type            zeroGradient;
    }
    outlet
    {
        type            totalPressure;
        rho             rho;
        psi             none;
        gamma           1;
        p0              uniform 100000;
        value           nonuniform List<scalar> 
18
(
87282.5
100000
99995
86979.3
100000
93812.8
87309.2
100000
88358.3
87209
100000
88462.2
86967.9
100000
93820.3
87161.5
100000
99990.3
)
;
    }
    stove_body
    {
        type            zeroGradient;
    }
    frontAndBack
    {
        type            empty;
    }
}


// ************************************************************************* //
