/*--------------------------------*- C++ -*----------------------------------*\
  =========                 |
  \\      /  F ield         | OpenFOAM: The Open Source CFD Toolbox
   \\    /   O peration     | Website:  https://openfoam.org
    \\  /    A nd           | Version:  6
     \\/     M anipulation  |
\*---------------------------------------------------------------------------*/
FoamFile
{
    version     2.0;
    format      ascii;
    class       surfaceScalarField;
    location    "2.5";
    object      phi;
}
// * * * * * * * * * * * * * * * * * * * * * * * * * * * * * * * * * * * * * //

dimensions      [1 0 -1 0 0 0 0];

internalField   nonuniform List<scalar> 
675
(
-3.99111e-06
-4.00424e-05
0.000172085
-5.02538e-06
-4.12747e-05
0.000170361
-4.0939e-05
0.000163966
1.45645e-05
4.0037e-05
0.000116977
-1.31447e-06
4.12563e-05
0.000144965
4.0911e-05
0.000128454
-3.98414e-06
0.000172073
-4.98015e-06
0.000170305
0.000163983
-4.33289e-09
-6.04079e-05
0.000232505
-9.06552e-07
-5.31625e-05
0.000224422
-5.42299e-05
0.000217283
2.83631e-05
6.02718e-05
-3.20596e-05
6.39817e-06
5.3251e-05
6.05636e-05
5.42024e-05
2.64165e-05
1.34829e-08
0.000232322
-8.13452e-07
0.000224378
0.000217366
-2.47967e-05
0.00012941
-2.09131e-07
7.18342e-05
8.90364e-05
1.33196e-05
-0.00012938
6.6046e-06
-7.17071e-05
-8.90582e-05
-2.49401e-05
-2.69299e-07
-0.000338025
0.00702023
-0.00356622
0.0053476
0.00663951
-0.00913855
0.00741635
0.0011117
-0.000959864
-0.005138
0.0182713
-0.00118569
-0.00465305
0.0167737
-0.00676284
0.0182536
0.00227431
-0.004271
0.00388045
-0.00309296
0.000303213
0.00620193
0.00918473
-0.0189414
0.00177188
0.00849905
-0.0132158
0.0103179
-0.00742025
0.00280628
-0.00732194
0.0319361
0.00213929
-0.00519652
0.0311102
-0.00907746
0.0398095
0.00901446
-0.0205912
0.00400844
-0.00330176
-0.00474206
-0.00325468
0.0236948
-0.039369
-0.00500313
0.0127728
-0.0242322
0.0236787
-0.0361633
-0.0464167
-0.0225103
0.124553
0.0421753
-0.013629
-0.0310993
-0.024405
0.130056
-0.00248146
-0.0406035
-0.003022
-0.0164836
-0.032255
-0.00735673
-0.0146885
-0.0272832
0.0493843
0.00523274
0.00426327
-0.0436507
0.0269068
-0.015503
-0.0261924
0.0469239
0.00841306
0.0174387
0.0558754
-0.096331
-0.0156487
-0.00115214
-0.011028
0.0405336
0.00999609
0.061847
-0.102987
-0.00278398
-0.0305152
0.0508041
0.0158971
-0.0404307
0.0205876
-0.0174408
0.0433348
-0.00161049
-0.00785584
-0.0176784
-0.00414649
-0.00847799
-0.0326568
-0.0103338
-0.0199988
0.0163034
0.0102896
0.0216355
-0.0113357
0.00744863
0.000894784
0.00708233
0.033177
0.00482444
-0.0248994
0.000240187
-0.0283405
-0.0101004
0.00759267
-0.00690949
-0.0182139
-0.00330596
-0.000992072
-0.0208432
-0.00548018
-0.0178495
0.00186548
0.00235646
0.0107401
0.00831527
0.00258211
-0.00902487
0.00983167
0.0261024
-0.00677209
-0.0155748
-0.0145351
-0.0179354
-0.0148457
4.8752e-05
-0.00245705
-0.042214
-0.00026122
-0.000846303
-0.0230714
-0.00235746
-0.0393248
-0.00352806
0.00257264
0.114613
0.00310062
0.00029046
-0.0388695
0.00236048
0.119988
0.000140426
-0.0434182
-3.83209e-05
-0.0160119
-0.0351993
-0.000346309
-0.00110998
-0.0460005
0.000234301
3.09504e-05
-0.023667
-0.000997621
-0.0433388
-0.00185066
0.00114946
0.105794
0.00133205
-0.000197213
-0.0418327
0.000443284
0.111457
-0.000210301
-0.0472945
0.000598286
-0.0170268
-0.0394134
-0.000363066
-0.00149146
0.000186894
0.00268034
-0.00146898
-0.00204849
0.00158994
0.00153272
-0.00218501
8.97011e-05
-0.000131705
0.0012413
0.00650925
-0.00390193
-0.00561964
-0.0151904
-0.00421036
-0.00029139
-0.00984569
-0.00322697
-0.00434397
-0.0145015
-0.00257723
0.00205328
-2.93763e-06
0.00742674
-0.0002384
0.0012917
-0.0129883
0.00313514
0.0137598
0.00570788
0.00380609
-0.00418136
-0.013121
-0.0069649
-0.00587377
-0.00360951
-0.0151107
0.00726679
0.000267326
0.000280711
-0.0134212
-0.00395326
0.00224454
-0.000881992
0.000374645
0.00294908
-0.0116236
0.000523358
-0.00184405
-0.00332637
0.00493593
-0.00141483
-0.00101714
-0.00782823
-0.000422787
0.00542926
0.00770103
0.00296531
0.00183507
-0.0108032
-0.00723815
0.00329835
0.00107508
-0.0123814
0.00148405
0.00322961
-0.00442028
-0.00334802
0.00394057
0.00287013
-0.00326446
-0.0021703
-0.00307268
0.00516506
-0.00340858
-0.00268283
-0.0023296
0.00718268
-0.000724407
-0.000496583
-0.000124125
-0.0014191
-0.0140581
-0.00217937
0.00173715
-0.0151807
0.000914099
0.000209483
0.00267868
-0.00647564
-0.0113879
-0.00122186
0.00127913
0.00349366
-0.00262176
0.00203139
0.000268319
0.00178229
0.00229632
-0.00404049
-0.0158982
0.00204643
-0.0161708
0.00228651
0.00242837
-0.0168333
-0.0112598
-0.00145893
0.00283522
-0.012393
0.00112974
0.000214563
7.41863e-05
-0.008933
-0.0100119
0.00766869
0.00123552
0.000814901
0.00671229
0.00011238
0.00221974
0.000435001
0.00732191
0.00129353
-0.0121553
0.00305255
-0.0120417
0.00226454
0.00238362
-0.0115829
-0.000818179
0.000391627
-0.0015341
0.00093012
-0.00135616
-0.00911423
0.0085992
-0.000227434
0.0119026
-0.00017288
0.00108824
0.0167567
0.00138821
0.00346038
0.00690751
0.0157212
0.00258101
-0.00702288
-0.0112698
0.0148403
0.000272199
0.000613078
-0.00244324
0.00209137
-0.0012803
0.00153112
0.0051012
-0.00275631
-0.00510442
0.00154569
0.00254268
0.000544722
-0.00064372
0.0147137
0.00228758
-0.0154659
0.0142198
0.00204291
0.00165018
0.0134369
-0.000106783
-0.00934888
-0.0109993
0.0126438
0.00131585
9.47187e-05
-0.00160322
0.00292182
-0.00386893
0.000983651
0.008037
-0.000148673
-0.0032196
0.00050531
0.00271063
0.000409267
-0.000931832
0.0109808
0.00285309
-0.010559
0.0112798
0.00225456
0.00254349
0.00270715
-0.00177856
-0.0102778
0.00182749
0.000980129
0.000334883
-0.00918869
0.000990916
0.0144586
-0.00515403
-0.000337159
-0.000578023
-0.00340052
0.0072478
-0.00147687
-0.0037867
0.00270292
0.00108508
0.0041224
0.00278289
-0.0106895
0.00235768
-0.00949977
0.000298561
-0.00138676
0.00379034
0.00140918
0.00029125
0.00138012
-0.000691438
0.00170252
0.0105747
-0.0119609
0.0165046
-0.0056379
0.000349251
-0.00188053
0.00214595
0.000818902
0.00629167
0.00251885
-0.0213785
0.00166892
-0.0158697
0.000887249
-0.00114909
0.00619747
0.00248483
0.000329701
0.00197173
-0.000652746
0.00635994
0.00766122
-0.0207726
0.0120222
-0.00966953
0.00116084
-0.00414714
0.00127865
0.00368476
0.0102404
0.00634055
-0.0421047
0.00193796
-0.0178358
-0.00343745
-0.00347103
0.0143829
-0.00651141
0.000673405
0.0107114
0.00132504
0.0149169
0.00881899
-0.0330633
0.00299549
-0.00317376
0.0127295
0.0172166
0.0105411
-0.0240813
-0.00452519
0.0154074
-0.035779
0.0142213
-0.036588
-0.00619319
-0.00198203
0.0330805
-0.00692044
0.00402949
0.022787
0.00236116
0.0198457
0.00964134
-0.0447011
0.0146272
-0.00414953
0.0297038
0.00807737
0.00616817
-0.0383317
0.00497941
0.00685449
-0.0395427
0.0072619
-0.0388797
0.0134697
-0.00447672
0.0302347
0.014086
-0.00300969
0.0320103
0.00133122
0.0398501
-0.00449154
-0.0447009
0.00198139
-0.0136474
0.0330038
0.000960044
0.0145876
-3.0585e-05
0.0157302
0.0150528
0.00554744
-0.0241996
0.0055122
-0.0225345
-0.0212988
-0.0176627
-0.0146664
-0.00396526
0.00232831
-0.00975245
0.00406933
0.00275858
-0.0107921
0.00267056
0.00139271
-0.00224476
-0.000642594
0.00115855
-0.00145139
0.000308138
0.00163934
-0.00149926
0.00269917
-0.0177442
0.000255235
-0.0113333
-0.00611666
-0.0128462
-0.00544619
0.00154752
-0.0158645
0.00170765
0.0021445
-0.0200846
0.00212679
0.00097165
-0.00181595
-0.000618943
0.00643359
-0.00205998
0.000423024
0.00358732
-0.00122023
0.00396729
-0.0128656
0.000907142
-0.00834967
-0.0102207
-0.0224272
-0.00760042
0.00115543
-0.0185344
0.0029969
0.00418071
-0.0348514
0.00135737
0.0026081
0.0095474
0.00129901
0.0134911
0.00400133
0.000795851
0.0125276
-0.00371859
0.0130241
-0.00347691
0.0125773
-0.00941807
-0.00349384
-0.0355767
0.00217397
0.0152142
-0.0360032
-0.0145289
0.0162311
-0.0344891
0.0117276
-0.0237262
0.00608282
0.00272565
0.0197586
0.00764008
0.00425359
0.0228122
-0.0014222
0.0336553
-0.0150498
0.0303
-0.00857471
-0.00576318
-0.0456186
-0.00483036
0.00763851
-0.0388123
-0.00769049
0.0076798
-0.0393116
0.00674868
-0.0381648
-0.0141229
0.00143336
0.040025
-0.0124729
-0.00302875
0.0318068
-0.00357585
0.0314506
-0.00183744
0.0335079
0.00462097
-0.0153213
-0.0446563
-1.19469e-05
0.0149403
-0.000899658
0.0158233
0.0146317
-0.00545306
-0.0208754
-0.00544622
-0.0221892
-0.0236676
0.0151863
0.0168878
)
;

boundaryField
{
    fuel
    {
        type            calculated;
        value           nonuniform List<scalar> 
36
(
0.00012805
0.000211594
0.00012805
0.00012805
0.000211594
0.00012805
0.00012805
0.000211594
0.00012805
-0.00012805
-0.000211594
-0.00012805
-0.00012805
-0.000211594
-0.00012805
-0.00012805
-0.000211593
-0.00012805
0
0
0
0
0
0
0
0
0
0
0
0
0
0
0
0
0
0
)
;
    }
    primary_air
    {
        type            calculated;
        value           nonuniform List<scalar> 9(-0.00319727 -0.00528062 -0.00319378 -0.0031979 -0.00528096 -0.00319427 -0.00319747 -0.00528147 -0.00319426);
    }
    Secondary_air_RHS
    {
        type            calculated;
        value           nonuniform List<scalar> 9(0.00525365 0.00845017 0.00525995 0.00524325 0.00842192 0.00525086 0.00523852 0.0084428 0.00524819);
    }
    Secondary_air_LHS
    {
        type            calculated;
        value           nonuniform List<scalar> 9(0.0052548 0.0084421 0.00524927 0.00524474 0.00841389 0.00523885 0.00524064 0.00843383 0.0052341);
    }
    outlet
    {
        type            calculated;
        value           nonuniform List<scalar> 
18
(
-0.0537693
0.0812653
-0.00257906
-0.0542758
0.0697839
-0.0392408
-0.0537238
0.0642849
-0.0514616
-0.0538738
0.0634701
-0.0512373
-0.0542758
0.0703127
-0.0391787
-0.0539552
0.081716
-0.00296717
)
;
    }
    stove_body
    {
        type            calculated;
        value           uniform 0;
    }
    frontAndBack
    {
        type            empty;
        value           nonuniform 0();
    }
}


// ************************************************************************* //
