/*--------------------------------*- C++ -*----------------------------------*\
  =========                 |
  \\      /  F ield         | OpenFOAM: The Open Source CFD Toolbox
   \\    /   O peration     | Website:  https://openfoam.org
    \\  /    A nd           | Version:  6
     \\/     M anipulation  |
\*---------------------------------------------------------------------------*/
FoamFile
{
    version     2.0;
    format      ascii;
    class       volScalarField;
    location    "0.5";
    object      O2;
}
// * * * * * * * * * * * * * * * * * * * * * * * * * * * * * * * * * * * * * //

dimensions      [0 0 0 0 0 0 0];

internalField   nonuniform List<scalar> 
297
(
0
0
0
0
0
0
0
0
0
0
0
0
0
0
0
0
0
0
0
0
0
0
0
0
0
0
0
0.141986
0.0889396
0.102155
0.208232
0.165953
0.188243
0.157745
0.0858826
0.0697421
0
9.97663e-06
0
0.103818
0.123437
0.0789763
0.020032
8.79102e-06
0
0
3.1364e-08
0
0.0689239
0.0284262
0.0486704
0
0
0
0
0
0
0
0
0
4.56037e-05
3.50193e-10
0
1.66041e-13
3.40663e-15
1.06063e-19
3.89078e-12
1.33987e-13
3.71219e-19
1.83562e-10
7.36158e-12
5.94445e-14
1.47194e-14
4.70081e-16
2.40562e-18
4.77746e-13
4.20888e-15
6.52982e-18
6.25708e-15
1.51088e-14
3.22413e-19
0
0
0
0.0241932
1.51841e-05
0.0109458
0
0
0
0
0
0
0.00425296
2.53737e-05
0
0
5.02367e-09
0
0
0
0
0
0
0
0
0
0
4.60207e-16
2.17545e-17
1.90833e-20
1.53163e-14
1.73397e-16
2.43799e-18
1.8534e-16
9.22725e-18
1.31795e-19
2.65319e-18
1.53338e-18
3.75939e-21
1.02165e-15
1.30531e-17
7.01468e-21
3.51874e-18
1.3721e-18
8.68511e-19
2.56783e-19
7.62643e-19
3.50987e-19
1.68341e-17
3.00803e-19
3.03022e-20
2.15923e-19
9.8918e-19
1.1221e-19
6.23732e-22
8.31009e-22
1.15487e-21
3.70832e-20
9.15317e-22
4.20959e-21
1.00299e-21
1.39521e-25
1.87686e-25
5.25854e-22
8.87468e-22
9.21287e-22
7.16041e-22
5.01939e-23
8.86533e-22
5.99913e-23
1.83279e-25
8.50455e-25
1.73901e-19
1.431e-19
7.33256e-20
4.57081e-21
3.84865e-22
1.62953e-22
1.34936e-23
6.72322e-23
5.2476e-24
5.26457e-24
8.21248e-23
1.20564e-17
2.39867e-24
2.31901e-21
4.3734e-16
2.0653e-23
2.54441e-21
1.11304e-16
2.33536e-23
1.76516e-23
1.78856e-18
5.24302e-20
2.87224e-18
7.30052e-17
1.85563e-22
1.0452e-21
1.40052e-17
2.46396e-22
3.92254e-23
6.79812e-20
1.67021e-20
1.61456e-19
1.63423e-18
1.97822e-20
1.41351e-19
1.01699e-18
8.83496e-29
9.90662e-29
6.01116e-28
4.47417e-25
2.6791e-24
6.5394e-24
1.79621e-24
2.06753e-23
2.275e-23
6.31854e-28
1.24377e-28
6.92897e-28
3.74394e-24
8.39775e-24
1.91307e-23
7.63523e-24
4.19959e-23
4.81889e-23
2.63111e-28
1.22039e-28
1.91194e-27
9.48496e-24
3.65756e-23
9.69615e-22
1.19862e-23
5.00737e-23
4.01126e-21
1.58057e-28
1.58171e-28
2.17131e-28
8.83278e-24
5.46005e-24
2.61581e-23
1.59974e-23
1.08266e-22
2.57131e-22
1.28072e-28
1.88865e-28
2.97593e-28
1.1072e-23
1.57323e-23
8.26249e-24
1.74495e-23
9.07231e-23
1.05255e-22
5.55735e-29
1.07572e-28
1.86258e-28
8.45992e-24
2.71917e-23
4.61052e-23
7.16809e-24
4.69625e-23
1.198e-22
9.01225e-22
9.16403e-22
9.37655e-22
2.41666e-22
2.23833e-22
3.72423e-22
1.33228e-26
1.03129e-26
1.48533e-26
9.19638e-22
9.46521e-22
9.94805e-22
2.55212e-22
2.24098e-22
3.79518e-22
1.19179e-26
8.6824e-27
1.83068e-26
5.26374e-20
9.55128e-22
1.01403e-21
9.79944e-23
8.0125e-23
5.06333e-22
1.40704e-26
8.2501e-27
1.66965e-26
2.3722e-20
1.64284e-21
1.07459e-21
2.75048e-23
2.81018e-23
2.09875e-22
1.84938e-26
8.13896e-27
8.02763e-27
1.7937e-20
3.83618e-21
1.11518e-21
5.05688e-23
2.05494e-22
2.16106e-22
1.96331e-26
7.34361e-27
3.1388e-27
1.57377e-20
4.28858e-21
9.34015e-22
4.12352e-21
1.35434e-21
3.94624e-22
2.1669e-26
7.12073e-27
2.13565e-27
)
;

boundaryField
{
    fuel
    {
        type            fixedValue;
        value           uniform 0;
    }
    primary_air
    {
        type            fixedValue;
        value           uniform 0.23;
    }
    Secondary_air_RHS
    {
        type            fixedValue;
        value           uniform 0.23;
    }
    Secondary_air_LHS
    {
        type            fixedValue;
        value           uniform 0.23;
    }
    outlet
    {
        type            inletOutlet;
        inletValue      uniform 0;
        value           nonuniform List<scalar> 
18
(
0
4.12352e-21
0
0
1.35434e-21
0
0
3.94624e-22
0
0
8.45992e-24
0
0
2.71917e-23
0
0
4.61052e-23
0
)
;
    }
    stove_body
    {
        type            fixedValue;
        value           uniform 0;
    }
    frontAndBack
    {
        type            empty;
    }
}


// ************************************************************************* //
