/*--------------------------------*- C++ -*----------------------------------*\
  =========                 |
  \\      /  F ield         | OpenFOAM: The Open Source CFD Toolbox
   \\    /   O peration     | Website:  https://openfoam.org
    \\  /    A nd           | Version:  6
     \\/     M anipulation  |
\*---------------------------------------------------------------------------*/
FoamFile
{
    version     2.0;
    format      ascii;
    class       volScalarField;
    location    "0.5";
    object      p;
}
// * * * * * * * * * * * * * * * * * * * * * * * * * * * * * * * * * * * * * //

dimensions      [1 -1 -2 0 0 0 0];

internalField   nonuniform List<scalar> 
297
(
123584
123584
123584
205100
205100
205100
123584
123584
123584
123584
123584
123584
205100
205100
205100
123584
123584
123584
123584
123584
123584
205099
205099
205099
123584
123584
123584
97002.5
97006.7
96977.2
160804
160785
160777
97029.7
97022.2
97009.1
97040.9
97038.3
97017.4
160548
160587
160467
97011.7
97019.2
97049.3
96885.9
97010.5
96913.6
158716
159713
158367
96830.7
97009.3
96924.1
95852.7
96162
95958.6
158918
159129
159400
95932
96162.6
95858.8
96285.1
96467.3
96442.6
160186
160085
160319
96490.9
96527.7
96361.9
96570.5
96797.7
96682.8
160398
160411
160393
96705.8
96793.9
96515.9
95305.6
96831.5
94727.4
154408
158437
152767
95134.6
96826.4
95106.2
95090.1
96779.8
94410
153870
158396
152118
94904.5
96771.5
94857.3
95036.9
96706.6
94297.9
154022
158486
152588
94822.7
96695.2
94832.5
97123
97252.1
97128
160545
160470
160398
97192.3
97276.3
97057.6
97189.8
97317.6
97248.7
160621
160519
160426
97320.6
97344.6
97146.2
97230.4
97309.3
97287.1
160659
160551
160446
97354.6
97332.1
97214.2
97031.7
96936.2
96835.2
160304
160274
160153
97536.2
97724.4
98383.6
96973.9
96702.1
96395.9
160298
160210
159917
97193.6
97187.3
97646.6
96967.2
96635.9
96264.9
160287
160150
159799
97096
96929.4
96835.2
98266
97629.5
97471.8
160170
160310
160400
96843.1
96940
97042.5
97602.3
97136.2
97149.8
160001
160197
160404
96429.8
96728.5
97002.4
96882.2
96928.9
97064.1
159854
160183
160407
96298
96662.7
96997.9
98687
98898.1
98792.5
159974
159984
160051
99320.8
98477
97328.5
98306.8
98409.3
98191.2
159631
159583
159709
98309.3
97284.8
96539
97894.3
97909.3
97547.8
159064
159123
159222
97161.8
96390.5
95973.3
95428.9
95356.3
95319.3
155026
155002
154799
92811.1
92772.3
92694.8
90312.6
90240.9
90239.7
147199
147176
147128
88979.5
88947.2
88851.8
84234.8
84221.2
84207.6
135191
135103
135002
86651
86798.6
86966
97348.2
98550.2
99427.8
160007
159931
159933
98912.2
99014.1
98777.2
96517
97301.8
98374.3
159626
159513
159563
98257.9
98480
98358.8
95933.9
96379.1
97190.1
159111
159007
158935
97555.4
97928
97903.2
92577
92655.3
92698.5
154570
154747
154762
95136.5
95173
95253.2
88665.8
88767.4
88801.5
146770
146822
146846
90029.9
90031.1
90105.1
86667.9
86487.8
86337.2
134512
134612
134702
83919.7
83934.3
83950
)
;

boundaryField
{
    fuel
    {
        type            zeroGradient;
    }
    primary_air
    {
        type            zeroGradient;
    }
    Secondary_air_RHS
    {
        type            zeroGradient;
    }
    Secondary_air_LHS
    {
        type            zeroGradient;
    }
    outlet
    {
        type            totalPressure;
        rho             rho;
        psi             none;
        gamma           1;
        p0              uniform 100000;
        value           nonuniform List<scalar> 
18
(
99997
100000
86512.2
93368.6
100000
86380.7
87760.4
100000
86520
86743.9
100000
88039.4
86567.9
100000
93606.8
86675.6
100000
99998.9
)
;
    }
    stove_body
    {
        type            zeroGradient;
    }
    frontAndBack
    {
        type            empty;
    }
}


// ************************************************************************* //
