/*--------------------------------*- C++ -*----------------------------------*\
  =========                 |
  \\      /  F ield         | OpenFOAM: The Open Source CFD Toolbox
   \\    /   O peration     | Website:  https://openfoam.org
    \\  /    A nd           | Version:  6
     \\/     M anipulation  |
\*---------------------------------------------------------------------------*/
FoamFile
{
    version     2.0;
    format      ascii;
    class       surfaceScalarField;
    location    "0.5";
    object      phi;
}
// * * * * * * * * * * * * * * * * * * * * * * * * * * * * * * * * * * * * * //

dimensions      [1 0 -1 0 0 0 0];

internalField   nonuniform List<scalar> 
675
(
-5.00238e-08
8.4373e-06
0.000135396
-2.65286e-07
8.25189e-06
0.000135332
8.43883e-06
0.000135027
-9.4545e-06
-8.43305e-06
0.000216208
1.09567e-05
-8.2501e-06
0.000186921
-8.43958e-06
0.000217748
-6.80233e-08
0.000135399
-2.81655e-07
0.000135327
0.000135027
-3.89473e-06
4.24928e-06
0.000147908
3.26366e-06
1.08383e-05
0.000129744
4.99637e-06
0.000146085
-6.06022e-06
-4.25105e-06
0.000203519
1.10939e-05
-1.08372e-05
0.000165183
-5.0042e-06
0.000211655
-3.91113e-06
0.000147899
3.24351e-06
0.000129744
0.000146082
-1.76202e-05
4.70631e-05
1.6889e-05
-2.58751e-05
4.44312e-05
5.92845e-05
-4.70603e-05
-6.24522e-05
2.58824e-05
-4.44335e-05
-1.76461e-05
1.68784e-05
-0.00343795
0.00788947
-0.000379481
-0.000749578
0.00620957
-0.00494761
0.00680788
-0.00371062
0.00274351
-0.00840602
0.0178089
0.000129652
-0.00566251
0.0190155
-0.00528355
0.0169017
-0.00662297
0.00233121
-0.00562376
-0.00277169
-0.00709279
-0.00484688
0.0101076
-0.00543724
-0.00876326
0.00749973
-0.00826027
0.00905108
-0.0212984
-0.00280595
-0.00979821
0.039887
-0.00379114
-0.00635507
0.0333033
-0.00874474
0.030402
-0.00660744
-0.000606962
-0.00927584
-0.00615793
-0.0248019
0.00224534
0.0265686
-0.034174
0.00178677
0.0160299
-0.0236737
0.0271552
-0.0463784
-0.0454044
-0.0255677
0.136661
0.0475798
-0.0153287
-0.0295829
-0.0280718
0.132617
0.00531482
-0.0312976
0.00630938
-0.0222544
-0.0461412
-0.0163677
-0.0102601
-0.0193988
0.0462331
0.00451607
-0.00237345
-0.0461554
0.0276544
-0.021848
-0.0314198
0.0581331
0.002378
0.0175172
0.0760883
-0.106186
-0.015315
0.00174894
-0.0291568
0.0418301
0.0119589
0.0534939
-0.103311
-0.00275513
-0.0231605
0.0438853
0.0192373
-0.046948
0.0269097
-0.0261816
0.0576353
0.000505189
-0.00864622
-0.0112491
-0.00543609
-0.00850675
-0.0308502
-0.0105255
-0.026153
0.0121595
0.0150551
0.0399341
-0.0185728
0.00758608
-0.0148678
0.00815526
0.0155899
0.0114776
-0.0193725
0.0026514
-0.0304195
-0.0151517
0.0159195
-0.0110732
-0.0157104
0.00600122
-0.000542798
-0.0200808
-0.00210568
-0.0179415
0.00492234
0.00465185
0.01889
0.000929104
-0.00294711
-0.009417
0.0090614
0.00475718
0.00326296
-0.017795
-0.00980656
-0.0196213
-0.0158315
6.57163e-05
-0.00257438
-0.0375746
0.00034365
-0.000375373
-0.0235612
-0.0021463
-0.0497578
-0.00340285
0.00211794
0.125553
0.00352591
0.000322709
-0.0372695
0.00244008
0.122036
0.000225502
-0.0353285
0.000399081
-0.0220838
-0.0491928
-0.000720305
-0.000820181
-0.0419315
0.000581924
0.000199284
-0.0250399
-0.000963558
-0.0540614
-0.00212411
0.00129912
0.115786
0.00159842
-0.000152213
-0.0407081
0.000575091
0.11262
-0.000213745
-0.0397234
0.000979045
-0.0234073
-0.0535163
-0.00127873
-0.000309726
0.000411
0.000959622
-0.00135817
-0.00211377
0.0016454
0.00147513
-0.00157753
-7.67852e-05
-0.000105753
0.00183463
0.00662064
-0.00385268
-0.00290775
-0.0153479
-0.00533058
-0.00108037
-0.00701239
-0.00144497
-0.004865
-0.0168156
0.00202556
0.00107599
0.00987723
0.00190224
0.00250615
0.000732757
-0.0120789
0.00356507
-0.00266285
0.00468114
0.00517693
-0.00498946
-0.0167482
-0.0067836
-0.00683408
-0.00343663
-0.0153889
0.0083302
-0.000298445
0.00146193
-0.012265
-0.0023288
0.00148529
0.00226375
0.00274248
0.00338046
-0.0132425
0.00274756
-0.00201857
0.00432502
0.00431424
-0.000345719
-0.00162382
-0.00598514
-0.00042955
-0.00272333
0.00257216
0.00130494
0.00399571
-0.0121697
-0.00947389
0.00243135
0.000308348
-0.0135411
0.00257729
0.002334
-0.00330742
0.00192211
0.00303991
0.00350397
0.00189756
0.00298549
-0.00310324
0.00654146
0.00307056
-0.00336245
-0.00310469
0.00661128
-0.000945773
0.00198464
-0.00175606
-0.00444937
-0.0179841
-0.000444281
0.00164462
-0.0182102
-0.00188443
0.0021437
-0.0015366
0.00203035
-0.0186622
0.000736074
0.00264423
0.000751031
-0.00317441
-0.000182453
0.00208443
-0.00294828
0.0041191
-0.00597
-0.0149932
0.00229614
-0.0161404
0.00102054
-0.00726096
-0.0117656
-0.0136489
-0.000413406
0.00249536
-0.0132032
0.000177559
0.00155671
-0.000163775
0.00158846
-0.0125552
0.000456026
0.00170906
0.000632458
0.000713512
-0.00121757
0.00309667
-0.000188807
0.00716406
-0.00239951
-0.0124527
0.00297165
-0.0131597
0.000570538
-0.0100476
-0.0105008
0.00447564
-5.15856e-05
0.00647351
-0.000408616
-0.00143276
0.00953481
0.0072655
-0.000188023
0.0105581
-0.000697799
0.00148065
0.0147613
-0.00161423
-0.00168456
-0.0101932
0.0161477
0.00292517
-0.00722852
-0.0117793
0.014878
0.000935544
0.000395705
-0.00221284
0.00183056
0.00467408
0.00156883
0.00286202
-0.00627052
0.00285335
0.00191346
0.000803664
0.000201115
0.00229941
0.0178356
0.00200501
-0.0182208
0.0178858
0.00191787
0.0013513
0.0126912
0.000156153
-0.0100513
-0.00995781
0.0116723
0.00105211
0.000430218
-0.00154717
0.00281446
-0.00287196
0.000252522
0.00741846
-0.001662
-0.00387838
-7.86278e-05
0.00277796
0.000427071
0.000632113
0.0127348
0.0017765
-0.0122061
0.0129698
0.00165631
0.00261143
0.00123328
-0.00145251
-0.00975734
0.000838703
0.000896467
0.000400332
-0.0110588
0.0013456
0.0157817
-0.0075268
7.22237e-05
-2.85522e-05
-0.00638938
0.00955994
-0.00461824
-0.00451565
0.00296087
0.00160015
0.00402852
0.00296031
-0.0114546
0.0026004
-0.0103032
0.00304412
-0.00208066
0.00191836
0.00417841
-0.000286339
0.00204664
-0.00101839
0.00146604
0.012206
-0.014245
0.018994
-0.00703351
-0.000206854
-0.00195129
0.00232708
0.00126231
0.00518608
0.00198559
-0.0205404
0.00157155
-0.0166008
0.00370348
-0.00164183
0.00210373
0.00377456
7.93346e-05
0.00381398
-0.0008675
0.0059496
0.00911214
-0.0249666
0.0134394
-0.011243
0.000197331
-0.00368344
0.00164045
0.00333757
0.00788748
0.00508379
-0.0371515
0.00202077
-0.0204443
-0.00297906
-0.00442597
0.0110372
-0.0080203
0.000426391
0.0133784
0.00123041
0.0143796
0.00981657
-0.0391768
0.00177929
-0.00274269
0.012794
0.0162108
0.0122443
-0.0249
-0.00122732
0.0164779
-0.0360046
0.0160323
-0.0375135
-0.0100796
-0.00129856
0.0342283
-0.00725566
0.00391187
0.0226634
0.00291105
0.019701
0.00633754
-0.0466745
0.0155907
-0.00790132
0.0314921
0.00761881
0.00704288
-0.0393118
0.00511754
0.00720698
-0.0404619
0.00781291
-0.0399629
0.0112375
-0.00235354
0.0322443
0.0129339
-0.00345183
0.0314548
0.000694487
0.0393909
-0.00404816
-0.044638
0.00249251
-0.0175909
0.0348893
0.000774989
0.0146689
2.55141e-05
0.015332
0.0149348
0.00500463
-0.0230286
0.00475455
-0.022478
-0.0212159
-0.0154648
-0.0156416
-0.01941
0.00105766
-0.000273929
-0.0124353
0.000324654
-0.00726088
0.00208114
-0.0144775
-0.00419505
-0.00260536
0.00182907
-0.00303697
-0.0028843
0.00199392
-0.00287516
0.00186999
-0.00409285
-0.0102294
0.00455434
-0.0114861
0.00172419
-0.0138009
0.000882109
0.000123892
-0.00935553
-6.33406e-05
-0.0116082
0.00168615
-0.0254881
-0.00412041
-0.00166948
0.00604318
-0.00354782
-0.00231122
0.00360865
-0.00231542
0.00227038
-0.00544046
-0.0169211
0.00211071
-0.021316
0.00155825
-0.00203667
-0.00125022
0.0129791
-0.0100302
-0.000421646
-0.00315891
0.00461141
-0.0401054
0.00651669
-0.00209915
0.0150591
0.00203509
-0.00536896
0.0129711
-0.00164343
0.0105037
-0.00776608
-0.021416
0.00376
-0.0381788
0.00370655
-0.0157976
-0.00297409
0.0319778
-0.00566613
-0.00380958
-0.00925486
0.00176361
-0.0472666
0.00772327
-0.0161081
0.0201424
0.0100645
-0.016565
0.02303
-0.0122562
0.0342297
0.00131019
-0.0386957
-0.0166562
-0.0365904
-0.0250174
-0.00248657
-0.000581052
0.0352902
0.00403274
0.0033332
-0.0188623
0.00218024
-0.0451645
-0.0126441
-0.0077005
0.0397083
-0.011072
-0.00706123
0.031673
-0.00707008
0.0322486
-0.00552222
-0.0406471
-0.0079425
-0.0409289
-0.0397255
0.0161381
0.0214599
0.015331
0.0225009
0.0228827
-0.00486638
-0.0146987
-0.00498194
-0.0151326
-0.01456
-0.000182327
-0.000866566
)
;

boundaryField
{
    fuel
    {
        type            calculated;
        value           nonuniform List<scalar> 
36
(
0.000130869
0.000217188
0.000130869
0.000130869
0.000217187
0.000130869
0.000130868
0.000217188
0.000130869
-0.000130868
-0.000217189
-0.000130868
-0.000130868
-0.000217189
-0.000130868
-0.000130868
-0.000217189
-0.000130868
0
0
0
0
0
0
0
0
0
0
0
0
0
0
0
0
0
0
)
;
    }
    primary_air
    {
        type            calculated;
        value           nonuniform List<scalar> 9(-0.00318982 -0.00528788 -0.00319072 -0.00318996 -0.00528723 -0.00319047 -0.00318899 -0.005287 -0.00319004);
    }
    Secondary_air_RHS
    {
        type            calculated;
        value           nonuniform List<scalar> 9(0.0058839 0.00948903 0.00590742 0.00586417 0.0094487 0.00589196 0.0058572 0.00947791 0.00589042);
    }
    Secondary_air_LHS
    {
        type            calculated;
        value           nonuniform List<scalar> 9(0.00591966 0.0095905 0.00590908 0.00590622 0.00955699 0.00589478 0.00590293 0.00956649 0.00588974);
    }
    outlet
    {
        type            calculated;
        value           nonuniform List<scalar> 
18
(
-0.00216054
0.0805321
-0.0550474
-0.040432
0.0692498
-0.0552602
-0.0525962
0.0645302
-0.0550353
-0.054642
0.0647275
-0.0520703
-0.0549298
0.0693507
-0.0397524
-0.054754
0.0802537
-0.00179506
)
;
    }
    stove_body
    {
        type            calculated;
        value           uniform 0;
    }
    frontAndBack
    {
        type            empty;
        value           nonuniform 0();
    }
}


// ************************************************************************* //
