/*--------------------------------*- C++ -*----------------------------------*\
  =========                 |
  \\      /  F ield         | OpenFOAM: The Open Source CFD Toolbox
   \\    /   O peration     | Website:  https://openfoam.org
    \\  /    A nd           | Version:  6
     \\/     M anipulation  |
\*---------------------------------------------------------------------------*/
FoamFile
{
    version     2.0;
    format      ascii;
    class       volScalarField;
    location    "0.5";
    object      Qdot;
}
// * * * * * * * * * * * * * * * * * * * * * * * * * * * * * * * * * * * * * //

dimensions      [1 -1 -3 0 0 0 0];

internalField   nonuniform List<scalar> 
297
(
0
3.89938e-05
3.89938e-05
0.000129416
7.79875e-05
0
3.89938e-05
6.47078e-05
2.5714e-05
3.89938e-05
0.000103702
6.47078e-05
5.1428e-05
7.79875e-05
7.79875e-05
6.47078e-05
3.89938e-05
3.89938e-05
5.18507e-05
1.62034e-06
1.28568e-05
6.47078e-05
-7.50908e-10
6.47074e-05
1.28569e-05
0
1.2857e-05
-3.75454e-10
-7.23313e-10
-3.47859e-10
-7.50908e-10
-7.50908e-10
-7.50908e-10
-3.75454e-10
-3.75454e-10
0
0
0
-3.75454e-10
-7.50908e-10
0
-7.50908e-10
0
1.68427e-15
-3.75454e-10
0
-7.50908e-10
0
-7.23313e-10
-7.3711e-10
2.7595e-11
0
0
0
-3.75454e-10
-7.50908e-10
-7.50908e-10
0
-7.50908e-10
0
0
0
0
-3.75454e-10
7.84298e-25
-7.50908e-10
-7.50908e-10
-7.50908e-10
-7.50908e-10
0
1.60624e-21
-7.50908e-10
3.13719e-24
-7.50908e-10
7.65916e-28
-7.50908e-10
-7.50908e-10
3.06366e-27
1.5686e-24
0
9.57395e-29
-3.75454e-10
0
-3.75454e-10
1.37975e-11
-7.50901e-10
-7.50908e-10
-3.75454e-10
0
-3.75454e-10
-3.75454e-10
0
0
0
1.34741e-14
0
-3.75454e-10
-7.50908e-10
0
-3.75454e-10
-7.50908e-10
0
0
0
-7.50908e-10
0
0
0
9.80373e-26
-7.50908e-10
0
-7.50908e-10
-7.50908e-10
-7.50908e-10
-7.50908e-10
0
0
-7.50908e-10
-7.50908e-10
-7.50908e-10
-7.50908e-10
0
2.99186e-30
-7.50908e-10
3.82958e-28
0
-7.50908e-10
-7.50908e-10
-7.50908e-10
-7.50908e-10
0
-7.50908e-10
-7.50908e-10
0
-7.50908e-10
1.86991e-31
0
-7.50908e-10
-7.50908e-10
-7.50908e-10
0
0
0
-7.50908e-10
0
0
-7.50908e-10
-1.50182e-09
-7.50908e-10
3.73983e-31
-7.50908e-10
4.56522e-35
1.82609e-34
-7.50908e-10
-7.50908e-10
2.39349e-29
2.99186e-30
-7.50908e-10
0
-7.50908e-10
-7.50908e-10
-7.50908e-10
-7.50908e-10
0
3.06366e-27
0
-1.50182e-09
1.96075e-25
-7.50908e-10
7.47965e-31
-7.50908e-10
5.84348e-33
-7.50908e-10
3.82958e-28
-7.50908e-10
1.53183e-27
-7.50908e-10
-7.50908e-10
-7.50908e-10
-7.50908e-10
-7.50908e-10
1.1687e-32
2.39349e-29
-7.50908e-10
-7.50908e-10
-7.50908e-10
5.98372e-30
0
0
2.22911e-38
4.45822e-38
1.78329e-37
1.82609e-34
0
-1.50182e-09
-7.50908e-10
0
5.84348e-33
1.78329e-37
0
0
2.92174e-33
0
1.1687e-32
-7.50908e-10
1.1687e-32
0
0
0
3.56658e-37
-1.50182e-09
-1.50182e-09
3.73983e-31
-7.50908e-10
0
-7.50908e-10
0
-7.50908e-10
-7.50908e-10
-7.50908e-10
-1.50182e-09
1.1687e-32
-7.50908e-10
0
9.34956e-32
0
4.45822e-38
0
-7.50908e-10
-7.50908e-10
2.92174e-33
-7.50908e-10
-7.50908e-10
0
-7.50908e-10
4.45822e-38
4.45822e-38
-1.50182e-09
-7.50908e-10
0
2.92174e-33
-7.50908e-10
-7.50908e-10
3.73983e-31
3.73983e-31
-7.50908e-10
1.86991e-31
9.34956e-32
0
-7.50908e-10
2.85326e-36
0
0
3.73983e-31
0
0
0
-1.50182e-09
-7.50908e-10
-7.50908e-10
5.70652e-36
-7.50908e-10
-7.50908e-10
0
-7.50908e-10
-7.50908e-10
0
0
-7.50908e-10
0
5.98372e-30
-7.50908e-10
0
-7.50908e-10
1.1687e-32
9.34956e-32
-7.50908e-10
0
0
0
0
-7.50908e-10
2.33739e-32
-7.50908e-10
-7.50908e-10
-7.50908e-10
-7.50908e-10
-7.50908e-10
0
-7.50908e-10
0
-7.50908e-10
-7.50908e-10
-7.50908e-10
0
2.85326e-36
-7.50908e-10
)
;

boundaryField
{
    fuel
    {
        type            calculated;
        value           uniform 0;
    }
    primary_air
    {
        type            calculated;
        value           uniform 0;
    }
    Secondary_air_RHS
    {
        type            calculated;
        value           uniform 0;
    }
    Secondary_air_LHS
    {
        type            calculated;
        value           uniform 0;
    }
    outlet
    {
        type            calculated;
        value           uniform 0;
    }
    stove_body
    {
        type            calculated;
        value           uniform 0;
    }
    frontAndBack
    {
        type            empty;
    }
}


// ************************************************************************* //
