/*--------------------------------*- C++ -*----------------------------------*\
  =========                 |
  \\      /  F ield         | OpenFOAM: The Open Source CFD Toolbox
   \\    /   O peration     | Website:  https://openfoam.org
    \\  /    A nd           | Version:  6
     \\/     M anipulation  |
\*---------------------------------------------------------------------------*/
FoamFile
{
    version     2.0;
    format      ascii;
    class       volScalarField;
    location    "0.5";
    object      T;
}
// * * * * * * * * * * * * * * * * * * * * * * * * * * * * * * * * * * * * * //

dimensions      [0 0 0 1 0 0 0];

internalField   nonuniform List<scalar> 
297
(
291.771
291.776
291.771
293.185
293.19
293.185
291.771
291.776
291.771
292.443
293.532
292.44
293.774
294.665
293.781
292.443
293.532
292.441
330.83
452.469
330.922
335.653
467.49
332.88
330.876
452.431
330.974
326.669
344.264
349.051
303.336
317.255
309.872
320.918
349.977
359.55
399.855
375.275
394.205
340.775
336.039
360.604
376.175
377.929
388.55
422.016
355.186
394.567
367.639
367.819
368.322
430.431
362.92
389.142
378.305
347.562
365.354
410.401
395.469
400.943
380.617
345.36
364.095
386.227
343.01
334.157
410.333
388.477
400.885
364.067
342.61
363.447
356.333
334.686
321.835
410.063
356.627
398.859
329.525
320.946
348.236
421.87
348.673
395.045
390.874
393.243
380.453
430.969
347.072
391.891
403.73
347.672
379.05
394.985
392.956
389.011
410.68
345.594
376.007
389.485
347.555
374.306
408.155
392.987
397.96
394.768
345.502
371.386
324.683
317.272
305.83
409.873
344.378
360.448
306.391
311.464
316.298
316.708
313.566
302.448
397.562
331.484
307.719
304.958
306.179
306.05
313.577
313.755
306.68
344.093
323.58
310.479
305.291
306.108
305.647
303.245
301.826
300.275
360.592
316.167
304.787
311.64
303.197
303.701
302.249
301.322
301.048
319.098
314.293
305.341
306.256
303.553
304.174
304.793
304.173
304.023
310.679
311.075
308.728
305.458
303.931
304.24
303.794
303.296
307.483
304.505
303.107
343.614
299.853
300.137
300.625
305.282
304.859
313.263
316.293
367.164
384.592
302.007
302.084
304.78
307.298
306.883
312.403
338.779
348.313
345.206
309.233
305.437
305.559
303.703
303.593
303.068
303.139
304.21
304.077
299.413
300.583
299.723
303.931
303.417
302.75
303.097
304.314
304.25
298.983
302.167
301.951
304.26
303.003
302.16
305.936
313.664
324.528
298.716
303.201
309.863
302.331
301.906
301.307
303.687
309.791
315.424
298.563
301.822
304.287
298.983
298.735
297.743
300.737
307.028
309.853
295.036
295.703
300.686
292.031
291.915
291.226
292.404
291.233
290.291
291.199
291.974
303.883
300.147
301.069
300.889
304.577
304.743
304.158
303.8
303.926
304.168
301.21
301.43
300.241
304.71
304.852
304.288
303.646
303.497
304.328
303.852
301.876
299.483
307.121
305.989
304.422
303.085
303.026
304.564
299.663
298.772
296.925
306.384
305.343
302.022
302.592
302.721
302.752
295.556
294.505
294.911
302.786
303.222
300.259
295.083
297.715
298.536
299.068
290.563
291.026
286.155
289.767
292.13
291.331
291.966
292.031
)
;

boundaryField
{
    fuel
    {
        type            fixedValue;
        value           uniform 293;
    }
    primary_air
    {
        type            fixedValue;
        value           uniform 293;
    }
    Secondary_air_RHS
    {
        type            fixedValue;
        value           uniform 293;
    }
    Secondary_air_LHS
    {
        type            fixedValue;
        value           uniform 293;
    }
    outlet
    {
        type            inletOutlet;
        inletValue      uniform 293;
        value           nonuniform List<scalar> 
18
(
293
286.15
293
293
289.758
293
293
292.122
293
293
292.396
293
293
291.225
293
293
290.272
293
)
;
    }
    stove_body
    {
        type            fixedValue;
        value           uniform 293;
    }
    frontAndBack
    {
        type            empty;
    }
}


// ************************************************************************* //
