/*--------------------------------*- C++ -*----------------------------------*\
  =========                 |
  \\      /  F ield         | OpenFOAM: The Open Source CFD Toolbox
   \\    /   O peration     | Website:  https://openfoam.org
    \\  /    A nd           | Version:  6
     \\/     M anipulation  |
\*---------------------------------------------------------------------------*/
FoamFile
{
    version     2.0;
    format      ascii;
    class       surfaceScalarField;
    location    "2.5";
    object      phi;
}
// * * * * * * * * * * * * * * * * * * * * * * * * * * * * * * * * * * * * * //

dimensions      [1 0 -1 0 0 0 0];

internalField   nonuniform List<scalar> 
675
(
1.27065e-05
-4.36846e-05
0.000155064
-1.2715e-05
2.05121e-06
0.000147457
-4.36812e-05
0.000155052
-1.98286e-05
4.36861e-05
0.000139165
1.98376e-05
-2.05102e-06
0.000171147
4.36805e-05
0.000139183
1.27073e-05
0.000155065
-1.27146e-05
0.000147458
0.000155052
7.64295e-06
-6.12378e-05
0.000208675
-7.65158e-06
4.92563e-07
0.000162277
-6.12235e-05
0.00020864
-3.78624e-05
6.12397e-05
5.45188e-05
3.78755e-05
-4.92097e-07
9.63664e-05
6.12226e-05
5.45814e-05
7.64371e-06
0.000208677
-7.65126e-06
0.000162278
0.000208639
2.3904e-06
8.22319e-05
-2.50019e-06
4.31158e-05
8.20872e-05
1.21957e-05
-8.22306e-05
-1.19715e-05
-4.31183e-05
-8.20884e-05
2.3935e-06
-2.49809e-06
0.00432541
0.00301857
-0.00412038
0.00447451
0.00245086
0.000616426
0.00444693
0.00323952
0.00886245
-0.0028413
0.00234977
0.00426777
-0.00214809
0.0145386
-0.00376354
0.017818
0.00427084
-0.00388905
0.00446667
0.000872083
0.003915
0.00500542
0.00611729
-0.0152439
-0.00917472
-0.000458376
0.0152534
0.00513835
-0.0110755
0.00228599
-0.00599873
0.0121781
0.0045229
0.000591072
0.011248
-0.00485643
0.0323285
0.0049132
-0.0148017
-0.00904591
0.0154207
-0.00998943
0.000330881
0.0139406
-0.0295166
-0.00370389
-0.00559805
0.0248847
0.01507
-0.0298508
-0.0372598
-0.0139368
0.0773127
0.0224848
0.00549889
-0.0595988
-0.0154818
0.0853605
0.000337355
-0.0290771
-0.00415287
0.0254081
-0.0296261
-0.0191009
-0.0172167
-0.0106281
0.0469444
0.0152413
0.0081119
-0.0226004
-0.0198562
-0.0158386
-0.0192581
0.0503357
-0.00199404
0.0174235
0.0161506
-0.0487981
-0.00697107
-0.00736214
-0.056983
0.0774285
0.0150864
0.014855
-0.0527535
-0.0187967
-0.0101645
0.0463834
0.014996
-0.0207086
-0.0204488
-0.0205332
0.0506129
0.0036703
-0.00854134
-0.00575815
-0.00408872
0.00615795
-0.0210022
-0.00670229
-0.0166483
0.000837522
0.00940347
-0.00263309
-0.0208071
-0.00538172
-0.0238035
0.00313567
-0.0157932
0.00475816
-0.00552045
-0.00193792
-0.019398
-0.0193426
0.0114855
-0.00213424
-0.0151155
0.000618687
0.00238064
-0.0125162
-0.00410793
-0.0119212
0.00589782
0.0100686
-0.0207433
0.000846566
0.001068
-0.0174433
-0.00304055
-0.0160181
0.019106
-0.0145627
0.0128384
-0.0120695
-0.00955038
-0.000859557
-0.000578365
-0.0353621
0.000578603
-0.000503178
0.0239496
-0.000676863
-0.036403
-0.00340069
0.000593553
0.0675541
0.00158808
0.000501816
-0.0655929
0.000605514
0.0727477
-0.000863035
-0.0348883
0.000556872
0.0244899
-0.0363062
-0.00115491
-0.00018266
-0.0412692
0.00110241
-0.000447185
0.0221394
0.000156722
-0.0432441
-0.00277712
0.000210594
0.058079
0.00252321
0.000446332
-0.071787
-0.000255417
0.0628546
-0.00115263
-0.0407526
0.00106477
0.0227187
-0.0433239
-0.00186226
0.000186641
0.00112766
-0.000706855
0.000377959
-0.00235457
-0.000169226
0.00186658
0.000713149
-0.000513279
-0.00187277
0.00111021
0.00303242
-0.000749268
-0.00616706
-0.0112325
-0.00616826
-0.000398098
-0.00291811
-0.0009517
-0.00614882
-0.0109901
0.00479966
0.00125346
-0.013198
-0.0143485
-0.0044453
0.000653283
-0.00925068
0.000599751
-0.010577
-0.0114394
0.00696952
-0.00830157
-0.0119781
-0.00126541
-0.00318227
-0.00248054
-0.00773696
0.00121887
0.000708485
-0.000518061
-0.00757704
-0.00419728
0.00113288
0.00136413
1.61331e-05
-0.00224352
-0.00812023
0.00179261
0.000131028
-0.00482947
-0.00958426
-0.00286787
-2.98639e-05
-0.00342812
-2.97371e-05
-0.00492832
-0.00847239
0.00128984
-0.00148123
-0.0079799
-0.00332398
0.00140047
-0.000449781
-0.00538652
-0.000837917
0.00121694
-0.000897753
-0.000711078
0.001236
0.000496764
-0.00345322
0.000858177
-0.0005323
-0.00393883
-0.000866815
-0.000467245
-7.37846e-05
-0.00522617
-0.000186452
-0.00182768
0.000745399
0.000220112
-0.0101251
-0.000176181
-0.000689098
-0.0102249
0.00121324
-0.0011122
0.00150572
-0.00335349
-0.00837922
-0.0111067
0.000127197
-0.000636215
-0.00923444
-0.00110184
0.00044327
-0.00113476
0.00105541
-0.00764879
-0.00691498
-0.00069471
-0.00692223
-0.00109454
-0.00418293
-0.00387439
-0.00819245
-0.000203795
-0.000414137
-0.00800827
0.000564475
-0.00186134
0.000573519
-0.00401055
-0.00792572
-0.00940192
-2.43011e-05
0.000113852
-0.00836605
-0.000493354
0.000465267
-2.90199e-06
0.00108046
-0.00781433
-0.00574871
-0.000356827
-0.00606189
-0.0012745
-0.00517981
-0.0050676
-0.00372272
-0.000146162
-0.00485584
-0.000728553
-0.000899416
-0.00796353
-0.00523117
-2.72126e-05
-0.00555048
5.58337e-05
0.000801866
-0.00617027
-0.000163676
-0.00138158
-0.00575766
0.0101279
0.00141635
-0.00427807
-0.00726595
0.0101752
0.00137877
-0.00142607
-6.04827e-05
-0.000996942
0.0113023
-0.00139585
0.00113546
-0.00962574
0.0136524
-0.0013966
0.000425055
0.000181014
-0.00093773
0.0106962
-0.0044647
-0.00762822
0.0106737
-0.00137484
-0.00112421
0.00778863
0.000273788
-0.00501939
-0.00732097
0.00801776
0.000686217
-0.00234138
5.64905e-05
-0.00061277
0.00938022
-0.00020702
0.00137358
-0.00913766
0.0108315
-0.000652763
0.00031256
0.000152176
0.000213633
0.00827107
-0.00525567
-0.00768796
0.00852419
-0.00228154
-0.000428554
0.00373029
-0.000947104
-0.00780244
0.00180094
-0.000411987
0.000290398
0.00420465
0.00102156
-0.00479984
0.00343061
0.000674432
-4.41015e-06
0.00386938
-0.00810365
0.00226143
-0.00166277
0.00146659
0.000196668
0.00208625
0.00158711
-0.00533565
0.00109614
-0.00627547
-0.00105494
-0.00152937
0.00405086
0.00498478
-0.0016668
-0.00278575
-0.00118665
-0.0023582
-0.00168081
0.000150935
0.00227404
-0.00562274
-0.00654192
-0.000701436
0.0014839
-0.000585392
0.00422024
0.00139358
-0.0116505
0.000748966
-0.0101249
1.7989e-05
-0.00152265
0.0070395
0.00515631
-0.00146069
-0.00506968
-0.000826277
-0.00476436
-0.000659863
-0.0007122
0.00450856
-0.0122525
-0.0105484
-0.00306729
0.00136655
0.0011156
0.0065345
0.00363417
-0.0248861
0.00159497
-0.0129876
-0.000255056
-0.00138643
0.0100476
0.00447604
-0.00380286
-0.0023637
-0.00160273
-0.00189045
-0.00314081
0.00104161
0.00689025
-0.0260872
-0.013365
0.0100146
0.00850622
-0.0174084
-0.00164667
0.010224
-0.023452
0.0102132
-0.0248505
-0.00214151
-0.00835792
0.0290525
-0.00413798
-0.0101387
0.0199943
-0.00997279
0.014156
0.0103624
-0.0176763
-0.00187446
-0.0239871
-0.0252109
0.0038046
0.00719044
-0.0284074
0.00353035
0.00663976
-0.0298215
0.00724489
-0.028569
0.00589736
-0.00695005
0.0372911
0.00388935
-0.00640796
0.0350454
-0.00702328
0.0323088
0.00391406
-0.0285423
0.00347383
-0.0299569
-0.0287624
0.00053895
0.0192647
-0.000244978
0.0192279
0.019428
0.00324676
-0.0191677
0.00273026
-0.0191307
-0.0193244
0.000555878
-0.000209986
-0.00568267
0.00131212
-0.00400985
-0.00345831
0.00127768
-0.00350075
0.00137587
-0.00483443
-0.00469977
-0.000867096
-0.000769892
-0.00267731
-0.000996443
0.000251892
-0.000953359
-0.00034745
-0.000107845
-0.00463477
0.00127752
-0.00238321
0.000323375
-0.00531517
0.000850392
-0.00747387
-0.00266094
0.00115528
-0.00731261
0.00132679
-0.0088266
-0.0052104
-0.000351633
-0.00217105
-0.00222371
-0.000631121
-0.000947171
-0.000892865
-0.000350525
-0.0024911
-0.00756388
0.000243146
-0.00574971
-0.000326899
-0.00415362
0.00128551
-0.0125748
-0.00321334
0.00202335
-0.0102828
0.00270051
-0.0147471
-0.00562175
-0.00120063
-0.000231602
-0.00254405
-0.00175374
-0.000246253
-0.00116016
0.000966551
-0.00127518
-0.0132472
0.000515408
-0.00929483
-0.000972088
0.00120376
0.00835936
-0.0222187
0.0038029
0.00882679
-0.0217783
0.0101662
-0.0211377
0.00139511
-0.0105728
0.0173271
0.000631769
-0.00998961
0.0193443
-0.00951661
0.0212753
-0.00391717
-0.0199046
-0.00422215
-0.0189782
-0.0147104
-0.000911031
0.00611779
-0.0274197
-0.000608918
0.00568723
-0.0277643
0.00575103
-0.0274996
-0.000989222
-0.0085066
0.0329456
-0.00157022
-0.00829753
0.0339138
-0.00876215
0.0342205
-0.00202247
-0.0263912
-0.00228608
-0.0270148
-0.0257615
8.12737e-05
0.0196989
-7.36858e-05
0.0196286
0.0196635
-0.000765676
-0.0203152
-0.000873747
-0.0202273
-0.0203602
-7.14888e-06
-0.00054384
)
;

boundaryField
{
    fuel
    {
        type            calculated;
        value           nonuniform List<scalar> 
36
(
0.000124069
0.000206738
0.000124069
0.000124069
0.000206738
0.000124069
0.000124069
0.000206738
0.000124069
-0.000124069
-0.000206738
-0.000124069
-0.000124069
-0.000206738
-0.000124069
-0.000124069
-0.000206738
-0.000124069
0
0
0
0
0
0
0
0
0
0
0
0
0
0
0
0
0
0
)
;
    }
    primary_air
    {
        type            calculated;
        value           nonuniform List<scalar> 9(-0.00322527 -0.00535921 -0.00322469 -0.00321911 -0.00535573 -0.0032186 -0.00321826 -0.00535777 -0.00321772);
    }
    Secondary_air_RHS
    {
        type            calculated;
        value           nonuniform List<scalar> 9(0.00780757 0.0129182 0.00784246 0.00778665 0.0128283 0.00782695 0.00784123 0.0128589 0.00788586);
    }
    Secondary_air_LHS
    {
        type            calculated;
        value           nonuniform List<scalar> 9(0.00728329 0.0119871 0.00726773 0.00724469 0.0118588 0.00722747 0.00735073 0.0119913 0.00733432);
    }
    outlet
    {
        type            calculated;
        value           nonuniform List<scalar> 
18
(
-0.0471888
0.0737362
-0.046691
-0.0472267
0.073888
-0.0466974
-0.0472257
0.0733804
-0.0466576
-0.0482143
0.0724707
-0.0482706
-0.0482688
0.0739145
-0.0483264
-0.0482453
0.0737854
-0.0483016
)
;
    }
    stove_body
    {
        type            calculated;
        value           uniform 0;
    }
    frontAndBack
    {
        type            empty;
        value           nonuniform 0();
    }
}


// ************************************************************************* //
