/*--------------------------------*- C++ -*----------------------------------*\
  =========                 |
  \\      /  F ield         | OpenFOAM: The Open Source CFD Toolbox
   \\    /   O peration     | Website:  https://openfoam.org
    \\  /    A nd           | Version:  6
     \\/     M anipulation  |
\*---------------------------------------------------------------------------*/
FoamFile
{
    version     2.0;
    format      ascii;
    class       volVectorField;
    location    "2.5";
    object      U;
}
// * * * * * * * * * * * * * * * * * * * * * * * * * * * * * * * * * * * * * //

dimensions      [0 1 -1 0 0 0 0];

internalField   nonuniform List<vector> 
297
(
(12.7303 0.0198233 0.284967)
(12.7308 -2.46849e-05 0.253896)
(12.7303 -0.019838 0.284935)
(-4.68856e-10 -0.0280007 0.25146)
(-4.73895e-10 1.25583e-05 0.247086)
(-4.47929e-10 0.0280086 0.251448)
(-12.7304 0.0198251 0.284969)
(-12.7308 -2.10757e-05 0.253896)
(-12.7302 -0.0198372 0.284934)
(12.7301 0.0127586 0.298664)
(12.7317 -1.25196e-05 0.26944)
(12.7301 -0.0127819 0.298643)
(-4.94665e-10 -0.0851422 -0.00128224)
(-4.7901e-10 3.51299e-05 0.203631)
(-4.28409e-10 0.0851665 -0.000849974)
(-12.7302 0.0127604 0.298667)
(-12.7317 -8.93109e-06 0.269441)
(-12.73 -0.0127813 0.298641)
(12.7269 0.0238917 0.491263)
(12.7327 -0.000383674 0.431197)
(12.7269 -0.0240754 0.49122)
(-3.49809e-10 0.00774408 0.267627)
(-4.34129e-10 -0.0001357 0.084076)
(-2.74908e-10 -0.00724916 0.267331)
(-12.727 0.0238976 0.491272)
(-12.7324 -0.000361611 0.431191)
(-12.7267 -0.0240741 0.491213)
(81.0917 -12.8441 -14.8231)
(60.5776 16.0862 4.89395)
(25.9067 17.0979 12.7875)
(-0.00157598 0.00668395 6.04019)
(-0.000891754 5.50619 6.80652)
(-0.0005703 9.04997 11.7002)
(-81.4826 -13.3392 -14.882)
(-60.0696 15.7622 3.84141)
(-25.9394 17.0975 11.7807)
(133.091 -71.684 47.4521)
(89.3144 11.0372 85.8362)
(67.2273 -21.5268 79.8663)
(-0.00393264 -33.3208 215.456)
(-0.00126726 18.4245 136.246)
(-0.00202298 -7.38522 119.522)
(-136.851 -76.3887 52.6246)
(-86.6961 11.7151 89.3836)
(-61.7749 -18.9609 82.6051)
(130.279 -165.36 -8.96162)
(80.992 35.4254 183.27)
(75.5861 -8.69921 -21.7286)
(0.0104042 -79.9771 279.849)
(0.00129911 -18.6131 -9.87049)
(-0.00031778 17.0688 163.152)
(-133.866 -172.083 -0.871995)
(-80.2381 36.185 182.462)
(-71.8903 -12.5978 -17.2474)
(83.3194 -73.6771 -251.429)
(45.727 -5.3701 -29.3463)
(47.0836 18.6789 -136.232)
(-0.0168988 -172.367 -0.136657)
(-0.00349806 15.6481 -125.418)
(0.0186168 -10.7328 46.5385)
(-85.4666 -76.0786 -254.41)
(-47.9321 -6.62255 -28.2582)
(-44.6503 20.339 -121.819)
(73.7041 2.38652 -182.107)
(19.5579 9.05455 -78.9493)
(19.7022 -32.7861 -88.2902)
(-0.00809894 -67.6658 -139.516)
(-0.000808382 -9.59418 -73.2459)
(0.00650715 -16.9697 -80.6433)
(-77.111 -7.58481 -180.792)
(-23.0474 16.005 -84.6696)
(-14.0631 -19.7836 -72.6548)
(8.64472 20.8685 -15.0173)
(8.6368 4.38041 -12.0561)
(8.62601 -15.5423 -17.4553)
(-0.00120915 13.0047 -11.1499)
(-0.00067692 1.9348 -16.4492)
(0.00180624 -10.2057 -15.9156)
(-8.65021 18.4891 -13.983)
(-8.6415 12.9614 -12.1746)
(-8.62685 -3.33499 -14.841)
(113.651 -176.634 -522.065)
(67.4909 21.8796 182.181)
(70.7762 -0.208012 -285.365)
(-0.0465964 -121.462 406.487)
(-0.00139923 -20.9393 -139.809)
(0.0567624 7.90012 239.903)
(-116.496 -184.753 -529.824)
(-65.8989 21.7813 181.677)
(-67.3639 -3.22041 -270.437)
(101.771 -114.429 -450.299)
(70.0021 14.0842 175.722)
(57.1442 10.6252 -235.515)
(-0.0532714 -120.913 458.907)
(-0.0019184 -7.14447 -143.973)
(0.076972 9.22596 264.363)
(-104.383 -119.445 -457.877)
(-68.3712 13.4006 175.329)
(-54.041 9.81593 -220.468)
(92.7737 -118.566 -391.698)
(69.5815 -8.14079 160.534)
(53.4062 8.21406 -209.263)
(-0.0583902 -180.699 509.835)
(-0.00248112 -0.588871 -139.395)
(0.0938238 -1.42148 312.184)
(-95.2642 -123.147 -397.581)
(-67.9128 -10.8683 161.197)
(-50.7455 7.53243 -194.175)
(8.61162 29.4319 -9.56013)
(8.61692 -8.99862 -7.61043)
(8.59749 -28.4365 -6.93637)
(-0.00125832 20.2721 -8.8689)
(-0.00104723 -1.03129 -6.3886)
(-0.00035283 -16.8313 -6.70162)
(-8.61341 30.7003 -10.214)
(-8.62587 11.6978 -7.30525)
(-8.60027 -21.891 -5.51007)
(8.63719 17.4019 -0.468635)
(8.62846 -7.33554 0.28216)
(8.61826 -18.74 -2.83559)
(-0.000840969 9.2995 -2.20367)
(-0.00102089 -1.9207 -3.29504)
(-0.000994328 -9.98793 -1.92803)
(-8.63944 16.4719 -1.33368)
(-8.62577 -6.95755 -0.158005)
(-8.61899 -15.1886 -0.539485)
(8.63334 -4.45596 -3.96635)
(8.62376 -1.5154 0.133651)
(8.62473 -1.28326 -4.03852)
(-0.00081753 1.71624 -4.76112)
(-0.000972503 0.636971 -1.94812)
(-0.000984149 -4.28587 -3.89973)
(-8.64484 -0.719311 -5.69513)
(-8.62883 -2.57575 1.14765)
(-8.62984 1.88899 0.544732)
(8.59451 -30.0018 -3.53643)
(8.61495 -27.8942 -5.66418)
(8.60747 -25.0896 -7.41342)
(-0.000887717 -19.0902 -3.80873)
(-0.000472879 -17.2665 -4.03521)
(-0.000514761 -13.8796 -4.0384)
(-8.59779 -21.9594 -4.88067)
(-8.60992 -17.1721 -7.3071)
(-8.59912 -11.6944 -9.15523)
(8.60809 -23.7531 -1.04591)
(8.62225 -24.6378 -6.00266)
(8.60191 -22.1166 -10.6646)
(-0.000714898 -15.4645 1.40078)
(-0.000121727 -15.5787 1.62093)
(-0.0002913 -13.1911 1.84103)
(-8.61467 -16.9841 -2.15224)
(-8.61639 -16.8993 -5.60158)
(-8.58916 -14.0173 -11.9751)
(8.62835 -10.0473 -4.11023)
(8.62547 -15.7585 -10.8291)
(8.59874 -19.0764 -14.6631)
(0.000148536 -9.06999 0.614567)
(0.0010699 -9.27718 1.22819)
(0.000797221 -10.5036 0.176303)
(-8.62627 3.16886 4.36812)
(-8.61888 -2.68956 -3.14341)
(-8.5933 -12.8965 -14.7015)
(8.6112 22.0763 -11.9306)
(8.62636 27.2496 -8.84035)
(8.60926 31.3321 -6.24492)
(0.000174376 17.1531 -6.18243)
(-0.00032142 22.114 -5.8941)
(-0.00058148 24.1897 -5.21127)
(-8.61136 23.1375 -12.5002)
(-8.62876 28.6646 -9.54973)
(-8.6093 33.2478 -6.78184)
(8.6092 21.1192 -11.1904)
(8.63656 24.1675 -5.01146)
(8.63066 23.1897 -0.390092)
(-0.000197406 15.0406 1.21541)
(-0.000571128 18.3957 1.99528)
(-0.000655481 18.1607 2.0166)
(-8.61013 22.2058 -11.8207)
(-8.64029 25.6576 -5.47253)
(-8.62881 24.7727 -0.184104)
(8.61213 18.2263 -17.0809)
(8.64039 12.6502 -12.7703)
(8.64558 1.19098 -4.40883)
(-0.000560472 9.41791 0.53384)
(-0.000668653 7.70001 1.14947)
(-0.000749945 5.80515 0.422354)
(-8.61496 19.1828 -17.6834)
(-8.64417 13.0948 -12.2604)
(-8.64999 3.31596 -3.82933)
(8.61869 -3.93899 -6.7164)
(8.61824 2.03316 -16.4247)
(8.60353 12.8176 -20.1895)
(0.000693377 -2.94021 0.430493)
(0.000760458 3.32736 -7.51014)
(0.000592092 10.5835 -8.2987)
(-8.62197 -3.83126 -7.21574)
(-8.61813 2.43186 -17.1918)
(-8.60412 13.4433 -21.1931)
(8.61701 0.910916 4.77648)
(8.61643 4.12465 -19.1757)
(8.60387 14.5 -21.4214)
(0.000630067 -1.11283 9.88928)
(0.000659568 4.20714 -5.45045)
(0.000336501 10.2713 -4.55914)
(-8.61701 1.45379 4.97979)
(-8.61601 4.4518 -20.3058)
(-8.60525 15.0356 -22.5254)
(8.60963 1.57729 -0.44157)
(8.65359 3.33982 -21.8507)
(8.62585 10.8443 -26.9786)
(0.000558872 -1.32102 13.5861)
(0.000599308 4.18822 -8.71935)
(0.000125501 6.44962 -6.24023)
(-8.60923 1.87666 -1.15571)
(-8.65501 3.709 -22.928)
(-8.62648 11.0331 -27.9903)
(8.61087 3.52455 -2.93477)
(8.6226 2.93968 -30.4427)
(8.61865 -9.97243 -46.1663)
(-0.000333909 1.28283 46.1994)
(-0.000416432 2.68828 26.6997)
(-0.000483787 -12.0369 16.608)
(-8.61411 3.81946 -3.35831)
(-8.62543 2.57579 -31.983)
(-8.62107 -10.0275 -46.8206)
(8.52674 0.618092 -99.0622)
(8.52178 -0.0998463 -104.992)
(8.52981 5.8542 -99.3023)
(-0.00056286 1.29644 71.469)
(-0.000577047 1.88439 62.4413)
(-0.000534542 0.270164 55.2638)
(-8.52694 0.516173 -99.5746)
(-8.52386 -0.00729627 -105.606)
(-8.53098 5.8974 -100.24)
(8.20069 0.110119 -139.585)
(8.19664 0.0722331 -139.786)
(8.1962 -0.0494684 -139.7)
(-0.000557039 0.780378 183.984)
(-0.000561608 1.1774 187.537)
(-0.00056965 0.332665 187.299)
(-8.20252 0.114734 -139.79)
(-8.19851 0.0842853 -139.996)
(-8.19808 -0.0422795 -139.904)
(8.59945 -16.7492 -10.7788)
(8.5932 -11.3341 -9.50769)
(8.593 -8.11094 -12.6673)
(-0.00319067 -10.0457 -4.60513)
(-0.00677379 -5.03802 -3.19215)
(-0.0084477 -1.86674 -3.98838)
(-8.59593 -6.68948 -13.0397)
(-8.60346 -1.27032 -8.07621)
(-8.60796 7.63891 -3.60036)
(8.59503 -16.4745 -17.2779)
(8.59478 -9.44135 -14.5754)
(8.59582 -4.8632 -18.0897)
(-0.00243745 -10.558 -0.769974)
(-0.00546714 -5.4285 1.93696)
(-0.00727767 -0.750435 1.48701)
(-8.58658 -10.1416 -16.659)
(-8.59615 -7.46848 -9.79621)
(-8.60506 6.89434 0.656828)
(8.61486 -12.1734 -21.9047)
(8.61252 -7.63877 -18.7687)
(8.61944 -2.99718 -20.3617)
(-0.00139439 -9.47972 -2.07351)
(-0.0036696 -7.07531 -1.43334)
(-0.00574283 -1.21695 0.0644313)
(-8.60768 -7.09313 -22.3845)
(-8.6099 -8.51521 -12.7944)
(-8.60223 1.44747 4.62456)
(8.61151 8.96897 -35.7147)
(8.60637 1.31858 -32.6969)
(8.60751 1.94752 -31.4989)
(0.00326296 7.43179 24.4991)
(0.00256786 -1.71494 27.7608)
(0.0021546 -1.23404 31.8528)
(-8.59392 5.34845 -25.9569)
(-8.58845 -2.36048 -18.0599)
(-8.58315 -2.78283 -0.22425)
(8.52859 -3.70531 -96.1659)
(8.52996 0.435208 -97.3276)
(8.52634 -0.243464 -96.0211)
(0.00625384 0.882205 58.0738)
(0.00680463 -0.871609 60.601)
(0.00735842 -0.600515 62.4792)
(-8.50722 -2.79159 -92.65)
(-8.50065 -0.177754 -95.5679)
(-8.50378 -0.130806 -90.1155)
(8.19495 0.0208708 -135.904)
(8.1951 -0.00105307 -136.042)
(8.19636 -0.0144987 -136.038)
(0.0034826 0.223873 186.707)
(0.0035134 -0.467462 186.993)
(0.00362338 -0.243279 185.78)
(-8.18302 -0.00983332 -134.126)
(-8.18284 -0.130061 -134.149)
(-8.1839 -0.115738 -134.007)
)
;

boundaryField
{
    fuel
    {
        type            fixedValue;
        value           uniform (0 0 0.25);
    }
    primary_air
    {
        type            fixedValue;
        value           uniform (0 0 2.5);
    }
    Secondary_air_RHS
    {
        type            fixedValue;
        value           uniform (0 66.6667 0);
    }
    Secondary_air_LHS
    {
        type            fixedValue;
        value           uniform (0 -66.6667 0);
    }
    outlet
    {
        type            pressureInletOutletVelocity;
        value           nonuniform List<vector> 
18
(
(0 0 -135.904)
(0.0034826 0.223873 186.707)
(0 0 -134.126)
(0 0 -136.042)
(0.0035134 -0.467462 186.993)
(0 0 -134.149)
(0 0 -136.038)
(0.00362338 -0.243279 185.78)
(0 0 -134.007)
(0 0 -139.585)
(-0.000557039 0.780378 183.984)
(0 0 -139.79)
(0 0 -139.786)
(-0.000561608 1.1774 187.537)
(0 0 -139.996)
(0 0 -139.7)
(-0.00056965 0.332665 187.299)
(0 0 -139.904)
)
;
    }
    stove_body
    {
        type            noSlip;
    }
    frontAndBack
    {
        type            empty;
    }
}


// ************************************************************************* //
