/*--------------------------------*- C++ -*----------------------------------*\
  =========                 |
  \\      /  F ield         | OpenFOAM: The Open Source CFD Toolbox
   \\    /   O peration     | Website:  https://openfoam.org
    \\  /    A nd           | Version:  6
     \\/     M anipulation  |
\*---------------------------------------------------------------------------*/
FoamFile
{
    version     2.0;
    format      ascii;
    class       volScalarField;
    location    "0.5";
    object      O2;
}
// * * * * * * * * * * * * * * * * * * * * * * * * * * * * * * * * * * * * * //

dimensions      [0 0 0 0 0 0 0];

internalField   nonuniform List<scalar> 
297
(
0
0
0
0
0
0
0
0
0
0
0
0
0
0
0
0
0
0
0
0
0
0
0
0
0
0
0
0.0544206
0.0690231
0.139785
0.150959
0.159215
0.202629
0.0582257
0.0722729
0.140783
0
7.61672e-06
0.0200398
0.0675008
0.116581
0.100467
0
7.59006e-06
0.016463
0
0
0
0.0446661
0.0270186
0.0717041
0
0
0
0
4.85284e-12
0
0
0
0
2.17972e-05
1.14926e-09
0
0
0
0
0
0
0
0
0
0
0
0
0
0
0
0
0
0
0
0
0
0
0.00410753
3.44829e-07
0.0304838
0
0
0
0
0
0
0
0
0.00920769
0
0
0
0
0
0
0
0
0
0
0
0
2.79647e-14
0
0
9.87761e-14
0
0
1.89962e-14
0
0
1.85313e-17
5.33979e-17
1.93907e-16
0
0
0
2.00662e-17
4.30729e-18
4.98002e-16
7.29864e-17
1.18807e-16
6.30355e-17
4.67254e-17
0
0
2.7721e-17
3.30612e-18
4.81021e-19
0
1.73533e-22
1.07029e-24
0
0
3.22661e-23
0
0
3.82259e-26
0
0
0
0
0
0
0
0
0
3.7924e-21
1.55672e-21
0
0
0
0
0
7.52722e-24
0
8.12875e-23
4.58309e-20
3.2207e-18
1.23359e-19
1.88159e-18
3.16203e-17
1.22597e-18
1.10437e-18
1.96669e-18
5.27355e-22
8.93006e-21
5.45916e-18
7.99005e-18
1.75248e-16
4.98677e-17
3.34834e-18
1.08862e-17
1.15136e-17
2.00411e-21
2.86155e-19
4.69044e-18
9.8465e-17
1.23335e-16
5.64525e-17
3.87685e-17
3.48156e-17
3.4528e-17
1.68706e-23
2.68995e-23
5.51316e-23
3.25142e-19
2.31526e-19
2.28301e-19
2.24917e-19
1.4889e-18
1.47781e-18
2.87939e-23
9.59659e-23
2.12073e-22
6.64725e-19
4.26271e-19
4.447e-19
9.10059e-19
2.95629e-18
2.87925e-18
3.20496e-23
1.39925e-22
4.33873e-22
8.66113e-19
1.75113e-17
5.33282e-17
1.19582e-18
3.75293e-18
3.46658e-17
4.03163e-23
1.84738e-22
3.13925e-22
3.50416e-18
1.74147e-17
3.57851e-17
1.47962e-18
7.74194e-18
2.23549e-17
2.35971e-23
1.05731e-22
2.29713e-22
2.74341e-18
1.36301e-17
2.82908e-17
1.90252e-18
6.77681e-18
2.29986e-17
9.02769e-24
3.09528e-23
8.09539e-23
1.62889e-18
8.42746e-18
2.20548e-17
1.53344e-18
6.61532e-18
2.25582e-17
1.29129e-26
1.27097e-26
1.56777e-26
5.17607e-27
4.85893e-27
6.12404e-27
3.71143e-30
7.0974e-32
1.14214e-31
4.28673e-27
4.31201e-27
1.54908e-26
0
5.08731e-27
6.30082e-27
0
0
5.88889e-32
0
0
1.54383e-26
0
0
6.07272e-27
0
0
4.2634e-32
2.23825e-25
2.97991e-26
1.51756e-26
0
0
1.4175e-28
0
0
3.16513e-32
2.15196e-25
5.87478e-26
1.49664e-26
0
0
6.2968e-28
2.2796e-31
1.08013e-31
3.85373e-32
2.03322e-25
5.86908e-26
1.34152e-26
4.78117e-26
1.85076e-26
5.37902e-27
2.69491e-31
1.04663e-31
3.05077e-32
)
;

boundaryField
{
    fuel
    {
        type            fixedValue;
        value           uniform 0;
    }
    primary_air
    {
        type            fixedValue;
        value           uniform 0.23;
    }
    Secondary_air_RHS
    {
        type            fixedValue;
        value           uniform 0.23;
    }
    Secondary_air_LHS
    {
        type            fixedValue;
        value           uniform 0.23;
    }
    outlet
    {
        type            inletOutlet;
        inletValue      uniform 0;
        value           nonuniform List<scalar> 
18
(
0
4.78117e-26
0
0
1.85076e-26
0
0
5.37902e-27
0
0
1.62889e-18
0
0
8.42746e-18
0
0
2.20548e-17
0
)
;
    }
    stove_body
    {
        type            fixedValue;
        value           uniform 0;
    }
    frontAndBack
    {
        type            empty;
    }
}


// ************************************************************************* //
