/*--------------------------------*- C++ -*----------------------------------*\
  =========                 |
  \\      /  F ield         | OpenFOAM: The Open Source CFD Toolbox
   \\    /   O peration     | Website:  https://openfoam.org
    \\  /    A nd           | Version:  6
     \\/     M anipulation  |
\*---------------------------------------------------------------------------*/
FoamFile
{
    version     2.0;
    format      ascii;
    class       volScalarField;
    location    "0.5";
    object      O2;
}
// * * * * * * * * * * * * * * * * * * * * * * * * * * * * * * * * * * * * * //

dimensions      [0 0 0 0 0 0 0];

internalField   nonuniform List<scalar> 
297
(
0
0
0
0
0
0
0
0
0
0
0
0
0
0
0
0
0
0
0
0
0
0
0
0
0
0
0
0.001326
0.00379596
0.00191739
0.00349345
0.006993
0.00403747
0.00131978
0.00378855
0.00194619
0
0.000641641
0
0.000722339
0.00313949
0.0011493
0
0.000632995
0
0
0.000574858
0
0.000326652
0.000630288
0.000410986
0
0.000568247
0
6.62306e-05
0.000332362
5.72086e-05
0
3.74222e-05
0
6.56584e-05
0.000329115
5.55581e-05
0
8.51128e-10
0
0
0
0
0
7.92841e-10
0
1.3446e-13
5.15668e-13
1.2237e-12
0
0
2.58437e-12
1.1763e-13
5.02027e-13
1.19323e-12
0
0.000574802
0
0
3.83508e-05
0
0
0.000568178
0
0
0.000573301
0
0
3.74087e-05
0
0
0.000566697
0
0
0.000566491
0
0
3.74152e-05
0
0
0.00055995
0
2.62276e-18
2.27409e-17
2.44075e-17
0
9.68738e-18
4.04322e-17
1.64729e-18
2.27075e-17
2.38358e-17
4.18201e-22
5.94356e-21
2.19702e-21
6.96963e-23
2.13381e-21
1.23527e-21
3.0149e-22
5.86454e-21
2.15516e-21
7.76575e-22
5.99499e-21
1.16577e-21
7.16082e-23
1.83385e-21
7.94523e-23
7.61021e-22
5.91703e-21
1.15873e-21
2.74405e-22
5.32329e-27
4.96819e-32
3.15647e-22
2.7005e-27
2.53681e-32
2.68194e-22
5.20822e-27
4.86719e-32
5.29263e-26
1.90653e-30
8.35367e-35
1.10043e-26
1.7451e-28
3.62785e-33
5.1963e-26
2.22123e-30
9.33006e-35
8.56818e-26
3.88746e-30
1.34422e-34
1.95508e-27
3.48043e-30
6.37236e-34
8.54376e-26
3.88477e-30
1.34464e-34
2.92122e-33
3.1208e-28
3.00958e-23
6.78786e-34
4.16456e-29
0
3.70188e-33
1.96917e-28
1.89452e-23
3.04044e-35
6.32184e-31
1.10923e-26
8.24473e-35
3.04992e-30
4.38429e-28
4.48083e-35
8.94373e-31
8.64377e-27
5.17143e-35
2.44339e-30
5.68338e-26
1.43111e-35
8.59677e-32
1.55491e-27
7.59232e-35
3.6117e-30
5.57804e-26
7.93536e-47
3.50889e-42
7.83524e-38
2.27092e-46
1.74993e-42
1.82594e-38
3.01654e-46
4.47679e-42
9.97616e-38
2.78396e-48
5.50676e-44
1.23528e-39
2.91291e-47
3.64114e-44
1.18257e-39
2.67221e-47
5.08804e-44
1.68816e-39
3.45326e-48
1.53507e-44
8.97723e-40
3.52046e-47
4.78806e-44
3.26477e-40
2.55028e-47
2.55919e-44
1.3517e-39
4.10282e-48
6.53676e-47
2.96922e-45
4.63941e-47
2.17389e-43
2.52919e-42
2.50435e-47
2.30086e-46
7.3386e-45
1.72748e-49
2.55799e-48
1.30773e-47
2.07181e-44
3.10696e-43
1.67662e-42
1.40127e-49
3.22538e-48
1.09626e-47
5.41849e-50
8.09807e-49
3.904e-48
9.96967e-45
1.47971e-43
7.21805e-43
5.41826e-50
8.09823e-49
3.90414e-48
7.12286e-37
3.19504e-41
1.96523e-45
4.05592e-37
1.16997e-41
1.9084e-45
1.309e-36
3.20769e-41
2.05873e-45
2.69788e-39
8.69051e-44
2.37476e-47
4.8168e-38
1.16798e-42
4.83894e-46
3.22808e-39
8.57832e-44
1.01129e-46
2.28827e-39
3.68007e-44
2.65065e-47
1.14259e-38
1.61333e-42
7.03648e-46
2.35528e-39
4.48102e-44
9.90201e-47
8.33396e-45
2.62883e-46
3.39442e-47
9.16555e-41
7.90222e-42
1.10502e-45
1.41716e-44
8.63499e-46
9.82011e-47
3.42293e-46
9.35682e-47
4.63578e-48
6.09127e-41
1.13944e-41
7.65405e-43
3.96899e-46
7.71759e-47
5.23035e-48
1.41753e-46
2.95663e-47
2.04989e-48
2.62326e-41
5.40763e-42
3.76274e-43
1.41754e-46
2.95701e-47
2.04128e-48
)
;

boundaryField
{
    fuel
    {
        type            fixedValue;
        value           uniform 0;
    }
    primary_air
    {
        type            fixedValue;
        value           uniform 0.23;
    }
    Secondary_air_RHS
    {
        type            fixedValue;
        value           uniform 0.23;
    }
    Secondary_air_LHS
    {
        type            fixedValue;
        value           uniform 0.23;
    }
    outlet
    {
        type            inletOutlet;
        inletValue      uniform 0;
        value           nonuniform List<scalar> 
18
(
0
2.62326e-41
0
0
5.40763e-42
0
0
3.76274e-43
0
0
9.96967e-45
0
0
1.47971e-43
0
0
7.21805e-43
0
)
;
    }
    stove_body
    {
        type            fixedValue;
        value           uniform 0;
    }
    frontAndBack
    {
        type            empty;
    }
}


// ************************************************************************* //
