/*--------------------------------*- C++ -*----------------------------------*\
  =========                 |
  \\      /  F ield         | OpenFOAM: The Open Source CFD Toolbox
   \\    /   O peration     | Website:  https://openfoam.org
    \\  /    A nd           | Version:  6
     \\/     M anipulation  |
\*---------------------------------------------------------------------------*/
FoamFile
{
    version     2.0;
    format      ascii;
    class       volScalarField;
    location    "0.5";
    object      p;
}
// * * * * * * * * * * * * * * * * * * * * * * * * * * * * * * * * * * * * * //

dimensions      [1 -1 -2 0 0 0 0];

internalField   nonuniform List<scalar> 
297
(
122885
122885
122885
203604
203604
203605
122885
122885
122885
122885
122885
122885
203604
203605
203605
122885
122885
122885
122884
122884
122884
203604
203604
203604
122884
122884
122884
97274.7
97302.6
97304.7
160836
160886
160963
97234.4
97266.9
97274.7
97271.2
97226.3
97231.1
160542
160661
160622
97236.2
97211.6
97223.2
97287.8
97247.1
96960.8
158596
159872
158710
97125.6
97186.7
96919.3
96264.4
96668.2
96419.1
159897
159516
159582
96349.1
96684.1
96458.3
96843
96918.7
96743
160694
160427
160517
96835.4
96897
96778.6
96974
97113.8
96869.3
160733
160645
160595
96992.8
97121.8
96903.6
95144.5
97379.6
96011.4
152808
158466
155434
95242.1
97305.3
96000.1
94859.1
97346.3
95847
152235
158403
154913
94995.1
97277.8
95838.5
94819.1
97271.4
95736.4
152785
158504
154971
95001.7
97209.4
95729.3
97429.4
97544.7
97425.6
160776
160787
160866
97420.6
97566.5
97445.2
97520.5
97610
97544.5
160805
160872
160981
97536.5
97622.8
97535.1
97560.9
97601.7
97567.7
160831
160921
161031
97573.4
97619.8
97578.7
97418.2
97313.7
97168
160833
160780
160601
97741
97657
97849.1
97339.6
97125.6
96824.3
160821
160772
160548
97491.9
97398
97518.9
97332.7
97081.8
96715.2
160857
160749
160413
97433.4
97325.6
97267.7
97853.9
97638
97695.7
160548
160739
160785
97135
97290.4
97391.8
97515.9
97359
97453.6
160485
160720
160747
96802.3
97114.1
97335.5
97225.3
97267.5
97386.7
160353
160695
160756
96681.8
97061.7
97328.4
99182.5
98860.7
98362.6
160525
160417
160384
99253.7
98527.9
97527.6
98785.1
98420
97956.4
160035
159839
160021
98314.3
97439.2
96811.7
98216.1
97836.8
97458.2
159266
159076
159375
97193
96549.5
96223.3
95638.9
95624.2
95593.3
154974
154887
154721
92864
92803.2
92704
89933.1
89981.2
90022.4
146894
146873
146807
88796.8
88754.8
88663.6
83925.3
83924
83923.2
134728
134672
134597
86356.9
86513.7
86718.1
97583.1
98608.9
99341.4
160455
160489
160592
98362.3
98851
99156
96844.9
97497.1
98392.6
160109
159932
160123
97970.8
98435.8
98779.7
96246.2
96595.7
97268.4
159453
159177
159369
97498.8
97871
98231.3
92771.7
92871.7
92941.2
154811
154990
155082
95690.1
95718.1
95733.3
88725.1
88808.6
88851.4
146902
146969
146986
90130.9
90091.5
90046.2
86763.2
86544.2
86383.6
134699
134773
134822
84030.3
84030.3
84030.3
)
;

boundaryField
{
    fuel
    {
        type            zeroGradient;
    }
    primary_air
    {
        type            zeroGradient;
    }
    Secondary_air_RHS
    {
        type            zeroGradient;
    }
    Secondary_air_LHS
    {
        type            zeroGradient;
    }
    outlet
    {
        type            totalPressure;
        rho             rho;
        psi             none;
        gamma           1;
        p0              uniform 100000;
        value           nonuniform List<scalar> 
18
(
99990
100000
86426.5
93200.2
100000
86359.9
87805.8
100000
86317.3
86190.4
100000
87719.9
86233.7
100000
93317.8
86267.2
100000
99994.5
)
;
    }
    stove_body
    {
        type            zeroGradient;
    }
    frontAndBack
    {
        type            empty;
    }
}


// ************************************************************************* //
