/*--------------------------------*- C++ -*----------------------------------*\
  =========                 |
  \\      /  F ield         | OpenFOAM: The Open Source CFD Toolbox
   \\    /   O peration     | Website:  https://openfoam.org
    \\  /    A nd           | Version:  6
     \\/     M anipulation  |
\*---------------------------------------------------------------------------*/
FoamFile
{
    version     2.0;
    format      ascii;
    class       volScalarField;
    location    "0.5";
    object      p;
}
// * * * * * * * * * * * * * * * * * * * * * * * * * * * * * * * * * * * * * //

dimensions      [1 -1 -2 0 0 0 0];

internalField   nonuniform List<scalar> 
297
(
103988
103989
103989
173177
173183
173177
103988
103989
103989
103985
103984
103984
173176
173166
173174
103986
103984
103984
103988
103988
103988
173177
173181
173177
103988
103988
103988
96493.6
96498.2
96491.2
160146
160217
160199
96491.6
96498.5
96492.3
96898.3
96222
96760.3
160031
160440
160001
96927.5
96218.4
96720.4
92585.3
92651.5
92991.8
148696
154721
149355
92583.4
92647.2
92983.9
89376.5
92803.5
88946
153235
152579
152702
89371
92802
88953.4
95357.7
95826.6
95152
159069
158574
159063
95361.3
95828.7
95151.2
95142.2
95733.9
95028.8
158101
159129
158411
95143.6
95733.3
95028.6
66332.3
90226.2
67085
109540
146818
109968
66099.3
90196.6
67278.4
64883.8
90055.9
65476.7
105435
146187
105699
64665.6
90025.8
65660.1
67654.3
90231.8
68041.1
108811
146595
108789
67488.8
90203.4
68180.2
96114.1
96315.4
96100.3
159610
160037
159633
96114.2
96314.4
96099.5
96269
96308.2
96255.4
160027
160191
160016
96268.9
96307.2
96254.6
96278.1
96300.2
96266.9
160219
160249
160191
96278.4
96298
96267.2
96474.7
96787
97521.9
159914
160093
160464
96474.1
96785.9
97521.2
96322.5
96431.5
96913.7
159973
159992
160120
96321.4
96432
96913.4
96190.7
96027.5
95868.9
160131
160010
159890
96190.6
96026.8
95869.2
97524.9
96794
96484.4
160484
160113
159930
97523.3
96793.3
96483.9
96920.8
96441.9
96332.5
160142
160015
159995
96919.8
96441.4
96332
95883.7
96040.1
96202.1
159914
160034
160155
95883.3
96039.7
96201.9
99137.2
98833.4
98301.7
161892
161623
161098
99128.7
98826.8
98297.8
98707
98357.2
97788.4
161380
161125
160622
98700.4
98352.7
97786.2
98149.5
97784.1
97110.6
160728
160420
160044
98144.5
97780.9
97109.2
95514.4
95396.3
95191.4
157747
157605
157486
95515.6
95397.9
95193.3
88959.9
89012.5
89074.3
147202
147195
147190
88962
89014.2
89075.8
81471.1
81471.1
81473
130970
130947
130927
81472
81472
81473.9
98304.6
98841.1
99148.3
161085
161615
161886
98302.6
98836.2
99141
97787.6
98360.9
98713.2
160604
161112
161371
97786.5
98358.3
98708.4
97104.3
97782.4
98151
160022
160402
160712
97103.9
97780.6
98147.5
95170
95375.9
95494.8
157444
157564
157707
95170.8
95376.7
95495.4
89035.2
88973.3
88920.3
147123
147127
147135
89035.8
88973.8
88921.1
81428.9
81427
81426.7
130859
130880
130903
81429.4
81427.4
81427.4
)
;

boundaryField
{
    fuel
    {
        type            zeroGradient;
    }
    primary_air
    {
        type            zeroGradient;
    }
    Secondary_air_RHS
    {
        type            zeroGradient;
    }
    Secondary_air_LHS
    {
        type            zeroGradient;
    }
    outlet
    {
        type            totalPressure;
        rho             rho;
        psi             none;
        gamma           1;
        p0              uniform 100000;
        value           nonuniform List<scalar> 
18
(
85132.4
100000
85132.8
85084.5
100000
85086.7
85067.7
100000
85066.6
85107.1
100000
85108.8
85126.5
100000
85127.9
85173.7
100000
85175
)
;
    }
    stove_body
    {
        type            zeroGradient;
    }
    frontAndBack
    {
        type            empty;
    }
}


// ************************************************************************* //
