/*--------------------------------*- C++ -*----------------------------------*\
  =========                 |
  \\      /  F ield         | OpenFOAM: The Open Source CFD Toolbox
   \\    /   O peration     | Website:  https://openfoam.org
    \\  /    A nd           | Version:  6
     \\/     M anipulation  |
\*---------------------------------------------------------------------------*/
FoamFile
{
    version     2.0;
    format      ascii;
    class       surfaceScalarField;
    location    "0.5";
    object      phi;
}
// * * * * * * * * * * * * * * * * * * * * * * * * * * * * * * * * * * * * * //

dimensions      [1 0 -1 0 0 0 0];

internalField   nonuniform List<scalar> 
675
(
-7.54185e-07
-6.68098e-05
0.000111462
5.39813e-07
-6.99026e-05
0.000113848
-6.71681e-05
0.000112669
4.55836e-06
6.68132e-05
-6.59518e-05
-3.8861e-06
6.99019e-05
-5.30135e-05
6.71709e-05
-6.58494e-05
-7.61185e-07
0.000111393
5.45011e-07
0.000113912
0.000112606
-1.40673e-06
-9.05893e-08
0.000110991
1.34463e-06
-5.91174e-06
0.000112281
1.00938e-07
0.0001102
5.22658e-06
8.87056e-08
-6.54005e-05
-4.8994e-06
5.91676e-06
-5.99366e-05
-1.03615e-07
-6.51297e-05
-1.39273e-06
0.000111058
1.32986e-06
0.00011223
0.00011026
-3.74059e-06
7.03437e-05
3.43621e-06
6.22782e-05
7.02633e-05
1.77694e-06
-7.03438e-05
-1.97272e-06
-6.22842e-05
-7.02633e-05
-3.74446e-06
3.43837e-06
0.0110845
0.0110663
-0.0219951
-0.00406975
0.0113936
0.00391561
0.0112748
-0.0151867
0.0092134
-0.0109719
0.0130854
-0.00383971
-0.0114419
0.0361454
-0.0113912
0.0190893
0.011284
-0.0220997
-0.00372672
0.00372403
-0.0149604
0.0330862
0.0259675
-0.0810189
-0.0303894
-0.0138652
0.0812875
0.0253342
-0.0708787
0.0149954
-0.0265391
0.0506437
-0.0167457
0.0138018
0.0402679
-0.0247385
0.052467
0.0322202
-0.0808291
-0.0315848
0.0813618
-0.0712525
0.00322218
0.0552436
-0.139457
-0.00472249
-0.00255529
0.0918153
0.0546682
-0.13024
-0.102993
-0.0551
0.264023
0.102999
0.0027334
-0.170978
-0.0547266
0.264906
0.00401864
-0.139921
-0.00380939
0.0919513
-0.129758
-0.0593838
-0.0648385
-0.0470441
0.171288
0.0556955
0.0146182
-0.0535264
-0.0761496
-0.065564
-0.0415477
0.16283
0.0168513
0.0649196
0.0587036
-0.205269
0.00138585
-0.0145845
-0.153693
0.198388
0.0654806
0.0789952
-0.208606
-0.0597331
-0.0467571
0.171431
0.0553565
-0.0533816
-0.0762707
-0.0417519
0.162612
0.00535752
-0.0211045
-0.0312863
-0.0202909
0.0123974
-0.0402693
-0.0345441
-0.02728
0.0472564
0.0209491
-0.0305693
-0.0277488
-0.0124522
-0.0538119
0.0345666
-0.01782
0.00550826
-0.0313062
-0.020069
-0.0402516
-0.0272367
-0.00961099
0.00560325
-0.0272739
-0.0225214
0.00081208
-0.0281751
-0.0214117
-0.0283858
0.0256044
-0.00561917
-0.0449539
0.0200023
-0.000780117
-0.0466172
0.0214088
-0.040643
-0.00967924
-0.027246
-0.022545
-0.0281649
-0.0283728
-0.0020334
-0.00117943
-0.150116
0.00200305
0.000319024
0.0874619
-0.00110837
-0.141157
-0.00588038
0.0011979
0.244619
0.00665978
-0.000307124
-0.18289
0.00109241
0.246369
-0.00206056
-0.150485
0.0019656
0.0876202
-0.140769
-0.00190204
-0.00046163
-0.161321
0.00185336
-0.000475036
0.0841832
-0.000400598
-0.152595
-0.00266476
0.000475308
0.224298
0.00336984
0.00047549
-0.189873
0.000389108
0.226846
-0.00193653
-0.161596
0.00182387
0.0843368
-0.152287
-0.00453872
0.000358073
0.00438822
-0.000891163
0.000394309
-0.00301978
-0.000346924
0.00371308
0.000892336
-0.000402823
-0.00462548
0.0043352
0.010406
-0.00172561
-0.0126619
-0.0232922
-0.00938046
-0.00155656
-0.00683456
-0.00190535
-0.0124886
-0.02337
0.0106647
0.00172476
-0.0281669
-0.0309043
-0.0134691
0.00155836
-0.0255996
0.00190678
-0.026993
-0.0309339
0.0103937
-0.0126547
-0.0232592
-0.00937143
-0.00684154
-0.0124889
-0.0233483
0.00498071
6.41115e-05
-0.00248724
-0.0152181
-0.00542811
0.00116131
0.00241446
9.64536e-06
-0.00265591
-0.0152709
0.00691497
-6.06079e-05
-0.0119693
-0.0229884
-0.00702495
-0.00115573
-0.00934315
-2.32881e-06
-0.0107651
-0.0232422
0.0049725
-0.00248539
-0.015202
-0.00542739
0.00240312
-0.00265514
-0.0152637
-0.00040798
0.000679534
-0.0027582
0.000648315
0.00135193
0.00070131
-0.00270224
0.00264636
-0.000675443
-0.0132584
-0.00400205
-0.00134544
-0.000693725
-0.01337
-0.000405191
-0.00275499
0.000653913
-0.00269542
-0.0213358
-0.00033611
-0.00169828
-0.0219562
0.00256076
-0.00194078
0.00315469
-0.00770508
-0.0174068
-0.029572
0.000336206
-0.0020351
-0.0261846
-0.00255993
0.00173155
-0.00315415
0.00358746
-0.0234651
-0.0213144
-0.00169804
-0.0219339
-0.0019403
-0.00770835
-0.0173796
-0.0156948
-0.000363511
-0.000911006
-0.0157327
0.00173317
-0.00363538
0.000509996
-0.00853299
-0.0154145
-0.025001
0.000365311
-0.00100708
-0.020948
-0.00173267
0.00114415
-0.000507288
0.00457488
-0.0209179
-0.0156892
-0.000906869
-0.0157253
-0.00363676
-0.0085376
-0.0154027
-0.0036506
3.8979e-05
-0.00664143
-0.000645099
-0.00192761
-0.0132476
-0.0142993
-3.84487e-05
-0.0144462
0.000645076
0.00192733
-0.0137264
-0.00364073
-0.00663197
-0.0132418
0.0218871
0.00314173
-0.00768887
-0.0173395
0.0212661
0.00254928
-0.00192797
-0.00033191
-0.00169403
0.026068
-0.00313928
0.00356272
-0.0233498
0.029419
-0.00254701
0.00174507
0.000332304
-0.00214974
0.021855
-0.00768978
-0.0173047
0.0212337
-0.00192588
-0.00169298
0.0156952
0.000503565
-0.00852088
-0.0153671
0.0156587
0.00171881
-0.00361008
-0.000369446
-0.000883621
0.0208496
-0.000499506
0.00454728
-0.0208325
0.0248701
-0.00171752
0.00116075
0.000370316
-0.00100844
0.0156794
-0.00852216
-0.0153464
0.0156429
-0.00360679
-0.000881713
0.00661857
-0.00192726
-0.0132125
0.00366741
-0.0006588
2.60415e-05
0.0143716
0.00192693
-0.0136786
0.0142151
0.000658206
-2.5188e-05
0.00661077
-0.013206
0.00366199
0.00764052
0.00263589
-0.0102766
0.0116212
0.00243689
-0.0064172
0.00274258
-0.00846087
0.0108274
-0.00263009
-0.00556205
0.0177004
-0.00243168
-0.00200386
-0.00273788
-0.000170241
0.007615
-0.010245
0.0115849
-0.00640155
-0.00845756
0.00563173
0.00222421
-0.0181322
0.0102765
0.00214665
-0.0132091
0.00143461
-0.014986
0.0082039
-0.00221999
-0.00932073
0.0155206
-0.00214259
-0.00503275
-0.00142629
-0.00262046
0.00561756
-0.0180823
0.0102557
-0.013182
-0.0149745
0.00684123
0.00458549
-0.0295591
0.00724497
0.00243
-0.0160427
0.0010613
-0.0220152
0.00874021
-0.00457753
-0.00889787
0.0143795
-0.00243134
-0.00581008
-0.00106186
0.000202969
0.00681958
-0.0294791
0.00723066
-0.0160242
-0.0220114
-0.00829864
0.0140848
-0.0353445
-0.00151645
0.0118842
-0.0347082
0.0111676
-0.0346982
0.00107415
-0.0140885
0.0182013
-0.00232261
-0.011904
0.0213742
-0.0111854
0.0202323
-0.00825625
-0.0353109
-0.00148909
-0.0346948
-0.0346854
0.000189021
0.00492703
-0.0404611
0.000702467
0.00530905
-0.0405313
0.00603357
-0.04003
-0.00398477
-0.00494463
0.0320582
-0.00343221
-0.00532311
0.0314542
-0.00604541
0.0288794
0.000198922
-0.040455
0.000706355
-0.040526
-0.0400251
-2.47665e-05
0.0167063
-0.000192958
0.0167503
0.0168185
0.000642589
-0.0167094
0.0009696
-0.0167535
-0.0168216
-2.44126e-05
-0.000192645
-0.0116671
0.00274882
-0.00848739
-0.00767223
0.002441
-0.00643699
0.00264615
-0.01032
-0.0177828
-0.00274518
-0.000188409
-0.0108839
-0.00243804
-0.00202192
-0.00264345
-0.00559486
-0.0116353
-0.00848909
-0.00764504
-0.0064278
-0.0102881
-0.0103093
0.00143929
-0.0150351
-0.00565397
0.00215265
-0.0132448
0.00223203
-0.0182036
-0.0155883
-0.00143441
-0.00264596
-0.00823777
-0.00215255
-0.00506462
-0.00222976
-0.0093719
-0.0102952
-0.0150307
-0.00563645
-0.0132391
-0.0181541
-0.00726797
0.00106522
-0.0220782
-0.00686929
0.00243676
-0.0160791
0.00460235
-0.0296755
-0.0144505
-0.00106616
0.00021102
-0.00878022
-0.00244136
-0.00585758
-0.00459478
-0.00895312
-0.00726006
-0.0220784
-0.00684754
-0.0160927
-0.0295966
0.00152556
0.0111928
-0.0347951
0.00831799
0.0119184
-0.034789
0.0141242
-0.0354815
0.00233548
-0.0112041
0.0202724
-0.00105851
-0.0119369
0.0213919
-0.0141278
0.0182398
0.00149819
-0.0347803
0.00829448
-0.0348257
-0.0354297
-0.000704607
0.00603316
-0.0401242
-0.000182386
0.00530541
-0.0406173
0.00491516
-0.0405797
0.00349366
-0.00603796
0.0288503
0.0040187
-0.00531154
0.0314841
-0.00492625
0.0321003
-0.000697966
-0.0401205
-0.000199808
-0.0406356
-0.040556
0.00019537
0.0167871
4.03966e-05
0.0167175
0.0166656
-0.00099737
-0.0167891
-0.000647929
-0.0167144
-0.016673
0.000196429
2.26486e-05
)
;

boundaryField
{
    fuel
    {
        type            calculated;
        value           nonuniform List<scalar> 
36
(
4.40467e-05
7.33536e-05
4.40467e-05
4.40471e-05
7.33554e-05
4.40471e-05
4.40471e-05
7.33538e-05
4.4047e-05
-4.40468e-05
-7.33536e-05
-4.40468e-05
-4.40472e-05
-7.33565e-05
-4.40473e-05
-4.40472e-05
-7.3354e-05
-4.40471e-05
0
0
0
0
0
0
0
0
0
0
0
0
0
0
0
0
0
0
)
;
    }
    primary_air
    {
        type            calculated;
        value           nonuniform List<scalar> 9(-0.000126924 -0.00021065 -0.000126921 -0.00012693 -0.000210743 -0.00012693 -0.00012692 -0.000210718 -0.000126922);
    }
    Secondary_air_RHS
    {
        type            calculated;
        value           nonuniform List<scalar> 9(0.0140303 0.0229989 0.0140707 0.0136939 0.022106 0.0137323 0.0142302 0.0227524 0.0142593);
    }
    Secondary_air_LHS
    {
        type            calculated;
        value           nonuniform List<scalar> 9(0.0138728 0.0229095 0.0138241 0.0135699 0.0220509 0.0135243 0.0141493 0.0227569 0.0141147);
    }
    outlet
    {
        type            calculated;
        value           nonuniform List<scalar> 
18
(
-0.0571068
0.0634233
-0.0571062
-0.0571799
0.0645661
-0.0571764
-0.0572049
0.0647904
-0.0572066
-0.0571426
0.0648308
-0.05714
-0.0571135
0.0646305
-0.0571113
-0.0570414
0.0634885
-0.0570393
)
;
    }
    stove_body
    {
        type            calculated;
        value           uniform 0;
    }
    frontAndBack
    {
        type            empty;
        value           nonuniform 0();
    }
}


// ************************************************************************* //
