/*--------------------------------*- C++ -*----------------------------------*\
  =========                 |
  \\      /  F ield         | OpenFOAM: The Open Source CFD Toolbox
   \\    /   O peration     | Website:  https://openfoam.org
    \\  /    A nd           | Version:  6
     \\/     M anipulation  |
\*---------------------------------------------------------------------------*/
FoamFile
{
    version     2.0;
    format      ascii;
    class       surfaceScalarField;
    location    "0.5";
    object      phi;
}
// * * * * * * * * * * * * * * * * * * * * * * * * * * * * * * * * * * * * * //

dimensions      [1 0 -1 0 0 0 0];

internalField   nonuniform List<scalar> 
675
(
-2.55868e-07
-1.11786e-05
0.000140738
5.74201e-07
-1.12199e-05
0.000139704
-1.11702e-05
0.000141064
-6.37155e-06
1.12048e-05
0.000201175
5.54024e-06
1.12464e-05
0.00018273
1.11965e-05
0.000200271
-2.42843e-07
0.000140753
5.72472e-07
0.000139746
0.000141089
-4.24189e-06
-2.15604e-05
0.000166031
4.67714e-06
-6.09112e-06
0.000136316
-2.22725e-05
0.000167417
5.3718e-07
2.15874e-05
0.000159508
1.16505e-06
6.06965e-06
0.000171512
2.22886e-05
0.000159069
-4.23151e-06
0.000166066
4.65752e-06
0.00013637
0.000167442
-1.85218e-05
5.33231e-05
2.16538e-05
-3.66315e-05
5.80408e-05
5.22775e-05
-5.33312e-05
-6.13667e-05
3.65578e-05
-5.80599e-05
-1.84959e-05
2.16522e-05
0.00791495
0.00550585
-0.0103041
0.00921054
0.00586113
-0.00398079
0.00888666
0.00353218
0.00111678
-0.00565593
0.0152749
-0.00436799
-0.00575726
0.0224019
-0.00866868
0.0185675
0.00695061
-0.0094688
0.00821309
-0.003908
0.00261971
0.0156686
0.00706123
-0.0329122
0.0120497
0.00310146
-0.00332973
0.00890335
0.00665132
0.00632565
-0.00704272
0.0235246
0.00930535
-0.00294614
0.0257602
-0.00840912
0.0452591
0.0166631
-0.0330874
0.0129948
-0.00306197
0.00732704
-0.00712685
0.024746
-0.0503246
-0.00579461
0.0116251
-0.0163706
0.0185652
-0.0175501
-0.0491218
-0.0233367
0.120427
0.0420074
-0.0116375
-0.0419302
-0.018056
0.124051
-0.00565783
-0.0506921
-0.00518406
-0.0148905
-0.0158193
-0.0163466
-0.0144052
-0.0312882
0.0609942
0.00685367
5.24546e-05
-0.0423768
0.0191571
-0.00972095
-0.017048
0.0334803
0.0183564
0.015075
0.0421913
-0.089573
-0.00428619
-0.000365129
-0.0298254
0.0528446
0.0102341
0.0670026
-0.0913511
-0.0170748
-0.0300308
0.0617343
0.00579042
-0.0416811
0.0184432
-0.0161475
0.0322188
0.00352452
-0.0101211
-0.0248561
-0.000162491
-0.00914454
-0.0296169
-0.00661475
-0.0105718
0.0166121
0.00981621
0.00544501
-0.0124517
0.00751196
-0.017466
0.00759368
0.0403139
0.00519919
-0.0255158
-0.000345615
-0.0286847
-0.00891317
-0.00600891
-0.00123679
-0.0172574
-0.0155259
-0.00132373
-0.018807
-0.00986133
-0.0166037
0.0101098
0.00104489
-0.00687571
0.000462009
0.000168579
-0.00941592
0.00952969
0.0213532
-0.00621327
-0.0182146
-0.0153707
-0.019395
-0.0146666
-0.000855742
-0.00260962
-0.0529021
-0.00129169
-0.000627508
-0.0152583
-0.00205225
-0.0231096
-0.00343163
0.00262311
0.108644
0.00280214
0.000562276
-0.0493247
0.00196623
0.112612
-0.00101838
-0.0532908
-0.00143801
-0.0139326
-0.0216044
-0.0010865
-0.000858338
-0.0569919
-0.000233497
-2.44809e-05
-0.0160223
-0.00107658
-0.0285695
-0.00156883
0.000726564
0.0986938
0.00241826
-5.96841e-05
-0.053248
0.000993404
0.102773
-0.001239
-0.0575626
-0.000309998
-0.014928
-0.0272146
-0.00168027
-0.000285915
-1.17108e-05
0.00152455
-0.00139788
-0.0011605
2.20876e-05
0.00151556
-0.0015327
0.00135181
-0.00204965
-6.8757e-05
0.00521294
-0.00297504
-0.00437143
-0.0150888
-0.00617528
-0.000980409
-0.00642569
-0.00297884
-0.00312153
-0.0163702
-0.0029216
0.00203739
-0.00818167
-0.00062561
-0.00299957
0.00163015
-0.0120091
0.0037312
0.0122833
-0.000627131
0.00503131
-0.0049122
-0.016286
-0.00615406
-0.00656974
-0.00245903
-0.0146342
0.00401461
0.00110121
0.00215778
-0.0116251
-0.00581749
0.0015513
0.00181771
0.000413825
0.00240019
-0.0117406
-0.00163176
-0.00222676
-0.00575923
0.00258967
-0.00395007
-0.00133031
-0.00679843
0.000463598
0.00481697
0.00343344
0.00197609
0.00273932
-0.0118496
-0.00747192
0.00153823
0.00164716
-0.0111131
0.0013652
0.00341157
-0.00259824
-0.000481228
0.00366318
0.00249152
-0.000651012
-0.00351758
-0.00320227
0.00445084
-0.00398024
-0.00264968
-0.00170083
0.0050389
-0.0019132
0.00145847
-0.00303329
-0.0030932
-0.017208
-0.000938429
0.00177274
-0.0170617
-0.00186978
0.00171596
-0.00165088
0.00188403
-0.017297
-0.00509525
0.00267961
0.000840255
-0.00765444
0.000230769
0.00045331
-0.00167701
0.00263013
-0.0102631
-0.0139769
0.0019712
-0.0150003
0.001241
-0.00183851
-0.0148441
-0.0119665
-0.000826729
0.00280269
-0.0118929
-0.000920509
0.00256028
-0.00122477
0.00272237
-0.011508
0.00338567
0.00170359
-0.00164232
0.000311722
-0.000243395
0.00287187
-0.00127343
0.00738895
-0.00439374
-0.0105621
0.00315048
-0.00998737
0.000417309
-0.00279264
-0.0103137
0.00174373
0.000389435
0.00415444
0.000143497
-0.00137467
0.0082491
0.00418569
-0.000386482
0.00801729
-0.000806255
-0.000840818
0.0148599
-0.000327261
-0.000724162
-0.00436785
0.0154669
0.00168464
-0.00226099
-0.0148972
0.0144024
-0.000288749
0.00135154
-0.00279486
0.00211063
0.00761722
0.00162639
0.00280088
-0.0103752
0.00539805
0.00189514
2.92977e-05
0.000904279
0.00106391
0.0168645
0.00187651
-0.0171296
0.0170267
0.00172189
0.00163801
0.0105088
0.00115804
-0.00381841
-0.0101164
0.0109083
0.000547739
0.000402281
-0.00166211
0.00306009
-0.000420768
0.00111681
0.00785431
-0.00460564
-0.00299054
0.000709842
0.00243243
0.000519423
-0.00149468
0.0117115
0.00259502
-0.0113275
0.0120181
0.00211502
0.0023215
0.000762712
0.000775072
-0.00536443
0.000210045
0.000951997
0.00067609
-0.00749656
0.00125906
0.0148553
-0.00395468
-0.000166905
-0.000336656
-0.00537678
0.00921896
-0.00343811
0.0065998
0.00311358
-0.00972262
0.0116654
0.002872
-0.00794618
0.00185488
-0.005094
0.00911492
-0.00165572
-0.00436907
0.0109055
-8.61509e-05
0.00114601
-0.000806717
0.00317377
0.0115674
-0.0132362
0.0179602
-0.00649151
1.11375e-05
0.00517069
0.00204335
-0.0169472
0.00799207
0.00194249
-0.0127196
0.00172637
-0.00895293
0.0078407
-0.00135515
-0.00883435
0.00668039
3.07537e-05
0.00419705
-0.000731858
0.00768856
0.00853163
-0.0231352
0.0128245
-0.0107654
0.000764673
0.00624143
0.00471895
-0.0279199
0.00594718
0.00278702
-0.0152237
0.00205671
-0.0104365
0.00207115
-0.00427516
-0.00193423
-0.00693499
0.000285778
0.0156853
0.00118611
0.0164637
0.00937728
-0.0367996
0.00215665
-0.00326949
0.0133177
-0.0104565
0.0168909
-0.0343848
-0.006466
0.0138581
-0.0331034
0.0155513
-0.032486
-0.0038268
-0.00265427
0.0213617
-0.00561661
0.00279599
0.0284505
0.00124361
0.0250952
0.0067115
-0.0461688
0.0169211
-0.0106907
0.0314136
-0.00102374
0.0075982
-0.0409199
-0.000474839
0.00711626
-0.0407292
0.00763611
-0.0405577
0.0051511
-0.0021352
0.0259707
0.0100384
-0.00281003
0.0335214
0.000992375
0.0418092
-0.00315823
-0.0451085
0.00247382
-0.0190928
0.034899
-0.00014315
0.0147835
-0.000120645
0.0147411
0.0147617
0.000206544
-0.0230646
0.00190246
-0.0221826
-0.0212198
-0.015506
-0.016196
-0.0181075
0.000776771
3.2289e-05
-0.011609
6.44649e-05
-0.00656606
0.00165554
-0.0132709
-0.0107719
-0.001829
0.0031103
-0.00910413
-0.00272686
0.00111783
-0.00295749
-0.00449672
-0.0114085
-0.00526592
-0.00651068
-0.00762494
-0.00946716
-0.0130288
0.000671569
0.000878124
-0.00862062
-8.56811e-05
-0.0108967
0.00133585
-0.0232413
-0.0065118
-0.00168444
0.00757792
-0.00778291
-0.00193172
0.00422708
-0.0020324
-0.00891947
-0.00772314
-0.00954227
-0.00493942
-0.012342
-0.0164405
-0.00282209
-0.00124045
0.0131878
-0.00941368
-0.000411411
-0.00390346
0.00427378
-0.0369458
0.00736412
-0.00196614
0.0158006
-0.00179407
-0.00277718
0.0157438
-0.00463966
-0.00181223
-0.00602291
-0.00986481
-0.00600145
-0.0151475
-0.0270871
-0.0167262
-0.00103177
0.030914
-0.00628698
-0.00277181
-0.0116254
0.0028321
-0.0461628
0.00482962
-0.0154122
0.0252821
0.00308579
-0.013896
0.0285412
-0.017
0.0210164
0.00674371
-0.0320704
0.0102266
-0.0325755
-0.0339089
-0.00253341
-0.000852
0.0343344
0.00280931
0.00281744
-0.019752
0.00178596
-0.0450694
-0.00956647
-0.00771625
0.0417476
-0.00430282
-0.00733494
0.0334542
-0.0078974
0.0264278
0.000552356
-0.0402925
0.00113346
-0.0404451
-0.0406266
0.0162028
0.0210479
0.0152631
0.0220863
0.0227165
-0.0016206
-0.0147246
0.000289802
-0.0148207
-0.0149167
0.000164895
0.000187644
)
;

boundaryField
{
    fuel
    {
        type            calculated;
        value           nonuniform List<scalar> 
36
(
0.000130127
0.000215605
0.000130127
0.000130127
0.000215605
0.000130127
0.000130127
0.000215605
0.000130127
-0.000130128
-0.000215605
-0.000130128
-0.000130128
-0.000215605
-0.000130128
-0.000130128
-0.000215606
-0.000130128
0
0
0
0
0
0
0
0
0
0
0
0
0
0
0
0
0
0
)
;
    }
    primary_air
    {
        type            calculated;
        value           nonuniform List<scalar> 9(-0.00319877 -0.0052889 -0.00319745 -0.00319969 -0.00529056 -0.00319852 -0.00319976 -0.0052931 -0.00319877);
    }
    Secondary_air_RHS
    {
        type            calculated;
        value           nonuniform List<scalar> 9(0.00631448 0.0102226 0.00631372 0.00630367 0.0101883 0.00630309 0.00629638 0.0101921 0.00629591);
    }
    Secondary_air_LHS
    {
        type            calculated;
        value           nonuniform List<scalar> 9(0.00625729 0.0100498 0.00626381 0.00623828 0.0100121 0.00624752 0.00623549 0.0100483 0.00624795);
    }
    outlet
    {
        type            calculated;
        value           nonuniform List<scalar> 
18
(
-0.00291229
0.0791357
-0.0551855
-0.0408927
0.0684494
-0.0552922
-0.0525172
0.0643441
-0.055359
-0.0555705
0.0636051
-0.0526693
-0.0555033
0.0687574
-0.0405782
-0.0554506
0.0797052
-0.00249145
)
;
    }
    stove_body
    {
        type            calculated;
        value           uniform 0;
    }
    frontAndBack
    {
        type            empty;
        value           nonuniform 0();
    }
}


// ************************************************************************* //
