/*--------------------------------*- C++ -*----------------------------------*\
  =========                 |
  \\      /  F ield         | OpenFOAM: The Open Source CFD Toolbox
   \\    /   O peration     | Website:  https://openfoam.org
    \\  /    A nd           | Version:  6
     \\/     M anipulation  |
\*---------------------------------------------------------------------------*/
FoamFile
{
    version     2.0;
    format      ascii;
    class       volScalarField;
    location    "0.5";
    object      Qdot;
}
// * * * * * * * * * * * * * * * * * * * * * * * * * * * * * * * * * * * * * //

dimensions      [1 -1 -3 0 0 0 0];

internalField   nonuniform List<scalar> 
297
(
3.30826e-05
0
3.30826e-05
0
-4.83045e-10
6.61648e-05
3.30826e-05
0
0
3.30826e-05
3.30826e-05
3.30825e-05
-1.93218e-09
0
4.13533e-06
0
0
0
-4.83045e-10
5.01679e-05
3.30822e-05
0
0
0
5.01674e-05
0
-4.83045e-10
0
2.21892e-12
0
0
0
0
0
0
0
0
0
-9.6609e-10
5.5473e-13
0
-1.93218e-09
0
5.5473e-13
-9.6609e-10
-9.6609e-10
2.77365e-13
-9.6609e-10
0
0
0
0
-9.6609e-10
0
0
0
-9.6609e-10
0
-1.93214e-09
-1.93218e-09
0
0
-9.6609e-10
0
5.29032e-19
0
0
-1.93218e-09
-1.93218e-09
0
0
0
0
0
0
-1.93218e-09
0
-1.93218e-09
0
0
0
0
0
0
0
0
0
0
-9.6609e-10
-9.6609e-10
0
0
0
0
3.46706e-14
0
0
2.77365e-13
0
0
-9.65812e-10
0
0
-1.93218e-09
0
0
-9.65812e-10
-9.6609e-10
0
0
1.57664e-26
0
0
6.30655e-26
0
0
0
-1.93218e-09
0
0
0
0
0
0
0
-1.93218e-09
4.81152e-31
0
9.62304e-31
0
-3.86436e-09
0
-1.93218e-09
0
9.62304e-31
0
0
5.60135e-41
0
0
2.80067e-41
-1.93218e-09
3.6709e-36
0
0
1.79243e-39
0
0
0
0
-1.93218e-09
1.79243e-39
0
0
0
0
0
0
0
5.87344e-35
0
0
0
2.29431e-37
0
8.7521e-43
5.73578e-38
0
0
-1.93218e-09
0
0
4.48108e-40
-1.93218e-09
0
0
4.58862e-37
2.73503e-44
8.96215e-40
0
0
1.79243e-39
0
0
0
0
5.47006e-44
0
0
0
0
0
0
0
0
1.99e-55
0
0
-1.93218e-09
0
-1.93218e-09
-3.86436e-09
0
1.66933e-48
0
0
1.66933e-48
3.10937e-57
0
0
0
0
0
0
0
0
0
4.97499e-56
0
0
-1.93218e-09
0
0
0
6.36799e-54
0
-1.93218e-09
0
0
0
-1.93218e-09
0
0
0
0
0
0
0
0
0
0
0
0
0
-1.93218e-09
0
-3.86436e-09
0
0
8.54698e-46
0
0
1.66933e-48
1.01888e-52
-1.93218e-09
0
0
0
0
1.01888e-52
9.94999e-56
0
2.5472e-53
0
1.33546e-47
1.63021e-51
0
1.66933e-48
0
0
-1.93218e-09
1.99e-55
0
-1.93218e-09
0
-1.93218e-09
0
0
9.94999e-56
-1.93218e-09
0
0
-1.93218e-09
-1.93218e-09
0
0
0
3.10937e-57
0
0
0
-1.93218e-09
0
4.07552e-52
0
0
1.55469e-57
)
;

boundaryField
{
    fuel
    {
        type            calculated;
        value           uniform 0;
    }
    primary_air
    {
        type            calculated;
        value           uniform 0;
    }
    Secondary_air_RHS
    {
        type            calculated;
        value           uniform 0;
    }
    Secondary_air_LHS
    {
        type            calculated;
        value           uniform 0;
    }
    outlet
    {
        type            calculated;
        value           uniform 0;
    }
    stove_body
    {
        type            calculated;
        value           uniform 0;
    }
    frontAndBack
    {
        type            empty;
    }
}


// ************************************************************************* //
