/*--------------------------------*- C++ -*----------------------------------*\
  =========                 |
  \\      /  F ield         | OpenFOAM: The Open Source CFD Toolbox
   \\    /   O peration     | Website:  https://openfoam.org
    \\  /    A nd           | Version:  6
     \\/     M anipulation  |
\*---------------------------------------------------------------------------*/
FoamFile
{
    version     2.0;
    format      ascii;
    class       volScalarField;
    location    "0.5";
    object      Qdot;
}
// * * * * * * * * * * * * * * * * * * * * * * * * * * * * * * * * * * * * * //

dimensions      [1 -1 -3 0 0 0 0];

internalField   nonuniform List<scalar> 
297
(
-6.34608e-05
-3.82423e-05
-2.52185e-05
0
0
-7.64847e-05
-6.34608e-05
-2.52185e-05
-6.34608e-05
0
-6.34608e-05
-2.52185e-05
-5.04369e-05
0
0
-2.52185e-05
-6.34608e-05
-6.34608e-05
-1.26091e-05
-1.57615e-06
0
-1.26085e-05
7.36437e-10
-3.82416e-05
-5.08515e-05
0
-3.82423e-05
3.68219e-10
3.54687e-10
3.14092e-10
-5.41265e-11
0
-1.08253e-10
3.68219e-10
0
3.14092e-10
3.68219e-10
0
3.68219e-10
-2.70633e-11
-5.41265e-11
7.36437e-10
3.68219e-10
3.68217e-10
3.64836e-10
3.68219e-10
3.68219e-10
0
0
0
7.09374e-10
0
0
0
0
3.68219e-10
3.68219e-10
0
0
0
0
3.68219e-10
0
7.36437e-10
0
3.68219e-10
7.36437e-10
0
0
0
0
3.68219e-10
0
0
3.68219e-10
7.36437e-10
7.36437e-10
0
0
0
0
3.68219e-10
0
0
7.36437e-10
7.36437e-10
-1.35316e-11
3.68219e-10
0
0
3.68219e-10
0
0
0
7.36437e-10
-3.38291e-12
0
3.68219e-10
0
0
0
3.68219e-10
0
0
7.36437e-10
0
3.68219e-10
3.68219e-10
0
7.36437e-10
7.36437e-10
0
7.36437e-10
7.36437e-10
7.36437e-10
7.36437e-10
0
-6.00925e-27
0
0
7.36437e-10
7.36437e-10
7.36437e-10
0
0
0
7.36437e-10
0
7.36437e-10
0
7.36437e-10
7.36437e-10
0
0
0
0
-4.5847e-32
7.36437e-10
0
0
1.47287e-09
0
7.36437e-10
0
0
0
0
0
0
0
7.36437e-10
0
7.36437e-10
-1.4671e-30
0
0
7.36437e-10
7.36437e-10
7.36437e-10
0
0
0
-2.29235e-32
7.36437e-10
7.36437e-10
0
0
0
7.36437e-10
7.36437e-10
-7.51157e-28
0
7.36437e-10
-1.50231e-27
0
7.36437e-10
7.36437e-10
7.36437e-10
7.36437e-10
7.36437e-10
-7.33552e-31
-9.38946e-29
7.36437e-10
7.36437e-10
7.36437e-10
7.36437e-10
0
0
7.36437e-10
7.36437e-10
7.36437e-10
0
1.47287e-09
-9.38946e-29
-9.38946e-29
0
-3.75578e-28
7.36437e-10
7.36437e-10
0
0
0
1.47287e-09
-1.87789e-28
7.36437e-10
7.36437e-10
-7.51157e-28
7.36437e-10
7.36437e-10
7.36437e-10
-3.75578e-28
1.47287e-09
0
7.36437e-10
0
0
0
0
0
7.36437e-10
0
7.36437e-10
0
7.36437e-10
-6.00925e-27
-5.73087e-33
-4.5847e-32
7.36437e-10
7.36437e-10
7.36437e-10
-1.20185e-26
0
7.36437e-10
7.36437e-10
7.36437e-10
-1.14617e-32
0
0
7.36437e-10
7.36437e-10
7.36437e-10
-1.50231e-27
7.36437e-10
-5.59655e-36
-5.59655e-36
7.36437e-10
-2.79828e-36
-2.79828e-36
0
0
-2.13492e-41
7.36437e-10
7.36437e-10
0
7.36437e-10
0
0
1.47287e-09
7.36437e-10
7.36437e-10
7.36437e-10
7.36437e-10
0
0
7.36437e-10
7.36437e-10
1.47287e-09
7.36437e-10
0
7.36437e-10
0
0
7.36437e-10
7.36437e-10
7.36437e-10
0
0
0
7.36437e-10
0
0
0
7.36437e-10
7.36437e-10
7.36437e-10
0
-4.26983e-41
7.36437e-10
0
0
7.36437e-10
7.36437e-10
0
7.36437e-10
0
0
-1.06746e-41
)
;

boundaryField
{
    fuel
    {
        type            calculated;
        value           uniform 0;
    }
    primary_air
    {
        type            calculated;
        value           uniform 0;
    }
    Secondary_air_RHS
    {
        type            calculated;
        value           uniform 0;
    }
    Secondary_air_LHS
    {
        type            calculated;
        value           uniform 0;
    }
    outlet
    {
        type            calculated;
        value           uniform 0;
    }
    stove_body
    {
        type            calculated;
        value           uniform 0;
    }
    frontAndBack
    {
        type            empty;
    }
}


// ************************************************************************* //
