/*--------------------------------*- C++ -*----------------------------------*\
  =========                 |
  \\      /  F ield         | OpenFOAM: The Open Source CFD Toolbox
   \\    /   O peration     | Website:  https://openfoam.org
    \\  /    A nd           | Version:  6
     \\/     M anipulation  |
\*---------------------------------------------------------------------------*/
FoamFile
{
    version     2.0;
    format      ascii;
    class       volScalarField;
    location    "0.5";
    object      T;
}
// * * * * * * * * * * * * * * * * * * * * * * * * * * * * * * * * * * * * * //

dimensions      [0 0 0 1 0 0 0];

internalField   nonuniform List<scalar> 
297
(
296.963
296.753
296.95
300.402
300.483
300.351
296.963
296.753
296.95
297.079
297.72
297.062
315.138
317.87
314.957
297.079
297.72
297.062
300.013
300.841
299.956
314.012
317.729
313.873
300.013
300.84
299.956
404.546
407.37
424.623
402.94
406.521
422.862
404.585
406.979
424.866
405.7
412.955
426.484
400.948
407.014
420.836
405.731
413.329
426.777
406.14
411.285
427.422
378.312
370.695
389.536
406.179
411.432
427.685
365.774
377.111
381.348
420.035
355.181
434.632
365.797
377.241
381.444
328.617
322.839
358.184
378.656
348.252
409.109
328.526
322.818
358.265
305.54
305.73
305.656
306.066
306.035
306.23
305.658
305.82
305.702
381.48
408.736
401.823
379.872
355.219
391.401
379.716
408.802
403.786
371.063
408.703
387.575
382.295
354.412
396.816
370.953
408.763
387.855
367.34
408.656
384.674
396.967
354.339
409.966
367.294
408.72
384.909
304.553
306.151
304.691
305.734
306.555
305.792
304.678
306.286
304.771
305.487
305.861
305.617
306.462
306.652
306.39
305.598
305.934
305.657
305.833
305.83
305.867
307.066
306.784
307.105
305.867
305.901
305.878
304.461
304.589
304.928
305.421
305.462
305.734
304.546
304.677
305.02
305.651
305.407
305.53
306.172
306.157
306.353
305.696
305.457
305.589
306.203
306.079
305.766
307.203
307.177
307.138
306.2
306.075
305.763
304.726
304.394
304.275
305.651
305.371
305.303
304.968
304.627
304.497
305.425
305.276
305.522
306.303
306.126
306.174
305.535
305.408
305.646
305.686
306.006
306.132
307.126
307.163
307.193
305.716
306.034
306.16
305.555
305.632
305.08
306.879
306.638
306.085
306.084
306.046
305.379
305.562
305.635
305.221
307.306
307.079
306.698
305.922
305.911
305.36
305.211
305.198
304.979
307.71
307.455
307.267
305.571
305.353
305.014
304.934
304.928
304.753
308.605
307.654
307.736
305.183
304.894
304.755
300.65
300.739
300.67
304.098
304.362
306.532
300.636
300.738
300.667
292.855
292.855
292.855
294.601
294.662
295
292.855
292.855
292.855
305.332
306
306.019
306.159
306.688
306.856
305.438
306.112
306.149
305.324
305.888
305.854
306.749
307.116
307.324
305.416
305.979
305.985
305.064
305.408
305.557
307.274
307.374
307.669
305.06
305.419
305.629
304.802
304.962
305.166
307.798
307.722
308.529
304.794
304.963
305.238
300.595
300.756
300.284
306.578
304.375
303.969
300.616
300.521
300.522
292.855
292.855
292.855
295.061
294.726
294.589
292.855
292.855
292.855
)
;

boundaryField
{
    fuel
    {
        type            fixedValue;
        value           uniform 293;
    }
    primary_air
    {
        type            fixedValue;
        value           uniform 293;
    }
    Secondary_air_RHS
    {
        type            fixedValue;
        value           uniform 293;
    }
    Secondary_air_LHS
    {
        type            fixedValue;
        value           uniform 293;
    }
    outlet
    {
        type            inletOutlet;
        inletValue      uniform 293;
        value           nonuniform List<scalar> 
18
(
293
295.061
293
293
294.726
293
293
294.589
293
293
294.601
293
293
294.662
293
293
295
293
)
;
    }
    stove_body
    {
        type            fixedValue;
        value           uniform 293;
    }
    frontAndBack
    {
        type            empty;
    }
}


// ************************************************************************* //
