/*--------------------------------*- C++ -*----------------------------------*\
  =========                 |
  \\      /  F ield         | OpenFOAM: The Open Source CFD Toolbox
   \\    /   O peration     | Website:  https://openfoam.org
    \\  /    A nd           | Version:  6
     \\/     M anipulation  |
\*---------------------------------------------------------------------------*/
FoamFile
{
    version     2.0;
    format      ascii;
    class       volVectorField;
    location    "0.5";
    object      U;
}
// * * * * * * * * * * * * * * * * * * * * * * * * * * * * * * * * * * * * * //

dimensions      [0 1 -1 0 0 0 0];

internalField   nonuniform List<vector> 
297
(
(26.8187 -0.00185318 0.117397)
(26.8255 -0.000215385 0.122852)
(26.8217 0.000815434 0.118531)
(-2.16686e-06 0.0507947 -0.0818445)
(1.97671e-06 0.00173053 -0.0672759)
(-2.78613e-06 -0.0507168 -0.0826601)
(-26.8187 -0.00187225 0.117318)
(-26.8254 -0.000220461 0.122925)
(-26.8217 0.000829448 0.118459)
(26.6864 -0.0146204 0.214886)
(26.7654 8.43149e-05 0.218644)
(26.6898 0.013854 0.215447)
(4.39969e-06 0.020663 -0.141405)
(-2.50567e-06 0.000978217 -0.144947)
(3.4033e-06 -0.0218193 -0.141163)
(-26.6864 -0.0145807 0.214882)
(-26.7653 8.21779e-05 0.218651)
(-26.6898 0.013812 0.215443)
(23.7957 -0.0406268 0.341932)
(24.0231 -0.000421414 0.345748)
(23.8365 0.0390243 0.341962)
(-1.29036e-06 -0.0246348 0.201901)
(8.95548e-07 0.000274114 0.220925)
(-1.89091e-06 0.0227244 0.202937)
(-23.7953 -0.0406319 0.341996)
(-24.0227 -0.000425547 0.345706)
(-23.8361 0.0390252 0.342021)
(24.6457 11.8664 -1.59524)
(24.8392 5.46385 7.09244)
(25.8906 -13.1259 6.60888)
(-0.000113945 8.73152 -0.352786)
(1.96616e-05 3.57209 0.620553)
(6.89257e-05 -10.2909 3.08972)
(-24.648 11.8318 -1.74857)
(-24.8155 5.95569 7.40974)
(-25.9058 -13.1632 7.26251)
(24.626 12.1115 8.62474)
(25.2492 3.01639 49.0409)
(25.943 -13.6194 16.5095)
(0.0016779 28.1382 91.4376)
(-0.000210615 0.404289 89.8886)
(-0.00240952 -32.7142 97.2773)
(-24.6234 12.1607 9.20532)
(-25.2752 1.05286 48.6408)
(-25.9694 -13.6192 15.7889)
(24.0264 -3.19112 -31.0565)
(25.3175 3.33663 75.9705)
(25.2852 1.96237 -12.067)
(-0.000109644 -25.4332 139.822)
(-0.000235946 2.08256 -21.7566)
(-0.000474558 23.632 147.374)
(-24.0275 -4.08338 -30.4892)
(-25.3266 5.52268 76.856)
(-25.3037 1.15056 -12.5318)
(22.6999 -20.8902 -149.231)
(22.5588 -4.94517 -9.32679)
(23.6919 24.2161 -144.755)
(-0.000339941 -4.32527 -9.05591)
(-7.92042e-05 5.88221 -96.3177)
(0.000475388 4.48291 7.55798)
(-22.7029 -21.0546 -149.538)
(-22.5667 -5.29385 -9.27744)
(-23.6964 24.1337 -144.552)
(20.081 44.1649 -96.1265)
(19.5705 -15.4871 -81.7219)
(21.9008 -36.0154 -92.6224)
(0.000195027 18.419 -71.8867)
(0.000105762 6.31826 -74.6711)
(-4.7904e-05 -14.5131 -60.3178)
(-20.0749 44.1107 -96.2202)
(-19.569 -15.2418 -81.6943)
(-21.9062 -36.0483 -92.5295)
(18.6307 32.436 -29.362)
(18.6258 -17.3688 -24.0984)
(18.6626 -36.9091 -29.016)
(6.20605e-05 33.5949 -25.9315)
(-2.55937e-05 11.8607 -28.698)
(-8.07602e-06 -23.5217 -28.043)
(-18.6377 32.3389 -29.3329)
(-18.6313 -17.4089 -24.1435)
(-18.6654 -36.8761 -29.0293)
(17.487 1.69459 -234.72)
(24.251 -1.28454 105.011)
(18.4645 -0.120013 -229.843)
(-0.0183663 -16.079 201.476)
(-0.00141679 5.80812 -117.896)
(0.0156691 14.0483 210.02)
(-17.4366 1.03715 -235.444)
(-24.2472 -1.4988 105.247)
(-18.5273 -0.760553 -229.28)
(17.9824 -4.17523 -236.791)
(21.6346 -1.60366 104.294)
(18.8151 6.51276 -232.189)
(-0.0147681 -9.93144 227.391)
(-0.00143303 5.85509 -121.008)
(0.0127175 7.77636 236.709)
(-17.9982 -4.64341 -237.612)
(-21.6544 -2.02751 104.547)
(-18.8091 6.07611 -231.517)
(21.9917 -10.334 -209.838)
(21.8346 -1.70726 100.963)
(22.8949 13.3242 -205.405)
(-0.0106249 -3.38685 224.08)
(-0.00153483 5.92734 -121.34)
(0.00911399 1.29688 233.627)
(-22.0434 -10.5929 -210.526)
(-21.8556 -2.37606 101.19)
(-22.8609 13.1072 -204.847)
(18.37 62.707 -16.3643)
(18.5296 2.90046 -17.4818)
(18.3799 -62.8326 -16.981)
(4.16297e-06 47.6703 -18.5102)
(-4.37881e-05 -4.26722 -19.2482)
(-3.82463e-05 -48.518 -16.6819)
(-18.3777 62.6634 -16.3533)
(-18.538 2.89579 -17.4731)
(-18.385 -62.7936 -16.9707)
(18.6097 35.1137 -6.22279)
(18.6876 -1.45677 -1.03574)
(18.6194 -35.2014 -6.29805)
(-8.18256e-06 30.0151 -8.17004)
(-4.33692e-05 0.543659 -8.59399)
(-3.45685e-05 -31.4442 -7.82344)
(-18.6165 35.0959 -6.22813)
(-18.6922 -1.47726 -1.05742)
(-18.6219 -35.1924 -6.31972)
(18.6946 -5.14866 -5.56338)
(18.7034 0.0545235 3.17461)
(18.6943 5.65609 -5.52572)
(1.20905e-05 13.1748 -5.91373)
(-9.38764e-05 -2.95692 -3.6935)
(1.65845e-05 -13.1442 -5.06546)
(-18.6967 -5.13828 -5.55391)
(-18.7081 0.0578671 3.16455)
(-18.6949 5.65277 -5.49185)
(18.3497 -66.6075 -7.18978)
(18.5418 -60.2165 -10.6745)
(18.4714 -51.4595 -14.3185)
(-2.69255e-05 -53.1608 -6.12652)
(-4.81388e-05 -50.1944 -5.69043)
(-3.04686e-05 -42.6323 -5.93645)
(-18.355 -66.567 -7.17181)
(-18.5473 -60.1625 -10.6551)
(-18.4771 -51.3988 -14.3005)
(18.5292 -47.5864 -3.68347)
(18.6353 -49.804 -12.2388)
(18.396 -42.4068 -22.9503)
(-4.87141e-05 -43.3961 0.2448)
(2.2362e-05 -43.4082 2.22668)
(-1.3575e-05 -36.9656 4.33763)
(-18.532 -47.5734 -3.70575)
(-18.6383 -49.784 -12.2572)
(-18.3994 -42.3846 -22.9727)
(18.723 -4.57582 -4.84337)
(18.6989 -23.5585 -20.9483)
(18.457 -36.0874 -32.727)
(-2.49853e-06 -24.5482 2.56065)
(-3.0381e-05 -25.8615 4.4651)
(1.41822e-05 -27.4443 4.25666)
(-18.7228 -4.54358 -4.7874)
(-18.6988 -23.5162 -20.9276)
(-18.4568 -36.0664 -32.7186)
(18.4605 51.2366 -14.2716)
(18.5307 59.9684 -10.6344)
(18.3396 66.3392 -7.15744)
(-7.26308e-05 42.5131 -5.93488)
(-2.9671e-05 49.8729 -5.64338)
(-2.2399e-05 53.1053 -6.15129)
(-18.4754 51.1764 -14.2579)
(-18.545 59.9144 -10.6179)
(-18.3532 66.2922 -7.14416)
(18.3915 42.2762 -22.9049)
(18.6278 49.6176 -12.2269)
(18.5222 47.4784 -3.68851)
(-4.46382e-05 36.8145 4.2884)
(-2.27423e-05 43.1922 2.31323)
(-1.97893e-05 43.2295 0.155935)
(-18.3979 42.2359 -22.9124)
(-18.636 49.5848 -12.2292)
(-18.5298 47.4515 -3.69787)
(18.4536 35.9769 -32.6486)
(18.6956 23.4876 -20.7691)
(18.7192 4.68752 -4.71214)
(-1.77217e-05 27.3042 4.25374)
(-1.73324e-05 25.7918 4.46721)
(-9.04942e-06 24.357 2.68472)
(-18.4556 35.9553 -32.644)
(-18.6974 23.4613 -20.7538)
(-18.7209 4.6755 -4.69272)
(18.3451 15.8852 -25.4641)
(18.3489 23.9576 -17.2784)
(18.4028 37.1459 -20.4597)
(-0.000369148 15.1285 -12.6991)
(-0.000286742 21.0972 -6.67665)
(-0.000170887 32.2251 -7.41496)
(-18.378 15.8602 -25.412)
(-18.3746 23.9334 -17.23)
(-18.4212 37.0922 -20.432)
(18.3898 6.03788 -39.4283)
(18.4072 20.6665 -27.5439)
(18.3195 35.1408 -34.7438)
(-0.000285301 10.7669 -11.4381)
(-0.00019736 16.9766 -5.60202)
(-9.53537e-05 28.9682 -2.71813)
(-18.4124 6.04322 -39.3615)
(-18.4244 20.6646 -27.5006)
(-18.3272 35.106 -34.7221)
(18.613 5.19139 -49.673)
(18.4345 22.374 -43.7881)
(18.3625 20.1417 -54.1579)
(-0.000214373 8.52248 -18.9081)
(-0.000140066 17.311 -12.8181)
(-6.2717e-05 23.9269 -2.22971)
(-18.6353 5.1988 -49.6055)
(-18.4446 22.3587 -43.757)
(-18.365 20.1231 -54.1473)
(18.5647 -6.81671 -79.4058)
(18.5409 -5.27038 -73.1976)
(18.564 -10.5097 -77.2746)
(5.72164e-05 -7.12048 -1.01656)
(7.29916e-05 1.10272 11.9861)
(8.59048e-05 -7.07335 13.1116)
(-18.5797 -6.78148 -79.3517)
(-18.5388 -5.24035 -73.1825)
(-18.5639 -10.5139 -77.2543)
(18.2221 2.96615 -142.514)
(18.2111 -1.08915 -142.944)
(18.1994 4.39471 -141.719)
(9.88046e-05 -3.7231 71.2914)
(8.02383e-05 -0.0627262 69.7641)
(7.39751e-05 -2.28531 61.4452)
(-18.2209 2.95186 -142.492)
(-18.2109 -1.08767 -142.927)
(-18.199 4.40101 -141.699)
(17.3526 -0.0633871 -174.458)
(17.3508 -0.00889522 -174.324)
(17.3493 -0.115463 -173.999)
(4.60382e-05 -0.809469 168.685)
(4.60271e-05 0.772266 168.196)
(4.58567e-05 -0.395721 165.391)
(-17.3525 -0.0629634 -174.446)
(-17.3506 -0.008843 -174.314)
(-17.3491 -0.115394 -173.99)
(18.4165 -37.3239 -20.5477)
(18.3689 -24.0721 -17.3629)
(18.3705 -15.9649 -25.5987)
(-8.79617e-05 -32.4417 -7.45048)
(-0.000209335 -21.2048 -6.71397)
(-0.000315174 -15.2224 -12.7631)
(-18.4229 -37.2539 -20.515)
(-18.3763 -24.0335 -17.297)
(-18.3795 -15.925 -25.5161)
(18.3231 -35.2768 -34.8519)
(18.4207 -20.7461 -27.6521)
(18.4056 -6.05882 -39.6406)
(-5.07662e-05 -29.1197 -2.7719)
(-0.000115278 -17.0381 -5.63161)
(-0.0002098 -10.8195 -11.5035)
(-18.3283 -35.2548 -34.86)
(-18.4267 -20.7268 -27.6354)
(-18.4143 -6.06295 -39.5378)
(18.3655 -20.2138 -54.3592)
(18.4455 -22.4622 -43.938)
(18.6334 -5.21287 -49.9383)
(-1.55961e-05 -24.0286 -2.26951)
(-7.79464e-05 -17.3915 -12.9006)
(-0.000150641 -8.55959 -19.0218)
(-18.3656 -20.1957 -54.3538)
(-18.447 -22.4494 -43.9723)
(-18.6379 -5.21439 -49.8434)
(18.5663 10.5158 -77.5674)
(18.5421 5.29345 -73.4217)
(18.5782 6.85471 -79.7927)
(3.54853e-05 7.04264 13.0497)
(3.58477e-05 -1.07793 11.7276)
(2.56798e-05 7.15259 -1.17702)
(-18.5658 10.5191 -77.5301)
(-18.5422 5.28002 -73.5696)
(-18.5825 6.81597 -79.7277)
(18.1942 -4.38985 -142.035)
(18.2115 1.09382 -143.249)
(18.1993 -2.97629 -142.842)
(2.9841e-05 2.29148 61.4222)
(2.53437e-05 0.0817711 69.9238)
(3.68955e-05 3.7599 71.4099)
(-18.1954 -4.38647 -142.025)
(-18.1973 1.08148 -143.263)
(-18.2137 -2.96545 -142.816)
(17.3492 0.116152 -174.283)
(17.3508 0.0136915 -174.613)
(17.3525 0.0660961 -174.729)
(2.34695e-05 0.389168 165.257)
(2.44435e-05 -0.778414 168.067)
(3.75136e-05 0.817981 168.575)
(-17.3492 0.115866 -174.281)
(-17.3506 0.0096904 -174.598)
(-17.3526 0.0625426 -174.736)
)
;

boundaryField
{
    fuel
    {
        type            fixedValue;
        value           uniform (0 0 0.1);
    }
    primary_air
    {
        type            fixedValue;
        value           uniform (0 0 0.1);
    }
    Secondary_air_RHS
    {
        type            fixedValue;
        value           uniform (0 159 0);
    }
    Secondary_air_LHS
    {
        type            fixedValue;
        value           uniform (0 -159 0);
    }
    outlet
    {
        type            pressureInletOutletVelocity;
        value           nonuniform List<vector> 
18
(
(0 0 -174.283)
(2.34695e-05 0.389168 165.257)
(0 0 -174.281)
(0 0 -174.613)
(2.44435e-05 -0.778414 168.067)
(0 0 -174.598)
(0 0 -174.729)
(3.75136e-05 0.817981 168.575)
(0 0 -174.736)
(0 0 -174.458)
(4.60382e-05 -0.809469 168.685)
(0 0 -174.446)
(0 0 -174.324)
(4.60271e-05 0.772266 168.196)
(0 0 -174.314)
(0 0 -173.999)
(4.58567e-05 -0.395721 165.391)
(0 0 -173.99)
)
;
    }
    stove_body
    {
        type            noSlip;
    }
    frontAndBack
    {
        type            empty;
    }
}


// ************************************************************************* //
