/*--------------------------------*- C++ -*----------------------------------*\
  =========                 |
  \\      /  F ield         | OpenFOAM: The Open Source CFD Toolbox
   \\    /   O peration     | Website:  https://openfoam.org
    \\  /    A nd           | Version:  6
     \\/     M anipulation  |
\*---------------------------------------------------------------------------*/
FoamFile
{
    version     2.0;
    format      ascii;
    class       volScalarField;
    location    "2";
    object      p;
}
// * * * * * * * * * * * * * * * * * * * * * * * * * * * * * * * * * * * * * //

dimensions      [1 -1 -2 0 0 0 0];

internalField   nonuniform List<scalar> 
297
(
116838
116838
116838
194467
194467
194467
116838
116838
116838
116838
116838
116838
194467
194467
194467
116838
116838
116838
116838
116838
116838
194467
194467
194467
116838
116838
116838
96791.4
96803.7
96797.7
160654
160712
160715
96793.6
96806.6
96799.1
97099.9
96562.3
96917
160566
161010
160529
97082.8
96555.8
96903.9
93513.4
93535.7
93864.6
150330
156045
150796
93525.8
93611.9
93879.3
90214.7
93441.4
89808.9
154008
153543
153487
90208.8
93357.6
89798.9
95809.8
96186
95632.3
159708
159160
159768
95836.4
96185.8
95655
95757.7
96202.9
95681.2
159106
159834
159453
95753.1
96196.7
95682.7
70221.7
91462.3
71206.1
115520
148757
115845
70215.8
91427
71207.3
68739.1
91317.7
69651.4
111583
148179
111766
68733
91275
69651.6
71057.8
91457.2
71779.5
114466
148579
114469
71053.9
91410.5
71780
96543.4
96714.1
96523.6
160194
160472
160239
96538.2
96706.8
96522.3
96668
96713.3
96645
160518
160609
160522
96663.1
96706.1
96643.5
96670.4
96701.1
96648.7
160669
160677
160653
96665.4
96694.1
96647.1
96808.1
97045.7
97621.1
160466
160592
160854
96807.9
97045.1
97617.1
96674.3
96748.6
97145.1
160516
160524
160598
96675
96749.5
97143.6
96550.2
96412.6
96333.9
160644
160557
160439
96551.4
96414.9
96335.9
97627.1
97062
96827.3
160885
160621
160481
97624.9
97061.6
96826
97159.3
96770.7
96697
160633
160557
160540
97158.8
96771.2
96696.3
96362
96440.1
96575
160476
160591
160672
96363.8
96441.4
96574.4
98875
98643.6
98227.8
161907
161717
161334
98859.9
98632.3
98221.3
98556.6
98283.4
97834.4
161537
161344
160979
98544.3
98275
97830.1
98151.1
97865.5
97334.6
161060
160827
160561
98140.9
97858.7
97331.7
96168.7
96073.4
95901.7
158834
158716
158608
96168
96073.1
95901.8
90185.3
90225.6
90279.9
149029
149027
149024
90191.9
90231.6
90285.8
82786.2
82787.3
82789.7
132626
132622
132610
82789.5
82790.5
82792.9
98233.2
98656.7
98892.6
161311
161701
161895
98224.2
98642.6
98874.6
97832.9
98289.9
98567.8
160949
161321
161518
97826.4
98279.1
98553
97323.1
97863.2
98153.9
160522
160793
161033
97318.8
97854.6
98141.6
95863.4
96037
96133.8
158537
158646
158766
95864.8
96037.9
96134.1
90213.7
90159.1
90118
148913
148917
148918
90220.8
90166.2
90125.7
82720.2
82717.7
82716.7
132505
132517
132523
82723.5
82721
82720
)
;

boundaryField
{
    fuel
    {
        type            zeroGradient;
    }
    primary_air
    {
        type            zeroGradient;
    }
    Secondary_air_RHS
    {
        type            zeroGradient;
    }
    Secondary_air_LHS
    {
        type            zeroGradient;
    }
    outlet
    {
        type            totalPressure;
        rho             rho;
        psi             none;
        gamma           1;
        p0              uniform 100000;
        value           nonuniform List<scalar> 
18
(
86318.9
100000
86323.8
86270.3
100000
86275.2
86255.7
100000
86261
86325.4
100000
86330.3
86339.3
100000
86343.7
86387.7
100000
86392
)
;
    }
    stove_body
    {
        type            zeroGradient;
    }
    frontAndBack
    {
        type            empty;
    }
}


// ************************************************************************* //
