/*--------------------------------*- C++ -*----------------------------------*\
  =========                 |
  \\      /  F ield         | OpenFOAM: The Open Source CFD Toolbox
   \\    /   O peration     | Website:  https://openfoam.org
    \\  /    A nd           | Version:  6
     \\/     M anipulation  |
\*---------------------------------------------------------------------------*/
FoamFile
{
    version     2.0;
    format      ascii;
    class       volScalarField;
    location    "2";
    object      T;
}
// * * * * * * * * * * * * * * * * * * * * * * * * * * * * * * * * * * * * * //

dimensions      [0 0 0 1 0 0 0];

internalField   nonuniform List<scalar> 
297
(
292.694
292.694
292.694
292.992
292.996
292.992
292.694
292.694
292.694
292.752
292.84
292.749
293.247
293.665
293.236
292.752
292.84
292.749
292.86
293.073
292.853
293.175
362.42
293.193
292.86
293.073
292.853
289.387
290.069
288.258
291.907
292.416
291.701
289.533
290.185
288.348
288.825
288.015
286.933
287.073
287.791
284.771
288.973
288.122
287.031
289.157
286.81
287.6
283.12
294.254
282.357
289.339
286.854
287.729
281.939
293.405
281.616
288.173
292.413
287.492
282.068
293.494
281.703
293.122
298.005
290.657
291.057
293.937
288.148
293.4
298.319
290.794
303.844
303.954
304.03
304.65
304.497
304.758
304.344
304.381
304.336
274.679
285.117
274.641
277.603
290.746
275.697
274.803
286.34
274.74
274.638
285.23
274.931
274.354
290.252
272.325
274.773
286.314
275
277.694
285.775
277.788
274.44
290.446
272.314
277.823
286.326
277.868
303.063
304.373
303.091
304.596
305.081
304.682
303.598
304.914
303.678
303.835
304.284
304.089
305.287
305.169
305.268
304.289
304.732
304.526
304.314
304.261
304.265
305.596
305.117
305.597
304.632
304.689
304.671
302.782
302.853
303.129
304.247
304.266
304.507
303.472
303.598
303.886
303.988
303.775
303.863
305.073
304.995
305.177
304.455
304.238
304.33
304.449
304.332
304.059
305.782
305.789
305.743
304.856
304.739
304.487
303.077
302.835
302.765
304.385
304.147
304.115
303.817
303.557
303.45
303.756
303.645
303.863
305.183
304.982
305.063
304.266
304.146
304.335
304.1
304.363
304.478
305.812
305.854
305.838
304.43
304.678
304.793
303.389
303.624
303.286
305.468
305.217
304.75
304.647
304.624
304.125
303.531
303.838
303.53
305.996
305.814
305.527
304.532
304.532
304.133
303.436
303.811
303.529
306.24
305.982
305.911
304.309
304.174
303.918
303.372
303.789
303.35
307.076
306.034
306.463
304.007
303.817
303.728
300.054
300.136
300.135
303.577
303.369
305.234
300.054
300.133
300.134
292.649
292.682
292.729
292.753
292.813
293.146
292.648
292.681
292.728
303.406
303.786
303.608
304.885
305.358
305.55
304.205
304.722
304.771
303.627
304.126
303.73
305.501
305.793
306.095
304.202
304.597
304.577
303.487
303.952
303.643
305.829
305.964
306.298
303.99
304.253
304.379
303.19
303.761
303.01
306.791
306.22
307.067
303.796
303.887
304.08
300.176
300.178
300.093
305.513
303.569
303.57
300.175
300.175
300.09
292.747
292.699
292.669
293.31
292.942
292.839
292.746
292.698
292.667
)
;

boundaryField
{
    fuel
    {
        type            fixedValue;
        value           uniform 293;
    }
    primary_air
    {
        type            fixedValue;
        value           uniform 293;
    }
    Secondary_air_RHS
    {
        type            fixedValue;
        value           uniform 293;
    }
    Secondary_air_LHS
    {
        type            fixedValue;
        value           uniform 293;
    }
    outlet
    {
        type            inletOutlet;
        inletValue      uniform 293;
        value           nonuniform List<scalar> 
18
(
293
293.31
293
293
292.942
293
293
292.839
293
293
292.753
293
293
292.813
293
293
293.146
293
)
;
    }
    stove_body
    {
        type            fixedValue;
        value           uniform 293;
    }
    frontAndBack
    {
        type            empty;
    }
}


// ************************************************************************* //
