/*--------------------------------*- C++ -*----------------------------------*\
  =========                 |
  \\      /  F ield         | OpenFOAM: The Open Source CFD Toolbox
   \\    /   O peration     | Website:  https://openfoam.org
    \\  /    A nd           | Version:  6
     \\/     M anipulation  |
\*---------------------------------------------------------------------------*/
FoamFile
{
    version     2.0;
    format      ascii;
    class       volVectorField;
    location    "2";
    object      U;
}
// * * * * * * * * * * * * * * * * * * * * * * * * * * * * * * * * * * * * * //

dimensions      [0 1 -1 0 0 0 0];

internalField   nonuniform List<vector> 
297
(
(34.2624 -0.0128507 0.28516)
(34.2624 -0.00015249 0.262996)
(34.2624 0.0128622 0.285049)
(2.09602e-11 0.0306385 0.31597)
(-4.09039e-10 9.09411e-05 0.281418)
(-8.14285e-10 -0.0306026 0.31627)
(-34.2624 -0.0128508 0.28516)
(-34.2624 -0.000152527 0.262996)
(-34.2624 0.0128622 0.285049)
(34.2664 -0.0069944 0.300395)
(34.2781 4.1507e-05 0.284448)
(34.2661 0.00689941 0.30026)
(-2.08581e-10 0.0709406 -0.263499)
(-6.40178e-10 0.00100755 -0.0125535)
(-1.05631e-09 -0.0709922 -0.26307)
(-34.2664 -0.00699447 0.300395)
(-34.2781 4.14446e-05 0.284448)
(-34.2661 0.00689942 0.30026)
(34.2789 -0.0641297 0.532188)
(34.3078 -0.00120955 0.505951)
(34.2781 0.0629684 0.531647)
(-3.03005e-10 -0.0891481 0.491444)
(-7.46795e-10 0.0016671 0.310549)
(-9.05452e-10 0.0891747 0.492571)
(-34.2789 -0.0641297 0.532188)
(-34.3078 -0.00120951 0.505951)
(-34.2781 0.0629684 0.531647)
(22.2839 9.46227 1.45496)
(22.2243 5.51059 7.09391)
(22.1729 -9.51128 8.89018)
(0.000114724 5.47408 2.2892)
(0.000154126 2.67796 1.92599)
(7.08277e-05 -6.0435 4.82942)
(-22.2948 9.46308 1.46914)
(-22.2326 5.50926 7.09907)
(-22.1795 -9.50211 8.89885)
(22.2689 11.5436 9.75125)
(22.3153 1.96491 39.1244)
(22.1804 -12.7308 16.6065)
(-0.000885946 24.0441 74.7489)
(-0.000334292 0.152421 70.0772)
(-0.000670975 -26.9739 78.7297)
(-22.2829 11.5484 9.7879)
(-22.3245 1.942 39.1378)
(-22.1899 -12.721 16.6263)
(21.7062 -0.765431 -17.9023)
(22.3468 4.2675 59.9886)
(21.5895 -1.43531 -1.18314)
(0.000677384 -20.87 114.444)
(0.00411583 0.878677 -10.4036)
(0.000794777 18.4999 119.023)
(-21.7184 -0.851024 -17.9219)
(-22.3386 4.26033 59.9621)
(-21.5975 -1.37652 -1.24031)
(22.1107 -17.0725 -122.984)
(22.2161 -4.10183 -8.10368)
(22.1127 19.7023 -114.379)
(-0.000319253 -3.48142 2.22752)
(-0.00466481 3.39082 -79.2062)
(-0.000540552 1.91075 14.9648)
(-22.1216 -17.0753 -122.941)
(-22.2351 -4.08077 -7.96903)
(-22.1209 19.6996 -114.333)
(22.6954 37.395 -83.0233)
(22.8931 -13.5951 -73.4159)
(22.5351 -29.3354 -75.0972)
(0.00140905 17.1256 -46.2227)
(-8.71937e-06 1.84371 -59.8294)
(0.00118678 -11.4288 -32.0073)
(-22.713 37.363 -83.0329)
(-22.9171 -13.5478 -73.4356)
(-22.5423 -29.3407 -75.1086)
(23.4939 28.0292 -26.652)
(23.4657 -16.9699 -22.6536)
(23.5405 -32.6322 -26.4533)
(-0.000257074 28.6114 -27.918)
(-0.000343852 12.6025 -28.4907)
(8.4825e-05 -17.1187 -30.5024)
(-23.5334 28.0063 -26.6498)
(-23.4997 -16.8849 -22.642)
(-23.5642 -32.5675 -26.449)
(16.0757 2.97359 -180.368)
(21.4103 -0.854784 81.4078)
(16.2242 -2.64648 -169.942)
(-0.000413504 -12.3448 161.021)
(-0.00172647 3.29986 -98.1884)
(7.96e-05 9.86864 165.423)
(-16.0812 2.85266 -180.424)
(-21.5082 -0.848203 81.3273)
(-16.2274 -2.53485 -169.976)
(16.9585 -2.52074 -183.736)
(19.1592 -1.28556 80.8457)
(17.0537 3.63796 -173.538)
(-0.000357368 -6.50091 179.513)
(-0.00206592 3.34475 -101.064)
(1.07429e-05 4.02749 184.021)
(-16.9638 -2.59315 -183.759)
(-19.2762 -1.27366 80.7543)
(-17.0547 3.70279 -173.534)
(21.0047 -8.54176 -166.307)
(19.3699 -1.63846 78.3042)
(20.8697 10.5209 -156.776)
(-0.000209054 -0.821702 175.908)
(-0.00259025 3.39034 -101.401)
(2.72854e-05 -1.50416 180.63)
(-21.0068 -8.56321 -166.268)
(-19.4532 -1.64056 78.1652)
(-20.8668 10.5371 -156.713)
(23.1401 55.7937 -14.3267)
(23.3152 1.26552 -15.6304)
(23.1467 -56.1662 -14.5857)
(-0.000287061 39.6594 -16.3423)
(-0.000405497 -4.18055 -16.5032)
(-7.21889e-05 -40.5387 -14.0083)
(-23.1819 55.6855 -14.3469)
(-23.3576 1.31332 -15.6511)
(-23.1922 -56.0354 -14.5863)
(23.434 35.2669 -4.51837)
(23.5293 -3.07864 -1.31275)
(23.4558 -35.6036 -4.56995)
(-0.000271393 21.307 -8.35726)
(-0.000397342 0.848434 -7.19489)
(-8.64911e-05 -22.4925 -7.9239)
(-23.4692 35.2017 -4.55066)
(-23.5651 -3.02375 -1.35159)
(-23.49 -35.5174 -4.60477)
(23.5702 -3.91504 -5.00751)
(23.5746 -0.696039 3.37069)
(23.5667 4.39633 -5.22696)
(-0.000273088 6.38032 -5.60904)
(-0.00038966 -1.73805 -1.99959)
(-8.87015e-05 -6.60488 -4.60539)
(-23.5955 -3.82522 -5.03395)
(-23.6089 -0.679934 3.32703)
(-23.5983 4.35271 -5.21813)
(23.1125 -58.8774 -6.00837)
(23.3887 -53.3547 -9.37035)
(23.3054 -45.6297 -12.7081)
(-8.03418e-06 -45.7602 -5.51819)
(-3.33069e-05 -43.732 -5.09298)
(-0.00021852 -36.5831 -5.23735)
(-23.1659 -58.746 -5.97677)
(-23.4464 -53.215 -9.33129)
(-23.3643 -45.4966 -12.6692)
(23.3268 -43.7859 -2.78764)
(23.5102 -45.383 -10.9786)
(23.2043 -38.3657 -20.4431)
(3.60359e-05 -37.1742 -0.360679)
(4.79992e-05 -37.506 1.54701)
(-8.54573e-05 -31.4839 3.6484)
(-23.363 -43.7111 -2.81107)
(-23.546 -45.2843 -10.9846)
(-23.2406 -38.2923 -20.4383)
(23.6017 -8.23507 -5.09665)
(23.5993 -23.8704 -18.3839)
(23.2341 -32.9486 -29.1231)
(6.42936e-05 -19.6199 2.03849)
(0.000128702 -20.8132 4.38507)
(0.00011186 -22.8433 4.3049)
(-23.6331 -8.23733 -5.05791)
(-23.631 -23.8266 -18.33)
(-23.2673 -32.8917 -29.0814)
(23.3039 45.2432 -12.6119)
(23.3875 52.8686 -9.29744)
(23.1123 58.4038 -5.99174)
(-0.000122711 36.4443 -5.24226)
(-2.2359e-05 43.2249 -5.02737)
(-7.3463e-05 45.8371 -5.57404)
(-23.3613 45.1273 -12.5874)
(-23.4433 52.7517 -9.2652)
(-23.1653 58.3006 -5.96552)
(23.1996 38.031 -20.2643)
(23.4996 45.0542 -10.9259)
(23.3204 43.339 -2.85318)
(-3.03027e-05 31.261 3.55453)
(2.54303e-05 37.2485 1.62674)
(-3.92046e-05 37.0708 -0.574669)
(-23.2385 37.9677 -20.2733)
(-23.5384 44.99 -10.9275)
(-23.3555 43.2918 -2.86593)
(23.2395 32.6745 -28.8655)
(23.6018 23.7958 -18.4351)
(23.6025 7.63454 -5.15772)
(9.87068e-05 22.6704 4.25389)
(7.33437e-05 20.7333 4.29537)
(-3.76993e-05 19.5418 1.96272)
(-23.2651 32.6335 -28.8409)
(-23.6264 23.763 -18.3835)
(-23.6271 7.70021 -5.10458)
(23.1277 14.1586 -22.1916)
(23.1404 21.0607 -15.2583)
(23.2278 32.7925 -17.8261)
(-0.000821056 13.5471 -11.1498)
(-0.000618517 18.2941 -6.12492)
(-0.000355138 27.7767 -6.4703)
(-23.2265 14.1152 -22.0891)
(-23.2188 21.0035 -15.1812)
(-23.2929 32.6848 -17.7756)
(23.1927 5.55225 -34.064)
(23.2241 18.2403 -24.168)
(23.1448 31.5942 -30.5081)
(-0.000669762 9.25425 -10.3105)
(-0.000463107 14.4061 -4.99738)
(-0.000237165 25.3544 -3.11702)
(-23.2715 5.56797 -33.9268)
(-23.2787 18.2144 -24.1263)
(-23.1908 31.5405 -30.4848)
(23.5176 4.67115 -42.5736)
(23.2857 20.1836 -37.7553)
(23.1916 18.3891 -46.9639)
(-0.000556072 7.44861 -16.4066)
(-0.000375758 15.139 -11.324)
(-0.000162938 20.6164 -0.743704)
(-23.5862 4.68325 -42.4302)
(-23.3158 20.1593 -37.725)
(-23.2225 18.3588 -46.9162)
(23.4278 -5.70184 -67.9533)
(23.4282 -4.423 -63.1805)
(23.4375 -10.2105 -67.4705)
(-4.34319e-05 -6.33397 4.43061)
(-1.81976e-05 1.64402 17.6364)
(9.21377e-06 -7.80401 14.7053)
(-23.4768 -5.63392 -67.8058)
(-23.4309 -4.39077 -63.1802)
(-23.4666 -10.2123 -67.3668)
(23.03 2.47482 -132.676)
(23.0194 -1.15506 -133.068)
(23.0115 4.59886 -131.802)
(0.000393165 -2.0253 64.4934)
(0.00035701 0.17148 66.7717)
(0.000352985 -1.86979 61.102)
(-23.0288 2.43993 -132.572)
(-23.0183 -1.14231 -133.018)
(-23.0104 4.59607 -131.742)
(21.9047 -0.0953785 -165.986)
(21.9068 -0.0252685 -165.888)
(21.9092 -0.170517 -165.548)
(0.000205849 -0.593362 172.009)
(0.000202081 0.330375 170.664)
(0.000199926 -0.51374 168.51)
(-21.9041 -0.0929618 -165.951)
(-21.9063 -0.0241021 -165.857)
(-21.9087 -0.16952 -165.518)
(23.2334 -33.0919 -17.9701)
(23.148 -21.2562 -15.3747)
(23.139 -14.2787 -22.3969)
(-0.000496251 -28.161 -6.51619)
(-0.000768842 -18.4775 -6.18298)
(-0.000983153 -13.7192 -11.2516)
(-23.2958 -32.9722 -17.9017)
(-23.2219 -21.188 -15.2843)
(-23.231 -14.228 -22.2723)
(23.1463 -31.8047 -30.7582)
(23.2416 -18.4363 -24.3323)
(23.2033 -5.58512 -34.3988)
(-0.000360439 -25.5977 -3.15745)
(-0.000594127 -14.5273 -5.05788)
(-0.000808774 -9.33451 -10.4486)
(-23.1914 -31.7383 -30.725)
(-23.2798 -18.3896 -24.2904)
(-23.2708 -5.59544 -34.237)
(23.1826 -18.5123 -47.3786)
(23.2931 -20.3209 -38.0948)
(23.5325 -4.70817 -43.0078)
(-0.000237792 -20.8623 -0.750784)
(-0.000475026 -15.2289 -11.4979)
(-0.000669439 -7.53467 -16.6057)
(-23.2227 -18.4805 -47.3054)
(-23.3188 -20.2833 -38.0659)
(-23.5906 -4.71371 -42.8425)
(23.4239 10.2204 -68.0124)
(23.4247 4.4659 -63.6834)
(23.399 5.78028 -68.6447)
(8.0461e-05 7.73549 14.6668)
(4.80128e-05 -1.60545 17.5143)
(2.01407e-05 6.39003 3.78242)
(-23.4705 10.2249 -67.8889)
(-23.4347 4.44228 -63.7022)
(-23.4814 5.71307 -68.4724)
(23.0135 -4.58738 -132.367)
(23.0216 1.16645 -133.626)
(23.0324 -2.51363 -133.304)
(0.000421213 1.87194 61.1578)
(0.000422178 -0.111083 66.8318)
(0.000459798 2.05766 64.9164)
(-23.0123 -4.58218 -132.297)
(-23.0204 1.14887 -133.572)
(-23.0309 -2.48041 -133.221)
(21.9105 0.171631 -166.032)
(21.9081 0.0253709 -166.373)
(21.9063 0.097793 -166.476)
(0.00020924 0.502998 168.313)
(0.000209953 -0.343013 170.507)
(0.000211697 0.58583 171.76)
(-21.9099 0.170889 -165.997)
(-21.9075 0.0253164 -166.339)
(-21.9057 0.0960501 -166.438)
)
;

boundaryField
{
    fuel
    {
        type            fixedValue;
        value           uniform (0 0 0.25);
    }
    primary_air
    {
        type            fixedValue;
        value           uniform (0 0 2.5);
    }
    Secondary_air_RHS
    {
        type            fixedValue;
        value           uniform (0 150 0);
    }
    Secondary_air_LHS
    {
        type            fixedValue;
        value           uniform (0 -150 0);
    }
    outlet
    {
        type            pressureInletOutletVelocity;
        value           nonuniform List<vector> 
18
(
(0 0 -166.032)
(0.00020924 0.502998 168.313)
(0 0 -165.997)
(0 0 -166.373)
(0.000209953 -0.343013 170.507)
(0 0 -166.339)
(0 0 -166.476)
(0.000211697 0.58583 171.76)
(0 0 -166.438)
(0 0 -165.986)
(0.000205849 -0.593362 172.009)
(0 0 -165.951)
(0 0 -165.888)
(0.000202081 0.330375 170.664)
(0 0 -165.857)
(0 0 -165.548)
(0.000199926 -0.51374 168.51)
(0 0 -165.518)
)
;
    }
    stove_body
    {
        type            noSlip;
    }
    frontAndBack
    {
        type            empty;
    }
}


// ************************************************************************* //
