/*--------------------------------*- C++ -*----------------------------------*\
  =========                 |
  \\      /  F ield         | OpenFOAM: The Open Source CFD Toolbox
   \\    /   O peration     | Website:  https://openfoam.org
    \\  /    A nd           | Version:  6
     \\/     M anipulation  |
\*---------------------------------------------------------------------------*/
FoamFile
{
    version     2.0;
    format      ascii;
    class       surfaceScalarField;
    location    "2.5";
    object      phi;
}
// * * * * * * * * * * * * * * * * * * * * * * * * * * * * * * * * * * * * * //

dimensions      [1 0 -1 0 0 0 0];

internalField   nonuniform List<scalar> 
675
(
-1.82852e-05
-2.23342e-05
0.000168578
1.71442e-05
-8.08097e-05
0.000173344
-2.19567e-05
0.000167062
2.68154e-05
2.19952e-05
0.000140619
-2.46977e-05
8.23078e-05
0.00010016
2.16148e-05
0.000143496
-1.89232e-05
0.000168814
1.77739e-05
0.000173507
0.000167284
-1.27467e-05
-3.03589e-05
0.000211742
1.20955e-05
-0.000110476
0.000259043
-2.90973e-05
0.000208313
7.10508e-05
2.96028e-05
9.65658e-06
-6.14076e-05
0.000112349
9.84954e-06
2.83433e-05
2.46972e-05
-1.32374e-05
0.000211647
1.257e-05
0.000260043
0.000208189
-1.345e-05
9.73423e-05
9.87132e-06
0.000107879
9.03317e-05
-7.04345e-06
-9.78772e-05
6.09963e-06
-0.000107404
-9.0855e-05
-1.41477e-05
1.05826e-05
0.00602135
0.00473431
-0.00768486
0.00696521
0.00516649
-0.00303952
0.00789311
0.00212774
-0.000350975
-0.00546173
0.0155746
-0.00439889
-0.00608155
0.0203263
-0.00907734
0.0176092
0.00600557
-0.00839904
0.00702879
-0.00403084
0.0010214
0.0116261
0.00655653
-0.0258684
0.00925705
0.00363841
-0.00429929
0.00796911
0.00345629
0.00402794
-0.00647366
0.0246242
0.00817865
-0.00368954
0.0235491
-0.00921084
0.0430141
0.0147765
-0.0296294
0.0114795
-0.00441811
0.00330262
-0.00828819
0.024643
-0.0421678
-0.00852622
0.0116629
-0.0157014
0.0176059
-0.0226532
-0.0485207
-0.023664
0.121575
0.0413652
-0.0122763
-0.0423054
-0.0192637
0.121286
-0.00486603
-0.0483683
-0.00487582
-0.0166457
-0.020798
-0.0203985
-0.00865645
-0.024268
0.0534126
0.00264677
0.00240152
-0.0430606
0.017686
-0.00982675
-0.0247192
0.0372149
0.0156236
0.0194366
0.0484476
-0.0920725
-0.00364426
-0.00230864
-0.0298595
0.0539134
0.00821418
0.0670969
-0.0887824
-0.00743947
-0.0318951
0.0588518
0.00944124
-0.0385112
0.0193615
-0.0167589
0.0344321
-0.00351859
-0.00726181
-0.0134689
-0.00969574
-0.00647534
-0.0303858
-0.012624
-0.0217876
0.0178133
0.00861676
0.0148062
-0.00912228
0.00708987
-0.0165089
0.00577089
0.0395884
0.00503148
-0.0282625
0.00196534
-0.0283371
-0.00896597
0.0111107
-0.00908809
-0.0155016
-0.0014416
0.00230583
-0.0201548
-0.00505766
-0.0181894
0.00068606
0.000212512
0.00484284
-0.00308324
0.00080952
-0.0112153
0.0126453
0.018851
-0.0106998
-0.0173501
-0.0191211
-0.0190775
-0.0153762
-0.000716701
-0.00247825
-0.044904
-0.00141051
-0.000916399
-0.014094
-0.00230876
-0.0277102
-0.00353914
0.00209358
0.111066
0.00269951
0.000542225
-0.0499946
0.00199178
0.110066
-0.00086906
-0.0513028
-0.000887061
-0.0160849
-0.0256567
-0.000989024
-0.000592551
-0.0492372
-0.000529361
-0.000369669
-0.0141793
-0.00145586
-0.0327244
-0.00158012
0.00100323
0.101612
0.00231615
-0.000116083
-0.0541356
0.00129592
0.100039
-0.000968656
-0.0552106
4.5317e-05
-0.0172133
-0.0302629
-0.00191055
0.000173735
-0.000287975
0.0018888
-0.00173049
-0.00127948
0.00152859
0.00169804
-0.00130479
0.00162779
-0.000703963
0.00014263
0.00735614
-0.00379328
-0.00381609
-0.0152361
-0.00457996
-0.00102612
-0.00719183
-0.00124093
-0.00451099
-0.0169722
-0.0024025
0.00137323
-0.00346756
0.00554856
-0.00193745
0.000548597
-0.0132447
0.00463733
0.00984234
0.00119931
0.00357408
-0.00397663
-0.0155473
-0.00823861
-0.00670538
-0.00287893
-0.0160645
0.00987457
0.000663157
-0.000317994
-0.0140365
-0.00107322
0.00191627
0.00183858
0.00182611
0.0046507
-0.0120519
0.000678883
-0.00291859
-0.00362159
0.00305836
-0.00242956
-0.0015621
-0.00666098
0.00065932
0.00445945
0.0041309
0.00162996
0.00396256
-0.012488
-0.00884348
0.00223498
0.00125161
-0.0123036
0.00213317
0.00289808
-0.0053567
0.000522443
0.00344757
0.00301486
0.00216149
-0.00285364
-0.00385304
0.00597897
-0.00290517
-0.00315222
-0.00217425
0.00676099
-0.000844815
0.000949597
-0.00175389
-0.00267386
-0.0181446
-0.000232642
0.00138949
-0.0180478
-0.0019861
0.00186829
-0.00174041
0.00193479
-0.018268
-0.00316615
0.00214664
0.00202971
-0.00470399
-0.00126375
0.000803926
-0.00286602
0.00282994
-0.00642416
-0.0154399
0.00152053
-0.0167293
1.7254e-05
-0.0076116
-0.0119953
-0.0129594
-0.000482985
0.00277425
-0.0128218
2.83979e-05
0.00168469
-0.000288807
0.00166132
-0.0122817
0.0035697
0.00157343
0.000546124
0.00301128
-0.00118224
0.00258449
4.67723e-05
0.00743948
-0.00193225
-0.0118463
0.00260049
-0.013294
0.000279178
-0.0106215
-0.010239
0.0048735
5.85279e-05
0.00651531
3.69619e-05
-0.00135717
0.00952807
0.00775818
-0.000400891
0.0111882
-0.000812778
0.00181625
0.0154455
-0.000479748
-0.00102391
-0.00982752
0.0162208
0.00294304
-0.00745607
-0.0117076
0.0149525
-0.000166761
0.00144016
-0.00308633
0.0028158
0.00232971
0.00159685
0.0043661
-0.00534246
-0.0018722
0.00183371
0.00221008
0.000506732
9.50146e-05
0.0174117
0.00219105
-0.0180052
0.0169724
0.00227376
0.00195388
0.0135149
9.40879e-06
-0.010118
-0.0108647
0.0128587
0.00121663
0.000880425
-0.00181234
0.00345394
-0.00180534
0.000556001
0.00760787
-0.00197796
-0.00138991
0.00012001
0.00290444
0.000277104
-0.000340663
0.012687
0.00216819
-0.0121071
0.0130821
0.00200168
0.00282603
0.00212046
-0.00172011
-0.0105194
0.00211162
0.000893016
0.000210538
-0.0100689
0.00134459
0.0146151
-0.00625536
-1.39692e-05
-0.00040656
-0.00535776
0.00887299
-0.00336879
-0.00424921
0.00291429
0.00133508
0.00413392
0.00295848
-0.0113441
0.00256495
-0.0101389
0.00229247
-0.00188432
0.00251359
0.00357215
-0.000100263
0.00178621
-0.000946275
0.0017484
0.0121355
-0.0140193
0.0188976
-0.0068604
-5.27131e-05
-0.00238098
0.00230416
0.00140894
0.00553994
0.00253345
-0.0218087
0.00164804
-0.0171172
0.00259399
-0.00148261
0.00371339
0.00373608
0.000237736
0.00294473
-0.000782439
0.00594393
0.00900661
-0.024508
0.0134742
-0.01109
0.000531878
-0.00441218
0.00151473
0.00430066
0.00835512
0.00600299
-0.0405866
0.00219451
-0.0214827
-0.00278893
-0.00428547
0.0123093
-0.00659405
0.000583512
0.0121677
0.00135734
0.0148086
0.00993705
-0.0387278
0.00244483
-0.00301392
0.0132087
0.0181159
0.0112376
-0.0250638
-0.00154529
0.0161578
-0.0370858
0.0156032
-0.0386559
-0.00924809
-0.00148944
0.0342712
-0.00754267
0.00394695
0.0226853
0.00306121
0.0198352
0.00679586
-0.0469871
0.0154033
-0.00765353
0.0318062
0.00836448
0.00646863
-0.0399363
0.00560782
0.00675743
-0.0411211
0.00742085
-0.0405051
0.011917
-0.00268205
0.0314
0.0133128
-0.00326521
0.0312501
0.00113517
0.0393821
-0.00436724
-0.0453345
0.00215212
-0.0174773
0.0350078
0.000857213
0.0143725
-4.51018e-06
0.0152382
0.0147803
0.00542144
-0.0232556
0.00521431
-0.0222867
-0.0210531
-0.0160878
-0.0159345
-0.018958
0.000919005
-0.000247438
-0.0121289
8.81029e-05
-0.00693338
0.00190132
-0.0140472
-0.00419379
-0.00255633
0.00122837
-0.00289509
-0.00307807
0.00184886
-0.00300148
0.001986
-0.00402895
-0.0105389
0.00431432
-0.0114387
0.00129216
-0.0135133
0.000831819
0.000135485
-0.00903151
-0.000214886
-0.011218
0.00150034
-0.024598
-0.0039579
-0.00170117
0.00577219
-0.0035529
-0.00224665
0.00345732
-0.00232072
0.0022351
-0.00510707
-0.0173886
0.00230971
-0.0211256
0.00126041
-0.00188629
-0.0013282
0.0128741
-0.00974262
-0.000535592
-0.00284448
0.00441841
-0.0387736
0.0075746
-0.00192661
0.0142476
0.00309034
-0.00557669
0.0129323
-0.00156196
0.0112843
-0.00826105
-0.0209044
0.0042539
-0.0392416
0.00393323
-0.0158499
-0.00261316
0.031357
-0.00664558
-0.00360938
-0.00846866
0.00158636
-0.0469587
0.00690918
-0.0154922
0.0202291
0.00937746
-0.016182
0.0230165
-0.0114838
0.0337283
0.00121279
-0.0376225
-0.0175988
-0.0365985
-0.0251541
-0.0019872
-0.00125774
0.0345946
0.00413166
0.00319242
-0.0177937
0.00241415
-0.0452565
-0.0128377
-0.00755624
0.0393513
-0.0114785
-0.00681517
0.0316791
-0.0068054
0.0314773
-0.00498488
-0.0401697
-0.00764052
-0.0407495
-0.0395957
0.0159963
0.0208145
0.0159696
0.0222333
0.023065
-0.0047901
-0.0148349
-0.00512883
-0.0150961
-0.0145241
1.04798e-05
-0.000772056
)
;

boundaryField
{
    fuel
    {
        type            calculated;
        value           nonuniform List<scalar> 
36
(
0.0001279
0.000211713
0.000127901
0.0001279
0.000211713
0.000127901
0.0001279
0.000211713
0.000127901
-0.0001279
-0.000211713
-0.000127901
-0.0001279
-0.000211713
-0.000127901
-0.0001279
-0.000211713
-0.000127901
0
0
0
0
0
0
0
0
0
0
0
0
0
0
0
0
0
0
)
;
    }
    primary_air
    {
        type            calculated;
        value           nonuniform List<scalar> 9(-0.00318956 -0.00527263 -0.00319099 -0.00318971 -0.00527371 -0.00319184 -0.00318952 -0.00527538 -0.00319181);
    }
    Secondary_air_RHS
    {
        type            calculated;
        value           nonuniform List<scalar> 9(0.00594824 0.00962162 0.00595184 0.00593892 0.00959369 0.00594295 0.00593313 0.00960158 0.00593804);
    }
    Secondary_air_LHS
    {
        type            calculated;
        value           nonuniform List<scalar> 9(0.00593245 0.00948098 0.00590204 0.00591931 0.00944356 0.00588508 0.00591793 0.00947322 0.00587972);
    }
    outlet
    {
        type            calculated;
        value           nonuniform List<scalar> 
18
(
-0.0022412
0.079759
-0.0550126
-0.0400137
0.0693294
-0.05506
-0.0523586
0.0639223
-0.0548907
-0.055161
0.0636037
-0.0524961
-0.0554905
0.0689786
-0.0399156
-0.0552827
0.0804173
-0.00201544
)
;
    }
    stove_body
    {
        type            calculated;
        value           uniform 0;
    }
    frontAndBack
    {
        type            empty;
        value           nonuniform 0();
    }
}


// ************************************************************************* //
