/*--------------------------------*- C++ -*----------------------------------*\
  =========                 |
  \\      /  F ield         | OpenFOAM: The Open Source CFD Toolbox
   \\    /   O peration     | Website:  https://openfoam.org
    \\  /    A nd           | Version:  6
     \\/     M anipulation  |
\*---------------------------------------------------------------------------*/
FoamFile
{
    version     2.0;
    format      ascii;
    class       volScalarField;
    location    "2.5";
    object      T;
}
// * * * * * * * * * * * * * * * * * * * * * * * * * * * * * * * * * * * * * //

dimensions      [0 0 0 1 0 0 0];

internalField   nonuniform List<scalar> 
297
(
291.514
291.5
291.514
292.988
292.987
292.988
291.514
291.499
291.514
291.532
291.553
291.533
293.285
293.201
293.305
291.532
291.552
291.533
291.731
291.669
291.747
317.557
299.842
319.544
291.729
291.669
291.744
383.195
372.987
335.408
331.876
335.687
321.46
383.781
375.557
341.541
420.751
417.891
393.396
376.03
352.855
341.248
418.01
415.851
397.466
420.814
409.969
481.961
394.428
406.026
392.538
418.205
408.215
503.259
383.586
351.743
401.884
442.732
425.23
455.437
381.459
371.558
410.55
391.523
351.427
373.067
442.783
420.532
455.582
349.924
371.186
412.352
360.186
330.196
342.471
442.813
366.086
455.683
323.02
357.611
390.569
422.224
367.38
488.752
413.078
422.663
424.468
418.119
380.457
512.51
406.172
351.732
438.503
426.249
422.607
431.16
404.462
371.646
452.466
393.242
349.102
424.667
439.82
422.93
452.659
393.045
371.579
436.325
319.874
315.269
310.834
380.983
357.825
455.848
306.913
322.934
331.967
306.135
306.453
306.788
310.007
336.638
439.137
303.255
321.059
324.762
305.536
306
306.652
314.022
328.589
363.738
306.764
319.541
318.032
301.901
301.656
301.03
319.837
305.492
305.214
304.243
303.563
304.165
306.866
302.909
302.511
421.37
372.319
330.495
317.305
305.601
306.114
306.799
305.671
310.916
365.068
362.271
349.243
316.221
308.988
309.142
303.407
303.351
314.982
304.687
337.99
380.369
299.545
303.176
304.968
303.945
303.524
306.381
308.666
322.527
313.444
301.602
302.26
302.99
304.363
303.908
305.437
313.728
315.412
313.36
304.319
303.443
304.114
304.084
303.712
303.287
303.267
304.427
304.29
298.331
300.194
299.366
304.195
303.233
302.767
303.593
304.527
304.396
298.648
301.646
301.466
304.323
302.712
302.199
304.129
306.625
309.751
298.354
302.346
304.282
302.341
302.307
301.428
302.373
305.734
307.35
298.176
300.417
299.443
298.94
298.784
297.8
300.542
303.953
303.757
294.715
294.649
296.067
291.845
291.825
291.157
292.689
290.265
286.975
290.932
290.793
299.768
300.687
301.397
300.939
304.789
304.967
304.55
302.982
303.547
303.916
301.735
301.826
300.147
304.743
304.931
304.564
302.577
303.263
304.114
312.052
302.483
299.399
337.45
316.168
307.468
301.772
302.9
304.285
304.695
300.48
296.59
319.878
311.648
304.638
300.947
302.569
302.562
300.491
295.933
293.662
311.476
307.357
302.5
297.353
296.637
298.253
303.634
291.913
291.209
291.697
291.327
293.151
291.091
291.758
291.852
)
;

boundaryField
{
    fuel
    {
        type            fixedValue;
        value           uniform 293;
    }
    primary_air
    {
        type            fixedValue;
        value           uniform 293;
    }
    Secondary_air_RHS
    {
        type            fixedValue;
        value           uniform 293;
    }
    Secondary_air_LHS
    {
        type            fixedValue;
        value           uniform 293;
    }
    outlet
    {
        type            inletOutlet;
        inletValue      uniform 293;
        value           nonuniform List<scalar> 
18
(
293
291.697
293
293
291.325
293
293
293.149
293
293
292.687
293
293
290.264
293
293
286.974
293
)
;
    }
    stove_body
    {
        type            fixedValue;
        value           uniform 293;
    }
    frontAndBack
    {
        type            empty;
    }
}


// ************************************************************************* //
