/*--------------------------------*- C++ -*----------------------------------*\
  =========                 |
  \\      /  F ield         | OpenFOAM: The Open Source CFD Toolbox
   \\    /   O peration     | Website:  https://openfoam.org
    \\  /    A nd           | Version:  6
     \\/     M anipulation  |
\*---------------------------------------------------------------------------*/
FoamFile
{
    version     2.0;
    format      ascii;
    class       volVectorField;
    location    "2.5";
    object      U;
}
// * * * * * * * * * * * * * * * * * * * * * * * * * * * * * * * * * * * * * //

dimensions      [0 1 -1 0 0 0 0];

internalField   nonuniform List<vector> 
297
(
(76.1946 -0.0586727 0.234177)
(76.1598 -0.00226613 0.29534)
(76.1949 0.0556188 0.231248)
(6.55113e-05 0.0814782 0.314116)
(5.91733e-05 0.00413754 0.344456)
(6.56107e-05 -0.0789971 0.311416)
(-76.1943 -0.0601547 0.23438)
(-76.1593 -0.00227676 0.29712)
(-76.1946 0.0570252 0.231444)
(76.196 -0.060425 0.27586)
(76.1595 0.00042948 0.30887)
(76.197 0.0572256 0.273184)
(6.5958e-05 0.249067 -0.0382004)
(6.09887e-05 0.0223803 -0.220516)
(6.6025e-05 -0.238983 0.0140856)
(-76.1958 -0.0620953 0.276486)
(-76.1586 0.000416903 0.308798)
(-76.1968 0.058738 0.273759)
(76.254 -0.176206 0.572878)
(76.2238 -0.00577209 0.600027)
(76.2598 0.163444 0.571288)
(6.04333e-05 -0.314416 0.326602)
(5.60518e-05 0.0241031 0.489092)
(6.09535e-05 0.227899 0.266416)
(-76.2532 -0.181936 0.573423)
(-76.2229 -0.00571497 0.603462)
(-76.2588 0.169251 0.571712)
(65.5947 4.63797 -5.68298)
(63.7484 4.69534 -2.75591)
(56.8856 2.74563 1.1048)
(0.00574121 0.991757 4.4375)
(0.00862015 -0.697309 3.87629)
(0.00887434 0.0336522 5.22792)
(-65.7032 6.68372 -5.75452)
(-64.2003 4.77945 -3.20376)
(-57.9954 2.33022 1.51853)
(72.472 6.89614 -9.26605)
(72.0129 7.14583 -7.85649)
(67.7212 7.99775 13.385)
(0.00535013 9.81362 37.5972)
(0.00902934 0.6837 26.3765)
(0.0110504 0.709379 34.798)
(-71.9477 11.9085 -9.58727)
(-71.5782 8.98325 -7.14691)
(-68.4852 9.45308 10.4278)
(71.5274 4.14043 -11.5017)
(70.3102 -7.39791 -5.87333)
(82.1548 -24.6041 19.035)
(-0.00190893 -7.81923 52.4363)
(0.00166787 -3.86978 11.5468)
(0.0148279 7.90463 52.342)
(-71.0411 10.8875 -13.2939)
(-70.0301 -9.99708 -4.21912)
(-85.7817 -12.7864 25.091)
(66.1618 -6.73476 -43.7785)
(60.2778 -2.25894 -28.6104)
(68.8083 -10.7614 -39.9597)
(0.0244117 -2.19473 2.32344)
(0.00168918 8.55397 -33.2033)
(0.00540223 -5.98275 25.3859)
(-65.0394 3.27257 -58.9778)
(-63.6799 -2.27449 -27.6327)
(-70.3566 2.39451 -37.629)
(67.8812 10.8868 -30.1902)
(60.3905 -0.729823 -36.4934)
(64.1914 -23.078 -26.0835)
(0.0230141 0.157887 -2.59486)
(-0.00974691 5.03699 -14.8877)
(-0.0190643 -5.70347 20.5821)
(-60.4546 15.0881 -35.325)
(-63.8488 -3.89088 -36.5232)
(-71.3974 -3.68835 -20.2167)
(62.2523 18.7706 -26.9)
(56.9259 15.1596 -33.8648)
(59.056 -31.2014 -31.3401)
(0.056607 -2.72299 6.17128)
(0.00483823 0.227711 -17.1194)
(-0.028053 -2.85151 18.3801)
(-55.7487 14.5277 -30.7634)
(-61.526 -20.9705 -28.1311)
(-67.2733 -21.4041 -20.7766)
(61.5359 6.4748 -52.132)
(58.8735 -10.2121 -14.8487)
(76.4811 -41.9956 -33.188)
(-0.0861625 -5.98036 71.7199)
(-0.01443 -2.62728 -35.4537)
(0.0104638 0.0321832 69.3314)
(-63.0309 12.7957 -59.5318)
(-61.9931 -15.0759 -16.767)
(-80.6705 -26.2446 -32.7262)
(61.2882 1.26219 -55.9631)
(57.6409 -6.18408 -13.1585)
(67.4734 -23.0938 -40.6226)
(-0.0818012 -4.95708 79.9355)
(-0.0145984 0.930876 -36.9784)
(0.0110676 0.239768 75.9294)
(-59.5559 6.78093 -63.1689)
(-61.7833 -10.1394 -16.7028)
(-70.0533 -8.24737 -38.569)
(63.2936 -2.38898 -53.071)
(59.4581 -3.8401 -17.2687)
(61.9165 -18.3984 -40.8576)
(-0.0881819 -3.87299 79.0175)
(-0.0123337 2.93698 -35.6222)
(0.0130899 -5.44394 79.2137)
(-52.7857 6.01622 -62.1708)
(-62.9283 -8.27645 -20.7304)
(-64.1403 -4.4124 -38.725)
(54.0568 40.6524 -7.76584)
(53.4751 14.7494 -9.12601)
(52.9408 -42.692 -9.21325)
(0.0204929 -6.24575 0.17087)
(-0.00329287 -5.04817 -6.89899)
(-0.0168076 2.13709 12.6126)
(-52.107 38.563 -9.45373)
(-54.8866 -17.4801 -9.90956)
(-55.9675 -41.1576 -8.18373)
(52.3111 37.7404 -0.82376)
(52.4247 26.9115 -4.26394)
(52.7269 -28.0227 3.97564)
(0.0141287 4.08979 -1.89155)
(-0.0048778 -2.54902 -5.25946)
(-0.0272062 0.326632 6.02344)
(-52.0245 28.1612 4.36834)
(-54.9159 -23.4649 -3.40897)
(-55.5615 -34.9721 -1.12325)
(52.4453 3.968 3.86674)
(52.5983 9.31277 1.80838)
(52.7641 6.05573 -1.00243)
(0.00716521 -6.91963 -0.522951)
(-0.00497678 -3.84688 -1.38688)
(-0.0209008 3.46295 -0.522651)
(-52.731 -4.64246 -0.554749)
(-54.9253 -10.0622 2.14964)
(-54.7495 -0.885736 4.98328)
(51.4687 -49.3847 -6.6139)
(50.7636 -52.3453 -9.33535)
(50.5152 -56.9887 -10.8679)
(0.060984 1.18977 -0.523939)
(0.100702 -9.43844 -7.6019)
(0.199213 -9.64655 -10.8546)
(-50.4718 -45.8072 -5.96141)
(-51.6703 -48.3965 -13.643)
(-51.7705 -29.1908 -22.6317)
(52.4451 -35.5635 8.88792)
(52.2066 -40.7942 7.17364)
(52.0304 -45.5669 3.81429)
(0.0304519 11.4576 4.63681)
(0.0759119 8.07618 5.66734)
(0.177874 0.94744 11.493)
(-53.5186 -36.8261 2.21832)
(-52.6817 -42.2911 -9.49824)
(-51.3974 -24.5253 -25.1112)
(52.6809 8.08446 4.17965)
(52.7542 13.3799 5.29135)
(53.1082 23.128 9.78169)
(0.016063 15.1252 0.754248)
(0.0506062 20.5149 1.09829)
(0.0939277 29.6169 9.02842)
(-54.3416 -9.85387 14.9304)
(-53.2926 -0.157976 18.1686)
(-51.6951 -21.4886 -34.6147)
(51.6083 30.2284 -23.4131)
(50.9259 47.9002 -7.31946)
(51.3539 42.6523 -1.51048)
(-0.214323 10.1431 -7.51862)
(-0.125771 -2.99122 -0.289271)
(-0.0873056 -10.3927 0.916169)
(-50.3618 56.2066 -10.2275)
(-51.0082 49.9947 -8.24621)
(-51.7765 45.1999 -4.46895)
(51.0209 25.5548 -24.6354)
(52.1377 44.3896 -6.11996)
(51.3322 38.4078 5.11874)
(-0.172348 1.37889 10.4938)
(-0.0741799 -3.95234 3.06742)
(-0.0348931 -7.87753 -1.07418)
(-51.7284 44.5889 4.35447)
(-51.9336 39.2965 7.52299)
(-51.6964 35.8059 8.17235)
(51.0113 23.0837 -33.8268)
(52.398 5.79505 4.88086)
(52.2048 15.6056 12.5376)
(-0.0794271 -24.7475 8.67913)
(-0.0394405 -14.8775 1.67438)
(-0.0205163 -13.5212 -0.610683)
(-51.9735 -20.5142 11.2854)
(-52.2719 -10.1948 6.97803)
(-52.1714 -4.75118 6.11763)
(51.2319 -9.76694 -13.3715)
(51.1361 2.0915 -34.0336)
(51.2052 20.9359 -29.9096)
(0.0203402 4.34472 -7.8792)
(-0.103034 1.17369 -9.99019)
(-0.223771 11.006 -9.25418)
(-49.4513 25.0194 -34.2026)
(-49.2658 32.3494 -25.2438)
(-51.0011 53.8537 -19.3384)
(51.22 -5.25489 9.95741)
(51.2826 6.46502 -42.6014)
(51.0143 21.3474 -42.0312)
(-0.0561844 2.26377 12.8277)
(-0.189218 2.69492 8.96525)
(-0.24321 9.65039 10.2804)
(-50.0714 6.20159 -57.3088)
(-50.356 23.086 -31.3001)
(-51.9328 41.2404 -5.64039)
(50.9992 0.433649 6.1925)
(53.745 3.1115 -51.4853)
(52.0924 11.5482 -54.6705)
(-0.138034 0.0458002 5.56032)
(-0.235601 -8.60493 9.76162)
(-0.227808 -18.7762 17.3444)
(-52.4539 3.08349 -73.2901)
(-50.9139 21.5814 -21.8385)
(-50.8633 -14.6244 22.523)
(51.2755 6.45646 -13.743)
(51.8428 3.43781 -71.3043)
(51.5371 -8.28849 -89.617)
(-0.335067 0.782 60.1293)
(-0.336554 -1.59563 34.0277)
(-0.347764 -12.3191 32.8262)
(-52.0936 -9.56064 -102.689)
(-52.1459 12.3254 31.5949)
(-51.9958 -4.4714 71.0248)
(50.4502 0.919276 -132.317)
(50.5184 2.29708 -138.81)
(50.3875 6.89418 -136.517)
(-0.183324 3.17035 86.0873)
(-0.17891 4.53824 71.5516)
(-0.191486 0.356953 68.5149)
(-50.6375 2.99661 -136.56)
(-50.7145 -5.22479 -65.9056)
(-50.6177 0.39369 113.144)
(48.4649 0.200635 -165.055)
(48.525 0.198612 -166.504)
(48.3435 -0.837739 -165.585)
(0.342784 0.19901 161.073)
(0.363327 1.98323 173.652)
(0.385475 0.0552013 200.949)
(-47.6405 -6.0512 -155.39)
(-47.3211 -7.28961 -109.33)
(-48.4941 -4.36614 -1.6776)
(51.2091 -54.3788 -19.7131)
(49.4364 -32.598 -25.6488)
(49.8546 -25.0959 -34.5301)
(0.205912 -12.4863 -11.9579)
(0.082298 -2.3366 -11.8431)
(-0.0398492 -4.66279 -8.82844)
(-51.247 -22.3672 -33.0593)
(-51.2744 -1.55415 -35.1029)
(-51.3119 9.82232 -13.9382)
(51.9765 -41.2194 -6.53775)
(50.3602 -23.4331 -31.385)
(50.2967 -6.05099 -57.2478)
(0.228152 -10.6053 11.0766)
(0.170227 -3.67866 10.3138)
(0.036689 -3.1773 11.9677)
(-51.0665 -20.2275 -41.347)
(-51.326 -5.4258 -41.5959)
(-51.2693 5.28444 10.3186)
(52.1151 17.9769 22.2456)
(50.9384 -21.271 -21.4883)
(52.655 -2.8002 -73.1351)
(0.23299 22.5344 17.6965)
(0.222237 10.0723 11.3469)
(0.121292 0.183277 2.63387)
(-51.9628 -12.158 -55.5827)
(-53.759 -2.57665 -51.3817)
(-51.0997 -0.471419 5.23787)
(52.9025 5.8625 69.5075)
(52.1578 -13.7841 27.5093)
(51.8144 9.48109 -102.745)
(0.363008 13.9135 35.1073)
(0.343484 0.993105 35.0954)
(0.338922 -0.625617 59.2191)
(-51.4153 9.47821 -85.8417)
(-51.8873 -4.78765 -70.9811)
(-51.3247 -5.37761 -15.3931)
(51.376 0.372862 113.312)
(50.938 5.01989 -67.5552)
(50.4281 -2.96621 -136.326)
(0.20689 0.266279 70.1016)
(0.190298 -4.76818 72.2058)
(0.193156 -3.07568 85.6776)
(-50.2631 -7.04448 -135.394)
(-50.1039 -1.40226 -137.259)
(-50.305 -1.17944 -131.327)
(49.1229 4.86751 -2.22398)
(47.509 7.29331 -109.654)
(47.6609 5.84035 -154.831)
(-0.37987 0.346444 202.543)
(-0.354467 -2.02914 175.194)
(-0.333846 -0.169764 162.155)
(-48.3013 0.846057 -164.444)
(-48.4455 -0.306318 -164.654)
(-48.4346 -0.113527 -163.912)
)
;

boundaryField
{
    fuel
    {
        type            fixedValue;
        value           uniform (0 0 0.25);
    }
    primary_air
    {
        type            fixedValue;
        value           uniform (0 0 2.5);
    }
    Secondary_air_RHS
    {
        type            fixedValue;
        value           uniform (0 47.2222 0);
    }
    Secondary_air_LHS
    {
        type            fixedValue;
        value           uniform (0 -47.2222 0);
    }
    outlet
    {
        type            pressureInletOutletVelocity;
        value           nonuniform List<vector> 
18
(
(0 0 -2.22398)
(-0.37987 0.346444 202.543)
(0 0 -164.444)
(0 0 -109.654)
(-0.354467 -2.02914 175.194)
(0 0 -164.654)
(0 0 -154.831)
(-0.333846 -0.169764 162.155)
(0 0 -163.912)
(0 0 -165.055)
(0.342784 0.19901 161.073)
(0 0 -155.39)
(0 0 -166.504)
(0.363327 1.98323 173.652)
(0 0 -109.33)
(0 0 -165.585)
(0.385475 0.0552013 200.949)
(0 0 -1.6776)
)
;
    }
    stove_body
    {
        type            noSlip;
    }
    frontAndBack
    {
        type            empty;
    }
}


// ************************************************************************* //
