/*--------------------------------*- C++ -*----------------------------------*\
  =========                 |
  \\      /  F ield         | OpenFOAM: The Open Source CFD Toolbox
   \\    /   O peration     | Website:  https://openfoam.org
    \\  /    A nd           | Version:  6
     \\/     M anipulation  |
\*---------------------------------------------------------------------------*/
FoamFile
{
    version     2.0;
    format      ascii;
    class       volScalarField;
    location    "2.5";
    object      O2;
}
// * * * * * * * * * * * * * * * * * * * * * * * * * * * * * * * * * * * * * //

dimensions      [0 0 0 0 0 0 0];

internalField   nonuniform List<scalar> 
297
(
0
0
0
0
0
0
0
0
0
0
0
0
0
0
0
0
0
0
0
0
0
0
0
0
0
0
0
0.0302437
0.0775476
0.0476612
0.0950075
0.12836
0.117279
0.0302738
0.0776207
0.0476888
0
0.0134943
0
0.0154225
0.0663831
0.0299973
0
0.0135196
0
0
0.0104209
0
0.0123679
0.0158651
0.0163005
0
0.0104396
0
0.00210746
0.00624572
0.00209929
0
0.000832502
0
0.00211355
0.00626182
0.00210581
0
2.15652e-08
0
0
0
0
0
2.16165e-08
0
2.41994e-14
8.30654e-14
0
0
0
0
1.01121e-14
8.3393e-14
0
0
0.0104176
0
0
0.00085517
0
0
0.0104378
0
0
0.0103807
0
0
0.000833759
0
0
0.0104085
0
0
0.0103154
0
0
0.000833582
0
0
0.0103296
0
5.27385e-19
2.5367e-18
0
0
2.51489e-20
0
1.59142e-19
2.50395e-18
0
7.12149e-23
5.00742e-22
3.44115e-24
6.62565e-24
1.9048e-22
5.14453e-24
2.31687e-23
4.82376e-22
1.72708e-23
2.93475e-23
4.99778e-22
2.83453e-23
6.64815e-24
2.81066e-22
4.86316e-24
2.48527e-23
4.80551e-22
2.62324e-23
0
4.58982e-34
1.07503e-37
0
5.34301e-32
1.27786e-36
0
0
2.98608e-37
7.45749e-29
1.38636e-32
9.74022e-37
7.22929e-29
3.86472e-32
1.00001e-36
1.97504e-28
1.82865e-32
9.75076e-37
1.85395e-27
7.83515e-32
1.74925e-36
1.45504e-28
8.93595e-33
7.48784e-37
1.7212e-27
7.30547e-32
1.64262e-36
8.23473e-34
7.85658e-29
6.74868e-24
1.46441e-34
8.4517e-30
0
5.07248e-34
2.3987e-29
2.04784e-24
1.89293e-36
5.31285e-32
1.65564e-27
1.75055e-35
5.41468e-31
6.68644e-29
1.7666e-36
3.58694e-32
5.80796e-28
2.12962e-36
8.49799e-32
1.97059e-27
3.23821e-36
2.2042e-32
1.95529e-28
2.74865e-36
1.13515e-31
1.66761e-27
3.38613e-47
1.25015e-42
2.48296e-38
5.24362e-47
4.34486e-43
4.21628e-39
5.5774e-47
7.8368e-43
1.54161e-38
2.14711e-49
3.08502e-45
5.95388e-41
1.0285e-48
6.35035e-45
2.68628e-40
7.14425e-49
3.48025e-45
7.72459e-41
2.93738e-49
1.10071e-45
4.29477e-41
8.16034e-49
1.56377e-45
6.81625e-41
9.45647e-49
1.09395e-45
5.29897e-41
4.36248e-49
2.65906e-48
1.49841e-46
7.74426e-49
9.51919e-47
9.69759e-46
9.1945e-49
8.53806e-48
3.13329e-46
8.14994e-53
8.01005e-52
5.27396e-51
9.49151e-48
9.40414e-47
6.15855e-46
6.98261e-53
1.03976e-51
4.77778e-51
2.559e-53
2.50114e-52
1.47599e-51
4.55994e-48
4.38147e-47
2.64652e-46
2.55833e-53
2.50087e-52
1.47618e-51
1.004e-41
1.3764e-45
6.16212e-49
3.81831e-41
2.12727e-45
1.33521e-48
2.69919e-41
1.28611e-45
1.02966e-48
4.35571e-41
2.43145e-45
6.26354e-49
2.7438e-41
1.23627e-45
8.15684e-49
4.36269e-41
2.21336e-45
8.82951e-49
3.54554e-41
9.22357e-46
5.44552e-49
1.90507e-41
5.19469e-46
7.41497e-49
3.18588e-41
6.54259e-46
8.25102e-49
1.69394e-46
3.02112e-48
5.0373e-49
3.9821e-46
4.31637e-47
7.16602e-49
1.87239e-46
7.59258e-48
8.12114e-49
1.68993e-51
3.65097e-52
2.31613e-53
2.50845e-46
4.26129e-47
3.48745e-48
2.02289e-51
3.16832e-52
2.72784e-53
5.97943e-52
1.12302e-52
9.88759e-54
1.07397e-46
1.97772e-47
1.73699e-48
5.98034e-52
1.12402e-52
9.78784e-54
)
;

boundaryField
{
    fuel
    {
        type            fixedValue;
        value           uniform 0;
    }
    primary_air
    {
        type            fixedValue;
        value           uniform 0.23;
    }
    Secondary_air_RHS
    {
        type            fixedValue;
        value           uniform 0.23;
    }
    Secondary_air_LHS
    {
        type            fixedValue;
        value           uniform 0.23;
    }
    outlet
    {
        type            inletOutlet;
        inletValue      uniform 0;
        value           nonuniform List<scalar> 
18
(
0
1.07397e-46
0
0
1.97772e-47
0
0
1.73699e-48
0
0
4.55994e-48
0
0
4.38147e-47
0
0
2.64652e-46
0
)
;
    }
    stove_body
    {
        type            fixedValue;
        value           uniform 0;
    }
    frontAndBack
    {
        type            empty;
    }
}


// ************************************************************************* //
