/*--------------------------------*- C++ -*----------------------------------*\
  =========                 |
  \\      /  F ield         | OpenFOAM: The Open Source CFD Toolbox
   \\    /   O peration     | Website:  https://openfoam.org
    \\  /    A nd           | Version:  6
     \\/     M anipulation  |
\*---------------------------------------------------------------------------*/
FoamFile
{
    version     2.0;
    format      ascii;
    class       surfaceScalarField;
    location    "2.5";
    object      phi;
}
// * * * * * * * * * * * * * * * * * * * * * * * * * * * * * * * * * * * * * //

dimensions      [1 0 -1 0 0 0 0];

internalField   nonuniform List<scalar> 
675
(
-3.58161e-06
-3.5035e-05
0.000161931
-1.07848e-05
-3.74053e-05
0.000168048
-5.61298e-05
0.000168902
1.39055e-05
3.5067e-05
0.000121275
1.56768e-05
3.74153e-05
0.000128638
5.62436e-05
0.000108499
-3.48818e-06
0.000161961
-1.06945e-05
0.000168015
0.000168885
-5.90033e-06
-6.43538e-05
0.000232167
-8.9666e-06
-5.67057e-05
0.000227933
-8.22639e-05
0.000242439
5.43607e-06
6.44627e-05
-1.29858e-05
1.73073e-05
5.67632e-05
3.26408e-06
8.23325e-05
-3.88094e-05
-5.77122e-06
0.000232268
-8.84264e-06
0.000227916
0.000242394
-1.20598e-05
0.000120893
1.76192e-07
9.24848e-05
0.000119518
2.31611e-05
-0.000120784
4.46988e-06
-9.24049e-05
-0.000119571
-1.17566e-05
4.95252e-07
0.0126973
0.0114892
-0.0210612
-0.00220675
0.0124166
0.00562435
0.0131369
-0.012216
0.0087912
-0.0114944
0.0195298
-0.00320978
-0.0124152
0.04215
-0.0131378
0.0284018
0.0126913
-0.0209996
-0.00221475
0.00567456
-0.012175
0.0381638
0.0281911
-0.0872455
-0.0361843
-0.0127545
0.0929032
0.0281566
-0.0763803
0.0164364
-0.0281326
0.059262
-0.0197893
0.0128129
0.0525722
-0.0281024
0.064718
0.0381357
-0.0872262
-0.0361753
0.0928352
-0.0763904
0.00710674
0.0646178
-0.158917
-0.00685348
0.00209016
0.104298
0.0675073
-0.150713
-0.117522
-0.0645863
0.306266
0.115371
-0.00225778
-0.176042
-0.067483
0.31531
0.00682396
-0.158746
-0.00660462
0.10425
-0.150559
-0.0650911
-0.0725412
-0.0513043
0.189043
0.0624595
0.0144
-0.0552325
-0.0865561
-0.0743266
-0.044981
0.181886
0.00953699
0.0725359
0.094139
-0.248851
0.00491373
-0.0142811
-0.173947
0.207293
0.0743245
0.115934
-0.259707
-0.0649106
-0.0512862
0.188862
0.0623327
-0.0552484
-0.0862144
-0.04499
0.1817
0.00574604
-0.0271638
-0.0300651
-0.0205298
0.010757
-0.0396798
-0.0399562
-0.0257268
0.0593621
0.0271669
-0.019553
-0.0450709
-0.0107682
-0.0475597
0.0398916
-0.00897968
0.00578899
-0.02997
-0.0205152
-0.0395868
-0.0256802
-0.00928393
0.00363016
-0.0243805
-0.0225766
-0.000484506
-0.0258933
-0.0232811
-0.0250039
0.0283558
-0.00356209
-0.0406849
0.0201271
0.000546894
-0.0403129
0.0232096
-0.0353072
-0.00922555
-0.0243599
-0.022449
-0.0258596
-0.0249636
-0.00226817
-0.00158511
-0.168925
0.00228114
0.000402506
0.0993473
-0.00146038
-0.16102
-0.00692453
0.0015861
0.287199
0.00741473
-0.000396921
-0.189751
0.00146157
0.296906
-0.00226455
-0.168759
0.00227778
0.0991611
-0.160867
-0.00217379
-0.000602491
-0.179719
0.00212249
-0.000583696
0.0956132
-0.000488066
-0.172159
-0.00309597
0.000603439
0.267047
0.00348867
0.000581322
-0.197583
0.000489221
0.277332
-0.00217833
-0.179554
0.00212907
0.0952815
-0.171995
-0.00512306
0.00041854
0.00497307
-0.0011244
0.000531487
-0.00356468
-0.000416412
0.00392679
0.00112278
-0.000528662
-0.00514542
0.0049953
0.00913158
-0.00204401
-0.0106898
-0.0207732
-0.00871524
-0.00145315
-0.00660523
-0.00237017
-0.0104122
-0.0209319
0.00880218
0.00205121
-0.0268317
-0.0267506
-0.0116692
0.00146336
-0.0227811
0.00237086
-0.0250594
-0.0266583
0.00910512
-0.010712
-0.0206981
-0.00866909
-0.00663229
-0.0104145
-0.0208424
0.00510303
0.000206216
-0.00160178
-0.0143933
-0.00617309
0.00172313
0.00293201
-8.39785e-05
-0.00193688
-0.0145605
0.00520892
-0.000182528
-0.0122955
-0.0193581
-0.00522124
-0.00171177
-0.00894653
9.02009e-05
-0.0109884
-0.0194678
0.0050974
-0.00162655
-0.0143589
-0.0061422
0.00288495
-0.00194558
-0.0145133
-0.000187711
0.00169284
-0.00310367
0.000190583
0.00253598
0.00152186
-0.00326418
0.00143377
-0.00167515
-0.0103642
-0.0024843
-0.00252668
-0.00151006
-0.0104436
-0.000165057
-0.00312912
0.000182378
-0.00326454
-0.0190226
-0.000595772
-0.00131043
-0.0196498
0.00222668
-0.00159793
0.00269786
-0.00683165
-0.0155172
-0.0257387
0.000596085
-0.00210928
-0.0226499
-0.00221917
0.00135907
-0.00268831
0.00313341
-0.020396
-0.0189323
-0.00130812
-0.019554
-0.00159245
-0.00681265
-0.0154274
-0.0144917
-0.000674819
-0.000701446
-0.0146441
0.00149435
-0.00293701
0.000218369
-0.00762974
-0.0140622
-0.0215856
0.00067521
-0.00133866
-0.0178747
-0.00148974
0.000634008
-0.000214987
0.00395189
-0.0182624
-0.0144438
-0.000696501
-0.0145968
-0.00292407
-0.00761256
-0.0140096
-0.00407908
0.000117037
-0.0066691
-0.000343918
-0.00208319
-0.0122144
-0.0115485
-0.000114688
-0.0115978
0.000340666
0.00208087
-0.0118109
-0.00406985
-0.00664819
-0.0121776
0.0194746
0.00267958
-0.00677731
-0.0153761
0.0188653
0.00222488
-0.00161335
-0.000565298
-0.00133949
0.0224844
-0.00267076
0.00307872
-0.0202139
0.0255694
-0.00221702
0.00135785
0.000567242
-0.00231181
0.0193948
-0.00676608
-0.0152971
0.0187873
-0.00160471
-0.00133803
0.0145294
0.000216865
-0.00756341
-0.0139593
0.0143782
0.00150281
-0.00296266
-0.000626411
-0.000725335
0.0177452
-0.00020963
0.00388586
-0.0181268
0.0214814
-0.0014964
0.000621869
0.000635396
-0.00144855
0.0144921
-0.00755349
-0.013912
0.0143427
-0.00294683
-0.000713229
0.00663078
-0.00206524
-0.0121281
0.00397448
-0.000304038
0.000148365
0.0115059
0.0020654
-0.0117514
0.0115197
0.000305136
-0.000142965
0.00661665
-0.0121025
0.00397978
0.0067212
0.00222188
-0.00894453
0.0103817
0.00196953
-0.0056312
0.0022931
-0.00728796
0.00946281
-0.00220847
-0.00503622
0.0152929
-0.0019578
-0.00190608
-0.00228112
-0.000349155
0.00666555
-0.00887594
0.0103109
-0.00560441
-0.00726743
0.00500911
0.0019262
-0.015881
0.00931044
0.00178895
-0.0117224
0.00124267
-0.0131799
0.0071061
-0.00191581
-0.00830368
0.0134254
-0.00178115
-0.00465818
-0.00123225
-0.00257777
0.00497646
-0.01577
0.00927128
-0.0116818
-0.0131405
0.0060473
0.00413119
-0.0260601
0.00659383
0.00206051
-0.0143299
0.000868346
-0.0195825
0.00776525
-0.00411209
-0.00782818
0.012423
-0.00206086
-0.00519676
-0.00086708
-0.000172376
0.00600382
-0.0258875
0.00657054
-0.0143101
-0.0195395
-0.00731546
0.0131392
-0.0318833
-0.00122895
0.0110632
-0.0314791
0.0107951
-0.0316064
0.00177123
-0.0131387
0.0166823
-0.00239527
-0.0111007
0.0211378
-0.0108176
0.0190498
-0.0072319
-0.0317953
-0.00119389
-0.0314497
-0.0315515
0.000165326
0.00559373
-0.0376431
0.000709365
0.00567875
-0.0377026
0.00629992
-0.0371977
-0.00297826
-0.00563394
0.0308894
-0.00193773
-0.0057191
0.0314965
-0.00633473
0.029748
0.000188203
-0.037618
0.000705383
-0.0376866
-0.0371814
-0.000101851
0.0176681
-0.000266434
0.0176492
0.0176439
-0.000446252
-0.0176799
0.000207934
-0.0176608
-0.0176553
-9.67281e-05
-0.000264114
-0.0104724
0.00230476
-0.00735194
-0.00678328
0.00197743
-0.00566869
0.0022412
-0.00902656
-0.0154365
-0.00229202
-0.000363189
-0.00956004
-0.00196538
-0.00193729
-0.00222735
-0.00509637
-0.0103968
-0.00732288
-0.00672282
-0.00564105
-0.00895261
-0.00937666
0.00124994
-0.0132869
-0.00505171
0.0018029
-0.0117979
0.0019431
-0.0160231
-0.0135496
-0.00124408
-0.00258688
-0.00717514
-0.001796
-0.00471648
-0.00193236
-0.00840035
-0.00933828
-0.0132385
-0.00501664
-0.0117602
-0.0159038
-0.00663773
0.000865916
-0.0197296
-0.00609587
0.00207844
-0.0144192
0.00416154
-0.0262818
-0.0125477
-0.000867167
-0.000118278
-0.00784091
-0.00207886
-0.00526864
-0.00414019
-0.00794282
-0.00661425
-0.0196693
-0.00605007
-0.0144046
-0.0260961
0.00123697
0.0108169
-0.0317823
0.00737219
0.0110971
-0.0316503
0.013205
-0.0321133
0.00242893
-0.0108377
0.0191129
-0.00177909
-0.0111336
0.0211753
-0.0131993
0.0166873
0.00120844
-0.0317158
0.00729129
-0.0316219
-0.0320052
-0.000701774
0.00628031
-0.0373616
-0.000140601
0.00565446
-0.0378667
0.00556609
-0.0378208
0.00201609
-0.00632175
0.0297009
0.00308833
-0.00570261
0.0314606
-0.00561495
0.0309587
-0.000696468
-0.0373418
-0.000173808
-0.0378478
-0.0377946
0.00026861
0.0175944
0.000105813
0.0176001
0.0176122
-0.000241152
-0.0176073
0.000371625
-0.0176132
-0.0176255
0.000267241
0.000102011
)
;

boundaryField
{
    fuel
    {
        type            calculated;
        value           nonuniform List<scalar> 
36
(
0.000123325
0.000205257
0.000123325
0.000123325
0.000205257
0.000123325
0.000123324
0.000205258
0.000123325
-0.000123325
-0.000205257
-0.000123325
-0.000123325
-0.000205257
-0.000123325
-0.000123324
-0.000205258
-0.000123325
0
0
0
0
0
0
0
0
0
0
0
0
0
0
0
0
0
0
)
;
    }
    primary_air
    {
        type            calculated;
        value           nonuniform List<scalar> 9(-0.00318286 -0.00528269 -0.00318286 -0.00318328 -0.00528461 -0.00318334 -0.00318304 -0.00528468 -0.00318305);
    }
    Secondary_air_RHS
    {
        type            calculated;
        value           nonuniform List<scalar> 9(0.0140447 0.0228706 0.0140426 0.0137398 0.0220643 0.0137375 0.0141617 0.0225961 0.0141593);
    }
    Secondary_air_LHS
    {
        type            calculated;
        value           nonuniform List<scalar> 9(0.0138563 0.0227975 0.0138549 0.0135634 0.0220166 0.0135618 0.014021 0.0225817 0.0140192);
    }
    outlet
    {
        type            calculated;
        value           nonuniform List<scalar> 
18
(
-0.0552243
0.0651419
-0.0552159
-0.0553037
0.0660608
-0.0552953
-0.0553269
0.0665661
-0.0553176
-0.0552092
0.066683
-0.0552009
-0.0551871
0.0661516
-0.0551797
-0.0551079
0.0652546
-0.0551006
)
;
    }
    stove_body
    {
        type            calculated;
        value           uniform 0;
    }
    frontAndBack
    {
        type            empty;
        value           nonuniform 0();
    }
}


// ************************************************************************* //
