/*--------------------------------*- C++ -*----------------------------------*\
  =========                 |
  \\      /  F ield         | OpenFOAM: The Open Source CFD Toolbox
   \\    /   O peration     | Website:  https://openfoam.org
    \\  /    A nd           | Version:  6
     \\/     M anipulation  |
\*---------------------------------------------------------------------------*/
FoamFile
{
    version     2.0;
    format      ascii;
    class       volScalarField;
    location    "2.5";
    object      T;
}
// * * * * * * * * * * * * * * * * * * * * * * * * * * * * * * * * * * * * * //

dimensions      [0 0 0 1 0 0 0];

internalField   nonuniform List<scalar> 
297
(
292.679
292.679
292.678
292.983
292.986
292.983
292.679
292.679
292.679
292.707
292.776
292.703
293.12
293.449
293.143
292.707
292.776
292.703
292.745
292.903
292.742
291.234
340.757
291.275
292.745
292.903
292.743
284.974
286.66
283.759
289.211
291.51
290.34
285.115
286.773
283.846
283.775
282.991
281.313
282.002
283.972
279.625
283.919
283.085
281.407
284.081
281.723
281.948
278.93
290.937
277.541
284.258
281.812
282.071
278.124
289.849
277.377
282.403
289.27
281.733
278.249
289.969
277.464
291.182
296.825
287.404
286.97
290.998
282.777
291.459
297.139
287.542
303.834
303.948
304.022
304.653
304.498
304.758
304.339
304.374
304.327
269.89
279.97
269.257
273.188
287.778
270.992
270.04
280.405
269.33
270.255
280.096
270.485
269.973
287.047
267.315
270.408
280.82
270.581
273.609
280.682
273.235
269.294
286.863
266.864
273.757
281.306
273.331
303.058
304.373
303.097
304.598
305.077
304.678
303.589
304.903
303.667
303.832
304.282
304.084
305.29
305.162
305.268
304.281
304.721
304.517
304.314
304.258
304.265
305.594
305.107
305.593
304.625
304.672
304.662
302.779
302.831
303.086
304.241
304.267
304.526
303.465
303.592
303.88
303.967
303.746
303.868
305.085
305.019
305.181
304.446
304.231
304.324
304.448
304.328
304.054
305.783
305.791
305.744
304.849
304.733
304.482
303.069
302.829
302.761
304.385
304.147
304.116
303.811
303.55
303.443
303.75
303.639
303.859
305.185
304.984
305.067
304.261
304.139
304.328
304.094
304.358
304.476
305.813
305.856
305.839
304.425
304.672
304.787
303.377
303.613
303.277
305.468
305.217
304.75
304.642
304.619
304.119
303.52
303.829
303.522
305.995
305.814
305.528
304.527
304.527
304.127
303.427
303.803
303.523
306.239
305.982
305.911
304.303
304.168
303.911
303.365
303.783
303.344
307.078
306.035
306.463
304.004
303.813
303.724
300.051
300.132
300.131
303.584
303.396
305.235
300.05
300.128
300.128
292.646
292.679
292.726
292.758
292.816
293.149
292.645
292.678
292.725
303.338
303.749
303.598
304.928
305.373
305.55
304.2
304.717
304.766
303.662
304.122
303.721
305.47
305.798
306.097
304.197
304.592
304.572
303.482
303.951
303.635
305.836
305.964
306.297
303.983
304.247
304.373
303.183
303.763
303.008
306.791
306.214
307.07
303.791
303.883
304.076
300.172
300.175
300.09
305.514
303.578
303.577
300.169
300.17
300.086
292.743
292.695
292.665
293.312
292.941
292.843
292.742
292.695
292.664
)
;

boundaryField
{
    fuel
    {
        type            fixedValue;
        value           uniform 293;
    }
    primary_air
    {
        type            fixedValue;
        value           uniform 293;
    }
    Secondary_air_RHS
    {
        type            fixedValue;
        value           uniform 293;
    }
    Secondary_air_LHS
    {
        type            fixedValue;
        value           uniform 293;
    }
    outlet
    {
        type            inletOutlet;
        inletValue      uniform 293;
        value           nonuniform List<scalar> 
18
(
293
293.312
293
293
292.941
293
293
292.843
293
293
292.758
293
293
292.816
293
293
293.149
293
)
;
    }
    stove_body
    {
        type            fixedValue;
        value           uniform 293;
    }
    frontAndBack
    {
        type            empty;
    }
}


// ************************************************************************* //
