/*--------------------------------*- C++ -*----------------------------------*\
  =========                 |
  \\      /  F ield         | OpenFOAM: The Open Source CFD Toolbox
   \\    /   O peration     | Website:  https://openfoam.org
    \\  /    A nd           | Version:  6
     \\/     M anipulation  |
\*---------------------------------------------------------------------------*/
FoamFile
{
    version     2.0;
    format      ascii;
    class       volVectorField;
    location    "2.5";
    object      U;
}
// * * * * * * * * * * * * * * * * * * * * * * * * * * * * * * * * * * * * * //

dimensions      [0 1 -1 0 0 0 0];

internalField   nonuniform List<vector> 
297
(
(34.5911 -0.023353 0.290118)
(34.5908 -0.0367467 0.280762)
(34.591 -0.0125802 0.297823)
(-1.41134e-05 0.0372694 0.316338)
(1.43912e-06 0.0451112 0.30416)
(1.5856e-05 0.00771783 0.302263)
(-34.5911 -0.0231551 0.290295)
(-34.5908 -0.036304 0.280725)
(-34.5909 -0.0124146 0.297568)
(34.5914 -0.0250292 0.301132)
(34.6005 -0.0386044 0.30176)
(34.591 -0.0158759 0.310812)
(-1.4088e-05 0.0424875 -0.262411)
(1.4787e-06 0.0333194 -0.185714)
(1.58143e-05 -0.0087908 -0.275338)
(-34.5914 -0.0246568 0.301253)
(-34.6005 -0.037862 0.301694)
(-34.591 -0.0155003 0.311003)
(34.5961 -0.0533762 0.530237)
(34.6167 -0.0292546 0.537498)
(34.5957 0.0204822 0.554726)
(-1.00983e-05 -0.0590444 0.497574)
(1.18865e-06 0.0390046 0.475757)
(1.14085e-05 0.0903278 0.471819)
(-34.5961 -0.0524573 0.530364)
(-34.6167 -0.0272434 0.537486)
(-34.5957 0.0214863 0.554222)
(22.1564 9.39935 1.40397)
(22.1761 5.46707 7.03572)
(22.0386 -9.46373 8.77517)
(-6.91922e-06 5.47749 2.22937)
(9.93131e-05 2.6839 1.84496)
(1.952e-05 -6.02612 4.77107)
(-22.1672 9.40091 1.43596)
(-22.1843 5.46056 7.05233)
(-22.0452 -9.46019 8.794)
(22.0894 11.4497 9.60955)
(22.1368 2.08812 38.7813)
(21.9541 -12.6648 16.4576)
(-0.000794937 23.8411 74.0215)
(-0.000242994 0.11092 69.5781)
(-0.000585872 -26.7882 77.9109)
(-22.1031 11.4502 9.64084)
(-22.1449 2.07747 38.7863)
(-21.9633 -12.6598 16.4781)
(21.5357 -0.696123 -17.7635)
(22.1707 4.16217 59.3661)
(21.3742 -1.43075 -1.08092)
(0.00115251 -20.7215 113.51)
(0.00341789 0.824756 -10.0278)
(0.00112317 18.3515 117.929)
(-21.5466 -0.789214 -17.7646)
(-22.1679 4.14417 59.43)
(-21.3811 -1.34954 -1.11076)
(22.017 -16.948 -122.237)
(22.149 -4.04757 -8.13633)
(21.9865 19.5427 -113.57)
(-6.8448e-05 -3.49221 2.23728)
(-0.0049185 3.48296 -78.7496)
(-0.000110691 1.81363 14.8564)
(-22.0272 -16.9172 -122.238)
(-22.1721 -4.02159 -8.10867)
(-21.9937 19.5111 -113.567)
(22.7642 37.2341 -82.658)
(23.0234 -13.5648 -73.2121)
(22.4998 -29.1416 -74.6164)
(0.00157824 17.0508 -45.7705)
(9.02128e-05 1.7138 -59.3706)
(0.00127391 -11.345 -31.4079)
(-22.7812 37.2159 -82.6551)
(-23.0471 -13.5133 -73.2469)
(-22.5068 -29.1565 -74.622)
(23.7204 28.0298 -26.652)
(23.6916 -17.0096 -22.6922)
(23.7682 -32.7061 -26.4382)
(3.68281e-05 28.6072 -27.9178)
(-0.000258753 12.5954 -28.5361)
(0.000274011 -17.0773 -30.5868)
(-23.76 28.0139 -26.6351)
(-23.7256 -16.9223 -22.6728)
(-23.7915 -32.6452 -26.4233)
(15.9483 2.95454 -178.769)
(21.229 -0.782287 80.6088)
(16.0711 -2.62086 -168.369)
(-0.000495869 -12.2018 159.655)
(-0.00388438 3.20798 -97.6844)
(-0.000751759 9.72519 163.781)
(-15.9598 2.95929 -178.711)
(-21.2824 -0.782246 80.722)
(-16.079 -2.62136 -168.285)
(16.8468 -2.50387 -182.185)
(18.9937 -1.19869 80.0473)
(16.9436 3.59976 -172.023)
(-0.000456037 -6.38691 177.924)
(-0.00420705 3.26762 -100.513)
(-0.000669344 3.88811 182.081)
(-16.8584 -2.47117 -182.133)
(-19.0887 -1.18948 80.1168)
(-16.9521 3.56934 -171.945)
(20.8931 -8.49332 -165.052)
(19.2003 -1.54061 77.5197)
(20.7373 10.4315 -155.514)
(-0.000459849 -0.75517 174.276)
(-0.00482835 3.32826 -100.858)
(-0.000659307 -1.61955 178.659)
(-20.9054 -8.44321 -165.008)
(-19.2928 -1.53709 77.4765)
(-20.7445 10.3821 -155.447)
(23.3591 55.822 -14.3216)
(23.5364 1.29177 -15.6425)
(23.3666 -56.1949 -14.5917)
(-0.000567335 39.6204 -16.3404)
(-0.000835023 -4.19183 -16.4824)
(-0.000375446 -40.5016 -13.9984)
(-23.4017 55.7259 -14.3397)
(-23.5796 1.34019 -15.6601)
(-23.412 -56.0732 -14.59)
(23.6573 35.3688 -4.49507)
(23.7537 -3.05989 -1.30972)
(23.6793 -35.7033 -4.54722)
(-0.000689029 21.2028 -8.37639)
(-0.000962689 0.855189 -7.18716)
(-0.00051297 -22.3881 -7.94947)
(-23.6935 35.3149 -4.52568)
(-23.7908 -3.00325 -1.34577)
(-23.7146 -35.6269 -4.58152)
(23.7961 -3.92544 -5.00443)
(23.8002 -0.695012 3.38299)
(23.7925 4.39839 -5.2348)
(-0.000759512 6.28593 -5.61855)
(-0.00102428 -1.72697 -1.97935)
(-0.000577197 -6.51654 -4.6115)
(-23.8225 -3.81967 -5.03187)
(-23.8356 -0.680914 3.33994)
(-23.8252 4.34256 -5.22308)
(23.3313 -58.8925 -5.99823)
(23.6116 -53.3743 -9.36898)
(23.5256 -45.6422 -12.7117)
(-0.000284902 -45.7533 -5.52294)
(-0.000209891 -43.7385 -5.09348)
(-0.000257246 -36.5778 -5.23379)
(-23.3855 -58.7692 -5.96612)
(-23.6715 -53.2363 -9.32717)
(-23.588 -45.5097 -12.6672)
(23.5471 -43.8331 -2.77311)
(23.734 -45.4094 -10.984)
(23.4255 -38.3923 -20.4506)
(-0.000260466 -37.1579 -0.37645)
(-0.00012849 -37.4962 1.53853)
(-0.000103033 -31.4719 3.65904)
(-23.5853 -43.7699 -2.79617)
(-23.7722 -45.3175 -10.9882)
(-23.4614 -38.3155 -20.4434)
(23.8284 -8.31971 -5.11018)
(23.827 -23.9433 -18.4011)
(23.4543 -32.9758 -29.1282)
(-0.000241752 -19.5729 2.03062)
(-3.64739e-05 -20.7625 4.39676)
(0.000130536 -22.817 4.3173)
(-23.8605 -8.33209 -5.06921)
(-23.8593 -23.904 -18.3465)
(-23.4878 -32.9147 -29.0836)
(23.5268 45.256 -12.6109)
(23.6116 52.8845 -9.29296)
(23.3309 58.4122 -5.98102)
(-0.000180466 36.4442 -5.23936)
(-0.000236267 43.2336 -5.02831)
(-0.000390555 45.8341 -5.57868)
(-23.585 45.1455 -12.5855)
(-23.6685 52.7784 -9.26047)
(-23.3849 58.3254 -5.95462)
(23.4196 38.0518 -20.2691)
(23.725 45.0883 -10.9283)
(23.5413 43.3745 -2.8382)
(-7.41986e-05 31.2518 3.56526)
(-0.000189687 37.2455 1.61922)
(-0.000377292 37.0592 -0.58987)
(-23.4592 37.9922 -20.2772)
(-23.7646 45.0353 -10.929)
(-23.5771 43.3416 -2.85018)
(23.4596 32.7002 -28.8656)
(23.8292 23.8654 -18.4622)
(23.829 7.71115 -5.16563)
(8.50275e-05 22.649 4.26466)
(-0.000139024 20.6885 4.30477)
(-0.000392609 19.4977 1.95084)
(-23.4856 32.6606 -28.8394)
(-23.8546 23.8432 -18.4092)
(-23.8544 7.79711 -5.11015)
(23.3479 14.1615 -22.1836)
(23.3605 21.0675 -15.2485)
(23.4495 32.8038 -17.821)
(-0.000643112 13.5638 -11.1517)
(-0.00048175 18.3029 -6.12916)
(-0.000295948 27.7876 -6.46358)
(-23.4476 14.1177 -22.0785)
(-23.4397 21.011 -15.169)
(-23.5153 32.6973 -17.7679)
(23.414 5.55346 -34.0582)
(23.4454 18.2512 -24.1604)
(23.3642 31.6069 -30.5136)
(-0.000484249 9.25408 -10.3269)
(-0.000316293 14.406 -5.02728)
(-0.000166472 25.3687 -3.12674)
(-23.4934 5.56878 -33.9133)
(-23.5006 18.2258 -24.1109)
(-23.411 31.5523 -30.4838)
(23.7453 4.67283 -42.5708)
(23.5083 20.1915 -37.757)
(23.4117 18.3959 -46.9723)
(-0.000365969 7.45592 -16.4185)
(-0.000220862 15.1319 -11.3638)
(-7.02981e-05 20.6388 -0.714096)
(-23.8141 4.68468 -42.4161)
(-23.5385 20.1663 -37.7156)
(-23.4429 18.3674 -46.9095)
(23.6531 -5.70148 -67.9517)
(23.6534 -4.42472 -63.1855)
(23.6628 -10.2046 -67.4642)
(9.36604e-05 -6.33435 4.44938)
(0.000116676 1.63114 17.6534)
(0.000142615 -7.79008 14.7076)
(-23.7025 -5.63393 -67.7994)
(-23.6559 -4.3934 -63.1811)
(-23.6922 -10.207 -67.3559)
(23.2502 2.47515 -132.65)
(23.2393 -1.15366 -133.058)
(23.2313 4.59852 -131.79)
(0.000304059 -2.01852 64.4668)
(0.000268035 0.164526 66.7632)
(0.000263359 -1.85899 61.0883)
(-23.2491 2.44027 -132.548)
(-23.2384 -1.14075 -133.009)
(-23.2304 4.59551 -131.731)
(22.1123 -0.0965482 -165.975)
(22.1145 -0.0236801 -165.878)
(22.1169 -0.172798 -165.536)
(0.000226262 -0.592556 171.981)
(0.000222622 0.328301 170.631)
(0.000220511 -0.512152 168.485)
(-22.1116 -0.0941041 -165.941)
(-22.1139 -0.0225217 -165.847)
(-22.1163 -0.171785 -165.506)
(23.4507 -33.1035 -17.9678)
(23.3662 -21.2645 -15.3683)
(23.3594 -14.2826 -22.3926)
(-0.000441614 -28.1683 -6.50859)
(-0.000651959 -18.4834 -6.18706)
(-0.000836723 -13.7351 -11.2526)
(-23.5184 -32.9782 -17.8929)
(-23.4429 -21.1927 -15.2711)
(-23.4523 -14.229 -22.2608)
(23.3691 -31.8155 -30.7674)
(23.4635 -18.4483 -24.3273)
(23.4249 -5.58511 -34.3977)
(-0.000287472 -25.6073 -3.16635)
(-0.000462089 -14.5256 -5.08696)
(-0.000654285 -9.33369 -10.466)
(-23.4117 -31.7422 -30.7246)
(-23.5017 -18.4002 -24.2741)
(-23.4928 -5.59537 -34.2228)
(23.4026 -18.5184 -47.3873)
(23.5164 -20.3271 -38.098)
(23.7604 -4.70896 -43.0088)
(-0.00014841 -20.8838 -0.718877)
(-0.000338757 -15.2177 -11.5395)
(-0.00051068 -7.54142 -16.619)
(-23.4434 -18.4852 -47.2981)
(-23.5418 -20.2862 -38.0576)
(-23.8186 -4.71461 -42.828)
(23.649 10.2142 -68.003)
(23.6503 4.46847 -63.6822)
(23.6244 5.78208 -68.6445)
(0.000168624 7.72099 14.6723)
(0.000138891 -1.59346 17.5366)
(0.000113224 6.39116 3.8059)
(-23.6961 10.2198 -67.8753)
(-23.6597 4.44407 -63.6999)
(-23.7072 5.71286 -68.4642)
(23.2333 -4.58677 -132.354)
(23.2415 1.16625 -133.614)
(23.2525 -2.51575 -133.292)
(0.000308066 1.86083 61.1486)
(0.000309793 -0.104561 66.8271)
(0.000348699 2.04955 64.883)
(-23.2322 -4.58176 -132.284)
(-23.2404 1.14776 -133.561)
(-23.2512 -2.48079 -133.196)
(22.1181 0.174105 -166.019)
(22.1158 0.0242262 -166.363)
(22.1139 0.0994275 -166.465)
(0.000245036 0.501416 168.29)
(0.000246303 -0.340387 170.473)
(0.000248948 0.585299 171.733)
(-22.1175 0.173191 -165.984)
(-22.1151 0.0237586 -166.327)
(-22.1132 0.0972644 -166.426)
)
;

boundaryField
{
    fuel
    {
        type            fixedValue;
        value           uniform (0 0 0.25);
    }
    primary_air
    {
        type            fixedValue;
        value           uniform (0 0 2.5);
    }
    Secondary_air_RHS
    {
        type            fixedValue;
        value           uniform (0 150 0);
    }
    Secondary_air_LHS
    {
        type            fixedValue;
        value           uniform (0 -150 0);
    }
    outlet
    {
        type            pressureInletOutletVelocity;
        value           nonuniform List<vector> 
18
(
(0 0 -166.019)
(0.000245036 0.501416 168.29)
(0 0 -165.984)
(0 0 -166.363)
(0.000246303 -0.340387 170.473)
(0 0 -166.327)
(0 0 -166.465)
(0.000248948 0.585299 171.733)
(0 0 -166.426)
(0 0 -165.975)
(0.000226262 -0.592556 171.981)
(0 0 -165.941)
(0 0 -165.878)
(0.000222622 0.328301 170.631)
(0 0 -165.847)
(0 0 -165.536)
(0.000220511 -0.512152 168.485)
(0 0 -165.506)
)
;
    }
    stove_body
    {
        type            noSlip;
    }
    frontAndBack
    {
        type            empty;
    }
}


// ************************************************************************* //
