/*--------------------------------*- C++ -*----------------------------------*\
  =========                 |
  \\      /  F ield         | OpenFOAM: The Open Source CFD Toolbox
   \\    /   O peration     | Website:  https://openfoam.org
    \\  /    A nd           | Version:  6
     \\/     M anipulation  |
\*---------------------------------------------------------------------------*/
FoamFile
{
    version     2.0;
    format      ascii;
    class       volScalarField;
    location    "1";
    object      p;
}
// * * * * * * * * * * * * * * * * * * * * * * * * * * * * * * * * * * * * * //

dimensions      [1 -1 -2 0 0 0 0];

internalField   nonuniform List<scalar> 
297
(
122910
122909
122909
204421
204423
204420
122910
122909
122909
122910
122909
122908
204421
204423
204420
122910
122909
122909
122909
122909
122908
204421
204422
204419
122909
122909
122908
97759.6
97257.5
97536.2
163878
162320
162173
98419.9
97404.3
97020
97539.9
96014
94929.7
161219
158710
158710
95676.1
95328.5
96750.2
94670
93507.9
93538.5
158062
154374
154290
96319.9
93315.4
91398.8
91239.6
92380.9
95882.9
155955
157286
161011
92185.8
94877.6
97115.5
95649.2
96763.2
98118
161332
160913
161579
95920.4
96128.9
96574.1
97816.2
97661.2
97745
161462
161838
161794
97432
97984.9
97864.7
90738.1
92622.6
87898.4
144624
151623
145821
90807
93235.2
88695.5
90703.3
92559.1
87688.9
144133
151463
145093
90534.7
93322.2
88722
91134.3
92567.1
88030
145040
151833
145592
90777.5
93534.8
89184.3
97916
97731.7
97680.2
162088
162189
162248
97603.9
97768.9
97902.3
97857.6
97707.9
97666.7
162247
162309
162418
97616.8
97641.7
97878.7
97820.9
97700.6
97662.2
162326
162375
162511
97628
97561.9
97855.3
97758.6
97902.9
98257.6
162392
162448
162603
97913.1
98023.4
98247
97668.6
97702.2
97919.1
162391
162371
162429
97845.9
97884.1
98039
97603.4
97515
97493.6
162448
162385
162329
97828.3
97808
97801.9
97986.9
97816.6
97876.9
161923
162135
162239
97342.7
97427
97527.3
97851
97755.4
97795.4
161825
162087
162225
97019.4
97244.1
97437.3
97817.7
97779.4
97794
161742
162065
162226
96913.2
97205
97432.5
98481.9
98621.8
98395.6
161754
161759
161792
99425.6
98710.7
97755.3
98246.4
98316
98134.9
161458
161381
161521
98620.3
97694.4
97090.6
97965.9
98000.4
97895.5
160970
160925
161083
97764.4
96976
96601.7
96505.2
96481.7
96502.7
157686
157654
157491
94189.4
94139.7
94068.8
91389.2
91357.3
91349.6
150043
150026
149972
90370.4
90344.7
90247.8
84960.4
84954.2
84949.5
137555
137510
137446
86859.1
87000.3
87177
98510.8
98565.6
98516.9
162857
162992
162994
98422.4
98462.5
98415.4
98271.3
98466.8
98452.7
162648
162788
162795
98261.6
98375.3
98353.8
98077
98400.1
98363
162415
162543
162495
98120.2
98290.5
98260.3
97276.4
97327
97383.1
161093
161173
161160
97387
97416.5
97449.4
93046.5
93031.4
93071.4
153677
153683
153693
93143.8
93141.1
93179.6
86265
86265.9
86273.2
138379
138395
138410
86372
86369.8
86375.2
)
;

boundaryField
{
    fuel
    {
        type            zeroGradient;
    }
    primary_air
    {
        type            zeroGradient;
    }
    Secondary_air_RHS
    {
        type            zeroGradient;
    }
    Secondary_air_LHS
    {
        type            zeroGradient;
    }
    outlet
    {
        type            totalPressure;
        rho             rho;
        psi             none;
        gamma           1;
        p0              uniform 100000;
        value           nonuniform List<scalar> 
18
(
89557.7
100000
89667.1
89533
100000
89643.4
89577.5
100000
89683.5
88070.5
100000
89200.6
88034.6
100000
93436.3
88031.4
100000
99995
)
;
    }
    stove_body
    {
        type            zeroGradient;
    }
    frontAndBack
    {
        type            empty;
    }
}


// ************************************************************************* //
