/*--------------------------------*- C++ -*----------------------------------*\
  =========                 |
  \\      /  F ield         | OpenFOAM: The Open Source CFD Toolbox
   \\    /   O peration     | Website:  https://openfoam.org
    \\  /    A nd           | Version:  6
     \\/     M anipulation  |
\*---------------------------------------------------------------------------*/
FoamFile
{
    version     2.0;
    format      ascii;
    class       volScalarField;
    location    "1";
    object      T;
}
// * * * * * * * * * * * * * * * * * * * * * * * * * * * * * * * * * * * * * //

dimensions      [0 0 0 1 0 0 0];

internalField   nonuniform List<scalar> 
297
(
292.727
292.735
292.727
292.896
292.907
292.896
292.727
292.735
292.727
292.828
293.48
292.888
293.019
294.18
293.018
292.827
293.48
292.888
302.231
349.468
307.214
305.987
472.294
308.738
302.202
349.427
307.207
643.774
620.111
545.89
668.94
654.382
582.238
637.06
618.804
539.395
739.462
718.526
604.677
692.242
696.423
617.092
694.951
687.713
612.288
764.323
751.842
657.767
691.57
707.349
627.87
701.737
695.198
625.355
619.099
776.162
794.71
606.789
725.409
751.889
573.731
735.61
769.478
566.566
769.009
797.54
518.726
679.532
752.009
507.709
697.634
765.136
380.727
682.376
760.753
378.95
476.425
586.125
365.078
476.065
611.23
748.58
780.005
699.218
671.698
710.158
652.443
691.51
722.203
667.718
698.453
780.961
738.676
650.268
711.675
687.754
646.525
736.749
708.927
655.927
781.198
780.432
632.007
718.113
731.161
606.656
737.53
752.772
301.158
300.155
300.081
300.772
300.589
300.401
300.151
300.58
300.205
300.805
300.497
300.469
301.083
300.924
300.669
300.916
300.807
300.562
300.81
300.638
300.659
301.086
301.048
300.997
301.074
300.996
301.002
300.019
300.081
300.282
300.365
300.371
300.464
300.109
300.141
300.227
300.359
300.368
300.431
300.605
300.571
300.592
300.435
300.377
300.269
300.696
300.596
300.441
300.889
300.815
300.806
300.956
300.576
300.301
301.85
301.7
301.787
301.846
302.019
301.942
299.27
299.426
299.761
301.644
301.44
301.546
301.891
301.902
301.578
300.394
300.643
300.733
300.898
300.909
300.894
301.154
301.154
301.088
300.842
301.063
301.145
302.568
302.354
302.092
301.303
301.676
301.656
299.343
299.832
299.176
302.631
302.062
301.753
301.644
301.879
301.804
298.934
300.409
300.324
302.681
301.892
301.636
301.517
301.744
301.236
298.668
300.894
300.887
301.563
301.652
301.021
300.494
301.817
301.404
298.424
299.022
298.618
298.744
298.538
297.885
299.259
300.791
300.383
295.01
294.267
294.843
292.24
292.247
291.589
288.374
287.758
283.191
291.118
290.597
299.26
300.3
300.344
300.46
300.584
300.623
300.606
300.264
300.266
300.309
300.304
300.346
300.525
300.687
300.674
300.561
300.254
300.234
300.315
300.256
300.336
300.591
300.836
300.64
300.514
300.192
300.209
300.326
300.142
300.306
300.066
301.223
300.411
298.747
300.075
300.147
299.903
297.79
297.692
297.837
300.297
298.486
298.074
297.871
297.595
297.768
291.575
291.587
291.697
286.996
286.859
287.072
291.518
291.533
291.647
)
;

boundaryField
{
    fuel
    {
        type            fixedValue;
        value           uniform 293;
    }
    primary_air
    {
        type            fixedValue;
        value           uniform 293;
    }
    Secondary_air_RHS
    {
        type            fixedValue;
        value           uniform 293;
    }
    Secondary_air_LHS
    {
        type            fixedValue;
        value           uniform 293;
    }
    outlet
    {
        type            inletOutlet;
        inletValue      uniform 293;
        value           nonuniform List<scalar> 
18
(
293
286.997
293
293
286.86
293
293
287.073
293
293
288.375
293
293
287.759
293
293
283.192
293
)
;
    }
    stove_body
    {
        type            fixedValue;
        value           uniform 293;
    }
    frontAndBack
    {
        type            empty;
    }
}


// ************************************************************************* //
