/*--------------------------------*- C++ -*----------------------------------*\
  =========                 |
  \\      /  F ield         | OpenFOAM: The Open Source CFD Toolbox
   \\    /   O peration     | Website:  https://openfoam.org
    \\  /    A nd           | Version:  6
     \\/     M anipulation  |
\*---------------------------------------------------------------------------*/
FoamFile
{
    version     2.0;
    format      ascii;
    class       volScalarField;
    location    "0.0075";
    object      O2;
}
// * * * * * * * * * * * * * * * * * * * * * * * * * * * * * * * * * * * * * //

dimensions      [0 0 0 0 0 0 0];

internalField   nonuniform List<scalar> 
3773
(
0
0
0
0
0
0
0
0
0
0
0
0
0
0
0
0
0
0
0
0
0
0
0
0
0
0
0
0
0
0
0
0
0
0
0
0
0
0
0
0
0
0
0
0
0
0
0
0
0
0
0
0
0
0
0
0
0
0
0
0
0
0
0
0
0
0
0
0
0
0
0
0
0
0
0
0
0
0
0
0
0
0
0
0
0
0
0
0
0
0
0
0
0
0
0
0
0
0
0
0
0
0
0
0
0
0
0
0
0
0
0
0
0
0
0
0
0
0
0
0
0
0
0
0
0
0
0
0
0
0
0
0
0
0
0
0
0
0
0
0
0
0
0
0
0
0
0
0
0
0
0
0
0
0
0
0
0
0
0
0
0
0
0
0
0
0
0
0
0
0
0
0
0
0
0
0
0
0
0
0
0
0
0
0
0
0
0
0
0
0
0
0
0
0
0
0
0
0
0
0
0
0
0
0
0
0
0
0
0
0
0
0
0
0
0
0
0
0
0
0
0
0
0
0
0
0
0
0
0
0
0
0
0
0
0
0
0
0
0
0
0
0
0
0
0
0
0
0
0
0
0
0
0
0
0
0
0
0
0
0
0
0
0
0
0
0
0
0
0
0
0
0
0
0
0
0
0
0
0
0
0
0
0
0
0
0
0
0
0
0
0
0
0
0
0
0
0
0
0
0
0
0
0
0
0
0
0
0
0
0
0
0
0
0
0
0
0
0
0
0
0
0
0
0
0
0
0
0
0
0
0
0
0
0
0
0
0
0
0
0
0
0
0
0.00153934
0.000546479
0.000471123
0.000454537
0.000539562
0.000623071
0.00147917
0.00301874
0.00123856
0.000809859
0.000713302
0.000810587
0.00119217
0.00285248
0.00635122
0.00534724
0.00487178
0.0047115
0.00487216
0.0052347
0.00615703
0.00874568
0.00871198
0.00910428
0.00933087
0.00915935
0.00875678
0.00871837
0.00632982
0.00602632
0.0053082
0.00501021
0.00524416
0.00591482
0.00605371
0.00401219
0.00178404
0.00111497
0.000983852
0.0011305
0.00171331
0.0038927
0.00177093
0.000608823
0.000538463
0.000568792
0.000600934
0.000650175
0.00178737
0.0010491
6.04515e-07
3.68189e-08
1.52962e-07
2.12818e-07
7.27037e-07
0.000964327
0.00229083
0.000174502
2.07709e-06
1.02556e-06
1.12473e-06
8.61328e-05
0.00216532
0.00357783
0.00277017
0.0020955
0.00203487
0.00211979
0.0026949
0.00371919
0.00430997
0.00399927
0.00404944
0.00400335
0.00407486
0.00400181
0.00424277
0.00361972
0.0023852
0.00209625
0.00178059
0.00182167
0.00212472
0.00334331
0.00219438
0.000130491
1.01631e-06
5.21836e-07
1.46369e-06
5.73531e-05
0.00164093
0.00131586
6.50551e-06
5.56488e-07
7.29006e-08
2.34333e-08
3.41073e-08
0.000533859
0.000392674
1.64403e-06
3.91596e-08
2.06031e-07
4.46523e-07
2.91627e-06
0.000473858
0.000936328
8.52445e-05
2.7583e-06
2.93206e-06
1.45883e-06
3.91904e-06
0.00101886
0.00177574
0.00111675
0.000879512
0.000823971
0.000865113
0.00103842
0.00190804
0.00204446
0.00177908
0.00163199
0.00160985
0.00162285
0.00174138
0.00223148
0.00137219
0.000863075
0.000822439
0.000683205
0.000670151
0.00072088
0.00105146
0.000870173
3.54585e-06
2.10296e-07
3.76363e-07
1.08759e-06
3.86239e-05
0.000613401
0.000463151
2.1512e-05
1.43458e-06
1.46621e-07
1.93557e-08
8.95473e-09
6.50962e-05
9.48987e-05
2.41078e-06
6.60068e-08
2.2773e-07
6.79633e-07
7.24731e-06
0.000115874
0.000327654
3.44541e-05
1.46261e-06
5.73417e-06
3.06379e-06
3.58369e-05
0.000425999
0.000516403
0.000425215
0.000330396
0.000313931
0.000338988
0.000480492
0.000669235
0.000960341
0.000973617
0.000780144
0.000904259
0.000738387
0.000873408
0.000887961
0.000433434
0.000291801
0.000287637
0.000260436
0.000228261
0.000231168
0.000276187
0.000274372
2.51098e-05
4.4122e-07
6.05929e-07
1.43155e-07
1.13473e-06
5.92034e-05
8.49076e-05
1.41266e-05
1.46924e-06
1.64406e-07
2.40459e-08
7.66e-09
3.57792e-07
2.25582e-09
2.80278e-08
8.69183e-08
2.1448e-07
5.00201e-07
4.53347e-07
6.18367e-06
2.33582e-05
1.38709e-06
2.80087e-07
3.0548e-06
6.0956e-06
1.22118e-05
9.90577e-05
0.000124025
9.91793e-05
9.74944e-05
0.000113156
0.000121067
0.00012378
0.000169579
0.000424404
0.000395802
0.000412167
0.000485596
0.00039798
0.000393316
0.000356967
0.000116729
8.67257e-05
9.23897e-05
9.01687e-05
6.86047e-05
5.8766e-05
6.91966e-05
1.97409e-05
2.30437e-06
5.23623e-07
1.22904e-06
2.84756e-07
3.06559e-08
9.89784e-07
8.23425e-10
4.9118e-10
3.96544e-08
3.74799e-08
1.92689e-08
8.1831e-09
3.12926e-10
0
4.73837e-08
9.54273e-08
1.60286e-07
7.53063e-08
1.38817e-08
0
2.27268e-10
1.17447e-07
5.9242e-07
1.64785e-06
5.74377e-07
2.6567e-07
2.32256e-06
2.87172e-05
2.32684e-05
2.8538e-05
3.35756e-05
3.91937e-05
3.47527e-05
4.1588e-05
0.000214667
0.000216781
0.000185781
0.000216833
0.000181812
0.000174737
0.000177316
3.30663e-05
3.03234e-05
2.98822e-05
3.0632e-05
2.20446e-05
1.5845e-05
1.60135e-05
0
6.34869e-09
7.97626e-08
5.70534e-07
3.07801e-07
7.91739e-08
3.63057e-09
0
3.15589e-10
1.8245e-08
4.46352e-08
2.96181e-08
1.47338e-08
6.97249e-10
0
8.55539e-08
1.064e-07
9.34528e-08
3.00539e-08
2.04688e-08
0
0
3.26823e-07
5.67674e-07
5.33304e-07
1.5387e-07
7.75546e-08
0
1.51331e-05
7.88982e-06
1.00741e-05
1.43548e-05
1.05057e-05
9.59536e-06
1.64802e-05
0.000128148
8.4252e-05
6.34469e-05
6.98229e-05
5.67253e-05
9.38494e-05
0.000101901
1.41763e-05
8.154e-06
8.325e-06
1.21985e-05
1.02367e-05
1.08577e-05
1.0536e-05
0
3.67935e-08
1.32292e-07
2.5004e-07
2.51339e-07
1.84341e-07
0
0
0
1.6823e-08
3.16216e-08
4.6658e-08
3.67716e-08
5.72992e-09
0
5.12982e-10
1.6766e-09
8.85111e-11
2.66167e-12
0
0
0
2.9746e-08
8.85427e-08
6.1754e-08
5.43796e-09
4.74807e-12
0
0
1.2856e-06
1.9287e-06
1.98254e-06
7.09235e-07
3.02891e-07
0
0
1.77342e-05
1.85674e-05
2.09489e-05
1.50518e-05
9.28446e-06
0
0
5.89431e-07
1.54691e-06
1.81153e-06
1.56949e-06
9.081e-07
0
0
2.54703e-09
4.931e-08
6.23779e-08
4.29221e-08
6.77634e-09
0
0
4.64846e-11
3.93192e-10
1.2207e-09
9.74883e-10
1.11105e-09
0
5.4488e-11
1.43022e-09
5.29859e-09
2.60502e-10
8.98241e-12
2.67495e-13
6.94865e-14
8.79823e-10
1.19214e-08
4.35683e-08
4.28791e-08
1.36878e-09
6.33339e-12
9.33722e-13
8.81346e-12
1.6599e-07
3.80103e-07
4.15816e-07
1.14618e-07
2.34847e-08
2.46749e-13
3.82723e-11
3.31543e-06
3.69038e-06
4.96914e-06
3.47028e-06
2.26651e-06
2.1837e-11
1.50048e-12
1.04983e-07
4.18911e-07
4.22753e-07
3.59583e-07
1.56833e-07
1.40076e-11
1.47332e-12
3.21581e-09
3.66961e-08
2.69395e-08
3.00472e-08
6.30025e-09
5.33595e-10
2.16217e-12
1.30567e-10
1.1467e-09
3.29892e-09
3.68294e-09
1.93139e-10
1.35485e-11
2.15512e-11
3.99148e-10
1.15997e-09
1.97419e-10
1.85409e-11
1.05868e-12
2.42336e-13
2.40618e-10
2.6684e-09
1.46131e-08
1.52817e-08
6.35028e-10
2.40701e-11
2.78929e-12
4.08976e-10
2.61323e-08
1.1659e-07
1.35666e-07
1.38791e-08
2.74495e-10
3.10474e-13
3.92033e-11
1.03835e-06
1.28441e-06
1.13781e-06
9.26547e-07
4.60539e-07
1.1196e-11
6.3534e-13
8.13963e-09
6.98685e-08
1.49945e-07
1.29073e-07
4.51484e-08
3.63392e-11
3.59458e-12
2.72734e-10
6.66102e-09
1.83289e-08
1.18801e-08
2.08508e-09
2.1176e-10
5.62139e-12
1.26521e-10
7.77105e-10
2.81646e-09
1.77291e-09
1.63839e-10
1.07036e-11
9.66128e-12
8.89979e-11
3.22101e-11
1.70183e-11
6.52415e-12
1.61306e-12
6.21431e-13
1.23291e-10
9.69969e-10
2.6775e-09
2.70506e-09
7.48107e-10
7.23161e-11
9.28241e-12
7.19277e-10
7.8925e-09
2.93288e-08
2.41305e-08
1.15276e-08
1.0318e-09
1.30271e-12
5.78498e-11
2.43125e-07
3.78253e-07
4.66803e-07
4.06801e-07
1.01884e-07
2.60661e-11
2.30253e-13
1.29471e-10
6.13946e-09
3.37445e-08
3.34518e-08
1.01049e-08
3.35409e-10
9.89018e-13
1.90302e-11
4.26584e-10
2.56681e-09
2.14597e-09
9.11858e-10
8.3212e-11
1.34847e-12
1.30579e-11
6.25184e-11
2.91746e-10
3.34036e-10
1.11109e-10
5.41944e-12
4.47446e-12
1.90324e-12
2.23369e-12
2.1762e-11
8.90907e-12
3.15588e-12
1.76064e-12
4.71795e-11
1.15983e-10
2.70822e-10
5.3787e-10
1.91436e-10
5.93617e-11
1.17725e-11
2.64269e-10
8.10424e-10
3.65292e-09
6.41301e-09
5.98419e-09
1.09527e-09
3.00469e-12
3.66169e-11
4.18203e-08
7.53825e-08
1.58766e-07
9.54127e-08
1.78127e-08
3.94028e-11
2.53822e-13
1.09589e-09
1.04116e-09
4.0108e-09
4.8116e-09
2.92803e-09
4.70863e-10
1.09151e-12
8.74669e-12
7.01114e-11
2.46051e-10
4.09696e-10
3.39562e-10
6.73738e-11
2.91889e-13
1.13832e-12
2.86788e-12
6.93575e-12
2.11235e-11
4.3006e-11
5.0418e-12
2.37997e-12
9.74392e-13
5.94695e-13
2.04351e-12
5.29992e-12
4.33617e-12
2.18035e-12
1.54202e-11
1.09117e-11
7.15883e-12
3.11807e-11
4.42375e-11
1.95438e-11
6.73392e-12
7.07039e-11
2.2448e-11
4.32161e-11
6.46259e-10
1.79418e-09
4.85272e-10
2.0493e-11
1.52116e-11
6.30127e-09
1.33404e-08
3.12698e-08
2.40392e-08
6.38821e-09
3.30024e-11
7.35878e-13
1.47798e-10
7.72549e-11
5.27986e-10
7.8858e-10
4.64079e-10
1.58946e-10
2.02137e-12
5.81063e-12
1.43818e-11
3.92366e-11
6.36171e-11
5.35769e-11
2.64738e-11
2.05121e-13
7.03515e-13
1.88953e-12
2.42182e-12
2.01794e-12
2.85844e-12
2.70595e-12
9.65084e-13
5.82508e-13
6.25013e-13
5.50759e-13
1.42171e-13
6.74734e-13
9.49642e-13
7.04487e-12
3.68825e-12
3.08749e-12
4.99474e-12
1.44625e-11
7.92964e-12
3.22563e-12
2.41665e-11
9.76323e-12
1.62562e-11
3.23798e-11
1.11301e-10
9.79525e-11
1.47131e-11
5.03261e-11
2.01709e-09
3.86558e-09
9.60589e-09
9.14013e-09
2.3219e-09
8.4028e-11
4.2269e-12
1.3064e-11
3.69738e-11
6.65549e-11
1.15529e-10
1.96346e-11
2.92015e-11
1.94466e-12
4.09329e-12
5.2447e-12
7.3022e-12
6.95714e-12
4.33345e-12
9.21269e-12
1.49597e-13
3.23449e-13
4.75154e-13
5.27636e-13
4.12459e-13
5.57008e-13
1.27159e-12
0
9.37654e-08
7.33832e-08
4.13865e-08
2.6292e-08
2.57253e-08
0
0
6.61984e-07
6.71696e-07
4.40283e-07
3.39459e-07
1.72286e-07
0
0
4.90845e-06
4.9196e-06
6.3182e-06
9.35058e-06
2.44958e-06
0
0
5.85848e-05
5.75246e-05
6.27684e-05
5.03765e-05
7.99374e-05
0
0
7.23063e-06
7.04004e-06
4.37643e-06
5.51096e-06
9.15228e-06
0
0
0
2.77588e-07
2.95931e-07
6.00057e-07
6.32416e-07
0
0
0
8.76425e-09
2.34377e-08
9.924e-08
1.2731e-07
0
0
5.97962e-08
4.76515e-08
2.59078e-08
1.55508e-08
1.46545e-08
0
0
4.9716e-07
5.13566e-07
3.05851e-07
2.03936e-07
6.59224e-08
0
0
4.64404e-06
4.63173e-06
6.08098e-06
8.98406e-06
1.99759e-06
0
0
5.57103e-05
5.42946e-05
6.04278e-05
4.86719e-05
7.73493e-05
0
0
6.83148e-06
6.7217e-06
4.27553e-06
4.6666e-06
7.27499e-06
0
0
0
2.14428e-07
2.44098e-07
3.76949e-07
3.24159e-07
0
0
0
4.63001e-09
1.47905e-08
5.62121e-08
5.75116e-08
0
0
5.55085e-08
4.12299e-08
2.20369e-08
1.2667e-08
1.18911e-08
0
0
4.4665e-07
4.68034e-07
2.84227e-07
1.38734e-07
2.69067e-08
0
0
4.61767e-06
4.33248e-06
5.54432e-06
8.15978e-06
1.67665e-06
0
0
5.30075e-05
5.23039e-05
5.72592e-05
4.6172e-05
7.31463e-05
0
0
5.81899e-06
6.38232e-06
4.14855e-06
4.34569e-06
5.84003e-06
0
0
0
1.97292e-07
2.29912e-07
3.40434e-07
2.71094e-07
0
0
0
3.95618e-09
1.33865e-08
4.99123e-08
4.33538e-08
0
0
5.55936e-08
3.85062e-08
1.86093e-08
1.00732e-08
9.67314e-09
0
0
3.99936e-07
4.211e-07
2.48115e-07
1.28836e-07
0
0
0
4.37046e-06
4.28276e-06
4.9559e-06
7.57094e-06
1.66891e-06
0
0
5.05018e-05
4.95105e-05
5.23856e-05
4.24912e-05
6.673e-05
0
0
5.43632e-06
5.42494e-06
3.6918e-06
4.22572e-06
4.31611e-06
0
0
0
1.77135e-07
2.19341e-07
3.35769e-07
2.77779e-07
0
0
0
5.50791e-09
1.25047e-08
4.97911e-08
5.96316e-08
0
0
3.59303e-08
3.12835e-08
1.66023e-08
9.49262e-09
9.16664e-09
0
0
3.57619e-07
3.59805e-07
2.30001e-07
1.34123e-07
0
0
0
4.39159e-06
4.27015e-06
4.80244e-06
6.78328e-06
1.6348e-06
0
0
4.8278e-05
4.72487e-05
4.86419e-05
4.01428e-05
5.70218e-05
0
0
4.55284e-06
4.74389e-06
3.6562e-06
3.94986e-06
3.39091e-06
0
0
0
1.39245e-07
1.87541e-07
3.23413e-07
2.60083e-07
0
0
0
5.81897e-09
1.1403e-08
5.25415e-08
6.93051e-08
0
0
1.39901e-08
1.4122e-08
6.4665e-09
5.76309e-09
6.80855e-09
0
0
2.7147e-07
2.76651e-07
2.07902e-07
1.3131e-07
0
0
0
4.55182e-06
4.32571e-06
4.79156e-06
4.97323e-06
1.60906e-06
0
0
4.71062e-05
4.35841e-05
4.55599e-05
3.68738e-05
4.484e-05
0
0
4.34294e-06
4.67348e-06
3.72043e-06
3.81051e-06
3.1715e-06
0
0
0
1.05623e-07
1.61159e-07
2.44692e-07
1.53008e-07
0
0
0
3.04937e-09
6.77938e-09
3.9158e-08
4.71105e-08
0
0
3.98491e-09
7.50166e-09
2.64239e-09
1.23963e-09
0
0
0
1.84922e-07
2.12984e-07
1.35305e-07
5.92819e-08
6.23874e-09
0
0
4.47431e-06
4.28441e-06
4.63388e-06
3.82681e-06
1.62883e-06
0
0
4.63628e-05
4.22069e-05
4.20716e-05
3.3879e-05
3.29446e-05
0
0
3.69677e-06
4.47872e-06
3.69072e-06
3.43309e-06
2.59693e-06
0
0
0
7.7263e-08
1.26087e-07
1.53496e-07
9.63657e-08
0
0
1.00209e-09
5.52744e-10
3.50309e-09
1.79449e-08
3.09193e-08
0
2.61754e-14
3.61646e-13
8.2281e-13
7.31957e-13
1.33586e-13
8.95962e-14
1.10541e-14
8.2192e-16
5.90156e-13
5.34885e-12
1.93676e-11
1.96826e-11
2.22773e-12
1.80229e-13
1.28285e-14
2.16795e-11
1.16018e-10
3.58671e-10
2.46796e-10
5.93399e-11
9.81522e-12
4.27323e-11
6.12938e-10
2.5031e-09
4.59527e-09
3.11142e-09
7.63815e-10
6.62914e-11
1.29981e-11
5.07757e-11
1.38462e-10
1.14441e-10
9.45692e-11
1.95755e-11
2.06474e-15
2.93315e-13
6.23963e-13
2.38596e-12
6.10118e-12
2.09876e-12
3.27964e-13
8.09144e-16
1.53008e-14
5.77672e-14
1.89387e-13
1.56613e-13
6.96268e-14
2.86942e-14
1.52394e-15
1.48941e-13
5.90659e-13
8.24696e-13
9.01629e-13
4.73648e-13
7.83081e-14
7.09402e-15
5.98632e-15
2.56009e-12
6.53292e-12
1.0413e-11
1.17712e-11
1.56659e-12
2.25726e-13
2.28183e-13
2.3176e-11
1.23145e-10
3.34158e-10
1.92187e-10
5.56327e-11
1.20166e-11
3.82182e-11
3.50101e-10
1.65475e-09
3.21327e-09
1.78479e-09
4.86295e-10
5.76905e-11
2.12438e-11
4.79046e-11
1.04153e-10
1.18531e-10
8.20705e-11
2.1299e-11
5.39861e-15
2.10124e-13
5.99036e-13
1.52012e-12
6.548e-12
4.72005e-12
1.03552e-12
6.77631e-15
1.37632e-14
3.20946e-14
1.57438e-13
1.44714e-13
1.26112e-13
8.60451e-14
6.9693e-15
2.97051e-13
8.39147e-13
1.16796e-12
1.17441e-12
4.73593e-13
9.37808e-14
1.59434e-14
5.06394e-14
3.82594e-12
7.86251e-12
1.04769e-11
7.74928e-12
1.44924e-12
3.36082e-13
2.04204e-12
2.6994e-11
1.29482e-10
2.61598e-10
1.46755e-10
4.35645e-11
1.36945e-11
3.45357e-11
2.06074e-10
1.08089e-09
2.1056e-09
9.95244e-10
2.68409e-10
4.20158e-11
2.13558e-11
4.21622e-11
1.29942e-10
1.56888e-10
7.99287e-11
2.81668e-11
3.94202e-12
6.54314e-13
1.08306e-12
2.31504e-12
3.83251e-12
2.70822e-12
1.30653e-12
6.33985e-13
4.14823e-14
7.68529e-14
2.12832e-13
1.92896e-13
1.67746e-13
1.18613e-13
7.50346e-14
5.08884e-13
7.97458e-13
8.40111e-13
6.5093e-13
3.69343e-13
9.76409e-14
4.70791e-14
8.94279e-13
3.42645e-12
4.64975e-12
5.14068e-12
3.2415e-12
1.41195e-12
5.42298e-13
3.20629e-12
1.61345e-11
8.15947e-11
1.22576e-10
6.70806e-11
2.45428e-11
1.21817e-11
2.60222e-11
1.10922e-10
6.64093e-10
1.23642e-09
5.08106e-10
1.55193e-10
2.88788e-11
1.97216e-11
3.35878e-11
1.23694e-10
1.48214e-10
3.28839e-11
1.33643e-11
3.06294e-12
1.16994e-12
1.15494e-12
2.35038e-12
2.18164e-12
1.36984e-12
6.52205e-13
5.23062e-13
1.57162e-13
1.61184e-13
2.73605e-13
2.34657e-13
2.04744e-13
1.47004e-13
1.00755e-13
4.98289e-13
5.92482e-13
3.31235e-13
2.34593e-13
9.97684e-14
5.94725e-14
4.37245e-14
1.16488e-12
2.15755e-12
2.11935e-12
1.38931e-12
6.1781e-13
5.28409e-13
3.9785e-13
3.3283e-12
8.63554e-12
3.71221e-11
4.48094e-11
1.66966e-11
6.22912e-12
5.57078e-12
2.16004e-11
7.94223e-11
4.48489e-10
6.92753e-10
1.67458e-10
4.96791e-11
1.71946e-11
9.39071e-12
1.50849e-11
5.79938e-11
5.97866e-11
1.11152e-11
3.78523e-12
2.02707e-12
7.74994e-13
8.26711e-13
1.49834e-12
1.43086e-12
8.73499e-13
4.23851e-13
2.91181e-13
1.18966e-13
1.24935e-13
2.25606e-13
2.07712e-13
1.79292e-13
1.41964e-13
9.44804e-14
3.64377e-13
2.64958e-13
9.28903e-14
5.93569e-14
3.06324e-14
1.7673e-14
1.36194e-14
1.02782e-12
1.30024e-12
6.09841e-13
4.30674e-13
1.85599e-13
1.21095e-13
1.36009e-13
2.28745e-12
2.94981e-12
8.46783e-12
7.13668e-12
2.10941e-12
6.9019e-13
1.42919e-12
1.49624e-11
3.41484e-11
1.49712e-10
1.82772e-10
3.90132e-11
9.3146e-12
7.39933e-12
2.73631e-12
3.82926e-12
1.58437e-11
1.63768e-11
3.25765e-12
6.92485e-13
6.12832e-13
3.10145e-13
3.84941e-13
5.97061e-13
5.13516e-13
2.47284e-13
9.31552e-14
5.4957e-14
3.30835e-14
4.80842e-14
1.11871e-13
1.11584e-13
9.24689e-14
7.47619e-14
6.1148e-14
1.99253e-13
1.38926e-13
6.04276e-14
3.3636e-14
1.49543e-14
6.11012e-15
3.9513e-15
3.58469e-13
4.57669e-13
1.84984e-13
6.51372e-14
2.31225e-14
1.26436e-14
2.06232e-14
6.95476e-13
5.02602e-13
1.00296e-12
5.53738e-13
3.01939e-13
6.49099e-14
1.62405e-13
4.26104e-12
5.73963e-12
2.48918e-11
2.97824e-11
8.78018e-12
1.46665e-12
1.54887e-12
8.29257e-13
1.01213e-12
3.64119e-12
4.68929e-12
8.88443e-13
8.30481e-14
1.41368e-13
7.50883e-14
9.81717e-14
1.5474e-13
1.16533e-13
3.57126e-14
4.91977e-15
3.54177e-15
9.38859e-15
1.83106e-14
2.72528e-14
2.23386e-14
1.19049e-14
1.25637e-14
1.20484e-14
2.70324e-16
6.14369e-17
6.01116e-17
6.38289e-17
6.56901e-17
6.79375e-17
4.95617e-17
6.25996e-15
6.25604e-16
2.1045e-16
1.95667e-17
2.07995e-17
1.885e-17
1.50471e-17
3.1969e-12
8.5448e-13
3.3553e-14
1.4617e-17
1.55925e-17
2.10601e-17
3.06454e-17
3.14157e-11
3.26783e-12
4.66918e-13
8.23859e-14
2.24061e-14
9.8178e-15
3.95649e-15
1.03225e-16
4.05994e-17
3.9288e-17
3.99582e-17
3.81124e-17
2.89452e-17
1.86209e-17
5.0833e-16
5.47901e-16
3.77692e-16
2.38923e-16
1.9131e-16
1.02674e-16
4.32557e-17
8.4048e-16
8.90054e-16
8.48073e-16
6.644e-16
5.58766e-16
3.37263e-16
1.64068e-16
1.24735e-15
2.70374e-16
2.09844e-16
2.19443e-16
2.27158e-16
2.22531e-16
1.93697e-16
2.85295e-14
7.62405e-15
1.85628e-16
8.50776e-17
8.70458e-17
8.86023e-17
8.65163e-17
3.46088e-12
1.57086e-12
3.42505e-14
6.59273e-17
1.00257e-16
1.7662e-16
3.24615e-16
2.93134e-11
9.3139e-12
1.73534e-12
3.59312e-13
7.91932e-14
4.00634e-14
2.71985e-14
1.29799e-15
1.87016e-15
2.58784e-15
3.64992e-16
3.32064e-16
2.61572e-16
1.7664e-16
1.4756e-14
1.74318e-14
9.25471e-15
3.12518e-15
2.58964e-15
1.41533e-15
6.38006e-16
6.8952e-15
7.82314e-15
7.35097e-15
6.86392e-15
5.71187e-15
3.85547e-15
9.78971e-16
5.29343e-15
7.03262e-16
6.06386e-16
6.57653e-16
6.83122e-16
5.77953e-16
4.8849e-16
1.07032e-13
3.67497e-14
8.26046e-15
4.27737e-16
4.78952e-16
5.29157e-16
5.36756e-16
3.86801e-12
2.134e-12
5.76261e-13
5.13162e-16
1.74944e-16
2.69534e-16
3.83735e-16
2.58724e-11
9.94464e-12
3.85803e-12
1.40729e-12
5.54412e-13
2.52213e-13
1.18809e-13
7.30795e-13
2.37872e-13
4.6446e-14
1.47781e-15
1.77645e-15
1.31423e-15
1.0581e-15
3.90292e-13
2.76078e-13
1.32432e-13
1.2665e-14
8.73246e-15
8.29462e-15
4.54595e-15
5.49254e-14
4.29686e-14
2.99567e-14
2.28305e-14
1.90545e-14
1.36488e-14
5.43571e-15
2.81796e-14
6.60877e-15
1.43862e-15
1.36036e-15
1.51697e-15
1.3768e-15
9.98562e-16
1.90522e-13
7.05094e-14
2.0984e-14
4.22033e-15
1.65912e-15
2.02713e-15
1.7494e-15
4.50073e-12
2.00065e-12
1.06491e-12
2.18029e-13
4.07349e-15
4.30402e-16
5.5062e-16
1.93827e-11
9.77844e-12
4.26863e-12
2.32869e-12
1.21693e-12
6.50822e-13
3.70752e-13
1.41035e-12
8.38508e-13
4.52671e-13
1.85163e-13
7.43606e-14
3.30272e-14
1.65956e-14
3.28035e-13
2.76839e-13
2.0763e-13
1.46793e-13
1.0785e-13
6.87037e-14
2.84051e-14
7.61494e-14
6.82967e-14
6.37427e-14
6.1189e-14
5.26997e-14
3.99464e-14
1.52525e-14
8.65923e-15
5.68463e-15
5.84868e-15
5.33373e-15
3.96646e-15
2.34011e-15
2.1129e-15
1.98983e-13
1.27551e-13
9.60855e-14
4.34209e-14
2.72017e-14
1.85499e-14
7.36225e-15
3.86165e-12
1.9002e-12
1.15266e-12
6.81079e-13
2.54433e-13
4.91574e-14
8.04905e-15
1.15465e-11
7.9422e-12
4.50032e-12
2.2427e-12
1.71309e-12
1.00106e-12
6.95537e-13
1.03483e-12
7.45263e-13
4.11495e-13
2.54597e-13
1.60903e-13
1.042e-13
5.60609e-14
2.38099e-13
1.8897e-13
1.59748e-13
1.39418e-13
1.0525e-13
7.91083e-14
4.21068e-14
8.22411e-14
7.29039e-14
6.624e-14
5.81236e-14
5.08583e-14
4.17643e-14
2.20058e-14
9.04304e-15
1.26855e-14
1.3444e-14
1.01396e-14
6.51282e-15
5.48261e-15
3.18876e-15
1.24687e-13
1.12044e-13
9.12033e-14
6.69527e-14
5.6549e-14
4.65621e-14
2.59433e-14
1.36639e-12
1.18081e-12
8.08008e-13
4.88695e-13
3.54236e-13
2.31703e-13
1.13103e-13
5.2804e-12
4.2721e-12
2.51905e-12
1.76358e-12
1.28962e-12
9.33259e-13
6.79803e-13
6.06776e-13
4.24185e-13
2.30291e-13
1.55106e-13
1.02606e-13
8.26589e-14
6.9578e-14
4.43753e-14
4.09593e-14
4.68202e-14
5.17907e-14
5.0688e-14
4.44073e-14
3.10327e-14
5.50991e-14
4.7619e-14
4.31938e-14
3.85904e-14
3.53272e-14
2.76627e-14
1.70946e-14
3.5648e-15
3.2979e-15
2.55362e-15
2.10161e-15
1.65774e-15
1.4424e-15
1.96579e-15
2.02975e-14
2.28393e-14
2.26158e-14
2.13048e-14
1.97158e-14
1.63289e-14
1.52283e-14
1.41119e-13
1.63903e-13
1.86004e-13
1.87484e-13
1.79743e-13
1.45776e-13
1.28204e-13
1.14311e-12
1.06142e-12
7.70905e-13
6.36339e-13
3.96265e-13
3.42366e-13
3.38965e-13
4.56165e-14
5.02721e-14
2.54209e-14
2.34837e-14
1.93909e-14
2.19611e-14
2.90248e-14
5.88303e-15
7.41779e-15
1.38661e-14
1.53953e-14
1.7769e-14
1.66603e-14
1.53824e-14
8.48133e-15
6.05891e-15
8.341e-15
1.03894e-14
1.06885e-14
9.37665e-15
1.04654e-14
8.55429e-17
1.5874e-16
6.33007e-16
1.0525e-15
1.3156e-15
1.20103e-15
1.07308e-15
1.55384e-17
2.57745e-17
6.73427e-17
1.58243e-16
1.8668e-16
1.851e-16
1.70689e-16
3.02603e-16
2.44987e-16
2.22395e-16
1.98316e-16
1.888e-16
1.83719e-16
3.6084e-16
3.61907e-15
3.15673e-15
5.97788e-15
1.47583e-14
1.07557e-13
5.4186e-13
2.01463e-11
8.45341e-16
7.90858e-16
8.03259e-16
8.20219e-16
2.31123e-13
3.7423e-12
8.7696e-12
9.28115e-17
1.23675e-16
1.37706e-16
1.42001e-16
4.08126e-15
6.21931e-15
2.9826e-14
3.1546e-16
4.30437e-16
4.28075e-16
4.19575e-16
4.43961e-16
4.51487e-16
9.17381e-16
3.94946e-16
1.36824e-15
1.03664e-14
1.41801e-14
1.43058e-14
1.27226e-14
1.04136e-14
7.3236e-17
2.12511e-16
9.58752e-16
2.36925e-15
2.48686e-15
2.19138e-15
1.72916e-15
6.95758e-16
6.46215e-16
6.16603e-16
6.18932e-16
6.13832e-16
6.06969e-16
5.48188e-15
5.17965e-14
7.65017e-14
2.18584e-13
6.25902e-13
2.08868e-12
6.64638e-12
1.96591e-11
1.18365e-15
1.1317e-15
1.08263e-15
2.37971e-13
2.42031e-12
5.15921e-12
1.16692e-11
6.0214e-16
5.78009e-16
5.65872e-16
4.36711e-15
4.17976e-14
6.57889e-14
1.66804e-13
1.00963e-15
1.10886e-15
1.20038e-15
1.24611e-15
1.53646e-15
1.78538e-15
4.3344e-15
2.01876e-15
1.02158e-14
4.06668e-14
4.04489e-14
3.63193e-14
2.02174e-14
1.12211e-14
6.72308e-16
1.74023e-15
5.2452e-15
1.29795e-14
1.2617e-14
8.54746e-15
4.39988e-15
3.48795e-15
3.0467e-15
2.28618e-15
2.2924e-15
2.15618e-15
2.70751e-15
1.2648e-13
1.83479e-13
2.98734e-13
8.51131e-13
2.02822e-12
4.1636e-12
9.21017e-12
1.87364e-11
2.02273e-15
2.03198e-15
1.85583e-13
2.90999e-12
6.46745e-12
1.00357e-11
1.64025e-11
4.04654e-15
3.49853e-15
5.54254e-15
7.2877e-14
2.00149e-13
3.78294e-13
5.89801e-13
2.07736e-15
3.38184e-15
3.78565e-15
4.97934e-15
8.48392e-15
1.72205e-14
3.34597e-14
7.07336e-15
3.91777e-14
8.96954e-14
1.05256e-13
1.08326e-13
1.46945e-13
2.37653e-13
2.10717e-15
7.48959e-15
2.5991e-14
4.81231e-14
7.94126e-14
1.53832e-13
3.73793e-13
4.25813e-14
7.08641e-14
9.70536e-14
1.4721e-13
3.72967e-13
8.10332e-13
1.31551e-12
5.9748e-13
1.13014e-12
2.01334e-12
3.0309e-12
4.96873e-12
9.48969e-12
1.66404e-11
3.34308e-15
2.4109e-13
2.1826e-12
4.65738e-12
7.06758e-12
1.00856e-11
1.30063e-11
1.67829e-14
1.32768e-14
9.42968e-14
2.14441e-13
3.15172e-13
5.45488e-13
8.09603e-13
4.22031e-15
9.06357e-15
9.137e-15
1.95105e-14
4.18527e-14
6.43218e-14
1.22212e-13
1.17946e-14
6.04587e-14
1.24923e-13
1.73875e-13
2.14874e-13
2.63096e-13
3.50504e-13
1.32995e-14
4.18639e-14
8.85836e-14
1.48403e-13
2.21104e-13
3.11771e-13
5.52902e-13
1.494e-13
2.02682e-13
3.34362e-13
4.72806e-13
6.77938e-13
1.30837e-12
2.23283e-12
1.34097e-12
1.78906e-12
2.45479e-12
3.69238e-12
5.63117e-12
9.56129e-12
1.38984e-11
3.05853e-13
1.489e-12
2.82695e-12
4.24808e-12
5.89075e-12
7.67712e-12
8.68376e-12
4.06766e-14
1.68847e-13
3.41091e-13
4.71277e-13
5.49707e-13
5.49567e-13
5.70149e-13
1.06272e-14
1.58671e-14
2.0561e-14
1.97519e-14
2.50469e-14
6.30362e-14
9.95266e-14
1.37985e-14
6.74877e-14
1.25111e-13
1.88098e-13
2.41419e-13
2.68446e-13
3.33677e-13
3.84102e-14
7.26715e-14
1.38186e-13
2.01305e-13
2.88899e-13
3.98329e-13
5.49268e-13
2.02789e-13
2.69134e-13
3.90463e-13
5.18324e-13
6.82031e-13
1.19081e-12
1.51913e-12
1.63163e-12
1.97814e-12
2.48301e-12
3.47021e-12
4.50852e-12
6.93315e-12
8.80242e-12
9.38659e-13
1.70249e-12
2.25194e-12
2.50515e-12
2.61433e-12
2.62421e-12
2.51034e-12
1.72062e-13
2.7302e-13
2.93345e-13
2.49045e-13
2.42908e-13
2.49372e-13
2.89031e-13
1.49098e-14
2.75606e-14
3.66434e-14
3.63608e-14
2.74943e-14
2.60832e-14
1.8509e-14
1.01876e-14
3.4556e-14
5.49721e-14
1.0747e-13
1.33846e-13
1.66517e-13
1.9518e-13
2.71657e-14
3.66888e-14
5.49945e-14
9.35673e-14
1.17609e-13
2.07772e-13
2.75249e-13
1.23162e-13
1.32176e-13
1.74168e-13
2.52979e-13
3.20664e-13
4.64414e-13
5.30681e-13
1.03042e-12
1.05937e-12
1.29261e-12
1.73116e-12
2.11495e-12
2.86465e-12
3.06787e-12
6.81016e-13
7.24442e-13
5.81235e-13
5.67902e-13
5.99248e-13
6.64803e-13
5.71465e-13
6.662e-14
6.318e-14
6.00746e-14
5.87693e-14
5.90549e-14
6.2402e-14
7.19917e-14
9.85095e-15
7.5107e-15
9.61288e-15
1.09804e-14
1.27271e-14
1.32087e-14
1.19107e-14
6.15328e-20
7.20178e-20
1.02516e-19
2.61544e-19
4.78851e-19
5.9012e-19
1.20331e-18
1.11468e-19
1.97117e-19
6.68287e-19
2.29449e-18
4.03266e-18
4.2015e-18
4.93925e-18
7.87125e-16
6.33588e-16
5.86007e-16
4.42377e-16
3.60344e-16
3.19579e-16
3.16312e-16
3.04763e-15
2.45849e-15
2.37947e-15
2.38904e-15
2.44398e-15
2.73364e-15
3.191e-15
1.20293e-15
1.09073e-15
1.05104e-15
9.03782e-16
8.54918e-16
8.61413e-16
8.61017e-16
8.46383e-19
1.09486e-17
1.26804e-17
2.70415e-17
4.5926e-17
6.84766e-17
8.34696e-17
8.55568e-20
4.47107e-19
3.61483e-18
3.44927e-17
8.24801e-17
1.25245e-16
1.45447e-16
5.3322e-20
8.60861e-20
1.61151e-19
7.57963e-19
8.59514e-19
1.81488e-18
3.57707e-18
8.21502e-20
2.54318e-19
2.28263e-18
1.07288e-17
1.69387e-17
1.83387e-17
3.56571e-17
1.03747e-15
1.00278e-15
1.09637e-15
7.74423e-16
5.78816e-16
5.19383e-16
5.78331e-16
4.46246e-15
5.24687e-15
8.87743e-15
1.47315e-14
2.06064e-14
3.10629e-14
3.88486e-14
1.62616e-15
1.71412e-15
1.75822e-15
1.66756e-15
1.55018e-15
1.5868e-15
1.40472e-15
3.94231e-18
3.88301e-17
6.38534e-17
1.79962e-16
3.27704e-16
4.40892e-16
5.28107e-16
1.14453e-19
2.26899e-18
1.0489e-17
7.90321e-17
1.67942e-16
2.27088e-16
3.68228e-16
4.79657e-20
9.1678e-20
2.08233e-19
1.06624e-18
1.49839e-18
5.10494e-18
8.7284e-18
2.34873e-19
5.22861e-19
4.64951e-18
3.15304e-17
4.82036e-17
8.58946e-17
3.11943e-16
1.4583e-15
1.96293e-15
3.08978e-15
1.45793e-15
9.91104e-16
1.12528e-15
3.44281e-15
8.85657e-15
1.60602e-14
3.28633e-14
4.77559e-14
6.71024e-14
8.67345e-14
1.46729e-13
2.83427e-15
3.56431e-15
5.56307e-15
5.49901e-15
4.08525e-15
3.04635e-15
2.41734e-15
6.00549e-18
5.13254e-17
1.57749e-16
9.43462e-16
1.60335e-15
2.53493e-15
4.13209e-15
1.65866e-19
2.98292e-18
2.86136e-17
1.30052e-16
2.58626e-16
3.62342e-16
5.88726e-16
6.30673e-20
1.0199e-19
3.51723e-19
1.75081e-18
2.3016e-18
8.08512e-18
1.13126e-17
3.00523e-19
6.8413e-19
1.3479e-17
8.79535e-17
1.3835e-16
2.54123e-16
1.779e-15
2.43381e-15
3.9838e-15
4.45034e-15
3.00433e-15
1.42703e-15
5.38982e-15
2.47359e-14
1.38822e-14
3.09265e-14
5.35414e-14
9.08916e-14
1.28665e-13
1.82486e-13
3.44285e-13
4.82273e-15
5.7184e-15
7.6465e-15
8.29807e-15
5.88769e-15
5.34014e-15
4.36269e-15
9.70854e-18
7.1157e-17
4.20975e-16
2.132e-15
7.3982e-15
1.93005e-14
1.88814e-14
2.2093e-19
3.26354e-18
3.78931e-17
1.48524e-16
3.55638e-16
4.12774e-16
8.45825e-16
7.64499e-20
1.27308e-19
5.19177e-19
1.97843e-18
3.36304e-18
9.95149e-18
1.18531e-17
3.6405e-19
1.22637e-18
3.73574e-17
2.56915e-16
4.72452e-16
7.20205e-16
5.49625e-15
3.50906e-15
5.18866e-15
3.84618e-15
6.53506e-15
1.48728e-14
3.68714e-14
7.13779e-14
1.97108e-14
4.85194e-14
1.02059e-13
1.87575e-13
3.30435e-13
5.4765e-13
8.5047e-13
5.94687e-15
8.15898e-15
1.08789e-14
8.03456e-15
7.35954e-15
7.97041e-15
4.68296e-14
1.02376e-17
1.0072e-16
1.06103e-15
9.31789e-15
2.4768e-14
4.17852e-14
3.27358e-14
2.31033e-19
3.42244e-18
4.61213e-17
1.57305e-16
3.87542e-16
4.30105e-16
9.46371e-16
8.25147e-20
1.34677e-19
6.7364e-19
2.33227e-18
3.86964e-18
1.08038e-17
1.22044e-17
5.24426e-19
1.49392e-18
9.37187e-17
5.44382e-16
2.17984e-15
9.42498e-15
1.92095e-14
5.34359e-15
8.67354e-15
4.03871e-15
8.81783e-15
4.33381e-14
1.08073e-13
1.57014e-13
2.75589e-14
9.94889e-14
2.42451e-13
4.1893e-13
6.80133e-13
8.83956e-13
1.1117e-12
7.87257e-15
1.24793e-14
1.67268e-14
8.62498e-15
2.00414e-14
1.17267e-13
4.25286e-13
1.09188e-17
1.27771e-16
1.59104e-15
1.46882e-14
5.32293e-14
9.85406e-14
1.3156e-13
2.5018e-19
3.46555e-18
4.98362e-17
1.68213e-16
4.34416e-16
4.56507e-16
1.10712e-15
8.55306e-20
1.48747e-19
7.87617e-19
2.58023e-18
4.5686e-18
1.29728e-17
1.21743e-17
6.21227e-19
1.66997e-18
2.01426e-16
1.05513e-15
6.42543e-15
1.29804e-14
1.78986e-14
1.06208e-14
1.62681e-14
1.32472e-14
3.64388e-14
8.80662e-14
1.0819e-13
1.23266e-13
7.82702e-14
2.47239e-13
4.51524e-13
6.59157e-13
7.74634e-13
8.80072e-13
9.64038e-13
1.50647e-14
2.70417e-14
3.19596e-14
4.87202e-14
1.87729e-13
3.42368e-13
5.13392e-13
1.11691e-17
1.37206e-16
1.52629e-15
1.18364e-14
3.88002e-14
5.22364e-14
5.7717e-14
3.00885e-19
3.73621e-18
4.89246e-17
1.76129e-16
4.60847e-16
4.66275e-16
1.2862e-15
7.38421e-20
2.56941e-19
5.90775e-19
2.78973e-18
7.12478e-18
1.72546e-17
1.21675e-17
7.27839e-19
2.15039e-18
3.71199e-18
8.89148e-18
1.37371e-15
3.37373e-15
3.97657e-15
9.31425e-15
1.06662e-14
9.59632e-15
1.55462e-14
3.92981e-14
4.75277e-14
3.93326e-14
1.17772e-13
2.49703e-13
3.15931e-13
3.56247e-13
3.69978e-13
3.76203e-13
3.62482e-13
2.16078e-14
1.84788e-14
1.77368e-14
2.83348e-14
9.56805e-14
1.33197e-13
1.40321e-13
1.23483e-17
5.52065e-17
3.78558e-16
2.04329e-15
6.02357e-15
4.90155e-15
4.11098e-15
4.04643e-19
1.18513e-18
6.98004e-18
1.90661e-16
4.99577e-16
4.79926e-16
7.34249e-16
8.80899e-20
3.26597e-19
7.78102e-19
2.9174e-18
8.54584e-18
2.42935e-17
1.10321e-17
9.72784e-19
3.96671e-18
8.74199e-18
3.37849e-17
1.07934e-16
2.40168e-16
5.71143e-17
4.95123e-15
5.98945e-15
6.30831e-15
7.86971e-15
1.70024e-14
2.02403e-14
1.77176e-14
1.04194e-13
1.9084e-13
1.80488e-13
1.80337e-13
2.11769e-13
2.26362e-13
1.69673e-13
1.54573e-14
1.20223e-14
1.14753e-14
1.36624e-14
3.00127e-14
4.31259e-14
3.2196e-14
6.1942e-19
3.14766e-18
1.21757e-17
5.20792e-17
9.42986e-17
1.09598e-16
1.13153e-16
2.65731e-20
4.58587e-20
2.25512e-19
1.33925e-18
1.81221e-18
1.33581e-18
1.9564e-18
1.22582e-22
2.32129e-22
1.5345e-21
3.08533e-21
4.02852e-21
3.53419e-21
3.88664e-21
4.08038e-20
6.75375e-20
7.76227e-20
9.34406e-20
1.40769e-19
1.50883e-19
1.4633e-19
2.28845e-15
3.39361e-15
4.06528e-15
5.16421e-15
9.83437e-15
1.27497e-14
1.22084e-14
9.12903e-14
1.49194e-13
1.39711e-13
1.34824e-13
1.53325e-13
1.57364e-13
1.41014e-13
1.47573e-14
1.19362e-14
7.6428e-15
8.11429e-15
1.40676e-14
1.96667e-14
1.77101e-14