/*--------------------------------*- C++ -*----------------------------------*\
  =========                 |
  \\      /  F ield         | OpenFOAM: The Open Source CFD Toolbox
   \\    /   O peration     | Website:  https://openfoam.org
    \\  /    A nd           | Version:  6
     \\/     M anipulation  |
\*---------------------------------------------------------------------------*/
FoamFile
{
    version     2.0;
    format      ascii;
    class       volScalarField;
    location    "0.0075";
    object      p;
}
// * * * * * * * * * * * * * * * * * * * * * * * * * * * * * * * * * * * * * //

dimensions      [1 -1 -2 0 0 0 0];

internalField   nonuniform List<scalar> 
3773
(
41777.1
41776.6
41776.2
41776.1
41776.4
41776.8
41777.2
100560
100560
100560
100560
100560
100560
100560
135634
135634
135634
135634
135634
135634
135634
147382
147381
147381
147381
147381
147381
147381
135634
135634
135633
135633
135633
135634
135634
100560
100560
100560
100559
100560
100560
100560
41777.4
41777.1
41776.6
41776.3
41776.5
41777
41777.4
41779.8
41779.4
41779.1
41779
41779.3
41779.7
41780
100562
100562
100562
100561
100562
100562
100562
135632
135632
135632
135632
135632
135632
135632
147380
147380
147380
147380
147380
147380
147380
135632
135632
135632
135632
135632
135632
135632
100562
100562
100561
100561
100561
100562
100562
41780.1
41779.9
41779.5
41779.2
41779.4
41779.8
41780.1
41786.2
41785.9
41785.6
41785.6
41785.9
41786.2
41786.4
100566
100566
100565
100565
100565
100565
100565
135629
135629
135629
135629
135629
135629
135629
147377
147377
147377
147377
147377
147377
147377
135629
135629
135628
135628
135629
135629
135629
100566
100565
100565
100565
100565
100565
100566
41786.4
41786.3
41786
41785.7
41785.9
41786.2
41786.4
41794.5
41794.2
41794
41794
41794.3
41794.5
41794.7
100571
100571
100570
100570
100570
100570
100570
135626
135626
135625
135625
135625
135626
135626
147373
147373
147373
147373
147373
147373
147373
135625
135625
135625
135625
135625
135626
135626
100570
100570
100570
100570
100570
100570
100571
41794.6
41794.6
41794.3
41794.1
41794.3
41794.4
41794.5
41802.1
41801.7
41801.6
41801.8
41802
41802.2
41802.3
100576
100576
100576
100576
100576
100576
100576
135623
135623
135622
135622
135622
135622
135623
147369
147369
147369
147368
147368
147369
147369
135622
135622
135622
135622
135622
135622
135623
100576
100576
100576
100576
100576
100576
100576
41802.2
41802.1
41802
41801.8
41801.8
41801.9
41802
41807.5
41807
41807
41807.2
41807.3
41807.5
41807.6
100581
100581
100580
100580
100580
100580
100580
135620
135620
135620
135620
135620
135620
135620
147365
147365
147365
147365
147365
147365
147365
135620
135620
135619
135619
135620
135620
135620
100580
100580
100580
100580
100580
100581
100581
41807.4
41807.3
41807.3
41807.2
41807
41807
41807.2
41810.1
41809.6
41809.6
41809.7
41809.9
41810
41810.2
100583
100583
100583
100583
100583
100583
100583
135619
135619
135618
135618
135618
135618
135619
147364
147363
147363
147363
147363
147363
147363
135618
135618
135618
135618
135618
135618
135619
100583
100583
100583
100583
100583
100583
100584
41809.9
41809.8
41809.8
41809.7
41809.4
41809.5
41809.6
62229.6
62371.4
62537.1
62511.2
62337.7
62106.6
62022.5
146421
146184
146363
146535
146420
146220
146425
194890
194755
194755
194798
194836
194901
195071
211104
211040
211017
211038
211096
211206
211328
194744
194665
194671
194712
194776
194862
194965
145937
145832
146035
146197
146184
146125
146222
61675.8
61795
62038.6
62173.3
62178.8
62089.9
62044.8
61325.8
61377.7
61575.9
61571
61375.1
61101.4
61068.5
145303
145095
145259
145340
145284
145099
145216
194570
194448
194410
194388
194404
194467
194617
211119
211046
210984
210980
211021
211112
211220
194561
194476
194434
194453
194524
194624
194725
145109
145034
145191
145328
145385
145350
145452
60825.4
60920.4
61264.4
61487.6
61523.8
61408.2
61370.1
60949.5
60949.6
61034.9
60959.3
60738.8
60559.6
60547.9
144932
144726
144779
144867
144703
144588
144677
194458
194380
194315
194320
194300
194316
194363
211170
211118
211068
211068
211082
211114
211184
194515
194466
194420
194435
194474
194579
194673
144883
144794
144757
144881
145028
145145
145207
60625.3
60538.6
60757
60985.5
61079.8
61013
60991.4
60953
60882.4
60789.6
60601.5
60416.9
60413.5
60533.9
145104
144959
144783
144680
144550
144524
144733
194534
194516
194449
194435
194425
194399
194442
211241
211211
211199
211210
211232
211222
211257
194577
194535
194504
194518
194589
194644
194760
145040
144847
144673
144701
144946
145179
145262
60906.9
60684.7
60629.2
60733.4
60829.2
60833.4
60811.4
60934.9
60776
60538.3
60361.8
60328.9
60487.1
60661.8
145252
145155
144863
144640
144648
144775
144971
194651
194607
194616
194585
194603
194615
194671
211282
211282
211308
211323
211337
211334
211367
194662
194633
194611
194570
194598
194689
194785
145071
144982
144858
144689
144863
145133
145252
60860.7
60708.2
60566.9
60510.1
60598.6
60697.6
60705.2
60843.1
60623
60419.9
60306.2
60425.4
60582.1
60780.8
145199
145012
144732
144746
144927
145057
145126
194598
194565
194560
194656
194758
194799
194799
211247
211250
211291
211341
211354
211382
211419
194646
194568
194549
194530
194501
194600
194696
144969
144872
144811
144717
144711
144914
145117
60656.5
60567.7
60503.4
60353.2
60422.2
60538.1
60612.2
60700.6
60535
60531.1
60626.2
60759.3
60783.3
60845.4
145053
144813
144723
144931
145103
145316
145277
194568
194547
194645
194741
194831
194954
194987
211302
211294
211306
211331
211426
211458
211445
194748
194619
194482
194538
194466
194520
194566
145329
144983
144622
144517
144504
144689
144888
60827.9
60733.5
60449.9
60195.3
60227.3
60356.4
60465.4
60482.9
60434.4
60622.9
61214.6
61690.1
61582.7
61472.2
145279
145127
145078
145385
145858
146012
146328
195273
195289
195354
195410
195590
195825
196016
212154
212151
212124
212076
212053
212114
212193
195567
195309
195130
195013
194962
194931
194961
145656
144934
144595
144517
144615
144730
144882
61255.5
60890.4
60182.6
60047.1
60108.5
60162.3
60225.4
60437.3
60305.8
60263.3
60560.8
61365.3
61858.5
61843.7
145303
145173
145075
145186
145787
146391
146678
195554
195576
195619
195659
195820
196061
196240
212481
212459
212449
212428
212386
212404
212456
195708
195499
195378
195330
195215
195127
195127
145648
144890
144676
144727
144738
144701
144769
60936.1
60350.4
59962.3
60026.2
60133.9
60142.6
60202.3
60561.5
60454.2
60544.7
60690.8
61253.9
61948.8
62122.1
145471
145440
145412
145328
145620
146326
146917
195757
195793
195809
195756
195800
196027
196301
212659
212657
212668
212616
212518
212468
212470
195895
195713
195622
195599
195457
195316
195246
145883
145211
145027
145082
145046
144975
144961
61217.6
60551
60164.5
60180.9
60275.4
60306.7
60371.5
60727.3
60723.3
60878
61161.2
61518.8
61975.7
62244.2
145642
145645
145690
145598
145626
146304
147345
195934
195974
195955
195817
195662
195814
196352
212674
212710
212743
212690
212537
212463
212504
196017
195762
195793
195823
195700
195554
195502
146403
145649
145471
145519
145457
145309
145255
62091.2
61213.5
60714.5
60621.8
60626.5
60517.1
60544.5
60702.9
61129.1
61307.3
61509.9
61498.7
61904
62319.6
145560
145645
145781
145889
145919
146639
147963
195933
195962
195987
195884
195696
195734
196423
212654
212609
212690
212708
212588
212453
212484
196326
195777
195900
195977
195923
195815
195769
147331
146258
145960
145859
145575
145369
145340
63168.6
62197.1
61539.5
61140.3
60753.5
60499.3
60488.6
60657.9
61246.4
61772
61133.9
60858.5
61434.1
62081.6
144966
145103
145632
145968
145954
146602
147861
195226
195338
195761
196050
195843
195703
196179
212288
212301
212489
212626
212520
212329
212237
196787
196187
196026
195985
195840
195668
195590
148852
147592
146763
146126
145260
144891
144870
63433.9
62807.1
62082.8
61507.8
60938.3
60382
60078.3
60167.6
62663.1
61595.5
60441.5
60572.1
61036.7
61527.8
144340
145938
146192
145108
144746
145326
146783
194664
195192
195689
195874
195621
195197
195121
211595
211970
212272
212495
212532
212223
211605
196751
196285
195969
195882
195969
195669
195003
149249
147507
146222
145660
145862
145238
144346
63271.5
62300.9
61093.6
60729.6
61494.3
61629.4
59914.5
60693.1
60658.1
60954.9
61468.1
61511.7
61089.5
61094.7
145197
145115
145148
145331
145462
145441
145555
194669
194763
195027
195010
195010
195136
195312
211422
211459
211488
211468
211520
211496
211540
195074
194910
194691
194605
194731
194610
194505
145870
145492
144710
144590
144736
144831
144911
61620.3
61514.7
60793.5
60275.3
60240.3
60351.5
60415.9
60688.6
60664.6
60975.4
61538.5
61581.7
61103.1
61122.8
145221
145154
145200
145345
145482
145422
145597
194694
194785
194994
195018
195034
195151
195336
211438
211479
211484
211476
211513
211490
211556
195100
194950
194726
194611
194686
194582
194512
145901
145553
144738
144609
144756
144846
144917
61729.1
61589.4
60816.2
60281.9
60241.4
60348.4
60410
60681.4
60668.2
60998
61587.2
61647.8
61119.6
61153.2
145241
145180
145240
145344
145470
145395
145644
194741
194824
194965
195030
195063
195169
195373
211473
211511
211508
211500
211524
211500
211595
195127
194987
194767
194629
194645
194563
194536
145896
145582
144781
144630
144763
144856
144926
61875.3
61676.7
60814.4
60280
60241.3
60345.4
60406.3
60667.3
60663.8
61050.7
61669.6
61723.6
61159.9
61182.1
145251
145204
145270
145345
145458
145372
145703
194795
194866
194987
195047
195095
195199
195420
211520
211553
211551
211528
211556
211538
211646
195151
195019
194806
194652
194662
194588
194575
145852
145592
144828
144654
144772
144868
144935
62018.7
61813.7
60798.4
60273
60238
60340.6
60403.8
60648
60641.6
61136.3
61790.6
61825.7
61225.9
61213.9
145258
145230
145296
145353
145468
145360
145765
194842
194905
195023
195067
195126
195236
195472
211573
211601
211599
211562
211597
211591
211697
195176
195046
194849
194678
194701
194628
194614
145789
145595
144869
144680
144785
144881
144941
62024
61990.9
60754.2
60257.4
60232.3
60331.3
60401.1
60625.8
60598.6
61199.4
61871.3
61903.6
61299.8
61248.4
145264
145256
145309
145375
145498
145380
145815
194883
194943
195058
195092
195158
195286
195526
211632
211655
211649
211606
211642
211646
211745
195215
195071
194894
194713
194736
194666
194649
145748
145601
144882
144699
144796
144891
144942
61882.6
62093.8
60673.3
60230
60221.8
60317.1
60396.4
60604.6
60551.9
61152.3
61814.8
61888.9
61364.8
61277.9
145267
145268
145301
145396
145545
145440
145867
194924
194980
195093
195125
195204
195352
195584
211695
211715
211704
211660
211690
211703
211795
195272
195100
194931
194750
194767
194697
194681
145721
145582
144861
144695
144788
144883
144937
61749.9
62017.4
60559.3
60196.3
60205.8
60300
60386.1
70182.4
68542.8
63722.5
61158.1
61127.2
61017.4
61127.5
152594
152353
148706
145788
144871
144895
145282
196776
196813
196236
195823
195476
194892
193676
209972
211745
212242
212517
212644
212278
210478
193338
194965
195278
195821
196623
196944
196229
146126
146012
145602
145318
147043
149509
149704
62758.9
61399.4
60797.8
61136.8
62836.9
65513.4
66174.5
71741.8
69158.7
64158.9
61485.8
60986.9
60413
60368.7
154574
153793
149057
146049
144942
144555
144431
197420
197386
196420
195906
195438
194802
193617
210062
211783
212263
212564
212711
212380
210725
192635
194436
195041
195791
196750
197351
196529
144413
145281
145310
145325
147428
150587
150792
61136.8
60931.6
60844.8
61360.4
63240.5
66240.6
67288.1
71080.7
68828.3
64193.3
61652.9
60594.3
59786.5
59622.9
154569
154094
149108
146390
145182
144085
143630
197693
197825
196674
196104
195508
194725
193730
210601
211985
212429
212756
212887
212591
211223
192432
194013
194972
195865
196844
197557
196624
142866
144447
145542
146036
148010
150493
150532
59414.8
60229.1
61143.7
61954
63829.1
66222.4
66933.7
69865.9
67757.9
63924.1
61607.3
60355
59474.6
59307.2
153825
153189
148870
146680
145123
143653
143211
197859
198000
196922
196313
195606
194656
193745
211175
212290
212737
213031
213157
212901
211693
192413
193841
195082
196122
197036
197598
196765
141843
143713
146106
147201
148691
150164
150117
58612
59760.2
61328.3
62772.2
64379.5
66017.1
66539.2
69498.5
66986
63722.6
61574.9
60249.7
59400.2
59292.6
153529
152212
148743
146793
145076
143510
143193
198079
198153
197163
196501
195702
194578
193675
211647
212605
213068
213322
213392
213171
212111
192435
193871
195355
196496
197238
197622
196971
141460
143499
146609
148440
149326
149994
149898
58447.8
59708.5
61681.8
63520.1
64879.3
65927.1
66477.8
69766.9
66764.2
63627.1
61557
60144.4
59300.9
59283.1
153990
152070
148713
146755
145028
143435
143091
198351
198307
197317
196614
195762
194514
193556
212011
212807
213278
213524
213505
213278
212437
192428
193985
195664
196834
197430
197664
197178
141360
143741
147163
149359
149923
150046
149930
58383
59805
62098.3
64069.1
65217.2
65894.4
66588.3
70335.9
66933.3
63696.4
61609.9
60135
59272.7
59307.5
154701
152488
148834
146826
145029
143363
143028
198647
198466
197415
196691
195807
194483
193487
212238
212861
213376
213607
213576
213292
212657
192394
194091
195929
197031
197517
197693
197297
141361
144105
147594
149775
150166
150084
150092
58403.1
59888.1
62330.7
64315.3
65269.2
65885
66731.2
61703.3
61228.8
60991.6
61959
64684
70104.1
78598.6
144744
144094
143782
143464
143453
145195
149112
190823
191833
192200
191488
189737
187509
185483
206436
206865
206546
205448
203647
201188
198564
195445
195070
194595
193941
193138
192199
191262
151655
152026
152613
153711
155164
157413
160835
68454.6
68601.9
68818.2
69927.2
72248.1
76541.6
83654.8
60574
60326.1
60223.3
60843
62611.5
67266.3
74812.6
143845
143457
143007
142557
142538
143770
146794
192087
192186
192208
191361
189623
187348
185062
207922
207141
206475
205318
203532
201146
198563
195122
194493
194151
193720
192909
192001
191086
150174
150659
151640
152963
154408
156294
159012
67148.6
67247.4
67829.8
69220.9
71447.5
74923.9
80476.3
59588.4
59562.1
59636.5
59930
60787
63371.2
69421.4
143130
142892
142443
141864
141549
141998
143767
192661
192284
192042
191131
189453
187181
184700
208891
207596
206583
205287
203387
201058
198547
195104
194492
194432
193908
192813
191786
191004
149896
150316
151638
153038
154218
155703
157671
66809.5
66937.2
67632.5
69101
71387.9
74348.9
77943.6
59307.4
59380.3
59489.2
59653.2
60069.1
61262.1
65106.6
142890
142600
142075
141427
140957
140892
141611
192789
192193
191668
190791
189212
187020
184555
209606
208144
206785
205300
203306
200931
198322
195416
194797
194476
193808
192642
191554
191051
150097
150639
151686
152852
154084
155670
157529
66656.9
67020.8
67850.5
69473.5
71820.4
74643.2
77281.6
59287.5
59347.1
59450.2
59636.7
60052.9
60939.3
63099.2
142874
142471
141920
141260
140685
140630
141323
192743
192036
191304
190370
188900
186859
184434
210169
208739
207149
205363
203213
200562
197530
195701
195010
194451
193753
192584
191321
190441
150082
150379
151258
152522
154080
155621
156959
66705.2
67189.7
68073.2
69684.9
72029.4
74689.7
76877.6
59279.3
59290.5
59367.4
59556.3
60036.9
60992.4
62145.9
142777
142349
141756
141109
140627
140650
141257
192578
191888
191092
190057
188584
186417
183813
210585
209229
207594
205613
203213
199940
195693
195929
195154
194493
193762
192516
190628
188604
150098
150194
150752
152057
153690
154945
155686
67078
67502.6
68229.7
69648.6
71887.1
74319.7
76071.5
59282.7
59292.2
59362.6
59572.9
60053.2
60889.5
61524.5
142722
142308
141678
141066
140641
140512
140578
192446
191814
191009
189952
188448
186161
182328
210824
209524
207886
205864
203324
199512
193172
196131
195363
194655
193870
192551
190251
186535
150286
150389
150818
151963
153474
154476
154453
67388
67726.5
68315.5
69567.9
71613.2
73859
75307.9
87618.1
79591.1
73448
69754.7
68201.8
68518.1
70123.2
159732
156106
153774
152500
151957
151992
152627
189560
190540
191798
193160
194354
195578
196521
196373
199409
202126
204068
205224
205748
205846
183720
185948
187972
189314
189806
189314
188817
149181
145266
143164
142212
141643
141834
143378
80908.4
71247.4
64831.2
61349.2
60604
60979.4
62066.6
84644.6
77196.8
72129.9
68609.6
66668
66620.9
68778.3
158324
155316
153135
151470
150443
150383
151396
189286
190110
191244
192634
194123
195714
196779
196391
199383
202036
204055
205332
206137
207170
183653
186082
188062
189350
189836
189703
189980
146860
143767
142174
141494
141208
141415
142275
76088.8
67566.1
62306.8
60000.4
59416.1
59635.3
60278.2
80716.5
75219.7
71540.7
67929.1
65638.7
65135.9
67124.5
156866
154847
152917
150697
149259
149107
150399
189173
189796
190782
192183
193871
195762
196848
196561
199433
201969
203996
205484
206739
208231
183709
186287
188159
189310
189725
190002
190660
143271
141608
140982
140711
140643
140822
141240
68821.3
62614.3
59913.9
58918.8
58579.6
58560.3
58678.3
78365.6
74924.8
71796
68258.9
65944.1
65526.9
67017.8
155694
155013
153157
150627
148996
148833
150213
189138
189780
190787
192115
193748
195425
196599
196636
199477
201921
204010
205814
207389
209002
183865
186439
188038
189017
189667
190202
190958
140361
140128
140249
140269
140310
140453
140824
63150.1
59885.7
58989.8
58654.8
58452.1
58309
58307.6
77627.9
75230.1
72529.2
69519.5
67519.6
67063.2
68094.2
154796
154750
153119
151115
149795
149738
150911
188323
189470
190770
192230
193809
195347
196550
195924
199051
201929
204251
206263
208077
209666
184026
186401
187838
188811
189610
190356
191132
139536
139806
140136
140319
140379
140545
140849
60462.8
59257.4
58883.3
58687
58508.5
58356.7
58295.4
76866.1
74983.5
72892.5
70754
69293.2
68968.8
69482.9
153381
153724
152720
151555
150951
151279
152361
185918
188231
190398
192271
193971
195496
196736
194032
198390
201956
204650
206902
208784
210209
183420
186103
187692
188814
189745
190531
191205
139607
140031
140409
140571
140627
140745
140910
59744.4
59259.5
58987.8
58830.8
58658.9
58489
58350.2
73756.6
74270
73019.1
71658.9
70616
70432.9
70615.1
152129
153052
152646
152073
151915
152585
153619
182971
187390
190233
192357
194191
195838
197161
191446
197964
201987
204999
207420
209302
210572
182129
186074
187711
188925
189956
190692
191207
139224
140107
140575
140748
140834
140903
140939
59610
59301.7
59135.5
59000.7
58814.2
58642.1
58521.5
102353
104443
104505
103341
100922
97396.3
93507.4
175530
176420
176254
174298
171194
167327
163601
190993
190430
189735
189073
188719
188669
188925
195991
194705
192959
191546
191212
192180
193868
186507
185425
183251
181595
180887
181255
182193
181323
177258
171046
166143
162102
158098
153800
109727
106369
103167
101006
97933.7
93679.9
88464.2
99344
100438
101205
100320
97644.1
94700.3
91511.4
173587
173180
172610
170819
167906
164590
161583
189986
189048
188363
188091
188122
188333
188700
195689
194359
192613
191225
190897
191917
193812
184422
183402
181814
180536
179920
180480
181748
174671
171074
166724
162928
159117
155157
151026
103707
101740
100159
98143.7
94519.9
89913.2
84105.9
97781
97588.1
97138.8
95827.2
93360
91027.7
87911.9
173109
171001
168704
166256
163778
161549
159410
188733
187776
187067
187068
187601
188287
188806
195312
193880
192020
190642
190307
191438
193742
181533
180849
179914
179043
178867
179817
181408
165308
163336
160664
157498
154002
150295
146537
95605.9
95443.3
94784.1
92661
88746.5
83742.1
77379.9
95636
94342.8
92730.9
90914
88962.3
87092.3
83890.8
170940
167544
164078
161626
159863
158871
157644
187111
186353
185851
186172
187235
188439
188993
194640
193183
191105
189548
189179
190707
193628
178400
177998
177556
177248
177771
179310
181275
156809
155640
153824
151159
148045
145004
142261
88338.9
88623.6
88161.5
85827.7
81733.9
76897.4
70508.9
91608.2
90124.3
88155.4
86230.2
84480.5
82946.6
80632.5
165898
162673
159315
157181
156136
156011
155481
184494
184074
184211
185095
186207
187088
187785
193842
192030
189471
187552
187180
189337
192687
175617
175223
174940
175202
176547
178689
181168
150699
149835
148415
146230
143608
141398
140004
83283.8
83077.5
82397
79925
75903.9
70863.4
65493.7
86059.2
85401.1
83713.5
82101.2
79832.4
78812
78288.7
159185
156954
154514
153268
152357
152341
152401
181192
180720
181210
182400
183386
183715
184320
191902
189896
186925
185017
185008
186690
189711
172839
172490
172219
172990
175050
177695
180446
147036
146097
144968
143579
141403
139819
139352
80603.4
79045.8
77656.3
75430
71321.2
67036.8
62948.2
79489.2
79864.8
78739.5
77692.2
74914.9
74371.6
75476.4
151882
150919
149175
149130
147839
147003
147623
177456
176902
177541
178794
178886
177263
176938
189161
186830
183517
181189
180059
179975
182386
169920
169751
169641
170888
172821
173905
175827
143625
142487
142053
141627
140005
138697
138342
77956.9
74446.7
72786.9
71607.1
68045.2
64254
61290.1
58698.1
58484.2
58552.1
57987.4
57844
57290.4
56491.7
131365
130248
129072
128263
127589
126537
125421
162554
161814
160558
158665
155197
150481
145653
172001
170181
167342
163952
159726
154650
148820
159455
159070
158382
157412
155514
152362
148763
128189
127792
127387
127317
127355
127151
127069
57546.2
57544.3
57296.1
56652.4
56851.2
57112.7
57399.5
50061.7
49852.5
49748.5
49818.5
50072.9
50180
50107.8
114266
113971
113855
114060
114761
115369
115476
143233
143044
143027
143119
143100
143033
142633
151732
151216
150547
149966
149481
149100
148520
140260
140095
139915
139753
139536
139232
138976
108482
108627
108820
108941
109040
109082
109072
46414.2
46725.3
46942.1
47215.7
47604
47932
48152.6
43996.9
44142.4
44345.1
44476.6
44547.3
44674.7
44798.8
100734
101101
101631
102236
102773
103072
103135
129626
129734
130144
130925
131764
132483
132710
137941
137930
138096
138512
139161
139853
140090
126254
126309
126532
126940
127386
127733
127910
94840.8
94976.8
95212.6
95449.1
95585.9
95621.3
95654.8
40890.5
40864.7
40934.4
40972.7
40935.5
40895.4
40854.6
40180.4
40213.9
40300.4
40432
40542.7
40590.1
40596
91283.2
91379.4
91603.7
91876.2
92140.4
92323.4
92400.6
120049
120025
120132
120396
120673
120868
120887
128904
128904
128998
129192
129407
129598
129629
118071
118082
118197
118405
118613
118775
118828
88742.8
88754.3
88789.1
88837.3
88897.1
88992.7
89076.6
38623.1
38625.2
38607.7
38604.9
38601.5
38572.8
38573.8
39392
39403.3
39414.1
39422.6
39421.1
39419.2
39421.1
87717
87706.8
87686.4
87668.2
87649.6
87628.4
87615
114494
114406
114293
114233
114132
114046
113933
123386
123233
123044
122882
122751
122662
122495
114162
114073
113987
113939
113880
113856
113823
86682.8
86707.1
86710.9
86706.2
86719.9
86732.9
86723.6
37884.1
37861.7
37887.4
37947
37989.3
38018.5
38052.9
40184.1
40192.8
40201.5
40212.3
40220.9
40226.5
40230.8
87738.5
87741.8
87747.8
87749.1
87743.2
87732.5
87725.5
111505
111423
111349
111303
111191
111141
111042
118881
118672
118448
118271
118175
118183
117945
111498
111432
111374
111341
111288
111296
111283
87159
87199
87211.6
87210.7
87214.8
87200.4
87169.9
39043.1
39029.3
39061.6
39130.6
39192.4
39247
39291.8
49067.8
49060.3
49052.1
49045.4
49042.6
49042
49041.1
87025.2
87043.5
87069.8
87096.4
87115.9
87127.5
87134.1
106901
106886
106909
106945
106927
106962
106925
113086
112941
112857
112799
112775
112937
112682
106450
106444
106469
106523
106558
106604
106578
86559.7
86577.6
86608.6
86657.2
86721.2
86736.8
86703.8
49432.3
49440.8
49441.5
49440
49432.1
49425.6
49415
86110.2
91931.7
97156.9
101019
102978
102771
99807.3
153986
158377
162471
165980
168171
168667
168277
184248
183536
183379
183848
184708
185605
186433
196513
195016
194339
194714
195942
197287
197982
190720
190454
190305
190365
190745
191438
192252
164877
168288
171454
174303
176438
177083
177108
90778.6
95845.5
99799.7
102647
104179
104289
102324
82314
88073.6
93248.7
97376.2
99162.5
98693.3
97487.9
151049
155025
158849
162229
164585
165819
167060
183516
182649
182362
182660
183440
184492
185564
196406
194751
193863
194100
195288
196779
197767
190505
190064
189674
189528
189792
190573
191369
162609
165896
168849
171329
173158
174570
175520
87389.7
92756.4
96904.3
99864.6
101071
100681
99766.6
77124.5
83042.9
88106.7
92366.3
94619.6
95891.7
96637.5
146971
150450
154017
157536
160828
164014
166803
182825
181631
181023
181105
181894
183129
184198
196256
194299
193117
193256
194460
196148
197515
190566
190008
189261
188797
188869
189588
190460
160289
162970
165430
167578
169620
171904
173977
83654.5
88884.2
92855.5
95542.5
96856.5
97468.9
97895.4
72118.6
78191.7
83052.4
87298.6
90070.1
92355.1
94291.4
143734
146549
149849
153463
156761
160489
164251
182475
180886
179693
179360
179958
181029
181913
195869
193643
191996
191812
193096
195165
196944
190875
190191
189019
188106
187789
188030
188542
159128
160636
162297
163808
165464
167683
170300
81242.2
85108.7
88273.6
90588.9
92236.4
93674.4
95127.2
68501.1
74066.5
78803.4
82878.6
85843.9
87936.9
89797.9
142499
144265
146943
150313
152988
155907
159381
182178
180171
178377
177376
177463
178200
178870
194725
192217
190325
189827
191058
193527
195769
190060
189349
188203
186908
186049
185830
185941
157728
158396
159203
160219
161565
163169
165398
79269.6
81510
83747.8
86058
88019.4
89749.9
91281.3
66134.1
70885.2
74857.6
78470.5
81322.2
83229.9
83872.9
141909
143483
145208
147129
148902
150789
152945
181378
179200
176894
175100
174437
174671
175445
191817
189101
187496
187176
188507
191325
193510
187321
186532
185622
184549
183472
183073
183228
155504
155404
155756
156989
157947
158816
160268
77015.7
77719.8
79543.7
82407.5
84581
86291.3
86913.3
63714.6
67862.1
70839.8
73942
76262.2
78278.9
77071.5
139992
141865
142468
143171
143876
145422
145955
176396
175407
174454
172441
171083
170844
171810
184675
182454
182566
183486
185389
188432
190704
181602
180789
181215
181375
180372
179849
180354
152841
152481
152506
153538
153627
154443
155110
74555.6
74125.2
75578.2
78775.9
80831.6
82415.6
81845.9
55377.2
55104.9
55393
55192.1
55636.1
55520.3
55761.3
123627
124164
124566
124873
125376
125917
126169
147280
151137
154058
155802
156764
157447
157987
152448
157896
162619
166529
169680
172289
174044
155386
158589
162332
165376
166795
167598
168229
137912
137844
137657
137935
138241
138613
139020
65740.2
65285.9
64493.3
63987.3
64137.6
64107.2
64207.9
46621.3
46293.3
45964.7
45613.6
45371.5
45302.9
45472.4
107261
107092
106860
106617
106387
106245
106142
138719
138914
138920
138867
138874
138955
139064
149627
150134
150400
150834
151436
152084
152569
144556
144692
144975
145498
145905
146177
146398
117327
117290
117328
117685
118408
118548
118336
52893.6
52721.2
52381.6
52011
51857.4
51831.5
51963.7
40818.8
40772.5
40694.8
40629.5
40548.7
40447.3
40376
95776.9
95632.7
95388.3
95059.1
94698.6
94356.3
94116.5
128011
127782
127202
126558
126077
125814
125676
140012
139795
139091
138379
137931
137759
137791
131936
131744
131359
130874
130311
130050
129985
101255
101441
101757
102038
102187
101968
101692
43889.8
44023.7
44253.8
44445.6
44513.6
44481.4
44440.9
38806.7
38757.7
38777.1
38858.9
38919
38959.1
38981.1
89445
89378.2
89315.4
89242.5
89148.5
89078.3
89077.8
119023
118997
118859
118669
118532
118460
118498
129498
129501
129272
129043
128883
128847
128892
120559
120466
120264
119982
119663
119587
119592
91329.9
91310.8
91352.2
91378.2
91293.8
91170.1
91108.7
40077.4
40096.1
40124.2
40136.1
40109.2
40072
40068.4
38465.3
38486.1
38465.4
38406.3
38370.9
38344
38327.2
87398.5
87401.5
87429.2
87481.5
87532.5
87573.8
87597.8
114166
114316
114373
114502
114635
114784
114908
122460
122647
122760
122910
123101
123312
123469
113820
113850
113881
113898
113859
113925
114013
87292.7
87288.2
87278.4
87263.2
87258.4
87259.1
87265.6
39287.2
39288.2
39289
39288.6
39286.1
39283
39280.3
39739.7
39802.8
39773.9
39628.4
39516.4
39453.4
39426.1
88098.1
88098.1
88092.7
88101.8
88131.5
88159.5
88175.5
111904
112048
112023
112053
112076
112141
112228
118226
118467
118459
118549
118704
118911
119097
111130
111138
111125
111147
111086
111151
111182
87585.6
87582.8
87573.7
87551.7
87523.6
87498.7
87485.5
40155.7
40151.8
40146.8
40137.6
40131.8
40128.9
40123.5
49264
49245.1
49260
49310.6
49339
49350.9
49355.1
87476.4
87475.4
87437.5
87362.2
87292.5
87243.5
87218.4
107516
107602
107475
107349
107222
107151
107144
113210
113461
113276
113280
113287
113344
113469
107039
107031
106969
106945
106837
106815
106799
87091.3
87077.5
87055
87019.1
86972.6
86930.7
86903.9
49059.5
49064
49070.2
49082.1
49093.3
49101.5
49111.9
)
;

boundaryField
{
    fuel
    {
        type            zeroGradient;
    }
    primary_air
    {
        type            zeroGradient;
    }
    Secondary_air_RHS
    {
        type            zeroGradient;
    }
    Secondary_air_LHS
    {
        type            zeroGradient;
    }
    outlet
    {
        type            totalPressure;
        rho             rho;
        psi             none;
        gamma           1;
        p0              uniform 100000;
        value           nonuniform List<scalar> 
98
(
45101.5
76320
100000
100000
100000
75713.9
44895.3
44848.1
76097.8
100000
100000
100000
75653.7
44868.4
44819.6
76152.2
100000
100000
100000
75672.7
44872.4
45002.4
76227.3
100000
100000
100000
75643.3
44856.8
45001.4
76089.1
100000
100000
100000
75540.2
44864.4
44996.3
75978.4
100000
100000
100000
75464.2
44855
45014.5
75945.2
100000
100000
100000
75336.7
44878.9
44922.7
75428.3
100000
100000
100000
75265.8
44685.7
44912.5
75535.1
100000
100000
100000
75293.4
44734.3
44908.2
75599.1
100000
100000
100000
75370.8
44674.2
44904.3
75640.6
100000
100000
100000
75453.4
44640.7
44906.9
75667.7
100000
100000
100000
75483.5
44784.7
44908.2
75646.2
100000
100000
100000
75452.8
44812.1
44934.5
75696.3
100000
100000
100000
75536.8
44535.7
)
;
    }
    stove_body
    {
        type            zeroGradient;
    }
    frontAndBack
    {
        type            empty;
    }
}


// ************************************************************************* //
