/*--------------------------------*- C++ -*----------------------------------*\
  =========                 |
  \\      /  F ield         | OpenFOAM: The Open Source CFD Toolbox
   \\    /   O peration     | Website:  https://openfoam.org
    \\  /    A nd           | Version:  6
     \\/     M anipulation  |
\*---------------------------------------------------------------------------*/
FoamFile
{
    version     2.0;
    format      ascii;
    class       surfaceScalarField;
    location    "0.0075";
    object      phi;
}
// * * * * * * * * * * * * * * * * * * * * * * * * * * * * * * * * * * * * * //

dimensions      [1 0 -1 0 0 0 0];

internalField   nonuniform List<scalar> 
10143
(
5.37937e-07
-3.35053e-05
4.50521e-05
9.30992e-08
-3.19136e-05
4.49723e-05
8.72311e-08
-3.1797e-05
4.44254e-05
9.30902e-08
-3.18594e-05
4.43232e-05
-1.93227e-07
-3.17577e-05
4.42748e-05
-4.543e-07
-3.19831e-05
4.44126e-05
-3.3588e-05
4.48873e-05
-5.72214e-08
-1.44327e-05
-7.6182e-06
3.37563e-07
-1.38631e-05
-7.38178e-06
-8.89226e-07
-1.37753e-05
-5.53701e-06
-1.47548e-06
-1.39132e-05
-6.1352e-06
-7.18392e-07
-1.41086e-05
-7.19654e-06
-6.98818e-07
-1.42175e-05
-6.46203e-06
-1.45024e-05
-8.35948e-06
-2.13231e-07
-5.48145e-06
6.76592e-06
3.07975e-07
-5.46894e-06
6.53278e-06
2.59984e-07
-5.8297e-06
7.56126e-06
5.25484e-07
-5.79506e-06
7.07321e-06
8.49743e-07
-5.87466e-06
6.88195e-06
-3.03256e-09
-6.21337e-06
8.28932e-06
-5.55368e-06
6.51307e-06
6.53231e-08
5.58087e-06
4.08826e-06
6.13793e-07
5.58419e-06
3.53549e-06
1.18322e-07
5.88775e-06
3.90437e-06
-4.85359e-07
5.84184e-06
4.09201e-06
-8.35041e-07
5.73336e-06
3.85122e-06
-5.74284e-07
5.8841e-06
2.69825e-06
5.40965e-06
3.57697e-06
-2.6865e-07
1.46019e-05
6.72559e-06
-2.92507e-07
1.46399e-05
6.43881e-06
-4.30317e-07
1.42099e-05
7.38148e-06
-2.8753e-08
1.37316e-05
7.32461e-06
6.34631e-07
1.38957e-05
6.73652e-06
8.69677e-08
1.40627e-05
7.86134e-06
1.45415e-05
6.42339e-06
2.50377e-07
3.42207e-05
-8.5379e-06
9.20583e-07
3.34708e-05
-8.25988e-06
1.15394e-07
3.28062e-05
-6.58971e-06
-4.00197e-07
3.23027e-05
-6.91332e-06
2.23775e-07
3.23359e-05
-8.03205e-06
-1.63465e-07
3.26297e-05
-7.01507e-06
3.44472e-05
-8.73373e-06
3.72612e-07
4.5598e-05
3.2836e-07
4.57328e-05
2.24759e-07
4.5066e-05
-2.10805e-08
4.45936e-05
-3.24219e-07
4.4852e-05
-4.53855e-07
4.50759e-05
4.57664e-05
2.22584e-07
-2.0463e-06
5.73888e-05
3.86671e-07
-1.75718e-06
5.68683e-05
4.10757e-07
-1.60898e-06
5.63117e-05
6.67499e-07
-1.87445e-06
5.6215e-05
2.69464e-07
-2.09017e-06
5.68749e-05
-1.56088e-07
-2.09153e-06
5.69919e-05
-2.52964e-06
5.78358e-05
-2.50996e-07
1.23326e-07
-1.17501e-05
-1.58886e-07
2.78361e-07
-1.18927e-05
-7.69641e-07
4.30799e-07
-9.35751e-06
-8.22823e-07
1.60331e-07
-1.05235e-05
-1.15413e-07
-4.66579e-07
-1.1879e-05
-2.28267e-07
-7.86385e-08
-1.06342e-05
-2.62687e-07
-1.30142e-05
1.03053e-08
-1.94787e-08
7.42517e-06
4.3693e-08
6.39217e-07
6.96539e-06
3.54094e-07
-1.46228e-06
1.00877e-05
1.06975e-06
-1.36951e-06
8.77523e-06
1.25799e-06
-1.06872e-06
8.12063e-06
2.74574e-07
-1.34189e-07
1.03414e-05
-2.31421e-08
7.02147e-06
7.70139e-08
-1.5989e-07
3.91111e-06
1.14515e-06
-3.65547e-07
3.07596e-06
1.31764e-07
2.91808e-07
2.8208e-06
-8.91687e-07
6.20766e-07
2.78934e-06
-1.37464e-06
9.37257e-07
1.97105e-06
-7.77885e-07
3.86359e-07
1.15433e-06
-2.97493e-07
2.71802e-06
-2.5755e-07
3.49948e-07
6.9533e-06
-5.90995e-07
4.19861e-07
6.41365e-06
-4.01349e-07
-7.93677e-10
8.50937e-06
4.14549e-07
7.47611e-08
8.09109e-06
9.83849e-07
4.79797e-07
7.56791e-06
4.12603e-07
4.59557e-07
9.33149e-06
3.69389e-07
6.64596e-06
-1.34907e-08
3.27199e-06
-1.36262e-05
4.43588e-07
2.03741e-06
-1.25498e-05
5.43911e-08
2.83518e-06
-1.13956e-05
-4.93905e-09
2.90507e-06
-1.2248e-05
6.4387e-07
2.74197e-06
-1.33398e-05
2.69251e-07
2.8683e-06
-1.1349e-05
3.39044e-06
-1.36454e-05
3.66041e-07
5.92604e-05
-1.36373e-08
5.85966e-05
4.34395e-08
5.83454e-05
-2.72969e-07
5.82423e-05
-4.95874e-07
5.83037e-05
-3.90187e-07
5.83048e-05
5.9694e-05
-5.16583e-07
1.48567e-05
4.91799e-05
2.85432e-07
1.27032e-05
4.81452e-05
5.94356e-07
1.33683e-05
4.74989e-05
1.39281e-06
1.3036e-05
4.72349e-05
9.24504e-07
1.4336e-05
4.83394e-05
3.35297e-07
1.40581e-05
4.90072e-05
1.49433e-05
4.9449e-05
1.06588e-08
1.60079e-06
-4.16911e-06
-2.02876e-07
1.25631e-06
-5.87387e-06
-4.5771e-07
1.4965e-06
-3.00777e-06
-7.10351e-07
1.19511e-06
-4.09537e-06
-3.82897e-07
1.32392e-06
-5.00921e-06
-2.78099e-07
1.35751e-06
-3.90288e-06
1.67312e-06
-5.63293e-06
1.38306e-07
6.05702e-07
7.8796e-06
-2.21318e-08
1.69561e-06
6.22216e-06
4.1471e-07
-1.02108e-06
1.17019e-05
1.09594e-06
-1.00497e-06
9.82705e-06
1.12204e-06
4.1318e-07
8.51008e-06
2.7486e-07
2.67544e-06
9.48417e-06
1.81117e-06
6.72818e-06
-9.43572e-08
-1.42615e-06
5.7181e-06
1.20556e-06
-2.62086e-06
5.60029e-06
3.6624e-08
-5.63809e-07
3.11988e-06
-1.05719e-06
-2.79112e-07
2.75334e-06
-1.426e-06
-5.87112e-08
2.37762e-06
-6.6236e-07
-1.11753e-06
3.61982e-06
-2.04333e-06
5.49083e-06
-2.19047e-07
-1.65551e-06
6.96982e-06
-6.38153e-07
-1.71836e-06
5.48231e-06
-2.80067e-07
-1.75672e-06
8.91573e-06
4.78706e-07
-1.39974e-06
8.10224e-06
7.82506e-07
-1.10501e-06
7.93925e-06
4.53372e-07
-7.34435e-07
8.98216e-06
-1.73398e-06
6.36198e-06
-7.47361e-08
-1.46029e-05
-6.18178e-06
3.05915e-07
-1.43483e-05
-6.18465e-06
-4.46664e-08
-1.41651e-05
-4.54498e-06
1.61252e-07
-1.47653e-05
-4.98265e-06
1.69671e-07
-1.39028e-05
-6.39792e-06
7.48137e-08
-1.33652e-05
-4.33907e-06
-1.45586e-05
-6.32558e-06
7.23553e-09
5.11914e-05
-6.45202e-07
5.06374e-05
-4.52811e-07
4.9771e-05
-5.19635e-07
4.95601e-05
-4.35329e-07
4.98678e-05
3.1127e-08
4.99448e-05
5.17158e-05
-7.00651e-07
1.71213e-05
3.64898e-05
3.55537e-07
1.25269e-05
3.75465e-05
5.92508e-07
1.33896e-05
3.68861e-05
1.34986e-06
1.31981e-05
3.62502e-05
1.03485e-06
1.62231e-05
3.5515e-05
7.02582e-07
1.62173e-05
3.63707e-05
1.74927e-05
3.63528e-05
7.27619e-07
3.16124e-06
1.11774e-06
-3.98083e-07
2.53499e-06
-2.07155e-06
-4.39856e-07
2.4853e-06
6.44993e-07
-1.16632e-06
2.76367e-06
-3.50846e-07
-9.06803e-07
2.54499e-06
4.58857e-07
-5.25535e-07
2.3169e-06
1.6679e-06
3.18818e-06
1.91752e-07
2.90704e-07
6.58091e-07
9.05247e-06
1.66992e-07
4.93159e-07
7.34073e-06
3.82684e-07
7.72451e-07
1.21305e-05
1.01767e-06
5.56784e-07
1.03799e-05
9.16027e-07
2.38428e-07
9.83743e-06
1.56414e-07
2.1744e-06
9.29285e-06
1.14555e-06
7.85754e-06
-4.0156e-08
-9.7322e-07
7.30582e-06
9.52515e-07
-1.0273e-06
5.93964e-06
-6.03811e-08
1.74255e-06
2.97595e-06
-1.11671e-06
1.57274e-06
2.617e-06
-1.17755e-06
-1.07124e-06
3.56837e-06
-5.08476e-07
-1.6762e-06
6.55604e-06
-1.57069e-06
7.54518e-06
-1.22463e-07
-3.30184e-06
8.32823e-06
-5.88106e-07
-3.36814e-06
7.18336e-06
-2.1027e-07
-1.97126e-06
1.13405e-05
6.22656e-07
-2.41344e-06
1.03091e-05
5.87431e-07
-2.94542e-06
8.83126e-06
3.65905e-07
-2.40286e-06
8.92896e-06
-3.34194e-06
7.41054e-06
2.2228e-07
-1.73603e-05
-3.12225e-07
2.35994e-07
-1.63503e-05
-1.30213e-06
1.10653e-07
-1.6112e-05
1.77929e-06
4.64295e-07
-1.61046e-05
3.29406e-07
-1.45084e-07
-1.56805e-05
-9.96924e-07
-3.11909e-07
-1.49399e-05
6.05915e-07
-1.72872e-05
-6.4764e-07
-3.12842e-07
3.7995e-05
-6.79357e-07
3.79772e-05
-6.25207e-07
3.68428e-05
-4.68205e-07
3.66352e-05
-3.70914e-07
3.7134e-05
1.77503e-07
3.76493e-05
3.84704e-05
-6.81604e-07
1.74689e-05
2.36181e-05
4.3414e-07
1.43881e-05
2.58334e-05
4.43375e-07
1.4906e-05
2.56077e-05
1.24949e-06
1.50151e-05
2.40648e-05
1.19113e-06
1.63618e-05
2.2755e-05
9.10223e-07
1.67478e-05
2.3435e-05
1.78248e-05
2.32663e-05
1.05899e-06
2.68019e-06
5.59321e-06
-6.24713e-07
3.13129e-06
1.96676e-06
-2.70003e-07
2.77977e-06
3.55678e-06
-1.18906e-06
3.04676e-06
3.63922e-06
-1.22178e-06
2.82975e-06
4.77463e-06
-7.14582e-07
2.49374e-06
6.03622e-06
2.98884e-06
4.99323e-06
5.22689e-07
-1.06213e-07
9.81798e-06
2.58626e-07
6.2226e-07
8.51959e-06
4.19769e-07
1.47736e-06
1.17081e-05
1.00537e-06
8.92241e-07
1.03201e-05
6.28904e-07
1.20205e-06
1.02845e-05
1.47239e-07
4.64469e-07
1.02571e-05
1.38807e-07
9.306e-06
-2.47204e-07
-4.63794e-07
8.08626e-06
5.50241e-07
-6.21109e-07
6.45249e-06
-1.09279e-07
2.52291e-07
4.92557e-06
-9.38037e-07
9.8953e-09
4.40782e-06
-6.16418e-07
-1.13608e-06
5.64506e-06
-4.33256e-07
-4.33744e-07
7.32426e-06
-3.63682e-07
7.75803e-06
3.77425e-08
-3.00064e-06
9.26773e-06
-4.77308e-07
-3.23147e-06
8.69479e-06
-1.27565e-07
-2.38609e-06
1.22138e-05
5.27023e-07
-3.10568e-06
1.13283e-05
2.95868e-07
-2.95451e-06
9.33976e-06
2.98115e-07
-2.84254e-06
9.78442e-06
-2.96696e-06
8.76433e-06
4.14446e-07
-1.76981e-05
4.65809e-06
7.3597e-08
-1.64297e-05
2.90071e-06
4.04727e-07
-1.63698e-05
6.18847e-06
3.46175e-07
-1.55254e-05
3.58588e-06
-4.37879e-07
-1.61603e-05
3.82583e-06
-4.55767e-07
-1.61775e-05
4.71376e-06
-1.77234e-05
4.33494e-06
-3.48167e-07
2.45513e-05
-8.8553e-07
2.5687e-05
-5.40755e-07
2.37557e-05
-4.64792e-07
2.45672e-05
-1.4056e-07
2.42281e-05
1.72589e-07
2.48344e-05
2.48718e-05
-5.48724e-07
1.46333e-05
1.40766e-05
6.89069e-07
1.31329e-05
1.58028e-05
1.22475e-07
1.49326e-05
1.58847e-05
9.49591e-07
1.24381e-05
1.50629e-05
1.0042e-06
1.29653e-05
1.38968e-05
1.10684e-06
1.32592e-05
1.41984e-05
1.51022e-05
1.37194e-05
7.82633e-07
1.59755e-06
8.24773e-06
-9.46252e-07
1.90444e-06
5.61845e-06
5.56285e-08
1.18091e-06
6.54656e-06
-1.07421e-06
1.90755e-06
6.14725e-06
-1.54826e-06
2.25141e-06
6.58572e-06
-7.56762e-07
1.12692e-06
7.95155e-06
1.97765e-06
7.70503e-06
8.76999e-07
-2.55505e-06
1.13646e-05
1.19913e-07
-5.36555e-07
9.75506e-06
4.55951e-07
-8.50365e-07
1.15641e-05
9.69859e-07
-1.04658e-06
1.08916e-05
4.71777e-07
4.89074e-07
1.06219e-05
1.33479e-07
-1.3395e-06
1.11798e-05
-1.19688e-06
1.07928e-05
-5.90986e-07
1.59986e-06
4.91719e-06
3.42191e-07
-3.76568e-07
5.67417e-06
-1.66308e-07
2.83541e-08
4.89456e-06
-7.72839e-07
-4.03078e-07
4.68791e-06
-3.72411e-07
4.61659e-07
5.60348e-06
-5.33396e-07
1.86488e-06
4.62217e-06
1.34653e-06
5.07428e-06
4.27458e-07
-2.16016e-06
1.07793e-05
-4.70892e-07
-1.95074e-06
9.21077e-06
-5.44336e-08
-1.57712e-06
1.16258e-05
2.20729e-07
-2.03526e-06
1.08957e-05
1.30273e-07
-2.07843e-06
1.01569e-05
2.01855e-07
-1.37479e-06
1.11273e-05
-2.05981e-06
1.05702e-05
2.6629e-07
-1.485e-05
7.42923e-06
1.33498e-07
-1.42212e-05
5.60993e-06
5.79982e-07
-1.27741e-05
7.52387e-06
3.88127e-07
-1.39323e-05
5.99424e-06
-5.29687e-07
-1.21427e-05
5.58438e-06
-1.66411e-07
-1.39633e-05
7.36225e-06
-1.49454e-05
7.38296e-06
-2.89851e-07
1.45194e-05
-1.01209e-06
1.65197e-05
-3.65874e-07
1.46027e-05
-5.16317e-07
1.51169e-05
-5.14399e-08
1.57857e-05
1.49907e-07
1.4959e-05
1.46517e-05
-6.48602e-07
1.58381e-05
8.82198e-07
1.56357e-05
-1.97763e-08
1.79111e-05
9.97093e-07
1.52873e-05
1.03523e-06
1.49974e-05
1.35281e-06
1.49018e-05
1.60745e-05
6.87777e-07
4.59655e-06
-9.37659e-07
4.17667e-06
5.34001e-07
4.07977e-06
-7.89206e-07
4.47936e-06
-1.5785e-06
4.05421e-06
-5.6209e-07
3.44777e-06
4.41354e-06
1.18682e-06
2.36216e-06
-1.36721e-08
2.68862e-06
6.76949e-07
2.43721e-06
1.08114e-06
2.40513e-06
6.2178e-07
2.57395e-06
1.036e-07
2.74328e-06
2.80556e-06
-5.62387e-07
-2.35933e-06
2.61401e-07
-2.60582e-06
-2.64597e-07
-2.26061e-06
-7.66546e-07
-2.51966e-06
-5.8016e-07
-2.08682e-06
-6.79837e-07
-2.71174e-06
-2.91557e-06
6.58162e-07
-4.6883e-06
-6.43225e-07
-4.4435e-06
1.28099e-07
-3.73674e-06
2.92343e-07
-4.25242e-06
3.6592e-07
-4.27072e-06
2.11684e-07
-3.79931e-06
-4.63889e-06
-1.31071e-07
-1.59076e-05
3.22988e-07
-1.86726e-05
7.05245e-07
-1.49764e-05
2.31491e-07
-1.64057e-05
-6.75415e-07
-1.6828e-05
7.2023e-08
-1.57755e-05
-1.59994e-05
-2.85215e-07
-1.27954e-06
-4.70661e-07
-6.16039e-07
-1.4205e-07
2.03911e-07
-0.00476308
0.00282818
0.00224482
-0.00331436
0.00389057
-0.00516326
-0.000602235
0.00445821
-0.00703253
0.00260834
0.00372065
-0.00680492
0.00388912
0.00367205
-0.0048488
0.00456046
0.00291802
-0.00348893
0.00241826
0.00235915
-0.00842607
0.0061054
0.00600473
-0.00793435
0.00504694
-0.0012716
-0.00224722
0.00536021
-0.00631535
0.00456008
0.00591053
-0.00877727
0.00915182
0.00579564
-0.00646725
0.00844477
0.00503561
-0.00114934
0.0059025
0.00557229
-0.00321711
0.00246465
0.00737721
-0.00375305
0.00178644
0.00427061
-0.00180083
0.000941052
0.00281146
0.00164747
0.000123536
0.00266037
0.00408434
0.000754138
0.00291262
0.00366467
0.00179004
0.0040133
0.00254613
0.00738052
0.00104868
-0.0027436
0.00372503
0.00144186
-0.00208894
0.003329
0.000778258
-0.00148672
0.00305891
-0.000703931
-0.00133709
0.00300237
-0.00138415
-0.00165654
0.00301645
-0.000980196
-0.00208949
0.00326121
-0.00263921
0.00369984
-0.00298818
-0.00543394
0.0059379
-0.00372088
-0.00470973
0.00369434
-0.00249982
-0.00507191
0.00262392
2.0486e-05
-0.00552764
0.00193897
0.00184259
-0.00532849
0.00211957
0.00212805
-0.00524309
0.00321117
-0.00574899
0.00547785
-0.00845054
-0.00220434
0.00603077
-0.00839086
-0.00301964
-0.00136906
-0.0040107
-0.00360309
-0.00555583
0.00167826
-0.00370445
-0.00721492
0.00608523
-0.0039373
-0.00544667
0.00652109
-0.00329546
-0.00190666
-0.00321754
0.00486524
-0.00436128
0.00244514
-0.00300291
-0.00428677
-0.000523308
-0.00599179
0.00162935
-0.00574583
0.00293504
-0.00510247
0.00390195
-0.00408557
0.00106099
-0.00242187
0.00259412
0.00247189
-0.00157546
0.00202486
-0.00792927
-0.000472631
0.00244142
-0.0105027
0.000854272
0.00213436
-0.0101703
0.00183088
0.00170316
-0.00745638
0.00251081
0.00142296
-0.00553446
0.00206316
0.00311527
-0.00229724
0.00369609
0.00811435
-0.00252928
0.00275847
-0.00143413
0.000396166
0.00259256
-0.00904149
0.00349872
0.00152929
-0.0111647
0.00536431
0.00229183
-0.00864696
0.00377473
0.00327965
-0.0010639
0.0036575
0.00856766
9.41449e-05
0.00201699
0.00912693
-0.000198778
0.00150145
0.00608794
0.000184273
0.000702525
0.00454217
0.000487904
-3.46265e-05
0.00408724
0.000780139
0.00055088
0.00453619
0.000583282
0.0016831
0.0060735
0.0023053
0.00954388
0.00132077
-0.00222835
0.00628766
0.00187536
-0.00171594
0.00581932
0.000967718
-0.000688497
0.00538353
-0.00082917
-0.000289754
0.00520276
-0.00171554
-0.000876188
0.00531995
-0.00120273
-0.00143416
0.00567351
-0.00171436
0.00614156
-0.000652633
-0.00371745
0.00799977
-0.000929643
-0.00312126
0.00553561
-0.00155213
-0.00178777
0.00448699
-0.00143076
-0.00183977
0.00349651
-0.000779593
-0.00307345
0.00378715
-0.000382861
-0.00335362
0.00482295
-0.00363294
0.00684501
-0.00343795
-0.00134013
0.00770315
-0.00467695
-0.00181212
-0.00113319
-0.00341926
-0.00200802
-0.00630845
-0.000696365
-0.00198083
-0.00962503
0.00170552
-0.00250314
-0.0081326
0.000961691
-0.0021084
-0.00209042
-0.00277063
0.00542776
-0.00146258
0.00294786
-0.000433248
-0.0071245
0.000935369
-0.00933235
0.00228143
-0.00902032
0.00248642
-0.00771591
0.0021624
-0.00574364
0.000859902
-0.00110218
0.00246008
0.00147669
-0.000958023
0.000733013
-0.00875379
-0.000302558
0.000171983
-0.0112844
4.54924e-05
0.000883829
-0.0113189
0.000445336
0.000454271
-0.00823721
0.000879383
0.000249163
-0.00618182
0.00165887
0.00267232
0.00147913
0.00292052
0.00640347
0.0019879
0.00205755
-0.00336921
0.00333786
0.00127574
-0.0113921
0.00431674
0.000272624
-0.0114898
0.00360692
0.0014008
-0.00865426
0.00102827
0.00292737
-0.00079337
0.00294413
0.00871206
0.00162616
0.00130898
0.00894692
0.00191557
0.00119738
0.00664378
0.00161403
0.000558771
0.0056435
0.000219729
-1.82186e-05
0.00586484
-0.000757782
0.000705449
0.00635462
-0.000651807
0.00154374
0.00748074
0.00175004
0.0100502
0.000978642
-0.0016695
0.00809133
0.00159844
-0.00148391
0.00772104
0.000931116
-0.000783673
0.00741596
-0.000800485
-0.000254514
0.00730287
-0.00156532
-0.00059942
0.0073939
-0.000982441
-0.00115012
0.00760266
-0.00120832
0.00790585
0.000299997
-0.00310982
0.00881921
6.27491e-05
-0.00265588
0.00697563
-0.00132202
-0.000997819
0.00620788
-0.00243939
-0.00101417
0.00545493
-0.00239728
-0.0019402
0.00516051
-0.00137197
-0.00306188
0.00561778
-0.00314757
0.00715291
-0.000397449
-0.00143554
0.00658681
-0.00308626
-0.000338756
-0.00052668
-0.00410561
-0.000382803
-0.00572413
-0.00376277
-0.000940679
-0.00998776
-0.00213656
-0.000833247
-0.0106205
-0.0011098
-0.00137391
-0.00459353
-0.00223379
0.00349476
0.000705413
0.00104276
0.00167163
-0.00841942
0.00224409
-0.0102478
0.00227525
-0.00997088
0.00226866
-0.00846815
0.0013137
-0.00607186
0.000185527
0.000234364
0.00193542
-0.000572775
-0.00048629
0.000972128
-0.00894406
-0.000489054
3.13666e-05
-0.0112719
-0.00115615
0.000755331
-0.0113786
-0.000921852
-0.000159827
-0.00830002
-0.000906267
0.000239015
-0.00645795
0.00138774
0.000489951
0.00295777
0.00302303
0.00224963
0.00336315
0.00243352
-0.00531854
0.00401154
0.000411114
-0.0124181
0.00374234
-0.000346603
-0.0101728
0.00084605
0.000295431
-0.00627467
-0.00187355
0.00209321
2.11531e-06
0.00220627
0.00604756
0.00189106
0.00108133
0.00857139
0.0027899
0.00101572
0.00692734
0.00230397
0.000219497
0.00623398
0.000639862
-7.05595e-05
0.00723236
-0.00115475
0.000866388
0.0075891
-0.001209
0.00142957
0.00812843
0.000895249
0.00988589
0.000588524
-0.00125174
0.00959969
0.00114566
-0.0013647
0.00936825
0.000719436
-0.00107695
0.00911942
-0.000668738
-0.000319402
0.00900212
-0.00129123
-0.000209847
0.00906592
-0.000761933
-0.000882948
0.00922848
-0.0014666
0.00935188
0.000893231
-0.00262657
0.00902168
0.000477213
-0.00187038
0.00775187
-0.00118032
-0.000461569
0.00727973
-0.00304157
-6.64894e-05
0.00706932
-0.00318912
-0.000859532
0.00599844
-0.00160829
-0.00283213
0.00585011
-0.00351711
0.00739562
0.00287707
-0.00174644
0.00277383
0.00140519
-0.000282878
-0.000855121
-0.000657217
0.000131167
-0.00436654
-0.00231761
-0.00032829
-0.00813694
-0.00224467
-0.000356887
-0.0112158
-0.00068041
-0.00106813
-0.00759844
-0.00158207
0.000869669
0.00290612
-0.00326009
0.00381907
-0.00947079
0.00403417
-0.0102431
0.00342166
-0.00965063
0.00264583
-0.00798571
0.000823277
-0.00522531
-0.00041686
0.000574635
0.00188606
-0.00288327
-0.000538161
0.000988427
-0.00876436
-0.00163442
0.000601274
-0.0107477
-0.00209681
9.61334e-05
-0.0110077
-0.00150619
-0.00042427
-0.00845611
-0.0017613
0.000481552
-0.00668959
0.00144668
-0.00261451
0.00236882
0.00319578
-0.00147808
0.00319518
0.0029159
-0.0079051
0.000706396
0.00144978
-0.0107986
-0.00171808
-0.000184401
-0.00755505
-0.00381716
-0.000431475
-0.00439628
-0.00434947
0.00140508
-0.000770344
0.00200852
0.001019
0.00169096
0.000914791
0.00877634
0.0029876
0.000923168
0.00735283
0.00285558
0.000307813
0.00742972
0.00123244
0.000202067
0.00837049
-0.000992019
0.00112121
0.00827476
-0.00133876
0.00138498
0.0082796
0.000908342
0.00939797
0.000419437
-0.00124143
0.0110609
0.000861584
-0.00135247
0.0109889
0.000561802
-0.00113356
0.0108015
-0.000582982
-0.000264812
0.0106309
-0.00113362
5.48407e-06
0.0106984
-0.000865972
-0.000456622
0.010698
-0.0014327
0.0106888
0.000938574
-0.00257824
0.00907488
0.000526166
-0.00197454
0.00856862
-0.00140164
-0.000335454
0.00835265
-0.00335317
0.000275212
0.00846014
-0.00324975
-0.00133562
0.00720459
-0.00175161
-0.00232849
0.006247
-0.00364276
0.00769766
0.00438784
-0.00169126
-0.0024132
0.00590732
-0.000509418
-0.00387096
0.00573049
0.00109074
-0.00573719
0.00433365
-0.000298256
-0.00635502
0.000914755
-0.000673664
-0.00853181
-9.33081e-05
-0.00069561
-0.00796039
-0.00101282
-0.00173528
0.00326766
-0.00786756
0.00396161
-0.0105028
0.00496965
-0.010042
0.00410566
-0.00899962
0.00209986
-0.00659862
0.00019786
-0.00389682
-0.0011196
-0.000688502
0.0014054
-0.00347483
-0.00201935
0.000289871
-0.0076656
-0.00261886
-0.000160664
-0.00994158
-0.00260529
-0.000705799
-0.010302
-0.000746364
-0.00164681
-0.00865362
-0.000295953
-0.000421288
-0.00672084
0.000964836
-0.00381623
0.000429895
0.00296852
-0.00334064
-0.00184169
0.00273004
-0.00786343
-0.00640081
0.00139939
-0.00785523
-0.00654981
-0.000285872
-0.00797313
-0.00492154
3.93182e-05
-0.00773446
-0.00336286
0.00129025
-0.00397762
0.00176977
-0.00307743
0.00192974
0.000474874
0.00910428
0.00309475
0.000442934
0.00837465
0.00219796
0.00051207
0.00909771
0.00021504
0.000455249
0.00954391
-0.00120952
0.000661262
0.00904626
-0.00107028
0.000785181
0.00848074
0.000848499
0.00905223
0.000544318
-0.000670003
0.0114345
0.000438643
-0.000447133
0.0118132
0.000211686
-0.000340288
0.0118142
-0.000496595
0.000183022
0.0116331
-0.00104362
0.000333772
0.0115967
-0.00102741
0.000232639
0.011245
-0.000584519
0.0110585
0.000921639
-0.00164435
0.00885737
0.000699739
-0.00124144
0.00934402
-0.000647582
-0.000645349
0.00992039
-0.00252631
0.000401363
0.0100528
-0.00334141
-0.000670026
0.00893058
-0.00229817
-0.00195396
0.00742497
-0.00315167
0.00795267
0.00302537
0.000379675
-0.00729328
0.0066115
0.00137732
-0.00993168
0.00858093
0.00161065
-0.0099258
0.00859884
0.000564779
-0.00667576
0.00494838
-0.000152717
-0.00549919
0.00141389
-0.000575555
-0.00573242
-0.00052233
-0.00265949
0.00228738
-0.00952285
0.0038178
-0.0105365
0.00496481
-0.00956885
0.00398676
-0.00742782
0.00178003
-0.00449708
0.000114666
-0.00269084
-0.0013565
-0.00281105
0.000641987
-0.00124157
-0.00430275
-0.000837205
-0.00532401
-0.0041062
-0.00156667
-0.00854936
-0.00277674
-0.00179786
-0.00978565
4.68589e-06
-0.00227702
-0.00909713
0.00147952
-0.00177236
-0.00648003
0.000308437
-0.00262248
-0.00345966
0.00308745
-0.002081
-0.00772413
0.00108238
-0.00557914
-0.0102297
-0.00043147
-0.00656975
-0.00790352
-0.000462529
-0.0116756
-0.00384157
3.75428e-05
-0.014137
0.000487262
0.00190222
-0.0117049
0.00208906
-0.00429798
0.00227594
0.000347486
0.00939169
0.00216893
-7.46771e-05
0.00949914
-0.000305513
0.000104749
0.0109511
-0.000967001
0.000134836
0.00959152
-0.00132683
0.00100243
0.00844979
-0.000915027
0.00189832
0.00799931
0.00253653
0.00738459
0.000814156
-0.00199991
0.0128007
-0.000192164
-0.000506262
0.0131605
-0.00038981
-0.000394953
0.0124666
-0.000813669
0.000144725
0.0122322
-0.000931339
0.000892454
0.0118868
-0.000812536
0.00137613
0.0116431
0.000477687
0.0122327
0.00151667
-0.00151486
0.00668719
0.00135301
0.000527656
0.00830072
0.00017529
0.000617692
0.00990224
-0.000624069
0.000584615
0.0103175
-0.00257777
-0.000442973
0.012054
-0.00238015
-0.00139892
0.010102
-0.00281614
0.00898054
0.00572136
0.00175348
-0.0154099
0.00971753
0.00244363
-0.01559
0.0106914
0.00216607
-0.0121271
0.0100059
0.00159332
-0.00701557
0.00769471
0.000479802
-0.00418033
0.00392801
0.000146552
-0.00350656
-0.000262047
-0.00105463
0.00189879
-0.00940114
0.00425114
-0.0103212
0.00496377
-0.0079495
0.00437714
-0.00514891
0.00286842
-0.00247567
0.00155248
-0.00115534
9.99862e-05
-0.000916709
-0.00124798
0.00325882
-0.00100035
-0.00323345
0.000267405
-0.00119619
0.00330172
-0.00385511
0.000392299
-0.00655544
0.00685484
-0.00154712
0.00220308
-0.0129068
0.00843126
-0.000683914
0.00277707
-0.0118306
0.00821461
-0.00178176
0.00219
-0.00746181
0.00646073
0.00153125
-0.004903
0.00164635
-0.00504425
0.000977928
0.00356222
-0.000602978
-0.00774653
-0.000233258
-0.00171627
0.00488786
-0.00944204
-0.00136178
-0.00333873
0.00680077
-0.00775471
-0.00180652
-0.0105379
0.0128036
-0.00512334
-0.000635789
-0.0150617
0.0157384
-0.00371736
0.000592407
-0.0143671
0.014336
0.00226129
-0.00862828
0.00446943
0.000323677
-0.000319006
0.00992257
-0.00904016
-0.000434157
-0.000284922
0.00970673
-0.00902418
-0.00215957
-0.000426133
0.010221
-0.00959976
-0.00436957
-0.000677783
0.0101108
-0.00917429
-0.00396131
9.31316e-05
0.00646005
-0.00770424
-0.00214032
0.00114826
0.00326009
-0.0057781
0.00188706
0.00333308
-0.00541497
0.000213273
-0.000364356
0.0117207
-0.0119607
0.000254584
0.000108561
0.0117076
-0.0121413
-0.000205379
0.000274652
0.0119597
-0.0122479
-0.00103618
0.00021247
0.0121015
-0.0121923
-0.00147406
0.000426804
0.0119573
-0.0119039
-0.000916581
0.000895304
0.011486
-0.0118554
0.00109789
0.0111555
-0.0113639
0.0038703
-0.00257315
0.00396979
-0.00547988
0.00496466
-0.00028852
0.00694524
-0.007621
0.00255367
0.00221589
0.00963213
-0.00917789
0.00012726
0.00193794
0.0106219
-0.00998096
-0.000802763
0.000795503
0.0105642
-0.0101504
-0.000509252
-9.53372e-05
0.0100773
-0.00950374
-0.000968436
0.0104541
-0.00893667
0.00484483
-0.00364676
-0.0205395
0.0173809
0.00805584
-0.00354388
-0.0163761
0.0169493
0.00850709
-0.00151262
-0.0078304
0.0113287
0.00818554
0.000300323
-0.00442369
0.00647624
0.00733154
0.000249302
-0.00235192
0.00376594
0.00489659
0.000420237
-0.00076764
0.00268466
0.00133134
0.00405196
-0.00133263
-8.24456e-05
-0.0122159
0.00880577
-0.00062786
-0.0146059
0.011502
0.00025022
-0.00929641
0.00692726
0.000694597
-0.00362196
0.00358043
0.00105642
-0.000793873
0.00074663
0.000411266
0.00146938
-0.00032987
0.00350408
-0.00161834
-0.000126154
-0.000455148
0.00396801
-6.59854e-05
-0.00100021
-0.000182915
0.0011415
-0.00174624
-0.00591148
-0.000273369
0.000487291
-0.0119192
-0.00116549
0.00171518
-0.0125086
-0.00120847
0.000983192
-0.00791625
0.000374512
-0.00598901
-0.00208978
0.000425694
0.004898
-0.00422591
-0.000708322
0.000111774
-0.00584313
-0.00237589
-0.00110859
-0.00595182
-0.00293758
-0.00706007
-0.00440028
-0.000608519
-0.0143103
-0.00358414
0.000537471
-0.0144671
0.00279143
-0.0136523
0.000165346
0.000157181
0.00994759
-0.000449652
1.27294e-05
0.00952951
-0.00279647
-0.000142773
0.0102495
-0.00594673
-0.000176603
0.0103317
-0.0067582
0.000205631
0.00633885
-0.00497209
0.00109394
0.000714664
0.00217168
-0.000970144
0.000365789
0.000262893
0.0112118
0.000352089
0.000296471
0.0114784
-9.55884e-05
9.15576e-05
0.0122225
-0.000881177
0.000134562
0.0126256
-0.00148905
0.000330072
0.0124684
-0.00119172
0.000480461
0.0117768
0.000424476
0.011619
0.00526985
-0.000707782
-0.000309797
0.00604962
0.00164578
0.00476663
0.00360768
0.00315323
0.00895197
0.00121425
0.0025171
0.0105486
-0.000285915
0.00162595
0.0106859
-0.000391324
0.000198383
0.0104471
-0.000740629
0.0111658
0.00134668
-0.00061268
-0.0218386
0.00407761
-0.000775888
-0.0166474
0.004666
0.000487056
-0.00572272
0.00347545
0.00169554
-0.00243357
0.0029682
0.000941111
-0.00123228
0.00197063
-3.84712e-05
0.000433538
0.000251198
0.00517731
4.36373e-05
-0.0127677
-0.00225287
-0.0130709
-0.00233288
-0.00862693
-0.0011954
-0.00296616
-0.000321896
-0.000720264
-4.92708e-05
0.00117337
0.00383858
9.64451e-05
0.000234098
0.00373666
0.000589092
-0.00130729
0.000685917
0.0036122
-0.00140953
-0.00746252
0.00360824
0.000549626
-0.0122977
0.00146769
0.00208366
-0.0123791
0.000527547
0.00221451
-0.00897159
0.000804165
-0.00596442
-0.000693104
0.000237708
0.0057148
-0.00170986
-0.0012846
0.00112867
-0.000685509
-0.00254593
-0.00102353
-0.000183972
-0.00324833
-0.00390103
-0.000237068
-0.00110568
-0.0111414
-0.000172365
0.00153575
-0.0138426
0.00271667
-0.0156831
-0.00131299
0.00168153
0.00978855
-0.00242303
0.000623108
0.00870245
-0.00470919
0.000274727
0.0096866
-0.008436
-0.000111538
0.0108232
-0.00973363
-0.000101955
0.00656004
-0.00617889
0.000898431
-0.00220735
0.00182561
-0.00603849
0.00123826
-0.000246316
0.0118915
0.00153543
-0.000609297
0.0124434
0.000887425
-0.000229074
0.0134369
-0.000644185
0.000142127
0.0140042
-0.00227424
-0.000117564
0.014158
-0.00219586
-0.000593201
0.0131274
-0.00118898
0.0123015
0.00625402
-0.000781553
-0.00574213
0.00847935
0.00213852
-0.000152961
0.00589971
0.00319246
0.00804067
0.0031155
0.00248741
0.0109319
0.00123916
0.00137559
0.0110806
4.67434e-05
0.00036333
0.0107108
-0.00108894
0.0110144
-0.00128235
-0.00150319
-0.0198602
0.00049345
-0.00120355
-0.0151967
0.00179205
0.000982718
-0.00495374
0.00157986
0.00194618
-0.00180018
0.00169259
0.00125549
-0.0012881
0.001036
0.000684605
0.000757826
0.000125759
0.00515806
-0.00181993
-0.0125032
-0.00426343
-0.0118752
-0.00405429
-0.00781819
-0.00241991
-0.00263074
-0.00112937
-0.000770226
-0.000476259
0.00123021
0.00357463
-0.000335369
-0.000388781
0.00462758
0.00189098
-0.000556816
-0.00102243
0.00623989
-0.000116106
-0.0115418
0.00701725
0.000213461
-0.0131407
0.00477559
0.00159441
-0.0116654
0.00253202
0.00208486
-0.00874424
0.00139695
-0.00472644
-0.00213541
-0.000584715
0.00810891
-0.0020946
-0.00209819
0.00258224
0.00159502
-0.00235387
-0.00258616
0.00452056
-0.00320754
-0.00357052
0.00598432
-0.00121542
-0.00995254
0.00509028
0.00233615
-0.0132739
0.00443619
-0.0137042
-0.00424623
0.00270583
0.0106895
-0.00527728
0.00144239
0.0059988
-0.00532694
0.000601887
0.00657462
-0.00696008
-0.000348702
0.00941155
-0.0075483
-0.00108407
0.00691443
-0.00513101
-0.000712456
-0.00149128
0.000894591
-0.00738369
0.00109226
-0.000321076
0.0138806
0.00130333
-0.000336885
0.0140894
0.00124713
-0.000700855
0.0148821
-0.00029157
-0.000653806
0.0158729
-0.0019866
-0.00110773
0.0159085
-0.0026586
-0.00193029
0.0149608
-0.00302687
0.0134778
0.0054289
-0.00201328
-0.00943604
0.00851799
0.000471129
-0.00379846
0.00732655
0.0021555
0.00640103
0.00564713
0.00163188
0.0103215
0.00411332
0.00128761
0.0101342
0.00248732
0.00100864
0.00931386
-0.000337278
0.0106988
-0.00224735
-0.00315245
-0.0165974
-0.00171748
-0.00201283
-0.0133906
0.000959249
-0.000274821
-0.00530162
0.00250647
0.00111339
-0.00294817
0.0031534
0.00108795
-0.00186329
0.00193676
0.00107832
0.00185582
0.000548909
0.00630102
-0.0048309
-0.0109545
-0.00742917
-0.0113016
-0.00615967
-0.00930425
-0.00279867
-0.00482587
-0.000844843
-0.00160106
-0.000416632
0.00195826
0.00387976
0.000181054
-0.000982164
0.00554732
0.00554356
0.000972899
-0.00736135
0.00886139
-0.000437778
-0.0143331
0.00981471
-0.00129352
-0.0127433
0.00634884
0.000854408
-0.00898186
0.00245999
0.000425019
-0.00520937
-0.00084556
-0.00138253
-0.00381978
-0.000645635
0.0116154
-0.00135686
-0.00221853
0.00317293
0.00548152
-0.00333298
-0.00668031
0.0132931
-0.00312095
-0.00975172
0.0151538
-0.000105453
-0.011017
0.0116173
0.00235696
-0.0117956
0.00570817
-0.00874904
-0.00663838
0.00276459
0.013876
-0.00765528
0.00175818
0.00279983
-0.00660519
0.00124541
0.000522948
-0.0054773
-0.000167879
0.00496383
-0.00337944
-0.00219724
0.00667718
-0.00174231
-0.00289313
0.00205458
0.000190897
-0.00358537
0.00118995
-0.000146642
0.0155773
4.41371e-05
0.00149227
0.0155053
0.000770015
-6.66018e-05
0.0154813
0.000872168
-0.000561297
0.0162327
-0.000222751
-0.0013871
0.0162062
-0.00148012
-0.00242092
0.0156322
-0.00334312
0.015434
0.00274278
-0.00436246
-0.00788798
0.00487508
-0.00161568
-0.00283905
0.00783992
0.000617289
0.00272346