/*--------------------------------*- C++ -*----------------------------------*\
  =========                 |
  \\      /  F ield         | OpenFOAM: The Open Source CFD Toolbox
   \\    /   O peration     | Website:  https://openfoam.org
    \\  /    A nd           | Version:  6
     \\/     M anipulation  |
\*---------------------------------------------------------------------------*/
FoamFile
{
    version     2.0;
    format      ascii;
    class       volScalarField;
    location    "0.0075";
    object      T;
}
// * * * * * * * * * * * * * * * * * * * * * * * * * * * * * * * * * * * * * //

dimensions      [0 0 0 1 0 0 0];

internalField   nonuniform List<scalar> 
3773
(
269.627
266.45
266.444
266.746
266.946
267.412
270.767
287.041
286.521
286.664
286.498
286.294
286.527
286.937
308.866
310.001
310.058
310.032
310.012
310.048
308.884
315.607
315.804
315.812
315.805
315.804
315.847
315.626
308.925
309.039
310.132
310.081
310.057
310.098
308.943
287.175
287.434
286.793
286.423
286.414
286.739
287.107
271.207
269.063
268.45
268.187
267.749
267.81
271.475
236.017
232.487
232.338
232.704
233.611
234.495
236.797
271.862
275.809
276.293
276.181
275.849
276.369
272.918
313.6
311.613
311.928
311.951
312.135
311.584
313.642
324.727
324.815
324.992
325.033
325.04
324.844
325.246
313.857
313.851
312.21
312.204
312.157
312.073
313.939
272.662
272.545
276.2
276.027
276.047
276.53
272.765
237.904
234.974
235.372
235.623
234.256
234.34
237.582
219.853
218.654
217.713
217.831
218.656
219.479
220.062
264.335
270.857
269.644
269.135
267.767
268.879
264.406
314.203
311.659
313.807
313.865
313.281
311.092
313.781
325.678
324.759
325.44
325.875
325.925
324.794
325.587
314.004
312.222
312.163
312.872
313.673
312.465
313.849
264.664
267.705
269.392
266.132
269.242
270.063
264.654
220.51
219.554
219.108
218.534
218.508
219.46
220.303
215.565
218.122
217.031
217.193
216.019
215.879
215.571
264.023
273.451
272.664
272.315
267.908
268.068
263.92
314.121
311.861
312.459
312.583
313.376
311.05
313.841
325.705
325.067
325.391
325.721
325.486
324.984
325.592
314.006
310.945
313.528
314.892
313.575
311.525
313.823
264.077
268.412
268.48
266.141
269.797
271.199
264.13
215.57
215.905
216.114
214.244
216.484
217.102
215.626
214.833
217.035
216.695
216.657
215.438
215.05
214.777
264.178
272.068
271.13
271.406
268.956
268.951
264.286
314.267
311.669
311.374
312.333
311.906
310.257
314.204
325.756
324.99
325.293
325.282
325.055
325.024
325.731
314.158
311.024
312.541
313.581
313.035
311.095
314.152
264.427
269.268
268.632
268.891
269.281
270.345
264.366
214.822
215.345
215.36
214.536
216.148
215.798
214.79
215.005
216.39
214.94
216.663
216.057
215.507
214.928
266.49
272.033
272.858
272.849
271.748
271.698
266.192
314.95
311.385
311.554
311.031
310.754
310.467
314.629
325.922
325.019
324.827
325.06
324.666
325.42
325.885
314.737
311.506
311.224
311.476
311.241
311.963
314.685
266.665
272.331
271.953
273.086
273.044
271.068
266.442
215.047
214.877
215.667
214.512
217.074
215.756
214.949
213.085
211.12
212.286
213.149
213.021
213.083
213.17
268.125
270.058
268.125
268.707
268.835
269.325
268.164
312.719
312.947
311.631
312.137
311.342
312.261
311.777
329.002
330.015
329.768
329.782
330.251
328.923
330.294
312.675
316.526
312.399
311.598
317.488
312.636
311.836
268.517
261.47
269.267
268.933
263.656
269.191
268.369
213.38
212.005
213.095
212.545
211.107
213.199
213.263
317.773
328.437
330.763
329.172
328.084
323.28
316.676
299.249
317.728
320.384
326.107
321.355
317.568
300.349
292.259
308.501
314.099
317.141
314.222
309.506
293.823
332.041
335.695
341.357
345.678
341.865
335.483
331.4
290.121
304.451
308.944
311.079
308.212
302.588
287.825
286.505
307.154
311.713
317.129
312.95
307.799
285.28
304.877
314.667
319.318
324.119
325.862
324.776
308.486
309.226
326.716
330.061
328.781
325.492
316.328
309.88
283.741
302.724
316.529
328.789
321.276
306.244
288.198
289.557
303.925
313.179
319.669
315.085
305.786
290.959
337.354
338.882
344.598
347.961
344.687
338.9
337.097
290.824
304.436
313.577
316.952
311.821
303.218
289.679
276.957
300.59
312.457
321.644
313.294
299.692
274.933
294.652
307.298
316.895
323.203
326.683
325.773
297.871
286.264
325.226
328.001
327.565
322.529
307.415
291.101
273.52
294.285
320.47
331.075
326.308
302.515
277.18
290.832
302.488
313.836
321.94
316.699
304.388
291.198
341.753
342.144
345.853
348.657
345.819
342.053
340.185
294.442
305.29
316.457
320.097
315.368
303.864
295.54
271.632
299.119
315.953
324.51
321.003
294.948
276.729
271.443
301.778
314.138
321.017
326.666
325.856
298.616
286.216
325.02
327.526
327.207
321.71
304.901
280.594
276.011
296.159
327.933
332.309
328.146
301.464
276.082
295.199
304.069
316.935
323.777
319.366
305.921
295.188
343.303
343.885
347.107
349.992
347.412
343.285
343.496
298.736
307.71
319.222
323.257
317.865
308.107
298.297
274.427
295.528
316.516
325.276
326.76
307.617
284.097
279.176
303.894
314.698
320.553
326.355
325.866
304.625
308.627
326.021
326.598
326.741
321.215
306.03
294.366
291.209
309.518
330.501
332.879
321.687
297.392
283.045
300.549
308.909
319.241
326.566
321.88
308.658
299.37
343.773
344.298
348.153
351.952
348.652
344.755
343.889
302.583
310.138
321.529
325.2
320.016
312.972
302.599
287.593
296.131
310.384
320.969
327.611
321.409
294.483
305.905
314.66
318.394
321.694
326.203
325.924
306.952
317.847
326.631
325.901
326.742
322.853
307.4
301.736
303.874
325.603
334.244
331.339
318.638
303.451
296.159
308.105
315.073
322.179
327.816
323.779
315.152
307.894
346.286
347.114
350.558
353.603
351.46
348.701
346.197
311.161
316.489
323.617
327.315
322.483
317.426
308.887
298.831
309.545
312.66
320.741
326.255
330.025
307.445
316.965
324.818
323.351
324.252
327.317
327.796
310.984
322.989
326.158
325.745
326.682
325.616
306.644
303.137
315.421
334.673
334.859
334.226
330.135
314.175
302.263
311.599
318.245
323.833
330.945
326.811
318.134
311.423
345.837
348.575
352.413
354.994
351.762
348.258
345.901
314.371
319.613
327.13
331.323
327.464
321.992
314.013
310.552
320.08
321.728
324.207
329.24
331.055
318.645
324.611
327.967
326.036
325.813
328.659
329.722
319.005
317.13
323.059
322.855
325.618
326.287
300.143
287.868
324.607
336.645
336.898
336.761
334.226
323.9
297.798
321.253
327.281
333.009
336.643
330.276
325.547
317.874
348.531
351.072
353.886
355.481
353.011
349.246
347.397
321.032
324.905
331.537
336.892
333.121
328.616
323.856
336.486
334.399
331.244
332.028
333.01
333.68
325.93
338.169
331.7
324.845
326.278
329.409
328.721
318.545
311.445
325.575
322.667
324.272
330.3
313.224
297.116
317.48
336.968
338.289
338.462
338.628
336.836
326.988
322.465
328.525
335.685
337.319
329.532
324.658
317.333
350.593
351.484
354.669
356.687
353.931
348.949
345.549
319.964
323.668
330.245
338.197
336.284
330.836
326.035
343.939
338.156
334.401
336.28
336.595
335.634
319.944
338.656
327.712
323.933
327.643
332.21
327.163
312.149
308.225
321.424
323.739
326.592
331.949
334.218
328.105
309.222
333.998
337.892
338.589
340.317
344.38
346.161
323.184
329.679
334.526
333.726
325.735
324.221
321.85
348.645
350.139
353.977
356.982
354.136
347.65
343.4
320.305
318.404
322.727
336.102
335.88
329.986
325.302
344.766
339.242
332.885
336.539
336.581
332.482
311.639
337.917
327.301
324.506
326.943
327.927
322.251
308.71
298.534
316.857
325.464
332.067
335.65
338.842
337.418
309.916
337.703
343.092
341.116
342.679
345.797
348.325
327.015
334.272
335.941
331.705
328.006
331.47
335.37
343.76
345.985
350.404
356.306
352.358
344.047
340.916
335.673
325.978
321.71
327.836
332.099
329.932
326.063
345.846
342.346
335.067
336.005
337.888
333.756
306.032
338.443
328.414
325.915
325.994
325.103
312.683
299.713
288.399
304.979
331.543
338.579
339.843
340.852
340.702
313.329
339.641
347.476
346.683
347.321
349.214
349.46
332.197
343.939
342.668
334.98
332.989
338.178
342.056
342.295
343.908
348.137
353.81
347.541
341.196
338.512
343.448
338.823
324.779
325.368
330.674
331.695
329.529
347.182
345.155
341.78
340.423
341.708
337.653
310.073
340.142
331.737
328.975
327.768
326.185
314.776
289.833
284.734
315.474
340.132
344.045
343.377
343.435
343.001
316.495
342.688
349.099
349.023
349.412
350.244
350.462
332.411
349.557
352.677
347.532
342.193
341.636
344.096
338.679
343.803
347.819
351.347
347.277
341.776
337.953
349.044
347.089
342.76
340.764
343.581
343.202
332.038
348.275
347.819
348.348
348.024
346.616
339.594
314.534
344.233
342.184
338.322
334.787
329.782
323.39
287.425
333.428
347.198
351.098
347.879
323.116
332.691
338.671
335.693
341.161
347.523
349.545
350.054
350.651
350.523
339.974
348.571
351.961
354.415
352.942
350.071
344.676
338.695
344.858
347.894
351.365
347.834
343.513
339.331
353.708
355.282
354.067
351.292
350.423
348.218
341.797
347.779
348.789
349.097
348.379
344.534
341.825
334.913
343.588
347.335
345.053
341.836
339.747
329.01
322.052
324.491
325.62
325.059
327.094
325.854
303.913
300.32
326.821
334.636
335.48
336.716
333.631
323.082
305.777
315.419
321.301
325.193
331.115
326.762
319.285
315.736
345.257
349.683
351.157
353.989
350.49
346.23
345.013
317.826
323.214
330.326
332.087
328.265
321.921
315.483
330.69
330.979
329.425
330.169
331.626
331.488
325.825
335.581
332.654
327.706
326.415
329.223
330.216
323.864
324.135
325.14
324.603
326.826
325.752
302.315
298.414
327.267
335.261
335.879
336.775
333.672
323.53
304.655
315.611
321.608
325.541
331.303
326.926
319.577
316.375
345.411
349.812
351.079
354.009
350.591
346.393
345.343
318.198
323.538
330.489
332.304
328.293
321.911
315.721
332.075
331.737
329.944
330.392
332.051
332.089
325.922
335.879
332.498
327.53
326.286
329.239
330.149
324.29
324.034
325.04
324.4
326.648
325.745
301.545
297.958
327.447
335.455
336.033
336.8
333.602
323.583
302.779
316.172
322.292
325.792
331.438
327.183
320.33
316.965
345.614
349.921
351.11
354.141
350.818
346.769
345.714
318.601
323.62
330.806
332.781
328.391
321.975
316.009
333.178
332.4
330.37
330.874
332.231
332.22
325.927
336.512
332.437
327.336
326.243
329.286
330.013
324.331
324.094
325.092
324.361
326.604
325.819
301.467
295.804
328.109
335.552
336.208
336.796
333.555
323.545
300.726
316.511
322.723
326.307
331.704
327.409
320.967
318.134
345.848
350.054
351.269
354.289
351.024
347.018
345.915
319.04
323.873
330.821
333
328.737
322.13
316.472
334.082
332.96
330.566
331.142
332.388
332.252
326.27
337.231
332.375
327.053
326.283
329.379
330.333
324.345
324.115
324.535
324.357
326.718
326.09
301.563
293.425
328.146
335.705
336.373
336.785
333.631
323.464
298.225
316.764
323.036
327.137
332.016
327.566
321.251
318.762
346.091
350.12
351.588
354.346
351.237
347.522
346.042
319.667
324.006
330.882
333.586
328.973
322.41
317.057
334.823
333.448
330.822
331.388
332.521
332.408
326.337
337.666
332.502
326.667
326.331
329.481
330.486
324.354
323.975
323.846
324.001
326.656
326.179
300.291
291.398
327.926
336.132
336.584
336.781
333.879
323.446
297.667
317.596
323.748
327.609
332.809
327.675
322.095
319.449
346.258
350.235
351.747
354.347
351.357
347.835
346.351
320.059
324.388
331.175
333.962
329.457
323.237
317.694
335.471
333.863
330.952
331.57
332.731
332.898
326.959
337.714
332.567
325.81
326.298
329.538
330.65
324.474
324.18
323.235
323.397
326.258
326.193
299.809
287.936
327.816
336.317
336.699
336.804
334.076
323.499
296.92
318.026
324.067
327.966
333.08
327.837
322.853
320.355
346.405
350.363
352.109
354.348
351.593
348.647
346.806
321.014
324.626
331.566
334.292
329.584
323.545
318.121
336.211
334.223
331.009
331.687
332.835
333.195
326.99
337.594
332.254
325.548
326.206
329.501
330.503
324.732
342.44
356.794
337.065
328.506
327.065
322.951
321.099
343.393
354.266
358.706
349.969
350.756
349.533
345.98
355.709
357.007
356.719
356.077
354.8
351.363
345.438
338.699
345.382
347.749
351.347
348.282
343.785
339.503
353.652
354.452
353.583
354.397
354.92
356.018
356.248
349.375
353.126
357.632
356.856
355.381
349.398
342.266
326.755
335.919
347.524
350.183
357.345
352.707
329.417
366.077
341.419
335.568
332.117
329.046
328.275
328.213
355.405
356.975
350.754
349.387
348.77
346.67
344.215
358.227
357.953
354.846
353.769
353.591
351.865
345.893
338.869
345.66
347.753
351.377
348.565
344.034
339.999
353.678
354.272
354.102
354.822
354.863
356.663
357.339
348.314
349.479
354.337
355.91
356.059
359.207
352.134
329.573
330.784
336.582
338.453
342.691
344.476
350.968
364.206
344.265
342.634
338.476
334.707
334.015
339.879
359.703
354.754
352.27
351.392
349.287
348.534
348.107
360.733
354.639
353.134
353.494
353.131
351.862
347.399
339.398
345.953
347.839
351.47
349.016
344.607
340.541
353.183
352.889
353.29
354.595
354.421
353.276
355.758
350.313
350.214
352.009
354.919
355.662
355.793
357.644
335.971
333.978
336.975
337.997
341.706
343.472
355.027
352.227
345.609
343.841
340.536
339.97
344.771
346.01
361.661
355.352
354.875
354.075
351.098
350.671
351.407
356.577
354.001
352.77
353.506
353.374
352.42
348.965
340.151
346.397
348.089
351.666
350.342
346.285
341.102
352.578
351.336
352.968
354.607
354.794
353.774
353.926
352.939
352.586
353.122
353.915
355.025
355.198
354.702
347.058
341.058
341.458
341.19
345.222
345.989
348.301
351.121
348.887
347.762
346.84
346.813
346.824
347.721
358.558
355.666
354.839
354.425
353.937
352.145
350.716
353.79
354.569
353.232
353.769
353.946
353.263
349.285
340.947
347.591
349.13
352.533
351.349
349.071
341.956
351.556
352.569
353.859
355.146
354.989
354.493
353.058
354.322
353.294
353.777
354.522
354.608
354.82
354.695
349.921
343.969
343.516
343.773
346.558
347.41
348.578
352.304
350.19
349.531
347.732
346.625
346.177
346.952
357.129
355.472
352.806
352.362
352.417
351.775
350.742
352.758
354.273
352.901
353.181
354.151
353.799
350.083
342.955
350.415
351.529
353.344
351.68
351.36
344.104
350.23
354.125
354.894
355.755
355.143
354.654
352.86
352.827
354.767
354.966
355.125
355.679
355.748
355.688
349.326
349.052
348.821
348.726
349.865
350.333
350.768
356.193
353.917
349.317
346.757
344.916
344.409
345.736
356.822
355.566
352.889
351.123
350.266
349.967
350.661
352.461
354.015
353.31
353.311
353.569
354.04
352.586
347.111
352.297
352.849
354.45
353.95
354.964
349.327
351.506
354.489
355.405
356.062
355.335
354.522
353.01
353.059
356.792
357.496
357.753
356.769
354.674
355.638
347.364
350.235
352.712
356.019
354.456
355.417
357.837
320.984
318.86
317.893
318.632
321.623
327.118
339.045
343.466
342.717
341.918
341.106
340.844
344.375
346.98
343.642
349.146
359.355
359.681
359.68
359.538
359.448
341.523
353.261
357.694
358.517
358.6
358.462
358.031
356.192
355.92
355.682
355.479
355.345
355.619
356.62
341.926
341.492
341.69
343.209
344.523
346.513
349.769
329.973
331.478
331.613
333.758
334.614
337.412
343.746
328.193
326.182
325.839
326.115
328.362
334.135
337.374
344.097
343.027
342.567
342.304
342.45
343.356
346.719
343.772
346.043
358.621
358.772
358.355
358.23
358.156
341.438
345.219
354.243
356.986
357.462
357.383
357.03
355.929
355.501
355.764
355.934
356.284
356.529
356.727
352.918
353.392
353.372
354.161
354.77
355.163
355.568
351.373
352.121
350.893
351.282
351.245
350.304
353.299
340.914
339.969
339.205
338.208
336.462
337.947
338.811
348.826
348.456
348.062
347.273
347.051
347.455
348.212
343.679
343.913
354.183
358.765
358.26
358.029
357.858
341.586
343.154
347.296
352.109
354.604
355.087
355.249
356.454
356.89
358.817
358.828
359.847
360.214
360.371
357.889
358.19
360.03
361.054
362.727
363.24
363.005
358.424
359.467
360.095
360.04
360.205
362.468
358.692
347.703
347.509
347.09
346.792
346.54
343.051
341.625
351.188
351.053
350.741
349.987
349.719
349.599
349.729
344.251
343.451
345.824
355.955
357.477
356.918
356.803
341.712
342.703
343.659
346.012
348.933
349.828
351.201
353.87
354.161
355.332
357.081
357.796
358.55
359.507
354.453
354.665
355.397
356.08
357.463
360.845
363.461
349.076
349.623
351.095
353.019
356.557
362.526
364.617
347.517
347.249
347.208
347.214
347.734
349.223
344.724
350.504
350.034
349.893
349.838
349.561
348.727
346.088
346.924
344.012
343.974
345.856
352.546
356.061
355.808
341.927
342.105
342.638
342.734
343.323
344.01
345.64
352.213
352.523
352.975
353.623
354.193
354.789
356.168
354.704
354.752
354.943
355.666
356.72
359.384
362.337
348.468
348.691
349.661
352.918
355.49
361.093
364.93
347.008
347.147
347.291
347.418
347.9
348.798
348.95
350.422
349.621
347.99
347.184
346.276
346.044
345.276
349.199
347.316
344.556
344.34
344.737
346.3
347.956
343.385
342.633
342.457
341.947
341.538
340.926
340.755
352.084
352.233
352.381
352.421
352.463
352.34
352.366
355.754
355.454
355.506
356.335
357.062
358.834
360.359
350.914
351.203
352.367
355.334
358.016
362.513
364.589
345.985
346.58
346.963
347.375
347.877
348.907
349.209
350.878
350.629
350.086
349.628
349.03
348.87
348.047
352.007
351.476
350.345
346.903
345.467
343.866
341.654
348.913
347.68
347.285
346.161
345.306
342.676
337.754
353.548
353.503
353.742
353.673
353.368
352.895
350.328
357.343
357.951
358.218
359.893
361.003
362.098
361.338
358.354
358.741
360.188
361.674
362.428
363.719
362.928
345.365
338.55
333.252
331.411
329.798
330.988
334.414
350.349
347.595
345.776
344.356
343.12
342.67
342.906
357.01
355.66
355.368
354.785
354.702
354.902
355.2
357.705
358.251
358.738
358.839
358.236
355.435
342.051
358.053
358.245
359.005
359.496
358.474
352.236
352.625
346.756
342.108
340.741
340.728
341.243
342.689
344.288
343.055
329.195
322.838
319.007
318.609
320.131
321.785
350.487
347.239
346.31
346.271
347.388
348.116
352.27
353.585
351.679
351.187
350.954
350.827
350.868
352.7
356.251
355.925
356.235
356.851
357.267
357.715
358.155
356.99
357.061
357.031
355.372
351.082
345.844
341.278
357.824
357.954
358.676
358.163
353.17
352.685
353.028
347.013
344.988
343.938
343.889
344.646
345.487
346.251
341.132
336.548
330.87
327.658
329.154
328.659
331.027
351.809
357.091
360.376
361.603
361.854
361.953
358.298
358.913
359.046
359.956
360.017
359.822
359.767
359.431
358.912
358.931
358.764
358.937
359.617
360.786
361.901
355.45
355.507
355.008
352.185
348.229
345.28
341.361
357.871
358.133
358.498
355.915
353.023
353.011
353.159
350.125
348.964
348.519
348.647
349.54
349.584
350.406
343.198
341.573
341.007
340.008
340.651
340.043
340.462
358.203
363.536
362.64
361.302
360.865
359.975
358.783
362.851
363.222
362.552
361.494
360.927
361.001
361.51
358.82
358.355
358.149
358.154
357.954
357.334
356.68
351.903
350.546
348.394
346.601
345.77
343.458
341.324
357.622
358.066
356.039
353.07
352.81
352.926
352.939
352.789
352.535
352.456
352.683
352.799
352.929
353.623
341.853
347.551
348.92
349.204
349.291
349.041
348.67
361.006
364.295
362.347
357.922
355.022
353.223
352.416
363.458
362.981
362.284
360.28
359.353
359.071
359.134
356.235
354.966
354.608
354.282
354.111
354.052
353.873
345.619
343.974
343.54
343.345
342.825
341.991
341.204
357.546
355.313
352.756
352.45
352.406
352.405
351.892
352.104
354.314
354.771
354.81
354.781
354.596
354.556
345.408
349.473
349.285
349.233
349.565
350.563
350.589
360.991
362
360.041
356.58
354.037
352.707
352.712
360.715
359.726
359.388
358.289
357.915
357.88
358.082
351.128
351.023
351.481
351.63
351.672
351.442
351.376
340.437
340.932
341.588
341.766
341.823
341.765
341.768
351.667
351.257
351.105
351.006
350.871
350.582
350.396
350.769
351.105
351.396
351.958
352.038
352.343
352.362
348.31
349.454
349.505
349.453
349.22
349.018
348.802
356.049
359.15
358.849
358.22
356.401
355.507
355.827
355.818
356.497
356.466
356.055
355.932
356.288
356.67
345.632
348.874
349.77
350.656
351.603
352.032
352.456
337.198
340.915
342.441
343.248
344.091
344.439
345.998
347.061
348.508
349.362
349.93
350.708
350.895
351.158
349.33
350.68
351.111
351.694
351.898
352.24
352.689
349.046
348.876
348.617
348.758
348.533
348.275
347.852
364.971
363.111
364.159
362.902
359.081
357.523
351.817
362.667
357.884
358.344
358.452
357.559
355.814
353.671
362.916
359.864
359.594
359.452
358.892
358.595
357.926
359.913
359.182
358.318
357.604
357.095
357.166
357.458
359.017
359.005
358.519
357.629
357.525
357.702
357.844
358.727
358.974
357.082
355.316
354.377
351.083
348.404
369.617
368.871
365.309
362.317
358.512
353.764
347.973
365.096
360.092
360.595
357.282
357.745
357.443
352.857
362.725
355.032
354.389
354.693
355.491
355.129
354.247
362.612
359.144
358.014
357.498
357.452
357.04
356.641
359.972
358.905
357.921
357.394
356.875
356.729
356.672
355.863
356.908
356.83
356.453
356.484
356.872
357.282
351.71
355.128
355.727
355.039
354.451
352.132
350.945
364.089
367.442
365.512
360.486
357.995
353.363
347.03
357.981
358.505
358.981
354.846
354.738
356.518
349.966
351.26
349.557
351.252
353.967
357.397
358.466
358.996
359.135
357.281
357.125
356.734
357.465
357.937
358.631
359.36
358.568
357.268
356.146
355.204
354.913
354.908
355.135
356.133
356.497
356.182
356.235
356.761
357.344
348.099
352.047
353.757
352.535
353.141
352.633
351.2
358.089
360.579
358.456
352.869
353.466
347.339
343.259
357.716
354.6
353.133
347.16
352.395
355.404
342.722
349.06
347.689
351.32
357.017
360.229
361.958
362.952
357.722
356.606
355.504
356.125
357.798
359.719
359.697
358.758
358.113
356.016
353.679
352.53
352.228
352.195
352.743
354.466
354.887
355.361
355.531
356.221
356.938
341.736
347.36
348.234
351.227
353.692
354.556
354.567
345.739
354.811
353.667
344.65
344.658
338.466
335.221
355.054
348.372
349.218
343.946
346.793
352.18
336.841
343.908
344.325
352.327
361.468
362.554
363.263
363.592
354.564
353.977
354.41
358.284
359.014
358.138
356.801
358.023
355.456
353.148
351.788
349.884
348.753
347.58
351.896
351.781
352.667
354.141
355.776
356.789
357.177
335.025
340.791
344.526
351.765
355.269
356.53
355.399
337.592
345.451
345.719
338.737
335.936
332.522
328.889
347.797
344.627
346.241
338.86
343.894
348.13
331.531
338.861
341.932
354.581
362.686
363.096
362.746
361.019
352.209
352.709
352.375
356.168
355.938
350.963
350.416
356.034
354.542
351.698
347.782
342.303
339.856
339.497
350.067
350.027
350.847
352.489
353.832
354.664
352.474
332.589
338.763
343.446
352.648
355.213
351.65
350.841
335.922
338.518
339.543
333.26
332.592
326.781
328.246
343.45
337.415
341.504
334.726
337.368
337.178
330.022
335.491
338.164
354.626
361.107
358.276
356.061
355.666
348.514
348.907
350.166
350.286
347.411
344.867
344.858
354.355
349.103
342.102
338.11
335.905
335.047
334.768
349.257
347.552
348.317
349.95
349.755
346.35
345.916
330.97
336.103
338.354
348.679
354.082
350.22
349.386
334.688
336.588
333.517
329.613
328.069
324.054
325.82
334.865
330.121
335.676
328.83
327.978
322.441
324.395
330.203
334.665
333.132
339.328
340.979
345.591
350.359
341.385
341.562
338.308
339.125
340.276
341.934
338.46
335.604
336.224
337.962
336.212
335.223
334.573
330.182
339.309
337.499
337.903
338.771
340.103
340.615
335.53
328.356
326.18
331.464
334.309
338.894
336.272
335.527
333.96
332.04
329.905
326.773
325.682
322.512
321.15
310.365
308.641
308.164
308.548
309.943
309.675
309.794
320.572
322.164
322.75
327.844
334.993
338.112
332.654
335.135
334.376
331.298
330.76
330.216
333.254
337.047
329.022
331.106
329.671
329.697
330.441
331.162
329.887
334.559
333.97
334.167
334.421
335.36
336.164
334.253
318.576
319.882
320.307
322.037
321.259
320.676
322.281
307.23
302.805
303.471
306.309
304.872
306.209
306.765
294.901
294.971
294.977
295.409
294.946
295.663
295.832
314.949
313.707
313.584
314.927
315.416
314.151
315.254
328.848
331.638
330.261
327.561
327.464
328.515
330.835
320.731
321.292
320.369
321.145
323.052
324.757
325.426
329.507
326.198
325.896
325.586
325.755
328.599
329.275
309.996
311.236
311.289
311.286
313.345
311.157
312.819
289.119
288.248
289.646
289.057
288.976
284.824
290.245
282.994
285.295
285.641
286.535
286.432
286.069
286.375
308.528
306.31
306.487
309.342
306.894
308.856
306.085
326.821
327.681
325.702
324.672
324.291
324.267
326.912
315.073
315.122
314.734
316.029
317.604
319.501
321.105
323.735
320.667
319.704
319.895
320.216
319.925
318.289
306.302
304.33
304.769
307.71
308.507
308.628
308.632
280.51
280.132
278.639
280.582
280.295
280.328
280.441
280.608
280.657
280.653
280.748
280.867
280.84
280.9
303.551
303.326
303.818
304.475
303.799
303.615
303.608
321.599
321.125
320.171
319.829
320.3
321.024
321.084
309.618
308.708
308.775
310.147
311.756
313.245
313.457
321.823
319.162
317.755
317.744
318.564
319.102
316.374
302.363
302.305
302.539
302.606
302.686
302.705
302.541
277.168
277.204
277.009
277.179
277.246
277.289
277.244
280.289
280.456
280.429
280.435
280.484
280.442
280.474
303.154
302.949
303.204
303.071
303.06
302.933
302.966
320.665
320.189
319.723
319.532
320.785
321.9
320.914
306.88
305.913
306.208
307.592
309.328
310.779
310.378
321.814
319.554
318.106
317.667
318.793
319.758
316.84
302.309
302.301
302.464
302.368
302.438
302.472
302.224
277.571
277.637
277.533
277.836
277.829
277.864
278.2
292.558
292.213
292.335
292.114
292.176
292.116
292.171
305.268
305.181
305.245
305.168
305.201
305.152
305.195
312.729
312.774
314.022
314.404
315.939
316.987
314.618
291.357
290.56
291.593
293.126
295.043
295.94
294.011
315.405
313.63
312.305
311.277
312.473
313.513
310.69
305.334
305.234
305.373
305.29
305.342
305.336
305.272
292.625
292.089
292.647
292.098
292.096
292.097
292.093
343.482
350.18
356.671
360.436
365.688
364.039
365.855
349.029
353.84
355.429
358.703
360.644
359.354
365.093
359.751
360.132
360.348
361.446
361.786
361.882
364.729
357.594
357.155
357.253
357.689
358.78
359.551
360.075
356.775
357.323
358.223
359.249
359.66
360.619
363.325
352.957
354.014
356.822
357.674
358.922
359.003
363.703
352.731
354.901
358.704
362.125
364.948
364.826
364.858
343.151
349.175
353.109
356.401
360.68
359.524
364.144
348.36
349.604
351.255
351.747
352.865
353.99
362.152
358.025
357.794
357.808
357.913
359.164
359.955
363.049
356.597
356.365
356.341
356.598
357.33
358.42
359.475
356.98
357.103
357.274
357.802
358.393
359.349
360.443
356.944
357.363
357.57
357.864
356.932
356.132
356.227
355.833
356.608
358.528
361.363
364.162
362.854
363.199
339.156
344.266
347.002
350.238
355.178
355.158
358.878
349.32
350.095
350.295
349.614
349.86
350.141
351.122
357.816
357.186
356.889
356.875
357.821
358.558
359.618
355.324
355.375
355.493
355.935
356.821
357.731
358.9
360.537
359.701
358.711
358.055
357.634
357.671
356.991
363.332
363.802
362.808
361.283
357.067
354.202
351.027
356.968
355.392
356.454
355.504
359.105
359.504
359.221
338.962
341.41
344.676
348.413
350.953
349.379
356.959
351.515
352.146
352.003
350.457
349.363
348.005
346.718
356.781
356.097
355.869
356.247
356.77
356.843
356.449
351.945
352.946
353.149
353.899
354.995
357.05
358.622
361.918
360.71
359.831
358.517
357.37
356.87
355.614
365.352
366.381
366.457
365.661
360.064
354.935
349.895
357.296
352.84
351.158
351.554
355.662
353.693
358.383
337.8
340.177
343.255
342.972
349.473
344.691
353.321
349.496
353.002
354.42
349.506
348.87
345.788
341.709
355.525
356.285
355.732
354.409
354.44
354.028
353.922
346.81
348.153
350.881
352.507
354.011
355.59
357.054
358.83
360.202
361.43
360.18
357.506
355.393
352.8
364.148
365.509
366.662
366.658
365.259
355.142
344.395
355.918
348.934
348.754
344.749
350.151
349.52
354.235
337.598
336.219
341.058
336.463
347.375
341.77
350.888
345.842
349.254
357.279
347.632
343.901
344.836
339.547
351.016
352.407
353.068
352.138
352.839
352.978
352.899
340.199
340.187
342.385
347.439
351.952
354.642
356.04
352.427
353.02
358.546
358.565
356.546
354.72
352.077
362.66
363.319
365.018
366.163
366.592
356.625
341.84
352.368
345.732
342.138
341.402
348.558
344.953
348.956
334.633
330.458
336.544
329.681
341.486
336.218
340.874
347.516
351.188
356.908
346.559
341.512
337.796
334.464
340.575
342.748
347.29
348.739
348.542
348.988
349.141
336.746
336.787
337.549
339.002
342.529
347.221
354.12
349.941
349.996
350.122
353.401
354.37
351.841
349.139
361.384
362.108
363.019
365.832
366.506
356.798
339.22
345.46
340.698
339.715
339.283
345.723
342.4
345.144
327.723
326.234
322.787
325.232
332.964
325.019
331.627
337.108
333.434
333.263
332.328
330.513
325.592
327.399
326.403
331.876
334.532
335.921
338.43
339.813
338.963
328.679
334.039
336.323
337.443
339.648
340.769
337.178
340.693
345.183
346.223
349.215
349.821
346.102
344.56
342.097
343.974
350.808
353.637
356.353
350.62
336.603
338.214
334.929
336.569
336.821
336.218
322.84
340.424
301.268
302.213
299.655
302.042
294.839
300.699
302.056
319.547
319.568
319.295
319.071
316.748
317.181
313.513
325.676
329.103
331.148
331.904
332.62
330.806
331.799
327.108
329.797
331.222
331.34
330.019
329.143
328.661
337.452
336.099
333.585
334.521
334.482
334.62
332.972
321.097
323.305
330.656
332.503
332.652
326.073
322.885
315.687
306.999
315.22
314.387
314.812
303.936
306.683
287.951
287.768
287.206
286.08
286.678
286.591
286.329
310.581
310.402
310.326
309.296
310.206
308.201
308.48
321.96
326.359
323.745
323.9
324.616
327.4
326.747
322.724
323.553
322.917
321.921
319.588
317.694
321.675
327.322
330.896
328.305
330.748
330.936
331.496
331.24
314.586
314.156
315.536
316.428
314.659
316.525
316.426
297.78
298.046
298
298.374
297.268
297.304
298.24
280.242
279.419
279.25
279.18
280.165
280.157
280.208
307.209
307.762
307.257
306.323
304.641
305.597
305.957
313.813
318.299
317.963
318.234
319.131
319.907
320.157
313.066
317.317
317.762
317.099
314.367
312.46
311.944
324.773
325.044
322.674
324.777
323.521
324.451
325.684
306.385
306.301
308.849
308.873
308.226
306.048
306.433
285.199
285.23
285.454
285.458
285.59
285.532
285.833
277.708
278.257
278.264
277.727
277.836
277.876
277.994
302.062
304.154
303.775
302.26
302.15
302.111
302.225
311.473
315.151
315.352
316.312
317.515
318.205
318.895
310.235
311.501
312.331
311.683
309.811
308.3
310.189
321.111
319.943
319.727
318.929
319.591
320.205
321.249
304.002
304.03
304.216
303.664
303.422
303.252
303.271
280.513
280.408
280.464
280.414
280.439
280.316
280.415
278.649
279.262
279.194
278.557
278.382
278.314
278.342
302.501
303.496
303.351
302.504
302.494
302.346
302.359
312.245
314.658
314.777
316.3
317.744
318.335
319.128
308.286
309.297
310.017
309.176
307.64
306.165
304.72
321.619
320.09
320.798
319.187
319.83
319.972
320.819
302.883
302.818
302.842
302.973
302.865