/*--------------------------------*- C++ -*----------------------------------*\
  =========                 |
  \\      /  F ield         | OpenFOAM: The Open Source CFD Toolbox
   \\    /   O peration     | Website:  https://openfoam.org
    \\  /    A nd           | Version:  6
     \\/     M anipulation  |
\*---------------------------------------------------------------------------*/
FoamFile
{
    version     2.0;
    format      ascii;
    class       volVectorField;
    location    "0.0075";
    object      U;
}
// * * * * * * * * * * * * * * * * * * * * * * * * * * * * * * * * * * * * * //

dimensions      [0 1 -1 0 0 0 0];

internalField   nonuniform List<vector> 
3773
(
(37.7986 -0.0303844 0.39674)
(37.1932 0.0220537 0.384922)
(37.1924 0.0180079 0.375463)
(37.2398 9.9047e-05 0.376205)
(37.2729 -0.0117682 0.381276)
(37.3581 -0.0194252 0.389726)
(37.992 0.0262874 0.405085)
(10.7043 0.0188741 -0.0347527)
(10.6667 -0.0472467 -0.030746)
(10.6858 -0.0413833 -0.0152725)
(10.6729 -0.00993122 -0.0161584)
(10.6483 -0.00478805 -0.0164689)
(10.6608 0.0145151 0.00115604)
(10.6901 -0.0153499 0.00362563)
(4.30657 0.0308995 0.0368812)
(4.29651 -0.0132205 0.0418145)
(4.29739 -0.0244889 0.0511214)
(4.29702 0.0191571 0.0492367)
(4.29679 0.0287701 0.0511521)
(4.29734 0.0170986 0.0646668)
(4.30648 -0.0115362 0.0547703)
(-4.29141e-05 0.0064969 0.0475676)
(-2.9098e-05 0.0159538 0.0481088)
(-2.93936e-05 0.0184529 0.0486836)
(-2.50502e-05 -0.00574662 0.0478194)
(-1.82748e-05 -0.0217836 0.0448619)
(-2.76798e-05 -0.0231024 0.0374716)
(-6.32918e-07 -0.0150379 0.0401603)
(-4.30759 0.0260718 0.0395156)
(-4.30058 -0.0188891 0.0414533)
(-4.29862 -0.0334372 0.0466769)
(-4.29788 0.00620283 0.0472452)
(-4.29749 0.0191955 0.0476913)
(-4.29801 0.0139258 0.0594326)
(-4.30721 -0.00983105 0.0496744)
(-10.6981 0.0176696 -0.0472835)
(-10.6883 -0.04033 -0.0375143)
(-10.6764 -0.0197362 -0.0201089)
(-10.6574 0.0139654 -0.0204877)
(-10.651 0.0184507 -0.0208457)
(-10.6704 0.0371712 -0.00244514)
(-10.6961 -0.00553665 0.001623)
(-38.0465 -0.022579 0.407048)
(-37.5992 0.0218171 0.3991)
(-37.5205 0.0207208 0.394035)
(-37.4709 0.00634283 0.390952)
(-37.3934 -0.0132394 0.387781)
(-37.4135 -0.0245939 0.395716)
(-38.0991 0.0193702 0.419546)
(30.2128 -0.0520123 0.821438)
(29.5232 0.0257359 0.821414)
(29.4866 0.0315807 0.808304)
(29.5445 0.0188166 0.807173)
(29.7066 0.0107738 0.795843)
(29.8529 -0.006179 0.784983)
(30.3503 0.046016 0.808207)
(9.09152 0.00865271 -0.125076)
(9.20446 -0.0542049 -0.116348)
(9.22684 -0.0474852 -0.0900375)
(9.21955 -0.00194922 -0.095453)
(9.20238 0.016883 -0.105399)
(9.22213 0.0342147 -0.0810237)
(9.12353 -0.00188574 -0.0891296)
(3.8872 0.0375778 0.0253813)
(3.86866 -0.0114529 0.0284355)
(3.87584 -0.0286296 0.0519055)
(3.87412 0.0202484 0.0455888)
(3.87548 0.0411242 0.0438174)
(3.87703 0.0255975 0.06541)
(3.88684 -0.0157115 0.0447146)
(-4.13892e-05 0.0072937 0.0327342)
(-3.41203e-05 0.0207328 0.0296862)
(-2.87845e-05 0.0234961 0.0297187)
(-2.55209e-05 -0.00952839 0.0291574)
(-1.72171e-05 -0.0306764 0.0235932)
(-2.40677e-05 -0.0284811 0.0123943)
(-3.20776e-06 -0.0161872 0.0193592)
(-3.88987 0.0311862 0.0232064)
(-3.88004 -0.0214607 0.0242467)
(-3.87957 -0.0380531 0.0397318)
(-3.87785 0.00886666 0.0390618)
(-3.87477 0.031067 0.0380178)
(-3.8786 0.0214355 0.0564469)
(-3.89013 -0.0137309 0.0375713)
(-9.11491 0.0150434 -0.144665)
(-9.08687 -0.0460501 -0.125552)
(-9.21871 -0.0324045 -0.106208)
(-9.20873 0.0137811 -0.113819)
(-9.20775 0.032309 -0.110871)
(-9.22811 0.0518437 -0.0810313)
(-9.11802 0.0046735 -0.0926877)
(-30.5225 -0.0357052 0.833309)
(-29.9583 0.0183541 0.818951)
(-29.9823 0.00682973 0.817657)
(-30.0021 -0.00453624 0.803896)
(-29.7964 -0.0180022 0.819244)
(-29.8088 -0.0314225 0.81514)
(-30.4675 0.0290812 0.834938)
(27.1206 -0.0765568 0.926448)
(26.7644 0.00507268 0.878957)
(26.6369 0.0310791 0.858315)
(26.6576 0.0377785 0.856558)
(26.8066 0.0326205 0.889175)
(26.943 0.0147178 0.917038)
(27.1685 0.0708987 0.943658)
(8.81277 -0.000871066 -0.0303742)
(9.00151 -0.0445485 -0.0436038)
(8.96151 -0.0389033 -0.0252404)
(8.94424 -0.00533997 -0.0331416)
(8.89966 0.0186669 -0.0387427)
(8.93759 0.032446 -0.0280204)
(8.8152 0.00391769 -0.0446735)
(3.87134 0.0363862 0.0631009)
(3.83149 -0.0092209 0.0524829)
(3.8593 -0.0262119 0.0806573)
(3.85954 0.0164824 0.0698841)
(3.8522 0.0431109 0.0618974)
(3.82493 0.0273523 0.0717251)
(3.86643 -0.0196601 0.0504211)
(-4.55936e-05 0.00765997 0.0357202)
(-3.29106e-05 0.0185915 0.0319427)
(-3.49932e-05 0.0217211 0.0222742)
(-2.91556e-05 -0.0105856 0.021177)
(-1.65563e-05 -0.033491 0.0170488)
(-2.16341e-05 -0.0275659 0.0176879)
(-7.3618e-06 -0.0153601 0.0281707)
(-3.86939 0.0304109 0.0540102)
(-3.838 -0.0202674 0.0460129)
(-3.83806 -0.0369312 0.0655403)
(-3.84721 0.0072802 0.060745)
(-3.85682 0.0330935 0.0563881)
(-3.84268 0.0216613 0.0644199)
(-3.86743 -0.0172775 0.0470088)
(-8.82359 0.00433394 -0.0377136)
(-8.8986 -0.0405981 -0.0401442)
(-8.95401 -0.0300875 -0.0318683)
(-8.84594 0.00435779 -0.0263284)
(-8.94793 0.0320046 -0.0506168)
(-8.97598 0.045321 -0.0343486)
(-8.82325 0.00634783 -0.0495577)
(-27.2403 -0.0575756 0.97199)
(-26.9675 -0.00321339 0.944879)
(-26.8825 -0.0114847 0.918078)
(-26.8221 -0.0172821 0.932089)
(-26.7786 -0.0254478 0.907104)
(-26.9095 -0.0185907 0.923598)
(-27.2094 0.0519532 0.980366)
(26.3105 -0.0876837 0.655691)
(26.5077 0.00346422 0.64605)
(26.3694 0.0297098 0.639327)
(26.3913 0.037004 0.632369)
(26.2415 0.0365214 0.64277)
(26.227 0.0214987 0.65808)
(26.318 0.0819073 0.670216)
(8.79659 0.00173926 -0.00539659)
(9.08375 -0.0344054 -0.0342477)
(9.05722 -0.0392805 -0.0103918)
(9.04554 -0.0154219 -0.0204712)
(8.89939 0.0122752 -0.0153493)
(8.90482 0.0266286 -0.00838822)
(8.79328 0.00173454 -0.0209138)
(3.8689 0.034028 0.0652785)
(3.83156 -0.0045668 0.0524032)
(3.83913 -0.0229546 0.0881992)
(3.8406 0.0122328 0.0764801)
(3.85021 0.0429645 0.0692188)
(3.82162 0.0245213 0.0677143)
(3.86544 -0.0227793 0.0537967)
(-5.50759e-05 0.00949602 0.0434518)
(-4.1782e-05 0.0169596 0.0385895)
(-3.38189e-05 0.0169703 0.0219166)
(-2.69601e-05 -0.0113952 0.0189049)
(-1.4249e-05 -0.0317947 0.0206775)
(-1.26896e-05 -0.024409 0.0341599)
(-1.07223e-05 -0.0143371 0.0425083)
(-3.86753 0.0283961 0.0571344)
(-3.82034 -0.016537 0.0482012)
(-3.8519 -0.0327848 0.073979)
(-3.86864 0.00570068 0.0672702)
(-3.85276 0.0348869 0.0615812)
(-3.82761 0.0207267 0.0638766)
(-3.86515 -0.020632 0.0494462)
(-8.79843 0.00229283 -0.0135116)
(-8.91638 -0.0334964 -0.0203938)
(-8.91845 -0.0255682 -0.00545879)
(-8.84034 0.00285634 -0.0152213)
(-8.96217 0.0347499 -0.0260629)
(-9.00888 0.0389464 -0.0163797)
(-8.8002 0.00105419 -0.0246588)
(-26.3217 -0.0726107 0.69359)
(-26.2333 -0.0103475 0.684996)
(-26.2576 -0.0106643 0.667479)
(-26.0202 -0.0225752 0.63823)
(-26.3038 -0.0262614 0.671346)
(-26.3781 -0.0135528 0.674673)
(-26.3284 0.0667766 0.703301)
(26.173 -0.0831548 0.442294)
(26.325 0.00265739 0.482666)
(26.2814 0.0279323 0.460155)
(26.277 0.0327641 0.446739)
(26.1258 0.0385264 0.42213)
(26.0775 0.0261671 0.436007)
(26.168 0.0843794 0.440783)
(8.79956 0.00475929 0.0340351)
(9.03626 -0.0300236 0.008672)
(9.00428 -0.036487 0.0245634)
(9.01348 -0.0186413 0.0230763)
(8.93213 0.0112527 0.027055)
(8.93216 0.0236566 0.0338811)
(8.80334 -0.00289498 0.0235052)
(3.86989 0.0312711 0.0687142)
(3.82852 8.74758e-05 0.0579506)
(3.82475 -0.018785 0.0889452)
(3.83658 0.00906336 0.0768767)
(3.83135 0.0420366 0.0744662)
(3.81103 0.0208267 0.0708207)
(3.86917 -0.0241855 0.0626878)
(-6.47953e-05 0.00755858 0.0512185)
(-4.47167e-05 0.0116954 0.0406071)
(-3.98102e-05 0.0118958 0.0263153)
(-2.67509e-05 -0.0102709 0.0230011)
(-1.17188e-05 -0.0251357 0.0302227)
(-7.79728e-06 -0.0192111 0.0446965)
(-1.26035e-05 -0.0118593 0.0489494)
(-3.86864 0.0262583 0.0636395)
(-3.82062 -0.0125166 0.0578828)
(-3.83911 -0.0292415 0.0848982)
(-3.85188 0.00289265 0.0783345)
(-3.84526 0.0332238 0.0654372)
(-3.82135 0.017477 0.0665092)
(-3.86842 -0.0228407 0.0572041)
(-8.8079 0.00387061 0.0239866)
(-8.94276 -0.0275357 0.0104944)
(-8.92129 -0.0230019 0.0405311)
(-8.93004 0.00207911 0.0185306)
(-8.94288 0.0325384 0.0209655)
(-8.97862 0.0348509 0.0301062)
(-8.80593 -0.00475256 0.0217597)
(-26.1754 -0.0737341 0.457844)
(-26.1141 -0.0138276 0.460153)
(-26.1169 -0.0132896 0.44175)
(-26.0175 -0.0198729 0.447854)
(-26.2139 -0.0242195 0.447894)
(-26.1718 -0.00896035 0.463654)
(-26.1712 0.0708369 0.468945)
(26.1855 -0.0730962 0.231443)
(26.2327 0.0106789 0.272562)
(26.059 0.023212 0.274953)
(26.2653 0.0235647 0.253414)
(26.1913 0.0298196 0.227088)
(26.1244 0.0274217 0.23306)
(26.1764 0.0849856 0.226456)
(8.87487 0.00436974 0.0651935)
(9.03352 -0.0311035 0.0541294)
(9.06022 -0.0305683 0.0740104)
(9.06004 -0.0168428 0.0770889)
(9.02349 0.00578306 0.0815991)
(9.02202 0.0200945 0.0888511)
(8.86506 -0.00763372 0.0772775)
(3.87745 0.029079 0.0856854)
(3.82437 0.00436853 0.0738401)
(3.8262 -0.0151284 0.0957032)
(3.81983 0.00664517 0.0894562)
(3.81655 0.0397134 0.0896376)
(3.81293 0.0184716 0.0884126)
(3.87361 -0.0258142 0.0827659)
(-7.22587e-05 0.0037682 0.0503743)
(-3.97649e-05 0.00558241 0.0463534)
(-4.39906e-05 0.00919375 0.0370507)
(-2.80674e-05 -0.00890774 0.0339164)
(-5.95532e-06 -0.0218248 0.039953)
(-2.02036e-06 -0.017455 0.0422052)
(-1.28802e-05 -0.0101997 0.0481821)
(-3.87495 0.0252464 0.0799188)
(-3.82588 -0.00737798 0.0698852)
(-3.82234 -0.0248569 0.0961602)
(-3.82544 -0.00220196 0.0927329)
(-3.82249 0.0288585 0.0837306)
(-3.83126 0.0146792 0.0859898)
(-3.87422 -0.024374 0.0812031)
(-8.88085 0.00244613 0.0583322)
(-9.04308 -0.0211034 0.0527632)
(-9.03011 -0.0170356 0.0849417)
(-9.06797 -0.000755312 0.0747286)
(-9.06655 0.0360458 0.0740743)
(-9.00117 0.0327556 0.0813964)
(-8.87339 -0.0085607 0.0694439)
(-26.1927 -0.0711223 0.243063)
(-26.049 -0.0145507 0.268052)
(-26.1439 -0.0152742 0.235562)
(-26.0045 -0.0153305 0.24912)
(-26.3147 -0.0227396 0.257292)
(-26.1559 -0.00967715 0.250739)
(-26.1808 0.0715219 0.243589)
(25.8295 -0.074766 0.211979)
(25.5921 0.0155199 0.232506)
(25.7355 0.0218517 0.233419)
(25.8375 0.0209392 0.228274)
(25.8216 0.0305457 0.214018)
(25.829 0.0324737 0.222992)
(25.8396 0.0885273 0.212674)
(8.90296 0.00273483 0.0180846)
(8.96713 -0.0279991 0.0187561)
(8.90277 -0.0242793 0.0400349)
(8.92218 -0.0137831 0.0373211)
(8.92639 0.0108671 0.038758)
(8.94264 0.0245392 0.0490842)
(8.9042 -0.00897542 0.0392371)
(3.84047 0.0300263 0.0349648)
(3.84331 0.00548558 0.0221786)
(3.82712 -0.0131418 0.0352022)
(3.83331 0.00724864 0.0355386)
(3.82357 0.04567 0.0348353)
(3.83486 0.0205816 0.0357825)
(3.82891 -0.0314154 0.0326234)
(-7.72906e-05 0.00517954 -0.00136922)
(-3.212e-05 0.00473906 0.000654092)
(-4.33405e-05 0.00783092 -0.00472337)
(-2.21665e-05 -0.00983237 -0.00645593)
(4.27997e-07 -0.0254641 -0.00373891)
(-1.9057e-06 -0.0192003 -0.00670877)
(-1.29872e-05 -0.0116656 -0.00233741)
(-3.84 0.0250611 0.0286687)
(-3.8873 -0.00755935 0.0143077)
(-3.83658 -0.0227923 0.03414)
(-3.82674 -0.00255621 0.0323636)
(-3.89907 0.0354276 0.031688)
(-3.83945 0.0194275 0.0364432)
(-3.82961 -0.0291301 0.0344506)
(-8.91602 0.00213504 0.0150299)
(-8.68189 -0.0202702 0.0298122)
(-8.94072 -0.0133601 0.0394839)
(-8.92966 -0.00351396 0.0375064)
(-8.75454 0.035819 0.0373669)
(-8.93824 0.032899 0.0394876)
(-8.91105 -0.0111991 0.028143)
(-25.8652 -0.070582 0.221824)
(-25.6989 -0.0201716 0.245477)
(-25.8306 -0.0223002 0.22307)
(-25.7648 -0.0153778 0.227765)
(-25.5892 -0.0282188 0.23309)
(-25.8443 -0.0125538 0.223391)
(-25.8514 0.0773236 0.218435)
(37.7735 -29.8705 -11.7101)
(38.9284 -17.4164 -50.582)
(39.2173 -6.89134 -62.0937)
(39.0763 7.24103 -63.1435)
(38.9832 11.5985 -52.5891)
(38.4262 18.3786 -42.2516)
(37.7474 28.3408 -11.7326)
(9.61605 -22.9905 -5.79824)
(10.2152 -21.384 -35.0854)
(10.2719 -5.83931 -40.4211)
(10.4437 4.56711 -43.0568)
(10.3246 9.05728 -37.9162)
(10.2385 20.4921 -33.685)
(9.68163 23.3087 -7.31069)
(3.44969 -6.31931 5.25657)
(3.65197 -7.25302 -1.28805)
(3.70802 -4.17011 -5.66752)
(3.73459 0.297122 -7.06769)
(3.70916 3.81774 -5.58635)
(3.66765 7.67199 -2.12832)
(3.47605 7.15132 4.86921)
(-0.00814483 0.409216 4.05861)
(-0.00511904 1.52573 3.29713)
(-0.00481756 1.7936 2.88958)
(-0.00502447 0.106222 2.9544)
(-0.00342756 -1.77035 2.8529)
(-0.00222352 -1.47628 3.16868)
(-0.00590103 -0.301174 3.96866)
(-3.45358 -4.83085 5.27892)
(-3.6256 -6.55313 0.872895)
(-3.66727 -4.63215 -2.4177)
(-3.68441 -2.10701 -4.37452)
(-3.65303 1.53653 -3.34809)
(-3.59311 4.20308 -0.0547658)
(-3.4193 3.93581 4.6329)
(-9.26716 -19.5438 0.222617)
(-9.93606 -20.1592 -24.9557)
(-10.0517 -8.53447 -30.7067)
(-10.2059 -3.35655 -32.9499)
(-10.0806 5.65411 -31.2148)
(-9.93444 14.8139 -25.1963)
(-9.20346 15.7883 -1.52385)
(-36.3872 -25.733 -9.47343)
(-37.5046 -15.4612 -42.8056)
(-38.0292 -5.85646 -50.0392)
(-38.5829 2.14625 -47.2736)
(-38.7787 10.6209 -45.4692)
(-38.6223 14.9201 -39.7443)
(-36.7191 20.4994 -14.6056)
(36.9543 -23.4381 15.8557)
(38.8118 -4.90262 -54.1838)
(39.2259 -4.03521 -75.4769)
(39.2024 2.68061 -72.6429)
(38.8706 0.156632 -52.5496)
(37.7795 9.29959 -35.8692)
(37.1418 23.845 17.2372)
(9.24115 -15.7206 21.6683)
(9.87442 -3.66095 2.7569)
(10.2784 -1.52189 -21.6974)
(10.6302 6.21286 -32.6999)
(10.4148 7.66014 -23.3401)
(10.0109 7.42263 1.93001)
(9.41545 18.0683 20.9119)
(3.48478 -1.80983 17.9428)
(3.66564 -1.04144 12.306)
(3.76643 -0.220892 8.87925)
(3.83997 0.682221 8.53712)
(3.78961 0.920466 8.96711)
(3.69118 1.96845 11.835)
(3.51008 2.88205 18.3934)
(-0.000554602 0.935852 11.3268)
(0.00158835 2.33865 10.472)
(0.00138562 2.33297 9.77494)
(0.00377189 0.145307 9.60701)
(0.00696389 -2.13204 9.64778)
(0.00899811 -2.16663 10.2202)
(0.00615859 -0.811248 11.0817)
(-3.51144 -1.88515 14.9364)
(-3.67544 -2.09405 10.2535)
(-3.77385 -1.88977 8.0108)
(-3.80656 -2.49225 6.34798)
(-3.74357 -1.46017 6.65716)
(-3.64439 -0.350034 8.77016)
(-3.48181 0.840337 13.263)
(-9.06913 -13.4894 19.1081)
(-9.8471 -7.77689 -2.23206)
(-10.1588 -7.03474 -18.7419)
(-10.4174 -5.35567 -27.6828)
(-10.175 0.688581 -19.7157)
(-9.7695 1.9806 -4.70075)
(-8.95621 8.26288 16.1721)
(-35.4149 -21.8572 16.0318)
(-36.9159 2.38605 -47.1255)
(-37.8969 3.99505 -65.4024)
(-38.5615 9.17927 -64.7931)
(-38.9403 10.7415 -55.3297)
(-38.8409 10.378 -40.1742)
(-35.6185 12.5861 9.72292)
(34.3419 -10.0878 21.4728)
(38.6411 -3.36442 -65.2708)
(38.9294 -2.45433 -85.2978)
(39.2886 -1.01508 -83.2255)
(38.7378 -4.23532 -61.2232)
(36.8344 4.34198 -44.1727)
(35.0496 11.8725 26.8632)
(8.9524 -3.83498 25.1525)
(9.65377 0.968084 -7.03292)
(10.4688 9.88692 -31.7343)
(10.776 7.68907 -37.3275)
(10.6814 8.5854 -28.4155)
(9.95911 4.35175 -1.75965)
(9.11398 7.3364 28.7481)
(3.52542 0.481338 20.0519)
(3.67692 2.21671 14.5136)
(3.81069 2.75383 12.7404)
(3.90379 1.43305 12.0608)
(3.85151 -0.379945 13.2285)
(3.70926 -0.613594 15.6308)
(3.5464 0.550536 21.6325)
(0.00330455 0.792781 16.1856)
(0.0049591 2.01105 15.2185)
(0.00610759 2.07942 14.5327)
(0.0067995 0.126859 14.1749)
(0.0101401 -1.98656 14.3811)
(0.015154 -1.98558 14.9269)
(0.017766 -0.77512 15.8381)
(-3.57187 -0.425637 18.2201)
(-3.70651 -0.153781 13.8659)
(-3.84151 -1.09437 12.882)
(-3.87636 -3.04529 10.2378)
(-3.81162 -3.71388 10.5648)
(-3.66672 -2.51476 12.173)
(-3.56495 -0.568483 15.2909)
(-8.92684 -4.87227 22.7481)
(-9.84906 -3.9067 -2.18232)
(-10.358 -7.78329 -18.7897)
(-10.6014 -7.39187 -32.3821)
(-10.4791 -9.10213 -29.687)
(-9.65721 -1.66863 -5.71566)
(-9.05953 2.50146 14.6848)
(-32.7 -10.1673 23.2978)
(-36.4203 8.72721 -56.5399)
(-37.5909 13.5892 -75.6378)
(-38.3476 12.9981 -74.1639)
(-39.0084 10.2749 -63.2503)
(-39.0399 9.23428 -46.5418)
(-35.8657 6.21965 5.2269)
(34.383 -0.381513 6.53607)
(38.8701 -2.12456 -65.7981)
(39.1434 -1.18391 -87.262)
(39.4429 -4.88232 -86.2773)
(38.8316 -10.3994 -61.6412)
(36.6674 -0.49748 -42.6282)
(33.8025 1.60509 18.006)
(9.02747 1.33426 13.8175)
(9.71155 3.271 -9.93535)
(10.7349 11.9632 -39.2335)
(10.8905 7.59917 -37.7241)
(10.8143 4.98861 -27.359)
(9.94514 -0.237871 -1.38208)
(9.07896 1.53109 23.0447)
(3.57203 1.40336 19.4118)
(3.68606 3.08233 15.8718)
(3.85242 4.12749 13.944)
(3.94224 2.364 16.331)
(3.89962 -0.478432 16.4685)
(3.73594 -1.37791 17.742)
(3.59 -0.636366 22.0576)
(0.00247455 0.556185 20.7407)
(0.00109959 1.38574 20.0646)
(0.00322352 1.3705 19.5208)
(0.0048938 0.00220124 19.4589)
(0.00960925 -1.47849 19.4508)
(0.0141307 -1.59663 19.6999)
(0.018364 -0.61854 20.063)
(-3.6181 0.418436 19.861)
(-3.73681 0.718507 16.8665)
(-3.88717 -0.677524 15.656)
(-3.93271 -3.54012 15.3689)
(-3.8528 -4.87525 13.4762)
(-3.72096 -3.27384 13.4424)
(-3.59775 -1.10656 16.2657)
(-8.98885 0.523588 15.5939)
(-9.71623 2.67308 -0.726673)
(-10.4162 0.479726 -17.7892)
(-10.6847 -0.51598 -32.3604)
(-10.706 -7.17199 -37.4575)
(-10.0706 -1.62001 -19.598)
(-9.31909 0.574757 5.82612)
(-33.507 1.57285 0.165202)
(-36.4887 16.3402 -58.4664)
(-37.7105 21.9394 -75.3341)
(-38.2723 22.7674 -74.7355)
(-39.1119 15.3409 -65.9067)
(-39.2594 7.39852 -46.7911)
(-36.7141 3.9325 -2.97897)
(37.1326 5.98302 -14.4471)
(39.2914 -8.20372 -71.234)
(39.3844 -5.88659 -89.4808)
(39.4655 -9.20485 -90.3082)
(38.8566 -12.8959 -64.7428)
(36.8709 -1.10427 -48.1301)
(35.463 -6.44582 -8.27423)
(9.5367 2.61574 -0.810202)
(10.1409 4.44806 -19.3412)
(10.8825 6.06456 -40.1559)
(10.9732 -4.41844 -30.1321)
(10.6099 -5.90547 -14.413)
(9.79909 -5.70967 0.401621)
(9.30322 -3.79442 10.292)
(3.62329 1.53841 19.1645)
(3.73496 3.02368 16.4133)
(3.87847 4.65509 16.1946)
(3.98213 3.32689 18.3694)
(3.92554 0.366768 18.4723)
(3.75481 -1.50656 18.3123)
(3.62959 -1.03191 21.2251)
(0.000649586 0.299448 23.8511)
(0.00150599 0.855111 23.479)
(-0.000265096 1.16067 23.3411)
(-0.000901537 0.0508931 23.42)
(-0.000255778 -1.49949 23.1956)
(0.00428578 -1.41622 22.9666)
(0.00661963 -0.606358 23.2118)
(-3.66056 0.735936 19.9198)
(-3.75962 0.8815 18.2196)
(-3.90783 -1.11985 18.104)
(-3.9634 -4.10522 18.4061)
(-3.8887 -5.0688 15.363)
(-3.78237 -3.45698 13.8193)
(-3.65412 -1.23371 16.8735)
(-9.43995 3.89186 0.300801)
(-9.73806 7.64319 -3.46611)
(-10.2144 10.4812 -9.85904)
(-10.5712 15.2094 -20.2229)
(-10.7677 8.0161 -34.7576)
(-10.5363 -0.928489 -27.4338)
(-9.6745 0.159741 -1.02504)
(-36.6985 3.79579 -45.5699)
(-37.7426 17.298 -80.1101)
(-38.1777 23.7627 -77.622)
(-38.718 26.0005 -72.7111)
(-39.3067 20.3977 -59.4039)
(-39.3274 3.28891 -35.005)
(-37.0416 2.57803 -4.91116)
(38.266 -3.44743 -25.7968)
(39.3992 -17.6698 -69.0907)
(39.2982 -12.4934 -88.3353)
(39.4897 -14.0438 -91.9687)
(38.855 -11.4578 -70.2533)
(36.9285 4.86123 -53.7291)
(36.2827 1.29676 -30.2665)
(9.95443 1.01393 -7.94777)
(10.6785 -0.684131 -31.9484)
(11.0084 -14.8846 -34.2291)
(10.9272 -15.874 -23.1304)
(10.4886 -10.1516 -13.6591)
(9.9875 -6.88131 -5.55429)
(9.72771 -2.43299 -6.05762)
(3.71603 1.6831 20.6865)
(3.81389 3.39954 17.6993)
(3.92043 4.19902 18.3258)
(3.99128 2.71437 21.3401)
(3.92483 -1.11015 20.9484)
(3.81067 -1.97669 20.0663)
(3.72526 -1.128 20.8652)
(0.00279328 0.246694 27.9713)
(0.000180812 0.58065 27.7348)
(-0.000662366 0.518448 27.3482)
(-0.00748376 -0.18038 27.0138)
(-0.01517 -1.17866 27.0793)
(-0.0116456 -1.48725 27.0678)
(-0.00602566 -0.675259 26.8639)
(-3.76276 0.982403 20.6087)
(-3.83617 1.51374 21.3432)
(-3.93653 0.18537 22.1366)
(-3.99064 -3.56663 22.1201)
(-3.93127 -4.62346 18.1819)
(-3.85209 -3.7266 15.5179)
(-3.74074 -1.90382 18.5489)
(-9.83318 1.34154 -18.3305)
(-10.177 8.65086 -21.9068)
(-10.2666 15.5646 -25.0748)
(-10.5331 19.2268 -19.8815)
(-10.7099 19.0602 -22.1507)
(-10.848 7.74468 -24.6758)
(-10.0997 0.510417 -8.04775)
(-37.9132 5.68124 -78.2395)
(-38.9017 14.735 -86.0155)
(-38.8347 23.464 -79.6735)
(-39.2167 24.9907 -68.5917)
(-39.5498 22.2043 -44.9599)
(-39.5904 3.65946 -24.8473)
(-37.5533 4.3738 -7.97514)
(38.9189 -19.1159 -26.9552)
(39.2631 -24.0268 -58.1095)
(39.0118 -20.8506 -80.1053)
(39.1158 -18.1577 -89.5041)
(38.8643 -11.3377 -74.8375)
(36.7496 8.46525 -52.27)
(36.4422 12.8423 -32.4178)
(10.3418 -3.74055 -16.1162)
(10.9714 -16.7678 -28.2996)
(10.9942 -22.3519 -26.7509)
(10.9575 -18.7538 -35.3172)
(10.7923 -15.6693 -41.6647)
(10.2972 0.844606 -27.826)
(9.91817 2.17632 -18.3148)
(3.77546 1.5088 20.9838)
(3.87358 2.5405 19.6879)
(3.94929 2.03955 20.9905)
(4.02371 0.115454 23.2222)
(3.95846 -1.97264 20.4778)
(3.83848 -1.4701 16.3024)
(3.76188 -1.3204 17.8712)
(0.0104656 0.539942 30.4959)
(0.00418063 0.403078 30.4873)
(-0.0096736 -0.889759 30.5896)
(-0.0121613 -0.910596 31.1324)
(-0.0216183 -1.08857 29.7291)
(-0.025467 -1.32012 29.0205)
(-0.0244463 -0.709695 29.091)
(-3.78967 1.32756 17.0608)
(-3.87551 2.22747 19.94)
(-3.99971 1.09588 23.0278)
(-4.04252 -1.24557 24.9921)
(-4.01588 -3.3653 20.5011)
(-3.93494 -2.62005 18.4083)
(-3.82305 -1.34597 19.4482)
(-10.1526 3.66487 -38.6216)
(-10.442 19.2571 -48.5541)
(-10.5235 21.696 -42.2326)
(-10.6869 22.231 -27.609)
(-10.8773 20.8693 -20.0177)
(-10.9105 17.0873 -18.4054)
(-10.4807 5.08943 -10.5046)
(-38.7276 6.55134 -83.8189)
(-38.9628 16.8191 -90.2054)
(-39.0991 22.9224 -79.7573)
(-39.3343 22.7854 -58.8664)
(-39.721 27.7574 -34.4765)
(-39.8516 13.4352 -19.4311)
(-38.5623 9.44001 -5.95487)
(38.3561 -22.9026 23.0791)
(39.165 -10.4642 -29.7322)
(38.8238 -9.31012 -57.7339)
(39.139 -8.98088 -85.3626)
(39.1771 -22.9041 -75.1)
(35.9551 -13.342 -43.8278)
(34.5719 10.4804 -22.7543)
(10.7004 -11.9005 2.97767)
(11.1127 -18.5208 -17.86)
(11.1104 -21.0756 -24.3949)
(10.9896 -19.0665 -43.968)
(10.842 -16.8644 -53.2862)
(10.5696 -10.5553 -46.8043)
(9.75376 0.966298 -15.1276)
(3.90104 -0.204596 20.47)
(3.98362 0.395354 20.8434)
(4.05234 -1.86996 22.4495)
(4.07811 -5.57558 21.5806)
(3.96577 -8.48404 13.1467)
(3.90197 -5.14992 6.78611)
(3.79785 -1.24863 7.50876)
(0.0171034 0.306454 25.1657)
(0.00117856 0.37511 26.0268)
(-0.0132211 0.367967 27.2305)
(-0.0235189 -1.13559 27.7828)
(-0.0370595 -2.46462 27.0773)
(-0.0521383 -2.20224 25.441)
(-0.0612155 -1.00077 24.7076)
(-3.87844 2.92643 4.56901)
(-3.96927 8.32288 12.7901)
(-4.07585 7.06891 20.6865)
(-4.14586 1.78012 23.7047)
(-4.09358 -1.01218 23.8777)
(-4.02684 -1.3425 22.1008)
(-3.96574 0.0653663 21.401)
(-11.0532 -0.585099 -67.6656)
(-10.9877 13.665 -59.9066)
(-11.0174 18.7361 -37.2867)
(-11.0137 20.4925 -22.5063)
(-11.0386 20.6486 -14.1841)
(-11.0438 17.3727 -10.92)
(-10.7634 12.1273 5.18249)
(-40.7431 2.74485 -88.9743)
(-40.0471 -2.00851 -91.7445)
(-39.4241 -15.7875 -60.8157)
(-39.5214 -2.68814 -28.6581)
(-39.9268 11.1552 -11.1534)
(-39.8377 5.05566 5.00538)
(-38.5518 9.57585 22.7281)
(37.7347 -15.9402 29.7343)
(39.4624 -7.96858 -1.23409)
(38.9778 4.45323 -40.6189)
(39.1787 17.4381 -93.7704)
(39.5748 -0.856787 -96.0846)
(37.3646 -21.4256 -51.9984)
(35.4479 7.52144 -42.482)
(10.5004 -8.55115 12.2543)
(11.173 -12.1049 0.702728)
(11.2265 -13.8724 -4.25969)
(11.1762 -12.5613 -31.9632)
(11.0793 -8.4721 -51.2219)
(10.9301 -12.0433 -47.8298)
(10.6373 -0.972285 -40.4512)
(3.93574 -0.0873006 22.4126)
(4.01122 0.1119 22.0712)
(4.1041 -2.55773 24.3023)
(4.12229 -7.58077 24.799)
(3.984 -11.5435 15.478)
(3.88835 -10.3646 7.3419)
(3.78549 -3.5361 4.59831)
(0.009027 0.32152 26.1113)
(-0.00451766 0.669348 26.732)
(-0.0142599 0.675134 28.1623)
(-0.0196097 -1.13206 29.0166)
(-0.035787 -2.38152 28.4266)
(-0.0544996 -2.25919 26.703)
(-0.0643024 -1.03151 25.8568)
(-3.88665 4.02017 4.71523)
(-3.97213 10.2536 14.8842)
(-4.07627 9.0801 21.9761)
(-4.17074 3.78393 24.9764)
(-4.14529 0.225535 25.0785)
(-4.07417 -0.868069 23.4112)
(-4.01928 0.645858 24.7183)
(-11.3021 -9.40338 -77.5324)
(-11.2192 3.25442 -59.2627)
(-11.1176 12.0951 -20.4784)
(-11.1777 11.9767 -10.2583)
(-11.172 7.96131 -4.76421)
(-11.1451 9.06824 0.646501)
(-10.6032 9.0923 13.6246)
(-40.8342 -6.60724 -102.147)
(-39.6418 -15.4803 -103.559)
(-39.3412 -27.8267 -63.8949)
(-39.6535 -4.46506 -18.9674)
(-40.2345 5.09221 -2.44814)
(-39.6705 -1.87723 10.9553)
(-37.7704 10.676 29.4385)
(37.3234 -11.0306 31.3139)
(38.9283 -7.10454 7.1942)
(39.201 8.0969 -42.5055)
(39.4258 32.88 -90.1484)
(39.7749 29.8068 -100.823)
(39.7624 -10.3304 -65.267)
(39.1156 5.79784 -44.8788)
(10.2294 -6.21534 19.3376)
(11.056 -5.50224 5.37271)
(11.1812 -6.43558 3.02828)
(11.1842 -4.20128 -15.7958)
(11.1843 10.457 -46.9827)
(11.224 -1.58872 -51.5051)
(11.2214 9.04361 -54.9415)
(3.94131 -0.497929 26.1305)
(4.01876 -3.19555 25.2321)
(4.07859 -6.36617 27.3964)
(4.07251 -12.3561 27.2325)
(3.95592 -16.9289 15.8195)
(3.88686 -12.8857 -2.67021)
(3.81585 -3.47527 -9.84692)
(0.00807074 1.20655 28.1641)
(-0.00473009 2.41096 28.9887)
(-0.0111063 2.4349 31.0575)
(-0.00932403 0.323363 32.3036)
(-0.0202763 -3.22871 31.7046)
(-0.0413964 -3.79148 29.082)
(-0.0606793 -1.43653 28.1855)
(-3.87964 3.83173 -5.55982)
(-3.897 12.0208 9.80573)
(-3.96798 13.5068 22.2023)
(-4.12896 8.49554 27.6066)
(-4.12509 3.37234 28.2284)
(-4.05589 0.948118 27.138)
(-4.00463 -0.0791527 27.6559)
(-11.3158 -20.9866 -74.7554)
(-11.2351 -5.27084 -54.6266)
(-11.0522 6.01183 -16.1422)
(-11.1707 6.55518 -4.24887)
(-11.1607 4.65194 -0.525782)
(-11.0171 4.59958 3.94215)
(-10.3212 7.84165 18.8048)
(-40.6607 -14.393 -105.869)
(-39.5679 -31.8784 -97.8726)
(-39.3769 -35.89 -62.2913)
(-39.6729 -11.5485 -20.3691)
(-39.7196 -0.699973 -5.22199)
(-38.9929 -5.90773 9.39046)
(-37.2956 8.88905 29.7769)
(36.0083 -1.46865 31.2241)
(38.2883 -14.7054 5.10035)
(39.1766 26.8736 -73.8983)
(39.6298 42.6467 -99.6962)
(39.8623 45.1991 -89.991)
(40.243 15.7472 -71.8152)
(40.4104 6.14435 -39.7265)
(10.2385 -6.56072 22.4643)
(11.1592 -9.42858 7.96613)
(11.3199 -3.49462 -6.2928)
(11.2146 -0.653182 -11.1146)
(11.2212 22.0691 -34.2812)
(11.2555 19.434 -46.2317)
(11.2684 24.8218 -49.4815)
(3.97166 -4.1431 25.6026)
(4.06301 -8.80723 20.8295)
(4.07738 -9.99049 23.0751)
(4.02612 -11.867 25.6965)
(3.98089 -14.7881 13.8775)
(3.98011 -8.91178 -10.0202)
(3.95018 1.78351 -19.4036)
(0.00477635 0.066174 30.3873)
(-0.0122802 1.43699 31.1249)
(-0.00944185 3.02523 33.3667)
(0.000403253 0.786962 34.6)
(0.002235 -2.69864 36.0757)
(-0.0149708 -3.46189 33.6)
(-0.0485262 -1.93262 30.2754)
(-4.03324 -1.46803 -23.5268)
(-3.96803 11.1413 -11.301)
(-3.93189 16.7706 16.1236)
(-4.00107 11.9504 27.3869)
(-4.04962 8.4704 28.9343)
(-4.02955 6.15317 28.0412)
(-3.98723 1.45924 28.8327)
(-11.2538 -24.1877 -66.2346)
(-11.2511 -13.5236 -51.7249)
(-11.0719 4.16906 -16.3678)
(-11.1117 7.13347 -5.79791)
(-11.1611 8.33938 -3.83502)
(-11.0298 8.02652 7.86933)
(-10.1148 6.26052 20.1168)
(-40.3189 -31.5353 -91.6623)
(-39.4032 -49.2435 -88.8895)
(-39.3698 -50.2183 -63.5086)
(-39.4495 -18.051 -23.6809)
(-39.2964 0.320455 -5.46541)
(-37.777 -4.26439 13.524)
(-36.1496 6.12325 28.0855)
(34.7122 -3.68982 34.0525)
(36.6644 8.65393 -18.5013)
(39.1462 48.3281 -106.867)
(39.8029 52.5927 -102.764)
(40.5343 55.7057 -87.1896)
(40.7611 25.1805 -59.6076)
(40.9059 13.6424 -21.4497)
(10.3567 -7.55239 30.0964)
(11.1722 -11.8457 11.0831)
(11.4267 2.01898 -14.8003)
(11.3388 16.867 -14.6116)
(11.3438 40.0234 -32.349)
(11.2616 39.9841 -40.6175)
(11.2169 34.2121 -35.6083)
(4.03204 -9.82881 26.737)
(4.17447 -13.5329 9.00476)
(4.15768 -12.8488 9.09671)
(4.05498 -13.423 19.0887)
(4.03159 -11.1378 17.468)
(4.04289 -1.92667 0.424924)
(3.99386 14.1105 -13.9469)
(0.0225049 -0.527972 35.8034)
(-0.0106159 0.10305 33.2375)
(-0.0051099 1.91596 35.2425)
(0.00551506 1.76063 38.8564)
(0.0131982 -1.01598 36.5908)
(0.00462776 -0.818656 33.8154)
(-0.0370052 0.344188 33.0471)
(-4.06607 -13.064 -24.6685)
(-4.07894 5.86615 -11.64)
(-3.93866 15.2249 11.3162)
(-3.94572 16.4603 22.7329)
(-4.01201 17.7546 22.6889)
(-4.0289 15.3749 20.8206)
(-4.00113 8.14599 26.9351)
(-11.1593 -28.1666 -52.3787)
(-11.1961 -24.5502 -43.9338)
(-11.1908 -9.75881 -21.2567)
(-11.199 -3.12527 -15.5091)
(-11.2919 9.38616 -9.16907)
(-11.1729 12.0918 8.83718)
(-10.2562 6.15969 24.7751)
(-40.0758 -43.9609 -65.8186)
(-39.0696 -64.9972 -77.9696)
(-39.0471 -69.0667 -75.9173)
(-39.3878 -52.0056 -54.5666)
(-39.3625 -13.954 -24.5614)
(-38.0688 6.15307 18.6603)
(-34.9479 3.66148 32.8003)
(34.1568 -15.0276 47.6244)
(37.0876 75.1231 -109.237)
(39.669 57.4605 -116.078)
(40.777 55.4389 -104.126)
(41.4439 57.7788 -76.3657)
(41.2729 18.7643 -40.3957)
(41.1851 15.0157 -5.90518)
(10.411 -9.23296 40.6758)
(11.2553 -10.1237 -10.7953)
(11.3738 46.8092 -49.9527)
(11.4131 56.6315 -48.2773)
(11.3675 61.2796 -37.3656)
(11.268 53.1044 -36.9459)
(11.2628 40.5393 -21.9042)
(4.05545 -9.50903 36.8175)
(4.27415 -3.8125 -5.31005)
(4.28084 -6.09476 -14.0149)
(4.20045 -7.38301 7.51349)
(4.13311 -8.00291 19.6762)
(4.07755 2.77362 13.0635)
(4.01223 22.9755 1.38993)
(0.0885219 -1.99718 41.5506)
(0.0488889 -0.485392 38.4118)
(0.0154204 -0.356147 36.9185)
(-0.0037839 1.74788 38.8621)
(-0.000210248 2.57254 37.8499)
(-0.00202575 1.87974 37.2927)
(-0.033303 1.214 40.6893)
(-4.00534 -26.5706 -2.45787)
(-4.07214 4.64938 4.09505)
(-4.09138 11.5596 5.29086)
(-4.10501 13.5158 7.87207)
(-4.18034 14.3429 6.91657)
(-4.19606 15.0767 10.2218)
(-4.04124 9.47595 31.9764)
(-11.0467 -40.1592 -17.0239)
(-11.0519 -42.1586 -19.5837)
(-11.2216 -40.4115 -13.3534)
(-11.2981 -38.9184 -23.241)
(-11.3562 -37.2502 -26.3198)
(-11.264 13.2921 2.97115)
(-10.4111 7.43147 38.8843)
(-40.9335 -41.9563 -39.2075)
(-40.7157 -73.1664 -58.5621)
(-40.0381 -84.249 -71.0933)
(-39.7575 -85.991 -80.0111)
(-39.3864 -77.477 -84.6827)
(-38.8867 -35.0789 -35.8726)
(-34.6473 8.30985 49.7948)
(39.4456 140.43 -127.43)
(40.0984 100.86 -144.122)
(41.8982 23.896 -132.601)
(41.9103 24.193 -86.944)
(38.7702 -22.1877 58.2927)
(39.8679 -29.942 55.7248)
(40.7083 -10.2795 53.309)
(11.0448 48.0578 -6.33045)
(10.8567 96.027 -68.4932)
(11.1214 86.6972 -68.9607)
(11.5143 66.1459 -61.3987)
(11.5677 65.9694 -43.2351)
(11.4981 50.0998 -32.5554)
(11.3098 31.7948 23.6988)
(4.15676 14.5216 7.34254)
(4.18224 37.7113 -21.6257)
(4.20833 33.9285 -27.7015)
(4.32001 23.4389 -22.0813)
(4.3428 3.86194 3.96242)
(4.26203 11.1153 10.5603)
(4.0599 11.79 37.5825)
(0.118445 -0.587066 55.8646)
(0.0632036 -3.52559 39.2323)
(0.0163932 -3.86281 38.247)
(0.000463778 0.938461 37.7989)
(0.020301 6.18271 36.223)
(0.0271783 5.51428 37.8264)
(-0.00667251 1.3257 50.0031)
(-3.97188 -25.3575 27.5779)
(-4.12561 -33.5458 1.13149)
(-4.22974 -38.4792 0.510939)
(-4.25607 -34.6699 -5.49967)