/*--------------------------------*- C++ -*----------------------------------*\
  =========                 |
  \\      /  F ield         | OpenFOAM: The Open Source CFD Toolbox
   \\    /   O peration     | Website:  https://openfoam.org
    \\  /    A nd           | Version:  6
     \\/     M anipulation  |
\*---------------------------------------------------------------------------*/
FoamFile
{
    version     2.0;
    format      ascii;
    class       volScalarField;
    location    "2";
    object      p;
}
// * * * * * * * * * * * * * * * * * * * * * * * * * * * * * * * * * * * * * //

dimensions      [1 -1 -2 0 0 0 0];

internalField   nonuniform List<scalar> 
297
(
121182
121179
121182
201977
201968
201977
121182
121179
121182
121182
121179
121182
201978
201969
201978
121182
121179
121182
121182
121179
121182
201980
201971
201979
121182
121179
121182
98452.1
98141.7
97348.6
163157
162564
161446
97895.4
98046.9
97733.1
95557.6
95057.1
95806.8
160843
158193
157798
98045
96103.4
94549.7
95864.2
92678.1
90768.5
154093
149895
151778
91770.1
90554.2
92717.8
91913.2
93965.5
95296.7
150930
153783
156168
96641.3
93154.4
94169.3
96381.8
95741.4
96568.1
157208
159228
161852
94829
95969.7
97996.7
97041.2
97296.7
97747.4
161742
162111
162943
97194.8
97047.7
97674.1
92324.3
91346.7
86729.2
139583
145947
148894
90935
89081.9
86020.8
92463.3
91297.2
86651.9
138798
145719
147662
90993.3
89128.5
85834.4
93066.1
91506.4
87175.6
139653
146250
147463
91529.7
89441.7
86335.4
97701.1
97668
97840.9
162584
162654
162756
97871
97681.3
97574.6
97776.7
97789.8
97902.6
162717
162783
162650
97951.6
97999.8
97697.1
97825
97869.2
98007.9
162778
162852
162577
97958.8
98246.7
97891.1
97845.8
97977.2
98327.8
162840
162871
162899
97778.3
97876.4
98146.3
97705.5
97748.1
97978
162773
162776
162704
97782.1
97770.9
97877.1
97625.1
97525.6
97552.7
162752
162740
162583
97830.4
97681
97540.6
98168
97993.4
97939.9
162491
162668
162779
97518.9
97675.7
97841.3
98069.5
97973.4
97877.2
162418
162627
162733
97280.6
97536.4
97764
97977.7
97965.6
97881
162302
162583
162710
97171
97489
97735.4
98444
98578.3
98457.2
162294
162315
162371
98941.2
98425.5
97749.1
98229.8
98330.9
98254.5
162002
161990
162149
98360.6
97669.4
97253.4
97973.5
98040.5
97994.2
161552
161534
161698
97725.5
97146.4
96880.9
96709
96691.1
96709.4
158701
158660
158525
94795.7
94750.3
94677.2
91800.2
91765.4
91751.7
151255
151233
151181
90873.1
90848.3
90740.8
85383.2
85376.7
85372.8
138780
138740
138678
87222.3
87359.7
87500.5
98524
98489.6
98372
163017
163058
163000
98396.7
98475.4
98442.3
98252.6
98356.8
98286.2
162781
162834
162789
98193.5
98382.1
98371.8
98025.4
98255.4
98182.5
162532
162589
162494
98031
98312.7
98272
97183.3
97228.2
97276
161139
161232
161225
97167.8
97214.7
97267.2
92757.8
92748.2
92792.9
153540
153547
153556
92740.6
92726.7
92769.5
85828.6
85827.9
85834.6
138179
138196
138211
85812.8
85812.2
85819.1
)
;

boundaryField
{
    fuel
    {
        type            zeroGradient;
    }
    primary_air
    {
        type            zeroGradient;
    }
    Secondary_air_RHS
    {
        type            zeroGradient;
    }
    Secondary_air_LHS
    {
        type            zeroGradient;
    }
    outlet
    {
        type            totalPressure;
        rho             rho;
        psi             none;
        gamma           1;
        p0              uniform 100000;
        value           nonuniform List<scalar> 
18
(
89265.6
100000
89247.2
89247.4
100000
89228.9
89283.7
100000
89265.7
88560.3
100000
89649.6
88527.9
100000
93696.6
88522.3
100000
99998.8
)
;
    }
    stove_body
    {
        type            zeroGradient;
    }
    frontAndBack
    {
        type            empty;
    }
}


// ************************************************************************* //
