/*--------------------------------*- C++ -*----------------------------------*\
  =========                 |
  \\      /  F ield         | OpenFOAM: The Open Source CFD Toolbox
   \\    /   O peration     | Website:  https://openfoam.org
    \\  /    A nd           | Version:  6
     \\/     M anipulation  |
\*---------------------------------------------------------------------------*/
FoamFile
{
    version     2.0;
    format      ascii;
    class       volScalarField;
    location    "2";
    object      T;
}
// * * * * * * * * * * * * * * * * * * * * * * * * * * * * * * * * * * * * * //

dimensions      [0 0 0 1 0 0 0];

internalField   nonuniform List<scalar> 
297
(
292.855
292.859
292.855
293.022
293.028
293.021
292.855
292.859
292.855
292.866
293.08
292.866
293.08
293.904
293.079
292.866
293.08
292.866
293.859
299.206
293.726
295.04
404.628
295.22
293.859
299.206
293.726
958.018
901.802
752.526
1017.62
990.248
842.459
942.686
903.561
748.334
1186.8
1135.17
869.507
1069.14
1078.33
909.78
1091.56
1056.88
878.006
1291.19
1246.86
1032.45
1061.95
1116.95
950.838
1083.72
1124.3
970.419
969.283
1255.46
1294.7
886.349
1150.49
1176.78
866.654
1206.4
1233.94
904.108
1265.1
1297.49
756.083
1104.13
1189.42
762.615
1188.64
1241.56
553.912
1195.78
1300.25
465.006
812.71
1019.42
479.832
1025.4
1239.92
1289.48
1258.25
1121.02
1033.65
1120.51
1014.58
1099.5
1201.74
1066.2
1154.4
1258.84
1199.41
987.568
1122.62
1048.94
1013.7
1202.26
1140.17
1044.85
1256.86
1280.17
946.043
1122.85
1164.89
934.725
1203.06
1215.81
372.797
548.014
548.024
312.118
307.009
302.182
302.562
342.649
366.58
362.472
366.134
363.13
317.696
307.499
302.386
304.34
308.766
307.779
342.733
335.502
332.252
318.9
315.242
304.878
305.663
307.554
304.598
300.34
300.483
300.68
300.978
300.974
301.005
300.565
300.607
300.728
300.649
300.659
300.755
301.235
301.223
301.214
301.005
300.887
300.896
300.788
300.764
300.767
301.548
301.589
301.509
301.245
301.133
300.962
302.802
310.53
310.604
301.072
302.926
303.478
298.837
299.089
299.233
313.011
364.867
363.389
322.461
331.294
328.499
301.505
301.551
301.324
307.388
352.149
356.078
328.763
332.229
324.825
306.647
304.939
304.732
301.837
301.818
301.483
300.545
300.998
300.78
297.95
299.242
298.803
302.2
301.754
301.217
300.948
301.266
302.659
298.249
300.203
300.164
302.155
301.594
301.087
301.613
307.023
318.071
298.247
300.907
306.772
301.12
300.966
300.489
301.118
306.049
308.582
298.294
301.254
301.199
298.416
298.215
297.485
298.338
300.814
303.403
295.097
295.147
298.552
292.123
292.096
291.373
288.039
287.963
285.441
291.105
291.403
303.249
300.67
300.708
300.665
301.06
301.081
300.945
300.733
300.8
300.879
300.608
300.69
300.713
301.25
301.181
300.885
300.718
300.791
300.905
300.504
300.664
300.826
301.515
301.17
300.865
300.675
300.781
300.952
300.38
300.695
300.606
301.98
301.097
299.161
300.548
300.762
300.651
298.104
297.939
298.062
300.05
298.956
298.468
298.087
297.865
298.044
291.689
291.687
291.81
287.546
287.292
287.52
291.698
291.696
291.819
)
;

boundaryField
{
    fuel
    {
        type            fixedValue;
        value           uniform 293;
    }
    primary_air
    {
        type            fixedValue;
        value           uniform 293;
    }
    Secondary_air_RHS
    {
        type            fixedValue;
        value           uniform 293;
    }
    Secondary_air_LHS
    {
        type            fixedValue;
        value           uniform 293;
    }
    outlet
    {
        type            inletOutlet;
        inletValue      uniform 293;
        value           nonuniform List<scalar> 
18
(
293
287.548
293
293
287.295
293
293
287.522
293
293
288.041
293
293
287.965
293
293
285.444
293
)
;
    }
    stove_body
    {
        type            fixedValue;
        value           uniform 293;
    }
    frontAndBack
    {
        type            empty;
    }
}


// ************************************************************************* //
