/*--------------------------------*- C++ -*----------------------------------*\
  =========                 |
  \\      /  F ield         | OpenFOAM: The Open Source CFD Toolbox
   \\    /   O peration     | Website:  https://openfoam.org
    \\  /    A nd           | Version:  6
     \\/     M anipulation  |
\*---------------------------------------------------------------------------*/
FoamFile
{
    version     2.0;
    format      ascii;
    class       surfaceScalarField;
    location    "0.5";
    object      phi;
}
// * * * * * * * * * * * * * * * * * * * * * * * * * * * * * * * * * * * * * //

dimensions      [1 0 -1 0 0 0 0];

internalField   nonuniform List<scalar> 
15525
(
1.15107e-07
1.02793e-06
-1.23577e-06
-2.44855e-08
9.191e-07
-7.57318e-07
4.83948e-07
8.98046e-07
-1.37417e-06
1.86096e-07
1.60173e-07
1.59737e-07
3.79061e-07
-1.90409e-07
1.86676e-07
-2.0306e-07
1.0151e-06
-1.45279e-07
4.59253e-07
7.97633e-07
3.43313e-07
-5.36777e-07
9.4518e-07
1.42968e-07
1.08633e-07
2.49979e-07
3.60277e-07
1.55732e-07
2.595e-07
9.89343e-07
-1.40995e-06
-3.18997e-07
1.43407e-07
9.00812e-07
3.94641e-07
9.79556e-07
-2.2967e-06
1.38682e-07
1.19733e-07
2.39343e-07
3.79084e-07
1.22549e-07
2.05391e-08
8.37629e-08
8.78368e-07
8.10725e-08
-1.17397e-07
1.99371e-07
1.31923e-07
6.43607e-08
8.53109e-07
-2.88065e-08
-1.28663e-07
4.04779e-07
3.34135e-08
3.12686e-07
1.65393e-07
-1.00416e-07
1.04829e-07
-5.00708e-08
2.66968e-07
-1.28456e-07
2.81269e-08
1.05362e-07
5.65942e-08
9.99024e-08
-7.52842e-07
-5.10147e-07
8.48466e-08
-7.87602e-07
5.49122e-08
-5.92214e-07
-7.1563e-07
2.9719e-08
-2.09482e-07
-2.33164e-07
2.71251e-08
-5.07962e-08
-3.22643e-07
-2.0563e-07
2.21994e-07
2.45637e-07
3.48766e-08
-6.41619e-07
4.05122e-07
-5.60284e-07
4.66362e-07
3.60416e-07
-2.50672e-07
-2.97354e-07
1.61946e-09
-5.05625e-08
-9.62979e-08
-3.40923e-07
-1.0543e-06
1.70445e-07
2.59037e-07
-7.54845e-07
4.07962e-07
-6.03361e-07
-1.12744e-06
2.06997e-07
-2.438e-07
-4.16863e-07
-2.97756e-09
-1.34732e-07
-4.52035e-08
5.48819e-08
-8.22361e-07
5.83616e-07
-3.51024e-07
3.73442e-07
-5.40845e-07
-5.90143e-07
-8.13396e-07
7.80706e-07
-2.86881e-07
-4.00457e-07
8.24474e-08
-3.2202e-07
2.09299e-07
2.52728e-10
-9.20257e-07
9.65009e-08
2.23131e-07
1.25202e-07
-9.62961e-07
-2.35252e-08
-1.50537e-07
-2.92163e-07
-1.15033e-07
-4.53925e-07
9.13713e-08
-1.43444e-07
-2.96329e-07
3.92128e-07
-1.47443e-07
-1.99809e-07
2.45498e-07
9.29181e-07
-4.74656e-07
-5.61098e-07
3.05724e-07
3.19972e-07
-9.46982e-08
-4.29901e-07
3.11806e-07
-9.10067e-08
-3.25567e-07
4.23354e-07
-8.87816e-08
-2.60135e-07
4.13938e-07
-8.94556e-08
-1.4649e-07
-3.31038e-07
4.09219e-08
7.88622e-08
-1.35137e-07
-4.7055e-07
3.30689e-07
-9.21918e-08
-3.52288e-07
3.85134e-07
-1.20447e-07
-2.73486e-07
2.49414e-07
1.31087e-07
-1.04039e-07
-3.00416e-07
1.49516e-07
-2.63326e-08
-4.43995e-07
1.74965e-06
-1.20846e-06
1.80768e-07
-5.43741e-07
-9.83379e-07
-5.17028e-07
2.44604e-06
-1.27514e-06
-2.24442e-07
-1.49506e-07
-1.67645e-07
3.9769e-07
-2.67259e-07
2.4746e-07
6.02973e-07
-2.77117e-07
2.06344e-07
3.73051e-07
8.87817e-07
2.15724e-07
-1.46146e-07
3.18394e-07
-4.06252e-07
-7.43924e-07
1.25673e-06
-1.32049e-07
-1.24762e-07
2.53777e-07
-6.82519e-08
-3.52281e-08
2.27755e-07
-2.54039e-07
-1.86365e-07
-1.75243e-07
-9.34674e-08
1.7229e-07
-3.07677e-07
-5.19569e-07
3.88255e-07
-1.16978e-07
-8.79839e-08
1.87942e-07
-7.19463e-08
1.11851e-08
3.15508e-07
-2.46578e-07
-1.91255e-07
-1.56085e-07
-7.1294e-08
-1.86502e-07
-2.76925e-07
2.08828e-07
-1.27779e-07
-1.15924e-07
-8.50821e-08
2.15554e-07
-8.61553e-08
-6.25649e-08
2.88347e-07
-2.47371e-07
-1.8511e-07
-1.49157e-07
-2.06918e-07
-1.4153e-07
-4.62959e-07
-9.31779e-07
3.84434e-07
-1.32191e-07
-7.2095e-07
-6.82295e-07
-3.47268e-07
-6.00588e-07
-5.29092e-07
-2.4532e-07
-2.29074e-07
-2.28879e-07
-3.39315e-07
-3.84146e-07
1.65061e-07
-4.86251e-07
-4.33135e-08
-3.03418e-07
1.90665e-07
5.17055e-08
-7.73249e-09
-1.8159e-07
-3.17877e-08
4.28663e-07
8.48769e-07
3.08727e-07
3.88269e-07
3.50978e-07
1.98243e-07
2.00622e-07
-9.94954e-09
3.9323e-07
3.35104e-07
9.06095e-07
2.79191e-07
6.267e-07
3.43811e-07
4.42732e-07
1.69811e-07
4.31827e-09
3.61888e-07
2.19047e-07
5.67695e-07
2.19821e-07
8.3815e-07
3.01537e-07
6.43465e-07
1.76324e-07
-2.47191e-08
3.92527e-07
3.12736e-07
6.44191e-07
1.17628e-07
3.51325e-07
1.75125e-07
4.80929e-08
-8.17677e-09
-7.51876e-08
-3.35633e-09
1.72935e-07
2.02687e-07
3.01201e-07
3.88293e-08
-6.13632e-07
2.56622e-07
4.28214e-07
8.29929e-08
9.21215e-07
-1.5003e-06
-8.48925e-08
5.27051e-07
-3.67816e-07
6.16229e-07
9.18325e-07
-1.50317e-06
2.59877e-07
4.26551e-07
-4.99736e-07
6.06965e-07
1.67692e-07
-2.50207e-07
3.76237e-07
2.84713e-07
2.48147e-07
4.38608e-07
-4.32304e-07
5.00136e-07
3.75742e-07
2.78717e-07
6.01568e-07
1.75301e-07
-3.90699e-07
6.13862e-07
3.84725e-07
-2.19572e-07
1.58201e-07
3.11448e-08
2.17327e-07
4.8359e-07
-4.97259e-07
3.9122e-07
1.58573e-07
2.65181e-08
6.01325e-07
3.91326e-07
-3.54479e-08
1.60359e-08
6.28676e-07
3.05155e-08
6.48724e-08
1.72167e-08
-3.20373e-08
5.91503e-07
-5.53591e-08
3.5956e-08
6.51351e-08
1.48205e-08
-2.00381e-09
6.35096e-07
-5.92785e-08
6.81066e-08
-3.44273e-07
3.42896e-07
3.42815e-07
-1.02348e-07
5.36578e-08
3.47006e-07
4.53051e-08
7.96358e-08
1.03721e-07
1.75589e-07
2.33048e-07
-1.06901e-06
-5.98846e-07
-2.28064e-07
-8.22491e-09
1.06167e-07
-7.66803e-08
-1.06964e-06
-6.00766e-07
1.00112e-07
1.76106e-07
4.69976e-07
-2.29742e-07
3.3383e-09
2.59226e-07
-6.29168e-07
6.05006e-08
-2.52812e-07
-7.72222e-08
1.4237e-07
-4.67732e-07
-6.28897e-07
5.57683e-08
-2.29489e-07
6.01398e-09
3.68977e-07
-3.6046e-07
1.37002e-07
2.45723e-07
-4.50165e-07
-2.85987e-08
-2.39997e-07
-2.59061e-07
1.61994e-07
-3.6757e-07
-4.5025e-07
-3.03277e-08
-3.60486e-07
1.42446e-07
3.4427e-07
-4.70581e-07
3.90421e-07
2.31367e-07
3.76062e-09
-3.30056e-07
-2.29136e-07
5.91556e-08
7.85299e-08
-3.43826e-07
4.842e-09
-3.33225e-07
-4.72443e-07
3.97464e-07
-3.11624e-08
-3.82619e-07
1.84658e-08
2.93678e-07
-1.85627e-08
-1.09627e-08
3.1987e-08
2.96782e-07
-3.97156e-07
8.51706e-08
-1.1395e-07
1.94594e-07
-2.05348e-08
-1.02796e-07
-3.78378e-07
2.0866e-08
-1.17465e-07
1.94831e-07
-9.12586e-08
-1.01318e-07
-3.79068e-07
-1.14588e-07
1.82864e-07
6.10181e-08
-1.87433e-07
3.76896e-09
2.53832e-09
1.53397e-07
-1.30844e-07
-3.98928e-09
-2.03993e-07
2.35294e-07
-6.69221e-08
1.51788e-07
-1.30887e-07
-1.8466e-07
-6.94041e-09
3.72635e-08
-5.02204e-08
-4.03216e-08
-1.15626e-08
-9.17128e-08
2.67293e-07
8.84256e-09
-3.20331e-07
2.54995e-07
-4.45753e-08
-9.31567e-08
2.67859e-07
-4.42709e-08
-5.02411e-08
3.17367e-07
2.65753e-07
-2.34115e-07
2.24784e-07
1.02588e-07
-4.32744e-07
-2.19732e-07
5.38011e-07
-3.40211e-07
-3.20557e-07
1.03864e-07
-4.32928e-07
2.77016e-07
-2.48431e-07
-3.75531e-07
2.30239e-07
-1.28702e-07
1.51816e-07
1.2855e-07
2.67848e-07
3.78525e-07
1.48161e-07
2.58252e-07
3.55112e-07
-2.33118e-07
8.88192e-08
2.60723e-07
-3.03427e-07
4.07783e-08
-2.56303e-07
1.17857e-07
6.11444e-07
-3.57603e-07
-3.01565e-07
4.14819e-08
-2.31273e-07
5.94114e-08
3.02106e-07
-1.90535e-07
-3.46055e-07
1.67505e-07
-4.40688e-07
1.45934e-07
-1.62109e-07
7.5774e-08
6.09806e-07
-3.0033e-07
-4.40511e-07
1.49446e-07
-1.87489e-07
-3.57917e-07
2.57653e-07
-2.30556e-07
-2.60608e-07
8.82107e-08
-2.33633e-07
2.31419e-07
-8.22292e-08
-1.46037e-07
6.47532e-07
-2.55878e-07
-2.34255e-07
2.35712e-07
-2.32367e-07
-2.64957e-07
4.69927e-07
-4.61774e-07
-4.73984e-07
3.01119e-07
-2.51804e-07
-2.46013e-07
-2.99752e-07
5.65339e-08
5.66708e-08
-4.70086e-07
-2.52246e-07
-2.46167e-07
-4.63016e-07
-4.8989e-07
-3.20357e-08
-2.05918e-07
-5.57012e-08
-7.57193e-08
5.43299e-08
2.13977e-07
3.10445e-08
-8.16599e-08
-1.715e-07
-3.92488e-07
4.68207e-07
-2.60765e-07
-7.33404e-08
2.57841e-07
1.07986e-07
3.86322e-07
-7.38407e-08
4.67155e-07
-3.01918e-07
4.19367e-07
-2.5059e-07
2.27168e-08
2.47583e-07
2.21126e-07
2.99464e-07
2.42905e-08
4.13181e-07
-3.1116e-07
4.72539e-07
-2.22444e-07
1.67494e-07
2.19509e-07
4.28132e-07
3.11767e-07
1.69094e-07
4.6423e-07
-3.40944e-08
3.61241e-08
-9.19233e-08
-1.96267e-08
8.89765e-08
3.04208e-07
3.09552e-08
-1.87815e-08
8.7012e-09
-1.653e-07
-2.5898e-07
2.60266e-07
1.60594e-07
-5.07778e-08
9.22572e-08
-3.04512e-08
-1.9826e-07
6.58622e-08
9.26334e-08
1.98336e-07
3.23818e-07
-7.04673e-07
5.05917e-08
6.62063e-08
9.25528e-08
9.13597e-08
-2.94907e-08
-2.66644e-08
8.28454e-08
3.28803e-08
-8.72639e-08
2.31203e-08
1.00634e-07
8.74745e-08
-2.273e-07
3.76252e-07
2.75925e-08
2.24603e-08
1.00816e-07
8.56319e-08
3.08048e-08
-2.58434e-08
9.52615e-08
1.07936e-08
-1.54105e-07
4.65474e-08
1.01579e-07
1.54169e-07
2.8466e-07
-8.11823e-07
2.51283e-08
4.62915e-08
1.01985e-07
9.4515e-08
1.35348e-08
1.25601e-08
2.73164e-08
5.24464e-08
-2.0498e-09
-1.72914e-08
7.555e-08
2.12957e-09
8.10858e-08
1.97162e-07
-1.23994e-08
-1.7017e-08
7.49257e-08
2.66316e-08
5.2731e-08
2.17608e-08
2.70538e-09
-6.14991e-08
6.31999e-08
6.00531e-08
-4.44476e-08
-2.31459e-08
6.34064e-08
8.7489e-10
8.0403e-08
4.03504e-08
-1.39741e-07
1.91288e-07
-1.25738e-07
1.17046e-07
-1.91194e-07
-2.98314e-07
-1.78368e-08
-8.03554e-08
-1.25763e-07
1.17021e-07
4.10478e-08
-1.39426e-07
8.69189e-08
-8.36695e-09
-7.49263e-09
6.5702e-08
-1.36265e-08
6.70426e-09
-6.56288e-08
2.19997e-07
-1.48791e-08
-8.70893e-08
-1.32957e-08
6.73456e-09
-1.00825e-08
-7.56413e-09
8.79158e-08
1.75759e-08
-1.05769e-07
1.39386e-07
-6.24272e-08
9.58316e-08
-1.39433e-07
-3.06926e-07
-1.61277e-08
-8.81628e-08
-6.1528e-08
9.58814e-08
1.8233e-08
-1.05485e-07
7.06424e-08
-4.71455e-08
4.37415e-08
1.04923e-07
-7.48923e-08
5.10261e-08
-1.04532e-07
-1.97491e-07
2.93808e-07
-7.03106e-08
-7.4289e-08
5.07216e-08
-4.6967e-08
4.48384e-08
3.14381e-08
-7.88396e-08
-2.92496e-09
2.01905e-08
3.30961e-09
-2.4935e-07
-3.13729e-08
2.1295e-08
-8.01115e-08
-4.12654e-07
1.45509e-07
1.3974e-07
-2.44605e-09
-1.67521e-07
-1.17035e-07
2.22749e-09
-3.36222e-08
1.81382e-08
4.12539e-07
-1.6772e-07
-1.16991e-07
1.45473e-07
1.39927e-07
2.35923e-07
-1.06824e-07
7.39107e-09
-4.54799e-09
8.28946e-08
-6.64224e-09
4.36131e-09
-7.70506e-08
1.49441e-08
-2.3607e-07
8.25744e-08
-6.55894e-09
-1.07304e-07
7.50023e-09
-4.35858e-07
1.18812e-07
1.05731e-07
-1.91969e-09
-1.64024e-07
-9.58024e-08
1.80217e-09
-1.19303e-07
1.61516e-08
4.35765e-07
-1.64337e-07
-9.58136e-08
1.18487e-07
1.05643e-07
9.78981e-08
1.06371e-07
-4.38461e-08
1.56008e-07
-1.22835e-07
-5.10324e-08
-1.56137e-07
7.76645e-07
-2.93777e-07
-9.84152e-08
-1.23495e-07
-5.06853e-08
1.07396e-07
-4.49952e-08
-5.47499e-08
7.87504e-08
-1.39446e-07
-2.03465e-08
1.39452e-07
2.49341e-07
5.60481e-08
-2.13718e-08
8.06848e-08
8.03852e-08
4.03044e-08
3.0521e-08
1.91226e-07
-1.25717e-07
-9.25888e-08
-1.9113e-07
-2.98231e-07
7.04775e-07
-8.03865e-08
-1.25692e-07
-9.2499e-08
4.03053e-08
3.06427e-08
8.6897e-08
-8.40255e-09
-3.29583e-08
6.56704e-08
-1.35711e-08
-1.00582e-07
-6.55628e-08
2.20003e-07
-3.76194e-07
-8.70025e-08
-1.32063e-08
-1.00655e-07
-1.02453e-08
-3.11835e-08
8.79009e-08
1.75303e-08
-1.07934e-08
1.39376e-07
-6.23703e-08
-1.0154e-07
-1.39414e-07
-3.06915e-07
8.11828e-07
-8.8116e-08
-6.15657e-08
-1.01854e-07
1.81111e-08
-1.36164e-08
7.06319e-08
-4.71538e-08
-5.25631e-08
1.04926e-07
-7.48653e-08
-7.55206e-08
-1.04523e-07
-1.97478e-07
-1.97123e-07
-7.03401e-08
-7.42883e-08
-7.48875e-08
-4.68716e-08
-5.3187e-08
3.14394e-08
-2.79184e-09
-2.94577e-09
-6.32903e-08
3.3433e-09
4.44129e-08
-3.13941e-08
-6.34345e-08
-2.95168e-10
-5.08497e-08
9.23602e-08
-1.98267e-07
6.58168e-08
1.98412e-07
3.23817e-07
5.10605e-08
6.58224e-08
9.26305e-08
-2.67161e-08
8.29221e-08
-8.72826e-08
2.31179e-08
8.75104e-08
-2.27258e-07
2.75747e-08
2.24026e-08
8.5751e-08
-2.59197e-08
9.54178e-08
-1.54107e-07
4.6533e-08
1.54217e-07
2.84688e-07
2.521e-08
4.62962e-08
9.46558e-08
1.25495e-08
2.73741e-08
-2.07456e-09
-1.72353e-08
2.10945e-09
8.11802e-08
-1.2538e-08
-1.68483e-08
2.59691e-08
2.17611e-08
-6.14877e-08
6.01687e-08
-2.28641e-08
-6.13632e-07
2.56622e-07
4.28214e-07
8.29929e-08
9.21215e-07
-1.5003e-06
-8.48925e-08
5.27051e-07
-3.67816e-07
6.16229e-07
9.18325e-07
-1.50317e-06
2.59877e-07
4.26551e-07
-4.99736e-07
6.06965e-07
1.67692e-07
-2.50207e-07
3.76237e-07
2.84713e-07
2.48147e-07
4.38608e-07
-4.32304e-07
5.00136e-07
3.75742e-07
2.78717e-07
6.01568e-07
1.75301e-07
-3.90699e-07
6.13862e-07
3.84725e-07
-2.19572e-07
1.58201e-07
3.11448e-08
2.17327e-07
4.8359e-07
-4.97259e-07
3.9122e-07
1.58573e-07
2.65181e-08
6.01325e-07
3.91326e-07
-3.54479e-08
1.60359e-08
6.28676e-07
3.05155e-08
6.48724e-08
1.72167e-08
-3.20373e-08
5.91503e-07
-5.53591e-08
3.5956e-08
6.51351e-08
1.48205e-08
-2.00381e-09
6.35096e-07
-5.92785e-08
6.81066e-08
-3.44273e-07
3.42896e-07
3.42815e-07
-1.02348e-07
5.36578e-08
3.47006e-07
4.53051e-08
7.96358e-08
1.03721e-07
1.75589e-07
2.33048e-07
-1.06901e-06
-5.98846e-07
-2.28064e-07
-8.22491e-09
1.06167e-07
-7.66803e-08
-1.06964e-06
-6.00766e-07
1.00112e-07
1.76106e-07
4.69976e-07
-2.29742e-07
3.3383e-09
2.59226e-07
-6.29168e-07
6.05006e-08
-2.52812e-07
-7.72222e-08
1.4237e-07
-4.67732e-07
-6.28897e-07
5.57683e-08
-2.29489e-07
6.01398e-09
3.68977e-07
-3.6046e-07
1.37002e-07
2.45723e-07
-4.50165e-07
-2.85987e-08
-2.39997e-07
-2.59061e-07
1.61994e-07
-3.6757e-07
-4.5025e-07
-3.03277e-08
-3.60486e-07
1.42446e-07
3.4427e-07
-4.70581e-07
3.90421e-07
2.31367e-07
3.76062e-09
-3.30056e-07
-2.29136e-07
5.91556e-08
7.85299e-08
-3.43826e-07
4.842e-09
-3.33225e-07
-4.72443e-07
3.97464e-07
-3.11624e-08
-3.82619e-07
1.84658e-08
2.93678e-07
-1.85627e-08
-1.09627e-08
3.1987e-08
2.96782e-07
-3.97156e-07
8.51706e-08
-1.1395e-07
1.94594e-07
-2.05348e-08
-1.02796e-07
-3.78378e-07
2.0866e-08
-1.17465e-07
1.94831e-07
-9.12586e-08
-1.01318e-07
-3.79068e-07
-1.14588e-07
1.82864e-07
6.10181e-08
-1.87433e-07
3.76896e-09
2.53832e-09
1.53397e-07
-1.30844e-07
-3.98928e-09
-2.03993e-07
2.35294e-07
-6.69221e-08
1.51788e-07
-1.30887e-07
-1.8466e-07
-6.94041e-09
3.72635e-08
-5.02204e-08
-4.03216e-08
-1.15626e-08
-9.17128e-08
2.67293e-07
8.84256e-09
-3.20331e-07
2.54995e-07
-4.45753e-08
-9.31567e-08
2.67859e-07
-4.42709e-08
-5.02411e-08
3.17367e-07
2.65753e-07
-2.34115e-07
2.24784e-07
1.02588e-07
-4.32744e-07
-2.19732e-07
5.38011e-07
-3.40211e-07
-3.20557e-07
1.03864e-07
-4.32928e-07
2.77016e-07
-2.48431e-07
-3.75531e-07
2.30239e-07
-1.28702e-07
1.51816e-07
1.2855e-07
2.67848e-07
3.78525e-07
1.48161e-07
2.58252e-07
3.55112e-07
-2.33118e-07
8.88192e-08
2.60723e-07
-3.03427e-07
4.07783e-08
-2.56303e-07
1.17857e-07
6.11444e-07
-3.57603e-07
-3.01565e-07
4.14819e-08
-2.31273e-07
5.94114e-08
3.02106e-07
-1.90535e-07
-3.46055e-07
1.67505e-07
-4.40688e-07
1.45934e-07
-1.62109e-07
7.5774e-08
6.09806e-07
-3.0033e-07
-4.40511e-07
1.49446e-07
-1.87489e-07
-3.57917e-07
2.57653e-07
-2.30556e-07
-2.60608e-07
8.82107e-08
-2.33633e-07
2.31419e-07
-8.22292e-08
-1.46037e-07
6.47532e-07
-2.55878e-07
-2.34255e-07
2.35712e-07
-2.32367e-07
-2.64957e-07
4.69927e-07
-4.61774e-07
-4.73984e-07
3.01119e-07
-2.51804e-07
-2.46013e-07
-2.99752e-07
5.65339e-08
5.66708e-08
-4.70086e-07
-2.52246e-07
-2.46167e-07
-4.63016e-07
-4.8989e-07
-3.20357e-08
-2.05918e-07
-5.57012e-08
-7.57193e-08
5.43299e-08
2.13977e-07
3.10445e-08
-8.16599e-08
-1.715e-07
-3.92488e-07
4.68207e-07
-2.60765e-07
-7.33404e-08
2.57841e-07
1.07986e-07
3.86322e-07
-7.38407e-08
4.67155e-07
-3.01918e-07
4.19367e-07
-2.5059e-07
2.27168e-08
2.47583e-07
2.21126e-07
2.99464e-07
2.42905e-08
4.13181e-07
-3.1116e-07
4.72539e-07
-2.22444e-07
1.67494e-07
2.19509e-07
4.28132e-07
3.11767e-07
1.69094e-07
4.6423e-07
-3.40944e-08
3.61241e-08
-9.19233e-08
-1.96267e-08
8.89765e-08
3.04208e-07
3.09552e-08
-1.87815e-08
8.7012e-09
-1.653e-07
-2.5898e-07
2.60266e-07
1.60594e-07
-4.31858e-08
1.01624e-07
-4.92319e-08
-2.13666e-07
4.06377e-08
1.41941e-07
2.15573e-07
3.10197e-07
-7.2304e-07
4.63656e-08
4.61341e-08
1.35084e-07
1.09585e-07
-5.26676e-08
-2.1555e-08
1.25647e-07
-4.96988e-09
-1.11741e-07
1.30077e-08
1.15678e-07
1.16043e-07
-2.26228e-07
3.05872e-07
2.02795e-08
1.88013e-08
1.20976e-07
1.26511e-07
1.19892e-09
-6.49888e-10
1.0952e-07
1.45868e-08
-1.70926e-07
-1.66051e-09
1.82034e-07
1.75541e-07
2.97859e-07
-8.87853e-07
4.35763e-10
2.67667e-09
1.88047e-07
1.07706e-07
1.67946e-08
3.32199e-08
1.82801e-08
5.57205e-08
9.16499e-09
-5.25313e-08
7.2077e-08
1.53077e-09
9.38619e-08
2.06533e-07
-3.21526e-08
-4.64228e-08
8.00489e-08
1.43847e-08
5.85344e-08
8.67429e-09
7.09804e-09
-8.63064e-08
3.99422e-08
9.42983e-08
-8.80748e-08
-1.06294e-09
4.64293e-08
1.06106e-08
1.13106e-07
1.91436e-08
-1.72232e-07
2.20963e-07
-1.32983e-07
1.77971e-07
-2.25013e-07
-3.15393e-07
4.5832e-08
-1.09826e-07
-1.39106e-07
1.69889e-07
2.06475e-08
-1.74614e-07
1.01937e-07
-2.21398e-08
-6.80936e-08
7.67918e-08
-1.68191e-08
2.21569e-08
-9.49273e-08
1.74241e-07
-1.43232e-08
-1.04636e-07
-2.69758e-08
1.62282e-08
-1.61488e-08
-6.96887e-08
1.4048e-07
-2.11259e-08
-1.28454e-07
1.59444e-07
-7.51354e-08
2.18664e-07
-1.7627e-07
-2.76404e-07
-9.53248e-08
-1.44165e-07
-7.73868e-08
2.03983e-07
-1.25399e-08
-1.3308e-07
7.51958e-08
-5.5461e-08
1.27024e-08
9.14368e-08
-7.18478e-08
4.97919e-08
-1.09254e-07
-2.04457e-07
3.32856e-07
-7.89928e-08
-7.96775e-08
4.95203e-08
-5.76965e-08
2.20741e-08
2.89942e-08
-7.96143e-08
2.53626e-08
-3.06266e-08
-1.02377e-08
-2.57e-07
-3.2386e-08
-1.33958e-08
-8.19826e-08
-4.77385e-07
1.60142e-07
1.48921e-07
-3.31599e-11
-1.73583e-07
-1.10879e-07
2.72636e-09
-3.31811e-08
8.87259e-08
4.86677e-07
-1.89243e-07
-1.09854e-07
1.62703e-07
1.52553e-07
2.1119e-07
-1.15824e-07
-6.36139e-09
5.17777e-10
7.97221e-08
-2.29669e-08
7.14503e-09
-6.85449e-08
1.20098e-08
-1.97465e-07
5.26334e-08
-2.3126e-08
-1.14983e-07
6.99365e-09
-4.62946e-07
1.20187e-07
9.71341e-08
7.92107e-09
-1.03348e-07
-7.3738e-08
8.15632e-09
-1.06833e-07
-5.97515e-08
4.9299e-07
-1.33557e-07
-9.9994e-08
1.36145e-07
1.1053e-07
9.38563e-08
1.08795e-07
-7.15817e-08
1.62608e-07
-9.66048e-08
-2.90261e-08
-1.88306e-07
7.90688e-07
-2.19167e-07
-1.10832e-07
-1.36762e-07
-2.78003e-08
1.16562e-07
-7.17044e-08
-6.86845e-08
9.57158e-08
-1.42081e-07
-5.58235e-08
1.54184e-07
2.3901e-07
6.70616e-08
-6.57107e-08
9.92541e-08
8.76494e-08
3.84946e-08
3.20742e-08
1.91472e-07
-1.06268e-07
-9.71393e-08
-1.9878e-07
-2.88339e-07
7.87799e-07
-8.75797e-08
-1.13221e-07
-9.65437e-08
4.88943e-08
2.47263e-08
1.02255e-07
-2.87416e-08
-4.40691e-08
9.1108e-08
-3.98598e-09
-1.16722e-07
-1.09996e-07
2.45293e-07
-3.22751e-07
-1.07102e-07
-1.46131e-08
-1.27021e-07
-2.00995e-08
-3.41978e-08
9.36721e-08
-1.12829e-09
-2.60585e-08
1.65353e-07
-5.59994e-08
-9.66986e-08
-1.88692e-07
-2.44461e-07
7.79194e-07
-1.09571e-07
-6.19603e-08
-1.34804e-07
3.40386e-09
-2.50432e-08
7.07238e-08
-5.5767e-08
-8.99056e-08
1.10911e-07
-6.39392e-08
-6.4141e-08
-1.28049e-07
-1.14041e-07
-1.14359e-07
-7.48577e-08
-7.27102e-08
-7.29487e-08
-5.77308e-08
-8.82067e-08
2.90925e-08
8.47363e-09
-1.20169e-08
-8.11545e-08
2.87865e-08
8.32517e-08
-3.11545e-08
-8.09244e-08
7.82717e-09
-6.74929e-08
1.0875e-07
-2.18143e-07
6.33737e-08
2.23387e-07
3.39753e-07
6.20565e-08
7.46599e-08
9.66859e-08
-4.49086e-08
1.0747e-07
-1.02036e-07
1.32181e-09
1.12919e-07
-2.01585e-07
4.39097e-08
1.43082e-08
1.03858e-07
-4.45778e-08
1.23996e-07
-1.52445e-07
1.04683e-08
1.63467e-07
2.62795e-07
3.92866e-08
1.10504e-09
1.1549e-07
2.13951e-08
1.02945e-08
-7.56904e-09
-2.71895e-08
2.4769e-08
1.15118e-07
-2.22485e-08
-2.72449e-08
2.46488e-09
1.63754e-08
-9.43837e-08
1.02645e-07
-7.83122e-09
-6.13632e-07
2.56622e-07
4.28214e-07
8.29929e-08
9.21215e-07
-1.5003e-06
-8.48925e-08
5.27051e-07
-3.67816e-07
6.16229e-07
9.18325e-07
-1.50317e-06
2.59877e-07
4.26551e-07
-4.99736e-07
6.06965e-07
1.67692e-07
-2.50207e-07
3.76237e-07
2.84713e-07
2.48147e-07
4.38608e-07
-4.32304e-07
5.00136e-07
3.75742e-07
2.78717e-07
6.01568e-07
1.75301e-07
-3.90699e-07
6.13862e-07
3.84725e-07
-2.19572e-07
1.58201e-07
3.11448e-08
2.17327e-07
4.8359e-07
-4.97259e-07
3.9122e-07
1.58573e-07
2.65181e-08
6.01325e-07
3.91326e-07
-3.54479e-08
1.60359e-08
6.28676e-07
3.05155e-08
6.48724e-08
1.72167e-08
-3.20373e-08
5.91503e-07
-5.53591e-08
3.5956e-08
6.51351e-08
1.48205e-08
-2.00381e-09
6.35096e-07
-5.92785e-08
6.81066e-08
-3.44273e-07
3.42896e-07
3.42815e-07
-1.02348e-07
5.36578e-08
3.47006e-07
4.53051e-08
7.96358e-08
1.03721e-07
1.75589e-07
2.33048e-07
-1.06901e-06
-5.98846e-07
-2.28064e-07
-8.22491e-09
1.06167e-07
-7.66803e-08
-1.06964e-06
-6.00766e-07
1.00112e-07
1.76106e-07
4.69976e-07
-2.29742e-07
3.3383e-09
2.59226e-07
-6.29168e-07
6.05006e-08
-2.52812e-07
-7.72222e-08
1.4237e-07
-4.67732e-07
-6.28897e-07
5.57683e-08
-2.29489e-07
6.01398e-09
3.68977e-07
-3.6046e-07
1.37002e-07
2.45723e-07
-4.50165e-07
-2.85987e-08
-2.39997e-07
-2.59061e-07
1.61994e-07
-3.6757e-07
-4.5025e-07
-3.03277e-08
-3.60486e-07
1.42446e-07
3.4427e-07
-4.70581e-07
3.90421e-07
2.31367e-07
3.76062e-09
-3.30056e-07
-2.29136e-07
5.91556e-08
7.85299e-08
-3.43826e-07
4.842e-09
-3.33225e-07
-4.72443e-07
3.97464e-07
-3.11624e-08
-3.82619e-07
1.84658e-08
2.93678e-07
-1.85627e-08
-1.09627e-08
3.1987e-08
2.96782e-07
-3.97156e-07
8.51706e-08
-1.1395e-07
1.94594e-07
-2.05348e-08
-1.02796e-07
-3.78378e-07
2.0866e-08
-1.17465e-07
1.94831e-07
-9.12586e-08
-1.01318e-07
-3.79068e-07
-1.14588e-07
1.82864e-07
6.10181e-08
-1.87433e-07
3.76896e-09
2.53832e-09
1.53397e-07
-1.30844e-07
-3.98928e-09
-2.03993e-07
2.35294e-07
-6.69221e-08
1.51788e-07
-1.30887e-07
-1.8466e-07
-6.94041e-09
3.72635e-08
-5.02204e-08
-4.03216e-08
-1.15626e-08
-9.17128e-08
2.67293e-07
8.84256e-09
-3.20331e-07
2.54995e-07
-4.45753e-08
-9.31567e-08
2.67859e-07
-4.42709e-08
-5.02411e-08
3.17367e-07
2.65753e-07
-2.34115e-07
2.24784e-07
1.02588e-07
-4.32744e-07
-2.19732e-07
5.38011e-07
-3.40211e-07
-3.20557e-07
1.03864e-07
-4.32928e-07
2.77016e-07
-2.48431e-07
-3.75531e-07
2.30239e-07
-1.28702e-07
1.51816e-07
1.2855e-07
2.67848e-07
3.78525e-07
1.48161e-07
2.58252e-07
3.55112e-07
-2.33118e-07
8.88192e-08
2.60723e-07
-3.03427e-07
4.07783e-08
-2.56303e-07
1.17857e-07
6.11444e-07
-3.57603e-07
-3.01565e-07
4.14819e-08
-2.31273e-07
5.94114e-08
3.02106e-07
-1.90535e-07
-3.46055e-07
1.67505e-07
-4.40688e-07
1.45934e-07
-1.62109e-07
7.5774e-08
6.09806e-07
-3.0033e-07
-4.40511e-07
1.49446e-07
-1.87489e-07
-3.57917e-07
2.57653e-07
-2.30556e-07
-2.60608e-07
8.82107e-08
-2.33633e-07
2.31419e-07
-8.22292e-08
-1.46037e-07
6.47532e-07
-2.55878e-07
-2.34255e-07
2.35712e-07
-2.32367e-07
-2.64957e-07
4.69927e-07
-4.61774e-07
-4.73984e-07
3.01119e-07
-2.51804e-07
-2.46013e-07
-2.99752e-07
5.65339e-08
5.66708e-08
-4.70086e-07
-2.52246e-07
-2.46167e-07
-4.63016e-07
-4.8989e-07
-3.20357e-08
-2.05918e-07
-5.57012e-08
-7.57193e-08
5.43299e-08
2.13977e-07
3.10445e-08
-8.16599e-08
-1.715e-07
-3.92488e-07
4.68207e-07
-2.60765e-07
-7.33404e-08
2.57841e-07
1.07986e-07
3.86322e-07
-7.38407e-08
4.67155e-07
-3.01918e-07
4.19367e-07
-2.5059e-07
2.27168e-08
2.47583e-07
2.21126e-07
2.99464e-07
2.42905e-08
4.13181e-07
-3.1116e-07
4.72539e-07
-2.22444e-07
1.67494e-07
2.19509e-07
4.28132e-07
3.11767e-07
1.69094e-07
4.6423e-07
-3.40944e-08
3.61241e-08
-9.19233e-08
-1.96267e-08
8.89765e-08
3.04208e-07
3.09552e-08
-1.87815e-08
8.7012e-09
-1.653e-07
-2.5898e-07
2.60266e-07
1.60594e-07
-2.3745e-07
4.51147e-07
-1.94776e-07
-3.89724e-07
2.49506e-08
1.47219e-07
-2.70191e-07
4.50181e-07
-5.44716e-07
-4.01605e-07
6.41057e-07
-4.82055e-07
1.03087e-06
-1.39143e-06
-2.10545e-07
4.63459e-07
1.78758e-07
-3.52776e-07
2.55283e-08
1.41782e-07
-2.45266e-07
5.66286e-07
-2.21034e-07
-2.89082e-07
7.71028e-07
-7.70271e-08
1.09868e-06
-3.38129e-07
-2.03558e-07
4.58554e-07
2.02886e-07
-2.89527e-07
-3.17194e-08
1.40591e-07
-1.88886e-07
6.85005e-07
-2.18066e-07
-1.39474e-07
8.36726e-07
-1.1095e-07
7.0811e-07
2.61294e-07
2.84395e-10
-1.07634e-08
4.64758e-07
-1.47213e-07
3.98608e-08
7.12157e-08
-1.17149e-07
3.9518e-07
2.58466e-07
-2.20328e-07
3.35381e-07
6.00247e-07
3.02982e-07
1.88158e-07
1.39217e-08
-2.79493e-08
-3.00463e-07
3.49305e-07
-2.92365e-07
3.85604e-07
-2.5323e-07
2.89751e-07
1.36922e-08
2.38938e-07
-9.39806e-08
-3.31155e-07
1.41025e-07
-2.5727e-07
5.21334e-07
1.01115e-07
-3.19604e-07
-1.56917e-07
3.8339e-07
-3.65833e-07
-3.86155e-07
-7.50663e-07
-2.4571e-07
2.3541e-07
-1.07527e-07
-4.32741e-08
9.42611e-08
-2.51565e-07
2.76305e-07
1.14798e-07
-1.59883e-07
-3.95773e-07
3.2015e-07
-1.68028e-07
-4.82742e-07
-4.48708e-07
-3.13328e-07
2.37698e-07
-2.39595e-07
8.96667e-08
9.88206e-08
-2.31304e-07
2.57283e-07
1.23126e-07
-9.62501e-08
-3.0027e-07
3.35236e-07
-8.62451e-08
-4.0652e-07
4.17868e-07
-2.52899e-07
2.05233e-07
-2.75061e-07
2.87816e-07
1.97206e-07
-6.82043e-08
-8.7082e-08
2.3803e-07
-2.62761e-07
3.84809e-07
5.08576e-07
-7.03975e-07
9.44845e-07
9.27399e-07
2.35744e-07
6.97352e-09
-3.14545e-07
-3.80362e-08
3.20894e-07
-9.6473e-08
1.79106e-07
-2.65666e-07
-2.54706e-07
5.74359e-07
-9.48995e-07
3.07085e-07
3.36839e-07
1.49278e-07
-5.21463e-07
-4.64833e-08
1.44363e-07
-2.54397e-07
1.41538e-07
1.53147e-07
-3.92097e-07
1.08956e-08
-4.79386e-07
4.01781e-07
9.20034e-08
5.02247e-08
1.17781e-07
1.05487e-07
-2.45677e-07
-1.69131e-08
9.41122e-08
-2.25341e-07
-4.04428e-07
1.09024e-07
-3.8163e-07
-5.14352e-07
-4.77234e-07
-1.95005e-07
-6.59709e-08
1.1858e-07
8.06724e-08
1.00875e-07
-1.55577e-07
-2.67651e-09
9.09193e-08
-1.94209e-07
-3.07301e-07
9.20855e-08
-3.66766e-07
-4.34301e-07
-4.52136e-07
-1.81354e-07
2.219e-07
2.79934e-07
-1.019e-07
1.71872e-07
-1.07368e-07
-8.80655e-08
2.95155e-07
1.33485e-07
-6.37761e-08
3.03182e-07
5.2078e-07
1.24563e-08
-6.32772e-07
7.19927e-07
-1.46453e-07
1.07829e-07
-9.9188e-08
1.61538e-07
-1.47641e-07
3.61129e-07
-1.51309e-07
3.24066e-07
-2.30924e-07
2.04226e-07
-6.37786e-08
2.10958e-07
5.93994e-07
-2.81382e-07
-1.37522e-07
4.6145e-08
-8.81642e-07
1.64526e-06
-1.04575e-07
-9.25596e-07
1.0738e-06
-5.00682e-07
8.06989e-07
2.44272e-07
-5.31606e-08
-1.42423e-07
5.35942e-07
-3.65414e-07
-2.27175e-07
-9.55376e-08
3.08862e-07
-9.55482e-07
2.42741e-07
-6.98636e-07
-1.08582e-06
-7.23298e-07
3.09587e-07
2.38331e-07
-7.55279e-08
-1.40491e-07
5.3954e-07
-4.61113e-07
-2.09882e-07
-1.88181e-07
-1.38781e-06
2.16712e-06
2.90138e-07
-1.01824e-06
-5.96052e-07
-1.02497e-06
3.71412e-07
2.86782e-07
-1.91187e-07
-2.7816e-07
4.11375e-07
-3.35491e-07
-3.40552e-07
3.86738e-07
-6.71453e-07
-7.52289e-07
2.49787e-07
-2.23173e-07
-6.51845e-07
8.16536e-07
-8.86268e-07
2.27252e-08
-1.09566e-07
2.70672e-08
-1.82079e-07
-1.44514e-07
-1.40287e-07
-2.15782e-07
1.63621e-07
3.91822e-07
-1.90371e-07
4.21948e-07
-5.1712e-07
2.0054e-07
-7.66222e-08
1.12459e-06
-1.03475e-07
1.16071e-06
6.9852e-07
-1.37776e-07
4.14844e-07
-3.40024e-07
1.7045e-07
1.70523e-07
-3.83232e-07
-2.85818e-07
5.20424e-07
6.39971e-07
-1.1491e-07
3.85067e-07
-3.68488e-07
2.0885e-07
2.76684e-07
1.05128e-06
-2.35889e-07
4.2146e-07
8.00558e-07
2.76753e-08
7.51885e-08
-4.84238e-08
-5.92477e-08
-1.88603e-08
2.4748e-07
-1.70444e-07
-9.3311e-08
-2.51376e-07
-3.81925e-08
-2.83181e-07
-1.81667e-07
-1.1559e-07
2.62723e-14
-2.80575e-10
2.94591e-10
-1.11397e-11
-1.84089e-10
2.01839e-10
2.22237e-11
-4.63047e-11
5.88999e-12
-9.36882e-12
6.33051e-12
2.60442e-11
-3.42389e-12
-4.40693e-12
1.16737e-10
-3.9116e-11
-3.42984e-10
1.09281e-10
-4.55594e-11
-1.26804e-10
1.75952e-11
-5.41604e-11
1.02806e-10
-7.0947e-13
-1.41443e-11
4.04968e-11
-9.58351e-12
7.40014e-12
1.13208e-10
7.69148e-11
-2.23002e-10
1.04563e-10
-1.27263e-10
9.31016e-11
3.9552e-11
6.05425e-11
-4.86295e-11
9.69026e-12
1.73268e-11
4.19261e-13
4.85137e-12
-2.14351e-12
1.17308e-12
2.77678e-10
-2.84334e-10
2.07607e-10
3.07821e-10
-6.04869e-10
1.58395e-11
3.23111e-11
2.22497e-10
1.10554e-12
-1.42666e-11
4.87162e-11
1.32733e-11
-4.56142e-12
4.64425e-11
2.37074e-10
-1.35362e-11
3.56452e-10
1.77592e-11
4.68278e-12
-2.32042e-11
2.92044e-11
-6.63846e-12
5.10008e-11
9.03752e-11
1.5975e-10
6.79765e-12
2.15488e-10
3.40612e-11
-8.50795e-12
2.70388e-11
-9.13376e-13
-5.70738e-12
9.8404e-12
1.44252e-11
1.0775e-11
-1.9528e-11
-1.86876e-10
1.00108e-10
-1.73793e-10
-1.13469e-10
2.26701e-11
-1.11939e-11
-2.06041e-11
1.68334e-11
1.65119e-11
-4.61327e-12
1.6344e-11
1.26647e-11
2.41747e-12
1.25495e-11
-1.19336e-10
-6.98807e-11
6.91515e-11
-2.40466e-12
-1.68472e-11
8.85761e-12
-1.24491e-11
-1.4367e-11
-1.28541e-11
3.23579e-13
-1.34312e-11
1.19669e-11
1.07918e-12
1.36212e-12
-3.74666e-11
-3.47427e-11
-2.37153e-10
-2.23148e-10
-3.20765e-10
-1.29439e-10
-3.29822e-11
-6.4109e-11
7.66426e-11
-4.85478e-12
-1.22946e-11
1.34347e-11
-1.62096e-11
1.01905e-11
3.40289e-11
1.90904e-10
8.16833e-12
8.21105e-11
-6.34275e-12
-3.98686e-11
-4.59289e-12
1.76086e-11
-2.41273e-11
3.37565e-11
1.98794e-10
-8.24525e-11
2.00001e-12
2.37366e-11
4.26039e-11
-6.40391e-12
-2.24738e-11
3.23315e-11
5.3943e-12
-8.10737e-12
1.17651e-11
-9.92496e-12
-2.95461e-12
-1.01367e-10
1.27462e-11
1.07976e-10
-1.8199e-11
2.44382e-12
-7.82778e-11
-9.3614e-12
1.89736e-12
-2.08409e-11
4.69487e-12
1.05673e-11
-2.51633e-11
-3.79371e-13
9.11611e-12
-5.53281e-12
-1.5205e-11
1.00388e-10
-1.18657e-11
-2.25902e-11
3.27571e-11
-1.50259e-11
-1.953e-11
6.68976e-12
1.81676e-11
-9.17823e-12
-6.75684e-12
3.28627e-12
1.76684e-11
-7.82152e-11
-2.41481e-10
7.77951e-11
-2.29891e-11
-4.31412e-11
-1.78039e-10
-2.01435e-11
1.20002e-10
-7.08375e-11
3.30064e-12
4.45882e-12
-2.98684e-11
1.26756e-11
6.45568e-12
1.91026e-11
-6.4707e-11
-8.56416e-12
7.58408e-11
1.54169e-12
7.33433e-11
1.02397e-11
1.56213e-11
1.99985e-12
5.09111e-11
1.93012e-10
-3.68285e-10
5.90901e-13
1.54286e-10
-6.36639e-11
-9.2251e-12
2.21802e-11
2.11355e-11
-6.7642e-12
1.28847e-11
-2.57273e-12
1.15699e-11
-2.00129e-11
-2.71394e-10
-1.03178e-10
6.54186e-10
-7.34808e-11
2.31617e-11
-1.5209e-10
-1.98649e-11
1.96396e-11
-7.69822e-11
-6.45652e-12
1.91893e-11
-5.04225e-11
1.75871e-12
1.38429e-11
-1.15655e-11
1.02507e-10
-1.05837e-10
1.59091e-12
-4.21563e-11
7.7165e-11
-1.30952e-11
-1.58263e-11
5.17274e-11
1.45635e-12
-1.71907e-11
9.6116e-12
4.83079e-13
2.22277e-11
-2.54905e-10
-1.98515e-10
6.04963e-10
-5.61861e-11
-2.25039e-10
-2.02911e-10
-3.24051e-11
-3.69891e-11
-7.8766e-11
-6.97014e-12
-1.57609e-11
-6.25065e-11
-1.53444e-11
1.76393e-11
3.8383e-11
-3.0404e-10
-8.90677e-12
-9.72615e-11
-6.37636e-12
3.63309e-11
-6.39293e-12
2.20142e-12
-1.64742e-11
-2.37224e-11
-3.20541e-10
-1.04545e-11
-7.71946e-11
2.24758e-11
-1.02725e-11