/*--------------------------------*- C++ -*----------------------------------*\
  =========                 |
  \\      /  F ield         | OpenFOAM: The Open Source CFD Toolbox
   \\    /   O peration     | Website:  https://openfoam.org
    \\  /    A nd           | Version:  6
     \\/     M anipulation  |
\*---------------------------------------------------------------------------*/
FoamFile
{
    version     2.0;
    format      ascii;
    class       volVectorField;
    location    "0.5";
    object      U;
}
// * * * * * * * * * * * * * * * * * * * * * * * * * * * * * * * * * * * * * //

dimensions      [0 1 -1 0 0 0 0];

internalField   nonuniform List<vector> 
6000
(
(-0.0627444 4.547e-07 7.59141e-07)
(0 0 0)
(-0.107835 -2.01887e-07 -3.91754e-07)
(-0.111006 6.58864e-08 -4.31202e-08)
(-0.00790796 0.00292888 1.35891e-08)
(-0.0939253 1.95096e-07 1.07248e-06)
(-0.109672 7.54639e-08 -3.33779e-07)
(-0.0993417 -1.31867e-07 -1.19211e-06)
(-0.110146 2.83676e-07 -3.34241e-08)
(0 0 0)
(-0.0851813 1.61048e-07 3.43353e-07)
(-0.1074 -2.31861e-07 2.6142e-07)
(-0.075612 -6.48279e-08 5.4053e-08)
(-0.110207 6.05006e-07 4.06977e-08)
(-0.0104811 0.00388191 3.89488e-09)
(-0.0864996 1.28518e-07 5.95893e-07)
(-0.10191 -5.50371e-08 5.92547e-07)
(-0.0908755 -1.90126e-07 1.04292e-06)
(-0.104609 2.56117e-07 5.91366e-07)
(-0.0114717 0.0042488 7.75802e-07)
(-0.00367953 5.4927e-09 0.00367954)
(0 0 0)
(-0.0040455 -3.71037e-09 0.00404551)
(-0.00918052 2.41323e-07 0.00918052)
(-0.115216 0.0426726 0.115216)
(-0.0240189 -0.00166272 -0.00268568)
(-0.0189616 -0.000813484 0.000133616)
(-0.0189482 -0.000319323 0.000352361)
(-0.00667398 0.00224449 1.18256e-05)
(-2.52256e-07 0.0426708 -1.75365e-07)
(-0.0229123 -0.000456081 -0.000616294)
(-0.0176792 -0.000116858 0.000169279)
(-0.0185873 -0.000379189 0.00187898)
(-0.00611993 0.00198717 1.52062e-05)
(-5.4284e-07 0.0416446 -1.58516e-07)
(-0.0271443 -0.00121692 0.00344063)
(-0.0164768 -1.52483e-05 0.00158495)
(-0.0251166 -0.000618475 0.0024106)
(-0.00536964 0.00159259 0.000286274)
(-5.56662e-07 0.0416861 -3.89495e-08)
(-0.0182221 -0.000554262 0.0169349)
(-0.0172442 -0.000366643 0.0168148)
(-0.0140097 -0.000612356 0.0124286)
(-0.00716638 0.00217686 0.00708974)
(-6.65776e-07 0.0391428 7.09287e-07)
(3.27746e-08 1.04037e-07 0.0906902)
(-5.23712e-07 -1.27085e-07 0.104553)
(-4.3682e-07 -2.47974e-07 0.0919804)
(-6.09016e-07 2.6994e-07 0.104501)
(-8.7329e-07 0.00492767 0.0133047)
(-0.00359217 -0.000161146 -3.93019e-05)
(0 0 0)
(-0.00259686 0.000353174 0.000397678)
(-7.42584e-05 0.00145358 2.37862e-05)
(0 0 0)
(-0.00104862 -1.98979e-05 0.000156196)
(-0.00221915 0.000103843 0.000507298)
(-0.0030981 0.000315394 0.000966189)
(-3.16587e-05 0.000728848 2.58021e-05)
(9.26942e-08 0.044289 -1.83752e-07)
(-0.00337324 -0.00013739 0.00239424)
(-0.00148894 6.22915e-05 0.00121955)
(-0.00463668 0.000288864 0.00271279)
(-1.21427e-05 0.0003078 3.61865e-05)
(-6.54267e-08 0.0435975 -1.29507e-07)
(-0.00173274 -0.000352305 0.0155499)
(-0.00104002 -4.96946e-05 0.0108655)
(-0.00168326 -8.83681e-05 0.0123021)
(-0.000109511 0.00143608 0.00428356)
(-3.8452e-08 0.0417046 7.80917e-07)
(0 0 0)
(-7.02878e-07 -2.69107e-07 0.11439)
(-2.00545e-07 -1.21783e-07 0.0997902)
(-6.12434e-08 4.14583e-07 0.111)
(0 0 0)
(0.00512056 -8.74862e-05 -7.16395e-05)
(0.00214779 -2.4518e-05 2.91742e-05)
(0.0016411 4.62179e-05 2.43326e-05)
(0.00661132 0.00260272 3.61873e-05)
(1.85826e-07 0.0429782 1.95978e-08)
(0.00244888 -1.66911e-05 -3.41889e-06)
(0.00153429 -1.21349e-06 4.07338e-05)
(0.00179716 4.60356e-05 5.56814e-05)
(0.0056678 0.00221144 4.67706e-05)
(2.74135e-07 0.0428526 -1.21459e-07)
(0.00201427 -1.37022e-05 0.000382391)
(0.00141948 7.14931e-07 0.000204058)
(0.00216733 4.80541e-05 0.000248242)
(0.00438086 0.00166694 0.00019749)
(5.83704e-07 0.0419737 -1.65767e-07)
(0.0164668 -0.000402341 0.0194174)
(0.0130633 -0.00037458 0.0147254)
(0.00970884 -0.000113486 0.0109665)
(0.00480916 0.00171689 0.00484996)
(6.92278e-07 0.0400202 7.67181e-07)
(-8.16486e-08 -2.30413e-08 0.100475)
(-2.30115e-07 -1.12565e-07 0.106143)
(2.42072e-07 -6.49056e-08 0.103935)
(5.83872e-07 3.47844e-07 0.10652)
(8.49641e-07 0.00516833 0.0139545)
(0 0 0)
(0.110813 4.76333e-08 3.41685e-08)
(0.112812 2.31117e-07 6.90775e-08)
(0.111494 3.54662e-07 3.08382e-08)
(0 0 0)
(0.108117 -8.40789e-09 1.07521e-07)
(0.109794 9.1511e-08 2.00343e-07)
(0.112152 2.28445e-07 2.07661e-07)
(0.111335 3.22634e-07 3.21245e-08)
(0.00808406 0.0029941 1.62702e-08)
(0.109198 -6.69546e-09 6.49195e-07)
(0.110927 8.28968e-08 5.46488e-07)
(0.112449 1.66394e-07 3.15946e-07)
(0.111037 3.59822e-07 3.05802e-09)
(0.0117221 0.00434152 3.44328e-08)
(0.0973359 -4.42903e-08 7.7935e-07)
(0.101961 -3.3422e-08 5.58423e-07)
(0.104144 2.31705e-08 2.894e-07)
(0.106215 3.12815e-07 6.19847e-07)
(0.0130018 0.0048155 8.14842e-07)
(0 0 0)
(0.00349174 -4.1518e-09 0.00349174)
(0.00224308 3.61761e-09 0.00224308)
(0.00983506 2.50038e-07 0.00983506)
(0.107772 0.0399158 0.107773)
(0 0 0)
(-0.184145 -3.08939e-06 3.34753e-06)
(-0.290946 2.76518e-08 1.70296e-06)
(-0.184102 3.18087e-06 3.30142e-06)
(0 0 0)
(-0.0505662 -0.0252834 -1.81047e-07)
(-0.258784 -2.98475e-06 7.14805e-06)
(-0.30322 -8.51129e-09 3.00013e-06)
(-0.258409 3.10236e-06 7.04163e-06)
(-0.0522554 0.0261281 -2.11513e-07)
(-0.0363876 -0.0181939 1.10898e-07)
(-0.285947 -2.87086e-06 3.86951e-06)
(-0.309847 -2.81457e-08 2.0497e-06)
(-0.285394 2.94157e-06 3.81946e-06)
(-0.0375976 0.0187989 8.00726e-08)
(-0.0328493 -0.0164247 1.96327e-06)
(-0.27137 -2.64582e-06 6.40765e-06)
(-0.290422 -2.98023e-08 6.36812e-06)
(-0.271023 2.64594e-06 6.35049e-06)
(-0.0332398 0.01662 1.88816e-06)
(-0.0976262 -0.0488131 0.0976263)
(-0.0329895 -9.55348e-07 0.0329896)
(-0.0326962 -5.92504e-09 0.0326963)
(-0.032724 9.07942e-07 0.0327241)
(-0.0940022 0.0470012 0.0940024)
(-4.16911e-06 -0.10846 2.59317e-06)
(-0.0616165 -0.0363834 -0.0109676)
(-0.0101542 6.14303e-06 -8.23252e-05)
(-0.0617747 0.0364359 -0.0109887)
(-4.47183e-06 0.108487 2.56081e-06)
(-3.58251e-06 -0.140506 4.40754e-06)
(-0.0300483 -0.0164263 -0.00576445)
(-0.00988498 4.4255e-06 -7.1724e-05)
(-0.0302795 0.0165664 -0.00582307)
(-3.88663e-06 0.140446 4.29588e-06)
(-3.72636e-06 -0.149244 1.4513e-06)
(-0.0215626 -0.0111903 0.000723766)
(-0.0102251 3.93806e-06 0.000766611)
(-0.0215537 0.0111968 0.00070509)
(-4.10617e-06 0.148999 1.37409e-06)
(-3.26097e-06 -0.139427 4.89081e-06)
(-0.0212403 -0.0108071 0.0215292)
(-0.023597 -5.92966e-09 0.0238321)
(-0.0219237 0.0111334 0.0221386)
(-4.13287e-06 0.139295 4.91966e-06)
(-1.88357e-06 -0.0156042 0.0312084)
(-4.43285e-06 -2.73383e-06 0.275446)
(-5.33301e-06 -4.81937e-08 0.292335)
(-4.68623e-06 2.72511e-06 0.274888)
(-1.69953e-06 0.0158647 0.0317293)
(5.98926e-06 -0.151636 5.57329e-07)
(-0.00341289 -0.0110277 -0.000661722)
(-0.000433242 -3.87656e-05 -0.000542479)
(-0.0034494 0.0108727 -0.000633154)
(5.19557e-06 0.151462 6.30689e-07)
(1.73543e-06 -0.158076 9.97566e-07)
(-0.000495382 -0.00723384 -0.000658066)
(-1.28009e-05 -1.03001e-07 -0.000171316)
(-0.000515678 0.00723243 -0.000634616)
(1.68504e-06 0.157956 8.79339e-07)
(5.50311e-07 -0.161835 1.32758e-06)
(-9.44187e-05 -0.00468155 0.000478508)
(0 0 0)
(-0.000105035 0.00479831 0.000473539)
(4.70314e-07 0.161076 3.64418e-07)
(3.22676e-07 -0.153027 3.64079e-06)
(0.000445144 -0.0111451 0.021938)
(-4.20498e-05 -1.15037e-05 0.011504)
(0.000410699 0.0107021 0.0212473)
(1.92914e-07 0.150718 5.1303e-06)
(1.64145e-08 -0.0113464 0.0226927)
(1.16826e-07 -2.36117e-06 0.298747)
(9.56043e-08 -2.07292e-07 0.314858)
(3.86166e-08 2.99702e-06 0.297173)
(0 0 0)
(3.89421e-06 -0.150309 -6.93036e-07)
(0.0241639 -0.0128555 -0.000384276)
(0.00842171 -1.04191e-05 -2.31312e-05)
(0.0236193 0.0124579 -0.000329186)
(4.64933e-06 0.14872 -4.57356e-09)
(5.06284e-06 -0.150807 -7.13062e-07)
(0.0211098 -0.0108591 -0.000543676)
(0.00970921 -2.65815e-06 -4.14613e-05)
(0.0209205 0.0107696 -0.000488098)
(4.4604e-06 0.150843 -1.2004e-07)
(5.11686e-06 -0.152378 1.30203e-07)
(0.0187128 -0.00951129 0.00165602)
(0.00938348 -3.77662e-07 0.000667609)
(0.0186443 0.00948656 0.00164449)
(4.56568e-06 0.152067 -2.52238e-08)
(3.75318e-06 -0.137059 4.53994e-06)
(0.0309302 -0.0156949 0.0313764)
(0.023215 -1.31786e-05 0.0234803)
(0.0306633 0.0155298 0.0310453)
(4.02149e-06 0.136755 4.38231e-06)
(2.76759e-06 -0.0158847 0.0317693)
(3.44816e-06 -2.73205e-06 0.269567)
(4.00791e-06 -8.68519e-08 0.294004)
(3.62851e-06 2.60141e-06 0.268925)
(2.51739e-06 0.015605 0.03121)
(0.0184294 -0.00921473 1.04508e-07)
(0.294627 -2.24691e-06 -3.82707e-07)
(0.312963 -1.31485e-07 -7.24694e-08)
(0.294001 2.57854e-06 -1.9256e-07)
(0.0237182 0.0118591 2.93174e-08)
(0.0302038 -0.0151019 2.11209e-07)
(0.297322 -3.14473e-06 -5.78326e-07)
(0.313452 -3.07627e-08 -1.31363e-07)
(0.297165 2.82431e-06 -4.59056e-07)
(0.0269134 0.0134567 5.8266e-08)
(0 0 0)
(0.299433 -3.39303e-06 -1.05748e-07)
(0.313608 -6.89838e-08 3.72397e-07)
(0.298713 3.00573e-06 -2.29954e-07)
(0.0299868 0.0149935 3.14715e-08)
(0.032503 -0.0162516 2.6724e-06)
(0.268555 -2.81634e-06 3.84312e-06)
(0.292512 -8.96461e-08 4.5614e-06)
(0.267876 2.52748e-06 3.78633e-06)
(0.0299881 0.0149941 2.47904e-06)
(0.148288 -0.0741444 0.148288)
(0.0236869 -1.0575e-06 0.0236869)
(0.0240245 -7.39628e-09 0.0240245)
(0.0236823 1.03253e-06 0.0236823)
(0.145797 0.0728987 0.145797)
(0 0 0)
(-0.0309085 9.18104e-09 9.16505e-11)
(0 0 0)
(-0.0309124 -1.04905e-08 -5.83506e-10)
(-0.000469471 0.000260817 1.8526e-11)
(-0.000403509 -0.000224172 -9.30222e-12)
(-0.030848 -4.48279e-09 -1.60763e-09)
(-0.0316193 -6.25133e-10 -4.46206e-08)
(-0.0308438 5.54098e-09 -2.3614e-09)
(-0.000568072 0.000315595 6.3185e-11)
(-0.00062409 -0.000346717 1.67052e-10)
(-0.0306407 -1.45281e-08 2.44729e-10)
(-0.0299638 -6.35752e-10 -5.41322e-09)
(-0.0306254 1.55093e-08 7.41623e-10)
(-0.000786811 0.000437117 1.35016e-10)
(-0.000844563 -0.000469201 7.69493e-09)
(-0.0302478 -1.19294e-08 2.02669e-08)
(-0.0300759 -3.23453e-10 2.63912e-08)
(-0.0302555 1.13562e-08 2.04325e-08)
(-0.000826129 0.00045896 7.30637e-09)
(-0.0150712 -0.0083729 0.0150712)
(-0.0010256 -5.17766e-09 0.0010256)
(-0.000915333 -1.67231e-11 0.000915334)
(-0.00100275 4.94587e-09 0.00100275)
(-0.0147761 0.00820895 0.0147761)
(7.11425e-09 -0.0173327 -1.83821e-09)
(-0.0012492 -0.000699085 2.6458e-06)
(-0.00456159 -1.80132e-06 5.46351e-05)
(-0.00124795 0.000698208 1.52432e-06)
(8.84042e-09 0.0173446 -3.86165e-09)
(-1.93815e-09 -0.017241 -4.70458e-09)
(-0.000850831 -0.000474861 4.86513e-06)
(-0.00399156 -3.48408e-06 0.000138491)
(-0.000839975 0.000467366 4.22136e-06)
(-5.17802e-09 0.0172082 -6.65497e-09)
(-7.74671e-09 -0.0170907 -3.17859e-09)
(-0.000593985 -0.000326586 1.16838e-05)
(-0.00460994 -3.64079e-06 0.000165325)
(-0.000593088 0.000325074 1.1968e-05)
(-1.16052e-08 0.0170554 -1.79669e-09)
(-1.37767e-08 -0.0168025 1.74086e-08)
(-0.000561971 -0.000308381 0.000564282)
(-0.00179235 -1.26182e-06 0.00178071)
(-0.000588268 0.000322041 0.000590268)
(-1.66902e-08 0.016803 1.92622e-08)
(-8.90495e-09 -0.000550319 0.000990575)
(-1.3427e-08 -2.21336e-09 0.0304374)
(3.3189e-08 -3.83007e-10 0.0312008)
(-1.41422e-08 2.12247e-09 0.0304404)
(-8.78568e-09 0.000567202 0.00102096)
(0 0 0)
(2.93904e-07 -0.00250423 5.6518e-05)
(0 0 0)
(6.79247e-07 0.00249005 5.42336e-05)
(0 0 0)
(1.41719e-11 -0.0177771 -1.60921e-08)
(3.44343e-07 -0.0021958 9.29864e-05)
(1.93351e-06 -5.89851e-06 0.000296992)
(3.13054e-06 0.00217221 8.96971e-05)
(1.41328e-09 0.0177604 -1.75815e-08)
(1.67424e-11 -0.0174597 -3.9407e-09)
(3.2642e-07 -0.00231438 0.000105892)
(2.62188e-07 -1.24716e-06 0.000159998)
(1.72375e-06 0.00228757 0.000102231)
(1.04023e-09 0.0174226 -6.68177e-09)
(1.84788e-11 -0.0171569 1.15277e-08)
(1.41485e-07 -0.000787463 0.00138763)
(5.35592e-07 -3.19287e-06 0.00327853)
(1.9494e-07 0.000750593 0.00132979)
(-2.85685e-10 0.0170711 1.89547e-08)
(4.05063e-13 -0.000361165 0.000650098)
(5.79021e-11 1.66904e-08 0.0310908)
(0 0 0)
(2.2254e-10 -1.36469e-08 0.0310619)
(0 0 0)
(-6.98972e-09 -0.0173311 -1.81554e-09)
(0.00125176 -0.000700448 2.67771e-06)
(0.00456552 -1.58691e-06 5.51273e-05)
(0.00125525 0.000701374 2.43094e-06)
(-6.38862e-09 0.0173264 -1.97837e-09)
(2.00387e-09 -0.0172397 -4.67906e-09)
(0.000854137 -0.000476601 4.89306e-06)
(0.0039993 -1.89349e-06 0.000138905)
(0.000868245 0.000483325 4.60682e-06)
(3.03117e-09 0.0172337 -5.13808e-09)
(7.79107e-09 -0.0170897 -3.17361e-09)
(0.000596775 -0.000328051 1.17398e-05)
(0.00461557 -2.74936e-06 0.000165244)
(0.000607942 0.000333166 1.17775e-05)
(9.5247e-09 0.0170783 -3.44392e-09)
(1.38161e-08 -0.0168012 1.74101e-08)
(0.000565236 -0.000310087 0.000567506)
(0.00179853 -1.22159e-06 0.00178623)
(0.000593335 0.000324361 0.000594897)
(1.73843e-08 0.0167917 1.88547e-08)
(8.89054e-09 -0.000550343 0.000990617)
(1.35151e-08 -2.13495e-09 0.0304373)
(-3.29148e-08 -2.91128e-10 0.0312035)
(1.488e-08 2.37428e-09 0.0304479)
(9.13674e-09 0.000594812 0.00107066)
(0 0 0)
(0.0309047 9.18118e-09 1.16985e-10)
(0 0 0)
(0.0309181 -9.21665e-09 1.55964e-10)
(0 0 0)
(0.000407094 -0.000226164 -1.0408e-11)
(0.0308448 -4.39837e-09 -1.55042e-09)
(0.0316235 -8.64724e-11 -4.44532e-08)
(0.0308669 4.23367e-09 -1.55332e-09)
(0.000398873 0.000221596 -1.40706e-11)
(0.000624811 -0.000347117 1.66755e-10)
(0.0306397 -1.43903e-08 3.04507e-10)
(0.0299742 -1.03897e-10 -5.37126e-09)
(0.0306663 1.42061e-08 1.80862e-10)
(0.00061585 0.000342139 1.62825e-10)
(0.000845812 -0.000469895 7.69245e-09)
(0.0302479 -1.18093e-08 2.03233e-08)
(0.0300841 -1.49795e-10 2.63789e-08)
(0.0302717 1.1612e-08 2.01752e-08)
(0.000881269 0.000489594 7.79107e-09)
(0.0150437 -0.00835764 0.0150438)
(0.0010272 -5.17211e-09 0.0010272)
(0.000915998 -5.93457e-12 0.000915999)
(0.00102264 4.99828e-09 0.00102264)
(0.0146158 0.00811988 0.0146158)
(0 0 0)
(-0.184145 -3.08939e-06 3.34753e-06)
(-0.290946 2.76518e-08 1.70296e-06)
(-0.184102 3.18087e-06 3.30142e-06)
(0 0 0)
(-0.0505662 -0.0252834 -1.81047e-07)
(-0.258784 -2.98475e-06 7.14805e-06)
(-0.30322 -8.51129e-09 3.00013e-06)
(-0.258409 3.10236e-06 7.04163e-06)
(-0.0522554 0.0261281 -2.11513e-07)
(-0.0363876 -0.0181939 1.10898e-07)
(-0.285947 -2.87086e-06 3.86951e-06)
(-0.309847 -2.81457e-08 2.0497e-06)
(-0.285394 2.94157e-06 3.81946e-06)
(-0.0375976 0.0187989 8.00726e-08)
(-0.0328493 -0.0164247 1.96327e-06)
(-0.27137 -2.64582e-06 6.40765e-06)
(-0.290422 -2.98023e-08 6.36812e-06)
(-0.271023 2.64594e-06 6.35049e-06)
(-0.0332398 0.01662 1.88816e-06)
(-0.0976262 -0.0488131 0.0976263)
(-0.0329895 -9.55348e-07 0.0329896)
(-0.0326962 -5.92504e-09 0.0326963)
(-0.032724 9.07942e-07 0.0327241)
(-0.0940022 0.0470012 0.0940024)
(-4.16911e-06 -0.10846 2.59317e-06)
(-0.0616165 -0.0363834 -0.0109676)
(-0.0101542 6.14303e-06 -8.23252e-05)
(-0.0617747 0.0364359 -0.0109887)
(-4.47183e-06 0.108487 2.56081e-06)
(-3.58251e-06 -0.140506 4.40754e-06)
(-0.0300483 -0.0164263 -0.00576445)
(-0.00988498 4.4255e-06 -7.1724e-05)
(-0.0302795 0.0165664 -0.00582307)
(-3.88663e-06 0.140446 4.29588e-06)
(-3.72636e-06 -0.149244 1.4513e-06)
(-0.0215626 -0.0111903 0.000723766)
(-0.0102251 3.93806e-06 0.000766611)
(-0.0215537 0.0111968 0.00070509)
(-4.10617e-06 0.148999 1.37409e-06)
(-3.26097e-06 -0.139427 4.89081e-06)
(-0.0212403 -0.0108071 0.0215292)
(-0.023597 -5.92969e-09 0.0238321)
(-0.0219237 0.0111334 0.0221386)
(-4.13287e-06 0.139295 4.91966e-06)
(-1.88357e-06 -0.0156042 0.0312084)
(-4.43285e-06 -2.73383e-06 0.275446)
(-5.33301e-06 -4.81937e-08 0.292335)
(-4.68623e-06 2.72511e-06 0.274888)
(-1.69953e-06 0.0158647 0.0317293)
(5.98926e-06 -0.151636 5.57329e-07)
(-0.00341289 -0.0110277 -0.000661722)
(-0.000433242 -3.87656e-05 -0.000542479)
(-0.0034494 0.0108727 -0.000633154)
(5.19557e-06 0.151462 6.30689e-07)
(1.73543e-06 -0.158076 9.97566e-07)
(-0.000495382 -0.00723384 -0.000658066)
(-1.28009e-05 -1.03001e-07 -0.000171316)
(-0.000515678 0.00723243 -0.000634616)
(1.68504e-06 0.157956 8.79339e-07)
(5.50311e-07 -0.161835 1.32758e-06)
(-9.44187e-05 -0.00468155 0.000478508)
(0 0 0)
(-0.000105035 0.00479831 0.000473539)
(4.70314e-07 0.161076 3.64418e-07)
(3.22676e-07 -0.153027 3.64079e-06)
(0.000445144 -0.0111451 0.021938)
(-4.20498e-05 -1.15037e-05 0.011504)
(0.000410699 0.0107021 0.0212473)
(1.92914e-07 0.150718 5.1303e-06)
(1.64145e-08 -0.0113464 0.0226927)
(1.16826e-07 -2.36117e-06 0.298747)
(9.56043e-08 -2.07292e-07 0.314858)
(3.86166e-08 2.99702e-06 0.297173)
(0 0 0)
(3.89421e-06 -0.150309 -6.93036e-07)
(0.0241639 -0.0128555 -0.000384276)
(0.00842171 -1.04191e-05 -2.31312e-05)
(0.0236193 0.0124579 -0.000329186)
(4.64933e-06 0.14872 -4.57356e-09)
(5.06284e-06 -0.150807 -7.13062e-07)
(0.0211098 -0.0108591 -0.000543676)
(0.00970921 -2.65815e-06 -4.14613e-05)
(0.0209205 0.0107696 -0.000488098)
(4.4604e-06 0.150843 -1.2004e-07)
(5.11686e-06 -0.152378 1.30203e-07)
(0.0187128 -0.00951129 0.00165602)
(0.00938348 -3.77662e-07 0.000667609)
(0.0186443 0.00948656 0.00164449)
(4.56568e-06 0.152067 -2.52238e-08)
(3.75318e-06 -0.137059 4.53994e-06)
(0.0309302 -0.0156949 0.0313764)
(0.023215 -1.31786e-05 0.0234803)
(0.0306633 0.0155298 0.0310453)
(4.02149e-06 0.136755 4.38231e-06)
(2.76759e-06 -0.0158847 0.0317693)
(3.44816e-06 -2.73205e-06 0.269567)
(4.00791e-06 -8.68519e-08 0.294004)
(3.62851e-06 2.60141e-06 0.268925)
(2.51739e-06 0.015605 0.03121)
(0.0184294 -0.00921473 1.04508e-07)
(0.294627 -2.24691e-06 -3.82707e-07)
(0.312963 -1.31485e-07 -7.24694e-08)
(0.294001 2.57854e-06 -1.9256e-07)
(0.0237182 0.0118591 2.93174e-08)
(0.0302038 -0.0151019 2.11209e-07)
(0.297322 -3.14473e-06 -5.78326e-07)
(0.313452 -3.07627e-08 -1.31363e-07)
(0.297165 2.82431e-06 -4.59056e-07)
(0.0269134 0.0134567 5.8266e-08)
(0 0 0)
(0.299433 -3.39303e-06 -1.05748e-07)
(0.313608 -6.89838e-08 3.72397e-07)
(0.298713 3.00573e-06 -2.29954e-07)
(0.0299868 0.0149935 3.14715e-08)
(0.032503 -0.0162516 2.6724e-06)
(0.268555 -2.81634e-06 3.84312e-06)
(0.292512 -8.96461e-08 4.5614e-06)
(0.267876 2.52748e-06 3.78633e-06)
(0.0299881 0.0149941 2.47904e-06)
(0.148288 -0.0741444 0.148288)
(0.0236869 -1.0575e-06 0.0236869)
(0.0240245 -7.39628e-09 0.0240245)
(0.0236823 1.03253e-06 0.0236823)
(0.145797 0.0728987 0.145797)
(-0.000624292 -0.00036723 1.79327e-10)
(-0.0334201 1.63148e-08 -7.93583e-09)
(0 0 0)
(-0.0336997 -1.41822e-08 -5.18356e-09)
(-0.00109961 0.000646828 2.10541e-11)
(-0.00103933 -0.00061137 4.87168e-10)
(-0.0334073 -1.52902e-08 -1.18575e-08)
(-0.0342232 1.21722e-09 -1.42873e-07)
(-0.0337736 1.24057e-08 -8.27794e-09)
(-0.000899852 0.000529325 1.82785e-10)
(-0.00154449 -0.000908523 3.01059e-10)
(-0.0332196 -7.45209e-08 -2.97919e-09)
(-0.0267242 1.36231e-09 -3.74492e-09)
(-0.0334773 7.21228e-08 -2.46633e-09)
(-0.00122204 0.000718847 3.51465e-10)
(-0.00152018 -0.000894224 2.09846e-08)
(-0.032631 -2.13661e-08 2.77648e-08)
(-0.0326785 1.47004e-09 1.16748e-07)
(-0.0329278 2.03798e-08 2.76981e-08)
(-0.00138432 0.000814304 2.08149e-08)
(-0.0234331 -0.0137841 0.0234331)
(-0.00139076 -1.14901e-08 0.00139076)
(-0.00145092 6.56893e-11 0.00145092)
(-0.00139159 1.23819e-08 0.00139159)
(-0.0252335 0.0148432 0.0252335)
(-4.88828e-08 -0.0193814 2.44463e-09)
(-0.00132195 -0.000805219 -1.53663e-05)
(-0.00314774 -1.49443e-05 -8.95454e-06)
(-0.00102966 0.000617745 -1.02028e-05)
(-5.70237e-08 0.0194031 4.53196e-09)
(-2.0494e-08 -0.0196835 6.91159e-09)
(-0.00109135 -0.000644787 -1.25913e-05)
(-0.00331224 -1.37124e-05 0.000225703)
(-0.000941502 0.00054853 -5.14395e-06)
(-2.39873e-08 0.0197359 4.38555e-09)
(-8.99801e-09 -0.0198214 -4.64828e-10)
(-0.00170628 -0.00092279 3.05786e-05)
(-0.00616865 -1.22923e-05 0.000245542)
(-0.00112688 0.000607247 2.35282e-05)
(-2.55379e-08 0.0196457 3.04531e-11)
(-2.53084e-08 -0.0193018 2.17163e-08)
(-0.000786721 -0.00046013 0.000783611)
(-0.00205286 -5.82714e-06 0.00192663)
(-0.000742957 0.000429316 0.000741366)
(-2.9305e-08 0.0193119 2.94085e-08)
(-2.10813e-08 -0.000900824 0.0015314)
(-2.69734e-08 -7.17085e-09 0.0326478)
(2.54218e-08 2.38388e-09 0.0339565)
(-2.49055e-08 7.08215e-09 0.033017)
(-2.23231e-08 0.000882788 0.00150074)
(-2.996e-09 -0.018107 3.56578e-08)
(2.11797e-06 -0.00282137 -0.000224332)
(0.000276167 -1.05155e-05 -1.83459e-05)
(1.25482e-05 0.00266308 -0.00020493)
(7.80203e-10 0.0181353 3.18463e-08)
(-1.8613e-09 -0.0202401 5.79883e-08)
(2.59362e-06 -0.0020051 -0.000214713)
(8.1369e-05 -3.02248e-05 -0.000115732)
(7.87504e-06 0.00188423 -0.000140956)
(-1.15302e-09 0.0201065 3.98971e-08)
(0 0 0)
(-1.1204e-05 -0.00169257 6.2095e-05)
(0 0 0)
(-8.42355e-06 0.00196778 8.15127e-05)
(-2.98689e-09 0.020263 3.78665e-09)
(-3.61521e-09 -0.0197836 1.02592e-08)
(-2.79532e-06 -0.000987404 0.00166225)
(-6.69797e-06 -4.99263e-06 0.00275533)
(-6.69759e-07 0.000914526 0.00154349)
(-7.29534e-10 0.019675 3.09769e-08)
(0 0 0)
(-2.58235e-09 9.23087e-09 0.0334105)
(0 0 0)
(-1.31038e-09 -9.8844e-09 0.0337855)
(9.9406e-11 0.000944651 0.00160591)
(3.97062e-08 -0.0192757 3.84806e-09)
(0.000372137 -0.000202341 -4.26786e-06)
(0.00730393 -3.25602e-05 -0.000923297)
(0.000336746 0.000180366 -3.45114e-06)
(7.34557e-08 0.0193708 2.58023e-09)
(6.61169e-09 -0.0196129 5.44407e-09)
(0.00102897 -0.000604497 -1.69806e-05)
(0.0036378 -1.15222e-05 -0.000469136)
(0.00103341 0.000597181 -1.14323e-05)
(4.13199e-08 0.0196484 6.24495e-10)
(-3.83035e-09 -0.0197711 -2.25841e-09)
(0.001546 -0.000914597 2.38537e-05)
(0.0029525 -2.40333e-06 6.56237e-05)
(0.00141911 0.000837398 2.52004e-05)
(3.74965e-08 0.0196158 4.27954e-10)
(1.78114e-08 -0.0192294 2.42535e-08)
(0.000728447 -0.000427455 0.000730265)
(0.00195507 -4.02742e-06 0.00194842)
(0.000727738 0.000421936 0.000727925)
(3.79177e-08 0.0192989 3.42643e-08)
(2.2101e-08 -0.000917517 0.00155978)
(2.76376e-08 -1.23362e-08 0.0325759)
(-1.24192e-08 3.11026e-09 0.033496)
(2.80966e-08 1.46879e-08 0.0329662)
(2.54196e-08 0.000965986 0.00164218)
(0.000383041 -0.000225318 5.55389e-11)
(0.0327144 -7.32649e-08 1.28866e-09)
(0.0238855 1.16779e-09 8.28923e-08)
(0.0330912 9.13986e-08 2.85292e-09)
(0.00190487 0.00112051 7.49955e-11)
(0.000561491 -0.000330289 2.01936e-10)
(0.0331559 -9.39647e-09 1.07137e-09)
(0.0336952 2.57546e-09 1.64e-07)
(0.0335761 2.49727e-08 3.04075e-09)
(0.00183908 0.00108181 1.12251e-10)
(0.000936166 -0.000550686 3.58229e-10)
(0.033336 1.37334e-08 -2.44073e-09)
(0 0 0)
(0.0336296 -2.19002e-09 -1.41183e-09)
(0.00197642 0.0011626 5.65731e-11)
(0.00133178 -0.000783401 1.94284e-08)
(0.0324958 -9.68809e-09 2.90531e-08)
(0.0334183 3.16829e-09 -6.09624e-09)
(0.0328919 1.80987e-08 2.97804e-08)
(0.00186569 0.00109747 2.85095e-08)
(0.0243677 -0.014334 0.0243677)
(0.00162244 -1.34284e-08 0.00162244)
(0 0 0)
(0.00160815 1.45231e-08 0.00160815)
(0.026034 0.0153141 0.026034)
(0 0 0)
(-0.184145 -3.08939e-06 3.34753e-06)
(-0.290946 2.76518e-08 1.70296e-06)
(-0.184102 3.18087e-06 3.30142e-06)
(0 0 0)
(-0.0505662 -0.0252834 -1.81047e-07)
(-0.258784 -2.98475e-06 7.14805e-06)
(-0.30322 -8.51129e-09 3.00013e-06)
(-0.258409 3.10236e-06 7.04163e-06)
(-0.0522554 0.0261281 -2.11513e-07)
(-0.0363876 -0.0181939 1.10898e-07)
(-0.285947 -2.87086e-06 3.86951e-06)
(-0.309847 -2.81457e-08 2.0497e-06)
(-0.285394 2.94157e-06 3.81946e-06)
(-0.0375976 0.0187989 8.00726e-08)
(-0.0328493 -0.0164247 1.96327e-06)
(-0.27137 -2.64582e-06 6.40765e-06)
(-0.290422 -2.98023e-08 6.36812e-06)
(-0.271023 2.64594e-06 6.35049e-06)
(-0.0332398 0.01662 1.88816e-06)
(-0.0976262 -0.0488131 0.0976263)
(-0.0329895 -9.55348e-07 0.0329896)
(-0.0326962 -5.92504e-09 0.0326963)
(-0.032724 9.07942e-07 0.0327241)
(-0.0940022 0.0470012 0.0940024)
(-4.16911e-06 -0.10846 2.59317e-06)
(-0.0616165 -0.0363834 -0.0109676)
(-0.0101542 6.14303e-06 -8.23252e-05)
(-0.0617747 0.0364359 -0.0109887)
(-4.47183e-06 0.108487 2.56081e-06)
(-3.58251e-06 -0.140506 4.40754e-06)
(-0.0300483 -0.0164263 -0.00576445)
(-0.00988498 4.4255e-06 -7.1724e-05)
(-0.0302795 0.0165664 -0.00582307)
(-3.88663e-06 0.140446 4.29588e-06)
(-3.72636e-06 -0.149244 1.4513e-06)
(-0.0215626 -0.0111903 0.000723766)
(-0.0102251 3.93806e-06 0.000766611)
(-0.0215537 0.0111968 0.00070509)
(-4.10617e-06 0.148999 1.37409e-06)
(-3.26097e-06 -0.139427 4.89081e-06)
(-0.0212403 -0.0108071 0.0215292)
(-0.023597 -5.92966e-09 0.0238321)
(-0.0219237 0.0111334 0.0221386)
(-4.13287e-06 0.139295 4.91966e-06)
(-1.88357e-06 -0.0156042 0.0312084)
(-4.43285e-06 -2.73383e-06 0.275446)
(-5.33301e-06 -4.81937e-08 0.292335)
(-4.68623e-06 2.72511e-06 0.274888)
(-1.69953e-06 0.0158647 0.0317293)
(5.98926e-06 -0.151636 5.57329e-07)
(-0.00341289 -0.0110277 -0.000661722)
(-0.000433242 -3.87656e-05 -0.000542479)
(-0.0034494 0.0108727 -0.000633154)
(5.19557e-06 0.151462 6.30689e-07)
(1.73543e-06 -0.158076 9.97566e-07)
(-0.000495382 -0.00723384 -0.000658066)
(-1.28009e-05 -1.03001e-07 -0.000171316)
(-0.000515678 0.00723243 -0.000634616)
(1.68504e-06 0.157956 8.79339e-07)
(5.50311e-07 -0.161835 1.32758e-06)
(-9.44187e-05 -0.00468155 0.000478508)
(0 0 0)
(-0.000105035 0.00479831 0.000473539)
(4.70314e-07 0.161076 3.64418e-07)
(3.22676e-07 -0.153027 3.64079e-06)
(0.000445144 -0.0111451 0.021938)
(-4.20498e-05 -1.15037e-05 0.011504)
(0.000410699 0.0107021 0.0212473)
(1.92914e-07 0.150718 5.1303e-06)
(1.64145e-08 -0.0113464 0.0226927)
(1.16826e-07 -2.36117e-06 0.298747)
(9.56043e-08 -2.07292e-07 0.314858)
(3.86166e-08 2.99702e-06 0.297173)
(0 0 0)
(3.89421e-06 -0.150309 -6.93036e-07)
(0.0241639 -0.0128555 -0.000384276)
(0.00842171 -1.04191e-05 -2.31312e-05)
(0.0236193 0.0124579 -0.000329186)
(4.64933e-06 0.14872 -4.57356e-09)
(5.06284e-06 -0.150807 -7.13062e-07)
(0.0211098 -0.0108591 -0.000543676)
(0.00970921 -2.65815e-06 -4.14613e-05)
(0.0209205 0.0107696 -0.000488098)
(4.4604e-06 0.150843 -1.2004e-07)
(5.11686e-06 -0.152378 1.30203e-07)
(0.0187128 -0.00951129 0.00165602)
(0.00938348 -3.77662e-07 0.000667609)
(0.0186443 0.00948656 0.00164449)
(4.56568e-06 0.152067 -2.52238e-08)
(3.75318e-06 -0.137059 4.53994e-06)
(0.0309302 -0.0156949 0.0313764)
(0.023215 -1.31786e-05 0.0234803)
(0.0306633 0.0155298 0.0310453)
(4.02149e-06 0.136755 4.38231e-06)
(2.76759e-06 -0.0158847 0.0317693)
(3.44816e-06 -2.73205e-06 0.269567)
(4.00791e-06 -8.68519e-08 0.294004)
(3.62851e-06 2.60141e-06 0.268925)
(2.51739e-06 0.015605 0.03121)
(0.0184294 -0.00921473 1.04508e-07)
(0.294627 -2.24691e-06 -3.82707e-07)
(0.312963 -1.31485e-07 -7.24694e-08)
(0.294001 2.57854e-06 -1.9256e-07)
(0.0237182 0.0118591 2.93174e-08)
(0.0302038 -0.0151019 2.11209e-07)
(0.297322 -3.14473e-06 -5.78326e-07)
(0.313452 -3.07627e-08 -1.31363e-07)
(0.297165 2.82431e-06 -4.59056e-07)
(0.0269134 0.0134567 5.8266e-08)
(0 0 0)
(0.299433 -3.39303e-06 -1.05748e-07)
(0.313608 -6.89838e-08 3.72397e-07)
(0.298713 3.00573e-06 -2.29954e-07)
(0.0299868 0.0149935 3.14715e-08)
(0.032503 -0.0162516 2.6724e-06)
(0.268555 -2.81634e-06 3.84312e-06)
(0.292512 -8.96461e-08 4.5614e-06)
(0.267876 2.52748e-06 3.78633e-06)
(0.0299881 0.0149941 2.47904e-06)
(0.148288 -0.0741444 0.148288)
(0.0236869 -1.0575e-06 0.0236869)
(0.0240245 -7.39628e-09 0.0240245)
(0.0236823 1.03253e-06 0.0236823)
(0.145797 0.0728987 0.145797)
(0 0 0)
(-0.111849 -3.8122e-07 -3.97e-09)
(-0.108909 -7.55654e-08 2.73825e-08)
(-0.107591 -1.38765e-08 2.76148e-09)
(-0.09841 -9.2046e-08 2.26747e-07)
(-0.00888067 -0.00317168 2.26872e-08)
(-0.112512 -3.68486e-07 -2.72973e-08)
(-0.109909 -7.38579e-08 1.53882e-07)
(-0.108877 6.57755e-08 1.44858e-07)
(-0.105735 -1.28578e-08 6.16049e-07)
(-0.0137533 -0.00491189 4.66682e-08)
(-0.112961 -4.3158e-07 -4.01724e-08)
(-0.111994 -1.47858e-08 3.35353e-07)
(-0.111861 1.62403e-07 2.81565e-07)
(-0.111271 7.45896e-08 7.85201e-07)
(-0.0152162 -0.00543438 7.5956e-07)
(-0.109926 -3.75664e-07 8.17713e-07)
(-0.109702 3.8832e-08 9.0223e-07)
(-0.10183 2.09252e-07 4.24149e-07)
(0 0 0)
(-0.0855415 -0.0305506 0.0855415)
(-0.0128209 -2.39893e-07 0.0128209)
(-0.0107781 -1.40247e-08 0.0107781)
(-0.0117892 -3.03931e-08 0.0117892)
(-0.0196665 -3.75583e-08 0.0196662)
(-4.75698e-07 -0.0406569 9.71611e-08)
(-0.00404341 -0.00148814 -2.53012e-05)
(-0.000572178 1.87829e-06 -3.08194e-06)
(-0.00514309 0.000161942 -5.70629e-05)
(-0.011365 0.000175412 -0.000355087)
(-4.53862e-07 -0.0414312 -2.9785e-08)
(-0.00389866 -0.0014367 -5.07302e-05)
(-0.000155936 2.29055e-07 -1.04082e-06)
(-0.0051014 0.000112384 -9.15004e-05)
(-0.00534684 4.39854e-05 -0.000145933)
(-7.82446e-07 -0.0410471 -1.40481e-07)
(-0.00363008 -0.00131504 6.21729e-05)
(0 0 0)
(-0.00382755 8.96578e-05 0.000373341)
(-0.00618673 7.06591e-05 0.00117273)
(-8.57267e-07 -0.0399783 8.78547e-07)
(-0.00294893 -0.00105153 0.00296704)
(-0.00525986 0.000161541 0.00542057)
(-0.0112762 0.000967716 0.0120774)
(-0.0218686 0.000920849 0.0164543)
(-7.17768e-07 -0.00522131 0.0146197)
(-7.56952e-07 -3.50087e-07 0.110785)
(-6.10285e-07 -1.40818e-07 0.111207)
(-9.99863e-07 -4.53444e-07 0.0950445)
(-7.02237e-08 -2.30879e-07 0.064587)
(2.45372e-08 -0.0415931 1.68414e-08)
(3.1338e-05 -0.000666283 -3.01903e-05)
(0.00266936 -2.80981e-05 -0.000206583)
(0.00205331 -0.000131678 -0.000157651)
(0 0 0)
(-1.08201e-07 -0.0423598 -8.86435e-09)
(1.00096e-05 -0.000236054 -1.41561e-05)
(0.00144006 -2.42827e-05 -8.23891e-05)
(0 0 0)
(0.0025909 8.19045e-05 0.000213163)
(5.63942e-09 -0.0424634 -4.1969e-08)
(0 0 0)
(0.0026864 1.39069e-05 0.00010679)
(0.000297646 -1.04872e-05 0.000540252)
(0.00133055 3.13899e-05 0.000535028)
(1.6085e-08 -0.0411268 8.78573e-07)
(0.000110223 -0.00123993 0.00350973)
(0 0 0)
(0.000605972 0.000479126 0.0176664)
(0.000514024 -0.000215205 0.00853989)
(-3.04372e-09 -0.00504228 0.0141184)
(5.52639e-08 -3.58086e-07 0.114161)
(8.55506e-08 -3.00211e-07 0.114672)
(1.07644e-07 -8.778e-08 0.0872358)
(1.59133e-06 1.48738e-07 0.101935)
(3.33072e-07 -0.0400927 -3.02494e-08)
(0.00460483 -0.00123853 -3.45697e-05)
(0.0221769 0.00197731 -0.00357712)
(0.0248952 -0.00132885 -0.0025904)
(0.0180168 -0.000628158 0.00240797)
(4.8959e-07 -0.0402431 -4.73271e-08)
(0.00560415 -0.00171714 -8.05766e-05)
(0.0168647 0.000698252 -0.00106011)
(0.0190947 0.000934208 -0.00255679)
(0.0246279 0.00131124 0.00261484)
(6.52977e-07 -0.040447 -1.92928e-08)
(0.00544281 -0.00153851 0.000180722)
(0.0228864 0.000744295 -0.000606477)
(0.0137902 0.00010211 0.000103039)
(0.0263314 0.00119299 0.000673031)
(7.17751e-07 -0.0387443 8.229e-07)
(0.00666094 -0.00214345 0.00655897)