/*--------------------------------*- C++ -*----------------------------------*\
  =========                 |
  \\      /  F ield         | OpenFOAM: The Open Source CFD Toolbox
   \\    /   O peration     | Website:  https://openfoam.org
    \\  /    A nd           | Version:  6
     \\/     M anipulation  |
\*---------------------------------------------------------------------------*/
FoamFile
{
    version     2.0;
    format      ascii;
    class       volScalarField;
    location    "1.5";
    object      p;
}
// * * * * * * * * * * * * * * * * * * * * * * * * * * * * * * * * * * * * * //

dimensions      [1 -1 -2 0 0 0 0];

internalField   nonuniform List<scalar> 
297
(
123614
123614
123614
203996
203997
203996
123614
123614
123614
123604
123604
123604
204010
204010
204010
123604
123604
123604
123602
123602
123602
204020
204022
204020
123602
123602
123602
97126.8
97131.3
97151.1
161139
161131
161161
97106.9
97111.9
97130.4
97226
97136.2
97248.3
160978
161113
160929
97200.7
97116.5
97227.7
96588.6
96478.3
96495.6
157053
159645
156865
96585
96473.2
96486.6
94896.9
96160.2
95025.8
158686
158519
158882
94923.1
96130.2
95026.4
96737.8
96911.2
96801.9
161201
160766
161166
96728.3
96863.4
96864.7
96874.1
97085.5
97002.9
161065
161092
161115
96767.4
97006.8
97121
90684.1
96080.7
90210.6
145195
157004
144952
90813.2
96059.8
90279.2
90104.4
96063
89611.3
143572
156785
143481
90256.4
96040.6
89696.7
90364.1
96082.6
89936.5
144483
156873
144527
90520.8
96058.4
90032
97182.1
97369.9
97282.2
160989
161114
161099
97027.9
97247
97324.9
97246.5
97416.2
97349.1
161021
161140
161116
97103.9
97285.9
97362.6
97273.5
97414
97371.1
161051
161155
161124
97136
97290
97373.3
97221.1
97145.6
97106.1
160976
160944
160872
97206.9
97110.6
97041.2
97149.1
96973.3
96830.7
160955
160915
160800
97165.9
97004.5
96848.1
97139.5
96935.2
96775.7
160963
160872
160675
97155.3
96976.4
96791.3
96883.4
96998.1
97084.4
160365
160655
160747
97089.2
97030.7
97034
96494.2
96792.6
97011.6
160248
160638
160762
96521.8
96742.1
96949.6
96377.9
96748.6
97013.1
160005
160550
160772
96356.6
96670.4
96949.6
99344
98467.1
97338.1
160371
160214
160099
99490.2
98829.3
97770.3
98400.7
97278.7
96549.2
159620
159200
159467
98585.9
97771.2
96830
97382.3
96477.9
95967.9
158787
158281
158533
97432.8
96673.3
96058.5
93510.5
93428.5
93342.8
153910
153738
153494
92688.5
92548.2
92376.3
91070
91187.7
91252.1
147894
147905
147857
88806.4
88746.1
88704.2
87173.2
87288.2
87435.1
138317
138336
138323
86788.5
86947.2
87221.9
97466.1
98242.5
98826.2
160733
160729
160828
97252.8
97791.9
98233.3
96970
97471.5
98171.5
160455
160286
160503
96876.4
97208.9
97717.6
96682.7
97016
97583.6
160055
159916
160185
96617.6
96818.5
97202.3
95677.6
95708.9
95773.3
158253
158343
158440
95441.5
95477.3
95527.8
94294.2
94245.3
94172.6
154877
154892
154888
94409.6
94391.7
94346.6
90672.7
90588
90512.2
144106
144082
144047
91500.2
91413.9
91315
)
;

boundaryField
{
    fuel
    {
        type            zeroGradient;
    }
    primary_air
    {
        type            zeroGradient;
    }
    Secondary_air_RHS
    {
        type            zeroGradient;
    }
    Secondary_air_LHS
    {
        type            zeroGradient;
    }
    outlet
    {
        type            totalPressure;
        rho             rho;
        psi             none;
        gamma           1;
        p0              uniform 100000;
        value           nonuniform List<scalar> 
18
(
92459.3
100000
92942
92259.3
100000
92813.6
92038.6
100000
92571
88703.8
100000
87816.1
88935.1
100000
91578.9
89340.8
100000
99742.4
)
;
    }
    stove_body
    {
        type            zeroGradient;
    }
    frontAndBack
    {
        type            empty;
    }
}


// ************************************************************************* //
