/*--------------------------------*- C++ -*----------------------------------*\
  =========                 |
  \\      /  F ield         | OpenFOAM: The Open Source CFD Toolbox
   \\    /   O peration     | Website:  https://openfoam.org
    \\  /    A nd           | Version:  6
     \\/     M anipulation  |
\*---------------------------------------------------------------------------*/
FoamFile
{
    version     2.0;
    format      ascii;
    class       surfaceScalarField;
    location    "1.5";
    object      phi;
}
// * * * * * * * * * * * * * * * * * * * * * * * * * * * * * * * * * * * * * //

dimensions      [1 0 -1 0 0 0 0];

internalField   nonuniform List<scalar> 
675
(
-1.9836e-06
-0.000569662
0.00580774
2.49128e-06
-0.00055968
0.00579216
-0.000569876
0.0058085
7.54238e-06
0.000569662
0.00749475
-5.81943e-06
0.00055968
0.00753272
0.000569876
0.00749589
-1.97928e-06
0.00580775
2.48683e-06
0.00579214
0.00580851
-2.4148e-06
-0.000757548
0.00656787
2.71461e-06
-0.000813582
0.00660124
-0.000758156
0.00656952
7.87274e-05
0.000757548
0.00590093
-9.00394e-05
0.000813582
0.00607434
0.000758156
0.00588957
-2.41457e-06
0.00656788
2.71407e-06
0.00660124
0.00656952
1.14249e-05
0.00132102
-6.85252e-06
0.00138205
0.00132724
-0.000100822
-0.00132102
9.96523e-05
-0.00138205
-0.00132724
1.14244e-05
-6.85214e-06
-0.00125073
0.00464563
0.00935666
-0.00449838
0.00456059
0.0114362
0.00682155
0.00142968
-2.97265e-05
-0.00397714
0.0298102
-0.00529399
-0.00403166
0.0350079
-0.00614912
0.0288278
-0.00135372
0.0101287
-0.00426115
0.0116251
0.00233886
0.0142723
0.0123413
-0.0172694
-0.0195987
0.00188726
0.0434022
0.0148712
-0.0330513
0.00331959
-0.0118839
0.0506903
-0.0104358
-0.00133079
0.0519576
-0.0140075
0.04725
0.0131053
-0.0148773
-0.0195832
0.0429641
-0.031265
0.011105
0.0487783
-0.0771647
-0.00946817
0.0171007
0.0468656
0.0456407
-0.0881666
-0.0800845
-0.0490293
0.22855
0.0804983
-0.0168564
-0.0746903
-0.0455752
0.218944
0.011076
-0.0750055
-0.0101522
0.0473158
-0.087009
-0.0373267
-0.037369
-0.023448
0.0981185
0.0383655
0.00329689
-0.0420511
-0.0369607
-0.037999
-0.0315223
0.10787
0.0083565
0.0364692
0.109095
-0.191336
-0.0132004
-0.00285811
-0.0724116
0.100072
0.0379131
0.0901554
-0.179287
-0.0380896
-0.0217317
0.0962652
0.0375144
-0.0409566
-0.0375331
-0.0315655
0.106973
0.007214
-0.0205512
-0.0101313
-0.00436877
-0.00298372
-0.0275034
-0.0175584
-0.0183636
0.0297564
0.0219584
0.0368261
-0.0353687
0.00394349
-0.0142555
0.0182633
0.0189322
0.00588174
-0.00566252
-0.00710685
-0.0240432
-0.0204373
0.0155825
-0.0114799
-0.0142548
0.00531457
-0.000526999
-0.0167197
0.00169518
-0.0147675
-0.0114469
0.0103541
0.0264238
-0.0239828
0.00114547
-0.00341409
-0.00226282
-0.0011341
0.015768
-0.0110738
0.00895999
-0.0160774
-0.0137534
-0.00133652
-0.00191424
-0.0833979
0.00133667
0.000452453
0.0437389
-0.00231257
-0.0939514
-0.00631138
0.00176756
0.215994
0.00591202
-0.000410782
-0.0860536
0.00226349
0.20512
-0.0013467
-0.081389
0.00129431
0.0442627
-0.092893
-0.00163394
-0.000219441
-0.090968
0.00164885
-0.000834889
0.0412899
-0.000559788
-0.101114
-0.00234592
0.000142909
0.202962
0.00226911
0.000857341
-0.0923641
0.000522271
0.191302
-0.00165506
-0.0890305
0.00161425
0.0418494
-0.100137
-0.00280986
0.000509556
0.00299794
-0.00147977
0.000348038
-0.00237919
-0.000596142
0.00232128
0.00152437
-0.000430112
-0.00282885
0.00301046
0.00693741
-0.00310784
-0.00181321
-0.0162776
-0.00449287
-0.000319756
-0.004973
-0.00174504
-0.00397804
-0.0135333
0.00123664
0.00326343
0.0104045
0.00840803
0.00278157
0.000760358
-0.0060467
0.000301809
-0.00568384
0.00527696
0.0117505
-0.0022227
-0.0173487
0.00102813
-0.00459711
-0.00243175
-0.00999005
0.00659935
0.00102312
0.00290281
-0.0123425
-0.00314885
0.00115829
0.00361623
0.00188396
0.00212367
-0.0111306
0.00289391
-0.00105691
0.00277506
0.00681426
0.00206055
-0.0020108
-0.00205058
-0.00228099
-0.00289096
0.00342575
0.0106102
0.000443075
-0.0143401
0.000514311
0.00348887
0.0036076
-0.0078083
0.000184171
0.00273086
-1.33048e-05
0.000868634
0.00293043
0.00328975
-0.000294682
-0.00072456
-0.00209297
0.00833161
0.00257866
-0.00243102
-0.00329315
0.00626389
-0.00102282
-0.00062852
3.33379e-05
0.000339392
-0.0143907
-0.000811168
0.00167255
-0.0149479
-0.00124707
0.00181125
-0.00128552
0.00151928
-0.0151778
0.00459202
0.000288271
-0.00041486
0.00107399
0.000940585
0.00133074
0.00111949
0.00462934
-0.00595904
-0.0112534
0.00155082
-0.0119558
0.00163928
0.00164309
-0.012486
-0.0112809
-0.000599646
0.00242394
-0.0108216
-2.94294e-05
0.00138439
-0.000345532
0.000949971
-0.00990496
0.00415843
0.000129968
-0.00187838
0.00290475
-4.27034e-05
0.00259713
0.000595985
0.00796451
-0.00137212
-0.00857619
0.00244887
-0.00863028
0.00164834
0.00179538
-0.00819434
0.00166646
0.000459344
0.00291129
0.000137893
-0.000431731
0.00429303
0.00545835
-0.000615119
0.00851164
-0.000319724
0.000784187
0.0152582
0.00217217
0.00349951
0.00607771
0.0175463
-0.00150204
0.00186206
-0.0179097
0.0174788
-0.00192428
0.00198794
-0.000773797
0.00197158
0.00433663
0.00151932
0.00521448
-0.0125779
-0.00312599
0.00228624
0.00325183
0.00103869
0.00346741
0.0184542
0.0019322
-0.0188711
0.0182846
0.00245663
0.00197937
0.0119935
-0.00118548
0.00274818
-0.011696
0.0124523
-0.000807089
0.00233364
-0.000746236
0.00282551
-0.00383013
0.000522779
0.0114514
-0.0041185
-0.00756947
0.000376864
0.00580802
0.00115167
0.000812974
0.0128857
0.00169471
-0.012132
0.0138747
0.00184383
0.00266467
-0.00490544
-0.00118212
0.00883487
-0.00242581
-0.000147444
0.00038547
-0.0150009
0.000979558
0.0242913
-0.00977573
0.000434167
-0.000244102
-0.00406863
0.00674272
-0.00179097
0.011965
0.00216075
-0.0141234
0.0185943
0.000603792
-0.00723189
0.00102141
-0.000337805
0.0125376
-0.00353059
-0.00685407
0.0153761
-0.00265679
0.000415661
-0.00162865
0.00544344
0.0104133
-0.0139598
0.0183126
-0.0105737
-0.00220013
0.00896629
0.00180035
-0.0248871
0.0129099
0.000500607
-0.0116735
0.000894477
-1.77287e-05
0.0105194
-0.00200882
-0.0135714
0.00844372
-0.00118012
0.00416504
-0.000816617
0.0114746
0.00855617
-0.0245261
0.0141897
-0.0173961
-0.000974707
0.00904651
0.00471153
-0.038643
0.00240242
0.000257394
-0.00528468
-0.000598806
0.0118183
0.00227565
-0.00499039
-0.00614723
-0.0119949
-0.00144131
0.0201323
0.000564388
0.0226083
0.00973837
-0.0392454
0.00489237
-0.0139866
0.0112235
-0.00255297
0.0131348
-0.0492219
0.00572473
0.00794301
-0.0214985
0.00629297
0.0112584
0.011513
-0.00778703
0.0032763
0.0167816
-0.00348196
0.0262919
-0.00198795
0.0476871
0.00159484
-0.0485397
0.0145505
-0.0304153
0.0237874
-0.0211208
0.0121671
-0.0402847
-0.0185342
0.0101615
-0.0342481
0.0105126
-0.0177891
-0.00590675
0.00153133
0.0198119
-0.00580267
0.00216674
0.0341835
0.00212128
0.0502889
0.000212399
-0.0472518
0.00290538
-0.0309432
0.0288157
-0.0087097
0.0192429
-0.0112435
0.0186552
0.0205362
-0.0117326
-0.0185544
-0.0125308
-0.0186049
-0.0197047
-0.0133909
-0.0181846
-0.0154575
0.000714043
-0.000433773
-0.00982478
0.000205735
-0.00583938
0.00152588
-0.0113525
-0.00905167
-0.000619427
0.00442661
-0.0091977
-0.000131816
0.000483145
-0.00129216
-0.00638219
-0.0130371
-7.43197e-05
-0.00848665
-0.00468771
-0.00978377
-0.0103163
0.000585385
-0.000608918
-0.00716993
6.6779e-05
-0.00905306
0.000962596
-0.0194829
-0.00406219
-0.000576435
0.00827797
-0.00662074
-8.32213e-05
0.00318935
-0.000880021
-0.011164
-0.0089032
5.29063e-05
-0.00603958
-0.00763813
-0.0167057
-0.00303333
-0.0004422
0.00716016
-0.00642702
-0.000197273
-0.0054605
0.00307261
-0.0289796
0.00842283
0.000695176
0.0139744
-0.00156076
2.52807e-05
0.0129484
-0.00269725
-0.00695803
-0.00143256
0.00825608
-0.00609601
-0.0029524
-0.0255003
-0.00471533
0.00353188
0.00834831
-0.000198495
0.00455896
-0.0145319
0.00889529
-0.0381061
-0.0111451
-0.000848435
0.0295014
-0.00917641
-0.002612
0.0181532
-0.00612101
-0.00112554
-0.00480938
0.0122116
-0.00385269
-0.00652598
-0.0354666
0.0132258
0.00706073
-0.0119562
0.0154808
0.00639264
-0.0231913
0.00775124
-0.0303915
0.00924861
-0.00804095
0.0353392
0.00875797
-0.00803276
0.0330579
-0.0086252
0.0239925
0.0118242
-0.00764966
0.0143437
-0.0170765
-0.0297502
0.00795188
0.0225226
0.00710206
0.0205912
0.0201864
0.0115516
-0.0253734
0.0120448
-0.0229433
-0.0218796
0.00809813
0.0095401
)
;

boundaryField
{
    fuel
    {
        type            calculated;
        value           nonuniform List<scalar> 
36
(
0.00523549
0.00864181
0.00523549
0.00523548
0.00864191
0.00523548
0.00523549
0.00864183
0.00523549
-0.00523602
-0.00864081
-0.00523602
-0.00523602
-0.00864084
-0.00523602
-0.00523602
-0.00864081
-0.00523602
0
0
0
0
0
0
0
0
0
0
0
0
0
0
0
0
0
0
)
;
    }
    primary_air
    {
        type            calculated;
        value           nonuniform List<scalar> 9(-0.0127756 -0.0211956 -0.012773 -0.0127762 -0.0211944 -0.0127737 -0.0127788 -0.0211984 -0.0127761);
    }
    Secondary_air_RHS
    {
        type            calculated;
        value           nonuniform List<scalar> 9(0.00943341 0.0151578 0.00944058 0.00937074 0.0150039 0.00937967 0.00940474 0.0151134 0.00941472);
    }
    Secondary_air_LHS
    {
        type            calculated;
        value           nonuniform List<scalar> 9(0.00948291 0.0151832 0.00949642 0.0094223 0.0150135 0.00943819 0.00944945 0.0151088 0.00946584);
    }
    outlet
    {
        type            calculated;
        value           nonuniform List<scalar> 
18
(
-0.0424393
0.0716717
-0.0411268
-0.0429416
0.0760875
-0.0414674
-0.043485
0.0780867
-0.0420956
-0.0508233
0.0693397
-0.0524175
-0.0503752
0.0722378
-0.0447557
-0.0495746
0.0780047
-0.00906736
)
;
    }
    stove_body
    {
        type            calculated;
        value           uniform 0;
    }
    frontAndBack
    {
        type            empty;
        value           nonuniform 0();
    }
}


// ************************************************************************* //
