/*--------------------------------*- C++ -*----------------------------------*\
  =========                 |
  \\      /  F ield         | OpenFOAM: The Open Source CFD Toolbox
   \\    /   O peration     | Website:  https://openfoam.org
    \\  /    A nd           | Version:  6
     \\/     M anipulation  |
\*---------------------------------------------------------------------------*/
FoamFile
{
    version     2.0;
    format      ascii;
    class       volScalarField;
    location    "1.5";
    object      Qdot;
}
// * * * * * * * * * * * * * * * * * * * * * * * * * * * * * * * * * * * * * //

dimensions      [1 -1 -3 0 0 0 0];

internalField   nonuniform List<scalar> 
297
(
1.88882e-05
0
0
1.88882e-05
1.24555e-05
3.13438e-05
0
1.24556e-05
1.88882e-05
3.13438e-05
0
3.13438e-05
1.56719e-05
6.22744e-06
1.56715e-05
1.88882e-05
0
1.88882e-05
6.22776e-06
2.5116e-05
6.2278e-06
0
-3.63733e-10
-3.63733e-10
-4.54666e-11
6.22776e-06
6.22776e-06
-3.63733e-10
0
0
-3.63733e-10
-3.63733e-10
-3.10266e-10
2.67336e-11
0
-3.63733e-10
-3.63733e-10
0
0
-3.63733e-10
-3.63733e-10
-3.63733e-10
-3.63733e-10
0
0
0
-3.63733e-10
0
-3.63733e-10
-3.57049e-10
2.67336e-11
0
-3.63733e-10
-3.63733e-10
-3.63315e-10
0
0
-7.25794e-10
8.35424e-13
1.67085e-12
-3.63733e-10
4.17712e-13
-3.63733e-10
4.17712e-13
0
4.17712e-13
0
0
0
-3.63733e-10
4.17712e-13
-3.63733e-10
-3.63733e-10
-3.63733e-10
-3.63315e-10
-7.27465e-10
-7.27465e-10
0
0
-3.63524e-10
0
-3.63733e-10
0
0
0
0
-3.63733e-10
0
2.08856e-13
0
0
0
-3.63733e-10
0
0
6.68339e-12
0
4.17712e-13
-3.63733e-10
-3.63733e-10
0
-3.63733e-10
0
0
0
0
4.17712e-13
-3.63733e-10
2.08856e-13
0
2.08856e-13
-7.27465e-10
0
8.35424e-13
2.08856e-13
0
0
0
0
2.08856e-13
-7.2663e-10
0
-7.27465e-10
0
2.08856e-13
-3.63733e-10
-3.63524e-10
0
0
-7.27465e-10
0
0
2.08856e-13
-3.63524e-10
2.08856e-13
0
0
0
-7.2663e-10
0
8.35424e-13
2.08856e-13
1.04428e-13
5.2214e-14
2.08856e-13
0
5.2214e-14
0
8.35424e-13
-7.2663e-10
0
-3.63628e-10
0
-3.63524e-10
5.2214e-14
-3.63733e-10
-7.27465e-10
0
0
0
0
5.2214e-14
5.2214e-14
1.04428e-13
0
8.35424e-13
0
0
0
1.04428e-13
0
0
0
-3.63733e-10
8.35424e-13
-7.2663e-10
8.35424e-13
-3.63733e-10
0
0
5.2214e-14
0
2.08856e-13
0
4.17712e-13
-7.27465e-10
0
0
0
3.26337e-15
0
0
0
0
0
0
0
0
0
-3.63733e-10
0
3.26337e-15
-7.27048e-10
0
-3.63733e-10
-3.63707e-10
0
-3.63733e-10
0
-3.63628e-10
0
0
0
-3.63733e-10
0
0
-3.63729e-10
0
-3.63733e-10
0
0
4.17712e-13
-3.63733e-10
0
0
3.26337e-15
0
-3.63733e-10
0
-3.63733e-10
0
0
0
0
-3.63733e-10
0
0
-3.63726e-10
-3.63733e-10
0
0
-3.63733e-10
-3.63733e-10
0
-3.63733e-10
0
-7.27465e-10
2.08856e-13
0
2.6107e-14
0
-3.63733e-10
-3.63733e-10
0
-3.63732e-10
-7.27465e-10
0
0
0
0
0
0
0
-3.63733e-10
8.35424e-13
0
0
0
-3.63733e-10
-3.63729e-10
2.6107e-14
0
0
4.17712e-13
-7.27465e-10
-7.27465e-10
0
6.52675e-15
0
-3.63733e-10
3.26337e-15
8.15843e-16
0
-3.63733e-10
3.26337e-15
-3.63733e-10
-3.63733e-10
0
0
0
-3.63733e-10
1.04428e-13
-3.63733e-10
0
-3.63733e-10
-3.63733e-10
-3.63733e-10
)
;

boundaryField
{
    fuel
    {
        type            calculated;
        value           uniform 0;
    }
    primary_air
    {
        type            calculated;
        value           uniform 0;
    }
    Secondary_air_RHS
    {
        type            calculated;
        value           uniform 0;
    }
    Secondary_air_LHS
    {
        type            calculated;
        value           uniform 0;
    }
    outlet
    {
        type            calculated;
        value           uniform 0;
    }
    stove_body
    {
        type            calculated;
        value           uniform 0;
    }
    frontAndBack
    {
        type            empty;
    }
}


// ************************************************************************* //
