/*--------------------------------*- C++ -*----------------------------------*\
  =========                 |
  \\      /  F ield         | OpenFOAM: The Open Source CFD Toolbox
   \\    /   O peration     | Website:  https://openfoam.org
    \\  /    A nd           | Version:  6
     \\/     M anipulation  |
\*---------------------------------------------------------------------------*/
FoamFile
{
    version     2.0;
    format      ascii;
    class       volScalarField;
    location    "1.5";
    object      Qdot;
}
// * * * * * * * * * * * * * * * * * * * * * * * * * * * * * * * * * * * * * //

dimensions      [1 -1 -3 0 0 0 0];

internalField   nonuniform List<scalar> 
297
(
-3.12966e-05
-3.12966e-05
0
-9.49191e-05
0
0
-4.74596e-05
-4.74596e-05
-3.12966e-05
-3.12966e-05
-7.87562e-05
-3.12966e-05
-6.25933e-05
-9.49191e-05
-9.49191e-05
0
-7.87562e-05
-7.87562e-05
-4.74596e-05
-7.87562e-05
-3.12966e-05
0
-9.49191e-05
0
-7.87562e-05
0
-4.74596e-05
7.7959e-10
0
-1.34344e-10
7.7959e-10
7.7959e-10
-1.34344e-10
0
9.13934e-10
0
0
0
0
9.13934e-10
7.7959e-10
0
0
-6.71722e-11
9.05538e-10
0
8.80348e-10
9.13934e-10
8.46762e-10
0
8.46762e-10
9.13934e-10
-3.35861e-11
0
-8.39652e-12
0
-8.39652e-12
1.82787e-09
1.82787e-09
0
9.13934e-10
-1.6793e-11
9.05538e-10
9.13934e-10
-4.19826e-12
9.13934e-10
0
1.81947e-09
0
9.13934e-10
-4.19826e-12
9.13934e-10
9.13934e-10
9.13934e-10
0
1.81108e-09
1.82787e-09
0
0
-4.19826e-12
0
9.13934e-10
0
0
8.80348e-10
-1.6793e-11
8.80348e-10
0
-3.35861e-11
0
0
9.13934e-10
9.13934e-10
-3.35861e-11
-1.6793e-11
0
0
0
0
0
0
9.13934e-10
0
1.81108e-09
9.05538e-10
-4.19826e-12
-3.35861e-11
0
-2.09913e-12
0
9.13934e-10
1.82787e-09
-8.39652e-12
-2.09913e-12
0
9.12885e-10
0
-1.04957e-12
9.1341e-10
-6.55978e-14
-1.6793e-11
1.82787e-09
0
9.13934e-10
9.12885e-10
0
0
-5.24783e-13
9.13803e-10
0
0
0
9.12885e-10
-1.04957e-12
9.13934e-10
9.13934e-10
0
9.13918e-10
0
0
1.82761e-09
0
-1.31196e-13
9.13934e-10
9.13869e-10
0
0
0
-1.04957e-12
0
-6.55978e-14
-3.27989e-14
9.13918e-10
9.13934e-10
-3.27989e-14
0
1.82787e-09
-5.24783e-13
0
-6.55978e-14
0
0
-3.27989e-14
0
0
1.82787e-09
0
-1.6793e-11
9.13902e-10
0
-5.24783e-13
9.13803e-10
9.13934e-10
9.13934e-10
1.82787e-09
0
0
9.13803e-10
9.13934e-10
-1.04957e-12
0
9.13934e-10
0
-8.39652e-12
0
1.82367e-09
-1.04957e-12
-1.04957e-12
0
0
-3.27989e-14
-3.27989e-14
-3.27989e-14
0
-6.55978e-14
9.13934e-10
0
-3.27989e-14
0
9.13902e-10
-6.55978e-14
0
0
0
-3.27989e-14
9.13869e-10
0
-3.27989e-14
9.13869e-10
-1.04957e-12
0
0
0
-3.27989e-14
0
0
0
0
0
-3.27989e-14
-5.24783e-13
9.13934e-10
0
-1.31196e-13
0
0
9.13934e-10
9.13672e-10
9.13934e-10
9.13934e-10
9.13934e-10
9.13934e-10
0
0
-5.00472e-19
-4.00377e-18
0
0
0
9.12885e-10
0
-1.31196e-13
0
0
-2.04993e-15
0
1.82786e-09
-4.09987e-15
1.82786e-09
9.1393e-10
9.13934e-10
9.13934e-10
0
0
0
1.82787e-09
1.82787e-09
-8.19973e-15
9.1393e-10
0
0
-6.55978e-14
9.13934e-10
0
0
-2.62391e-13
0
-6.55978e-14
0
9.1393e-10
-3.27989e-14
9.13934e-10
9.13934e-10
0
1.82787e-09
-8.19973e-15
-6.55978e-14
0
-4.09987e-15
-1.63995e-14
9.13934e-10
0
0
1.8278e-09
0
0
0
-4.09987e-15
9.13934e-10
0
0
0
9.13902e-10
-1.63995e-14
0
9.13934e-10
9.13934e-10
)
;

boundaryField
{
    fuel
    {
        type            calculated;
        value           uniform 0;
    }
    primary_air
    {
        type            calculated;
        value           uniform 0;
    }
    Secondary_air_RHS
    {
        type            calculated;
        value           uniform 0;
    }
    Secondary_air_LHS
    {
        type            calculated;
        value           uniform 0;
    }
    outlet
    {
        type            calculated;
        value           uniform 0;
    }
    stove_body
    {
        type            calculated;
        value           uniform 0;
    }
    frontAndBack
    {
        type            empty;
    }
}


// ************************************************************************* //
