/*--------------------------------*- C++ -*----------------------------------*\
  =========                 |
  \\      /  F ield         | OpenFOAM: The Open Source CFD Toolbox
   \\    /   O peration     | Website:  https://openfoam.org
    \\  /    A nd           | Version:  6
     \\/     M anipulation  |
\*---------------------------------------------------------------------------*/
FoamFile
{
    version     2.0;
    format      ascii;
    class       volScalarField;
    location    "1.5";
    object      T;
}
// * * * * * * * * * * * * * * * * * * * * * * * * * * * * * * * * * * * * * //

dimensions      [0 0 0 1 0 0 0];

internalField   nonuniform List<scalar> 
297
(
292.188
292.188
292.188
293.002
293.002
293.002
292.188
292.188
292.188
292.188
292.187
292.188
293.013
293.008
293.013
292.188
292.187
292.188
292.143
292.136
292.143
317.488
293.057
317.299
292.143
292.136
292.143
292.329
292.355
292.439
293.025
293.059
293.058
292.314
292.35
292.43
288.018
289.985
288.524
290.115
292.083
290.342
288.021
290.093
288.385
286.159
288.469
288.638
287.764
289.996
288.54
285.603
288.325
288.372
286.961
291.669
287.995
287.382
288.495
288.729
286.752
291.094
287.853
288.14
293.564
291.95
287.564
288.73
288.723
287.054
292.572
291.985
295.015
297.683
296.912
288.402
291.006
290.556
293.895
297.675
296.73
284.676
288.31
286.298
284.314
288.217
285.706
284.262
288.179
286.095
285.182
288.422
286.584
282.69
288.095
284.256
284.866
288.293
286.281
286.252
288.438
287.177
282.228
288.059
283.943
286.009
288.314
287.151
298.831
298.624
296.521
288.393
295.041
297.532
298.665
299.059
296.167
300.315
299.318
296.798
290.328
298.381
298.149
299.756
299.763
296.263
300.41
299.45
297.377
297.952
300.315
298.692
299.594
299.759
296.432
296.435
296.346
296.226
297.576
297.523
297.374
295.933
295.883
295.652
296.695
296.618
296.61
298.078
297.886
297.456
296.106
296.101
295.873
296.875
296.761
296.704
298.036
297.861
297.514
296.048
295.936
296
300.426
300.357
300.133
303.112
297.009
288.35
300.698
300.523
300.053
300.891
300.726
300.077
301.447
290.551
288.92
299.985
300.097
299.487
299.931
300.447
300.332
295.421
294.241
297.117
298.903
299.62
299.825
301.016
301.048
300.259
302.836
302.911
302.836
301.457
301.334
300.706
300.61
301.03
300.887
302.846
302.917
302.709
300.617
299.505
299.756
299.493
301.045
300.076
302.601
300.329
297.5
299.464
298.617
299.023
297.721
300.818
295.777
302.992
299.668
295.408
297.663
295.866
295.521
293.958
296.834
299.177
300.965
297.516
293.89
293.236
294.237
294.474
291.691
291.32
290.841
289.061
286.463
282.718
291.133
289.935
294.983
296.334
296.951
296.98
297.358
297.447
297.455
295.459
295.791
295.694
296.787
296.795
296.535
297.325
297.561
297.494
295.764
295.692
295.244
296.826
296.851
296.054
297.284
297.32
297.423
296.063
295.837
294.727
294.33
296.46
295.101
295.734
296.2
297.553
294.009
295.708
293.924
295.903
295.183
292.875
293.995
294.343
296.101
295.242
295.514
292.534
290.337
290.162
290.076
284.412
283.26
282.717
289.868
289.667
289.652
)
;

boundaryField
{
    fuel
    {
        type            fixedValue;
        value           uniform 293;
    }
    primary_air
    {
        type            fixedValue;
        value           uniform 293;
    }
    Secondary_air_RHS
    {
        type            fixedValue;
        value           uniform 293;
    }
    Secondary_air_LHS
    {
        type            fixedValue;
        value           uniform 293;
    }
    outlet
    {
        type            inletOutlet;
        inletValue      uniform 293;
        value           nonuniform List<scalar> 
18
(
293
284.412
293
293
283.26
293
293
282.718
293
293
289.061
293
293
286.463
293
293
282.717
293
)
;
    }
    stove_body
    {
        type            fixedValue;
        value           uniform 293;
    }
    frontAndBack
    {
        type            empty;
    }
}


// ************************************************************************* //
