/*--------------------------------*- C++ -*----------------------------------*\
  =========                 |
  \\      /  F ield         | OpenFOAM: The Open Source CFD Toolbox
   \\    /   O peration     | Website:  https://openfoam.org
    \\  /    A nd           | Version:  6
     \\/     M anipulation  |
\*---------------------------------------------------------------------------*/
FoamFile
{
    version     2.0;
    format      ascii;
    class       volVectorField;
    location    "1.5";
    object      U;
}
// * * * * * * * * * * * * * * * * * * * * * * * * * * * * * * * * * * * * * //

dimensions      [0 1 -1 0 0 0 0];

internalField   nonuniform List<vector> 
297
(
(55.751 -0.00697376 10.5105)
(55.7523 0.00135626 10.5031)
(55.751 0.00803019 10.5114)
(-4.21622e-07 -0.0447159 9.80924)
(1.10164e-08 0.00572325 9.83404)
(1.68373e-07 0.0445293 9.80897)
(-55.751 -0.00696348 10.5105)
(-55.7523 0.00135594 10.5031)
(-55.751 0.00801959 10.5114)
(55.6952 0.000159627 10.7212)
(55.6941 0.000175843 10.7163)
(55.6951 0.00102796 10.7224)
(-3.33115e-07 0.246485 8.41017)
(4.83973e-07 -0.0288633 8.29377)
(-4.28865e-08 -0.25194 8.40487)
(-55.6952 0.000160359 10.7213)
(-55.6941 0.000175137 10.7163)
(-55.6951 0.00102652 10.7224)
(56.5286 0.0262893 14.8336)
(56.5198 0.00957525 14.8483)
(56.5284 -0.010343 14.8382)
(1.68946e-07 -7.16137 5.69847)
(1.12377e-08 0.0477976 8.29147)
(-9.92885e-09 7.07227 5.6803)
(-56.5286 0.0262882 14.8336)
(-56.5198 0.00957503 14.8483)
(-56.5284 -0.0103421 14.8382)
(36.5766 -0.393003 5.93878)
(36.5715 -1.50247 9.03047)
(36.6097 -1.21691 5.00648)
(-0.00169839 -0.210454 10.6896)
(-0.00165958 -0.980932 10.0194)
(-0.00177171 -0.774815 10.5801)
(-36.5789 -0.426537 6.1239)
(-36.576 -1.46358 9.0132)
(-36.6127 -1.14454 4.94984)
(36.6539 8.02157 25.9094)
(36.762 -1.71939 22.5279)
(37.0445 -9.60711 17.3448)
(-0.00215757 11.1554 49.3187)
(-0.00167541 -1.76173 36.6828)
(-0.00176898 -12.4956 47.2864)
(-36.6078 7.54459 26.5344)
(-36.7311 -2.2392 22.6361)
(-36.9971 -9.32047 18.4524)
(36.1172 8.46252 13.1132)
(36.9321 -2.64626 29.9896)
(36.3691 -3.98541 -3.17077)
(-0.000319991 -9.49999 72.561)
(-0.000436841 -0.982188 22.2903)
(-0.000786417 11.5918 69.5365)
(-36.053 8.96594 15.6696)
(-36.8932 -3.18619 30.4158)
(-36.3388 -4.31945 -2.13024)
(36.8647 -11.8191 -54.2115)
(36.8259 2.22146 -14.6837)
(37.0219 9.90357 -62.961)
(0.0022675 -0.195575 29.3563)
(-0.00265583 -1.72245 -31.0051)
(5.94198e-05 2.21955 17.0306)
(-36.8275 -12.6465 -51.8596)
(-36.7518 1.39887 -13.2723)
(-37.0021 10.3535 -61.2154)
(37.1337 15.0077 -33.0056)
(37.6685 4.80306 -42.2271)
(37.6475 -19.7942 -43.5615)
(-0.000814245 6.01003 4.97223)
(-0.00413709 -0.617842 -19.2257)
(0.00543768 -6.73422 -6.52378)
(-36.9791 11.378 -30.4481)
(-37.5534 2.95315 -41.5049)
(-37.5854 -14.7685 -42.2195)
(37.9704 19.4685 -16.0021)
(38.2715 12.0924 -17.2213)
(38.2895 -18.0851 -18.0162)
(-0.00923053 2.02828 6.41135)
(-0.00688019 -8.70207 -14.0843)
(0.0103127 -7.09496 -1.62077)
(-37.9157 13.2618 -14.686)
(-38.3087 18.0276 -12.7073)
(-38.1857 -7.80674 -17.2219)
(31.1443 6.32849 -72.1475)
(35.9381 1.02462 35.2211)
(30.4358 -4.9173 -81.5864)
(0.0123424 -4.46326 98.2711)
(-0.00166959 -1.70018 -41.5667)
(0.00656235 6.95852 94.202)
(-31.2649 6.59348 -70.354)
(-35.8722 0.738714 35.6198)
(-30.5119 -5.12656 -80.597)
(32.3134 -0.947102 -75.713)
(33.8363 1.39526 34.3051)
(31.7801 0.682599 -85.0649)
(0.0116437 -1.6312 109.19)
(-0.00176937 -1.88917 -44.094)
(0.00666631 4.14997 104.355)
(-32.4081 -1.16142 -73.7704)
(-33.7717 1.14563 34.7149)
(-31.8215 0.681087 -83.9859)
(34.8662 -5.3075 -69.9329)
(34.1319 2.01983 32.3032)
(34.9802 4.66195 -79.5998)
(0.0112216 0.911893 107.941)
(-0.00211325 -1.91594 -44.5023)
(0.00698122 1.53502 102.794)
(-34.9349 -5.56159 -67.6839)
(-34.0679 1.92081 32.6988)
(-35.1152 4.71088 -78.2189)
(38.0614 38.0358 -8.09624)
(38.1325 4.19012 -9.3201)
(37.8057 -32.417 -8.66141)
(-0.0133745 -3.21624 7.669)
(-0.0108919 3.86867 -2.00023)
(0.00381615 4.83968 -2.43205)
(-38.1509 39.9485 -6.05372)
(-38.2315 29.7705 -9.99189)
(-37.8542 -22.1665 -7.6222)
(38.5206 29.7933 4.81216)
(38.3159 8.11162 0.799145)
(38.0938 -25.9979 2.90961)
(-0.0124085 -1.48235 6.50702)
(-0.0116766 8.58056 -1.73325)
(0.00121258 -0.97078 -1.24132)
(-38.5494 33.9068 4.24081)
(-38.5224 27.1076 1.63962)
(-38.0477 -16.2782 3.08898)
(38.6432 -4.37532 -1.22026)
(38.4713 2.54011 1.41777)
(38.2455 6.26194 -1.77438)
(-0.0123261 -12.1555 -1.54513)
(-0.0111977 3.80945 0.37946)
(0.0002032 6.40623 -1.51631)
(-38.5849 -20.894 -5.16708)
(-38.5518 13.1778 0.873321)
(-38.1214 -1.66361 0.751137)
(37.7609 -37.2244 -3.94218)
(37.7153 -42.9444 -8.01646)
(37.6232 -46.7074 -9.54975)
(-0.00127382 7.08246 -1.70214)
(-0.00313323 11.5847 -0.475542)
(-0.00576961 -6.63305 1.23826)
(-37.8263 -29.3975 -2.76636)
(-37.7533 -33.5803 -6.05472)
(-37.6525 -38.2405 -7.11628)
(37.8912 -30.7807 5.95259)
(38.1556 -34.6979 4.90634)
(38.1634 -35.7976 1.76161)
(0.00150631 5.32949 -1.84984)
(0.00279196 12.6796 2.96423)
(0.00155092 2.09917 9.57612)
(-37.9134 -23.5982 5.60963)
(-38.0827 -25.932 4.99247)
(-38.0027 -29.3573 3.19733)
(38.1434 -1.24076 6.96699)
(38.2148 3.37974 7.55878)
(38.123 11.9352 10.8641)
(0.00140945 9.51198 -0.505601)
(0.00368451 13.3618 0.54868)
(0.00138752 22.8914 5.78102)
(-38.0554 0.954038 5.82865)
(-38.1164 6.95099 6.14054)
(-37.9354 12.5879 8.50348)
(37.8324 56.1256 -11.3191)
(37.9181 50.098 -9.50928)
(38.2342 46.2702 -5.24256)
(0.0186023 20.93 -2.13889)
(0.0029015 -2.8816 1.69428)
(-0.00435263 -13.5653 6.68361)
(-37.6752 57.5041 -11.788)
(-37.7629 52.4043 -8.95092)
(-38.1972 49.5669 -5.07512)
(38.4737 42.7297 5.46908)
(38.541 35.8001 8.35803)
(38.323 33.3215 8.11399)
(0.00248347 3.64468 15.4529)
(-0.00439264 -20.2445 8.23771)
(-0.00537402 -11.6034 3.0826)
(-38.5247 45.8967 1.59575)
(-38.594 42.9922 7.39329)
(-38.2082 37.6138 7.75178)
(38.2804 -18.1234 11.6713)
(38.6394 -8.75838 7.73998)
(38.5795 -3.48387 7.55912)
(-0.00187925 -36.7453 6.8768)
(-0.0069273 -24.9784 -0.13963)
(-0.00570482 -18.134 -0.749967)
(-38.2335 -17.8177 14.7246)
(-38.5408 -4.3292 8.56219)
(-38.5358 1.77181 7.45916)
(37.3967 23.784 -35.4253)
(37.1669 31.6257 -26.5216)
(38.2067 53.6518 -20.8353)
(0.0131694 18.3373 -14.8114)
(0.0327595 20.5329 -10.7179)
(0.0389503 26.5859 -3.85519)
(-37.957 18.4545 -36.325)
(-37.9537 28.6862 -31.8699)
(-38.2562 49.9565 -24.7999)
(37.6354 3.97857 -56.5765)
(37.5951 22.6262 -32.775)
(38.5905 40.6961 -5.80004)
(0.0166075 9.13214 -15.9802)
(0.0448954 13.882 -2.9484)
(0.0254487 19.5908 17.4034)
(-37.6425 9.39444 -55.3036)
(-37.4311 23.9181 -44.8823)
(-38.2388 37.0348 -13.1993)
(38.8697 -0.395489 -71.3557)
(37.7646 18.2237 -22.9417)
(37.6521 -13.1472 15.9769)
(0.00457194 6.46864 -23.9435)
(0.0175776 -11.6426 24.334)
(0.00787832 -30.48 23.5431)
(-38.9275 3.5967 -72.5872)
(-37.915 16.1292 -47.4343)
(-37.4825 -3.37146 18.8778)
(38.3533 -13.9141 -96.3544)
(38.5002 3.21493 4.12047)
(37.7079 -2.89574 97.656)
(-0.078252 -9.27144 11.6004)
(-0.0828587 11.7853 51.8286)
(-0.089826 -10.9881 93.2308)
(-38.5868 -4.99871 -107.281)
(-38.1964 -4.78178 -55.4399)
(-38.0884 6.9893 54.6694)
(37.0572 -1.01362 -129.646)
(37.2462 -14.9133 -94.463)
(37.5175 -3.60682 -6.94172)
(-0.222706 -1.68747 41.072)
(-0.236956 1.23541 75.7427)
(-0.243832 -8.59582 110.623)
(-37.6329 0.514811 -139.523)
(-37.7618 -4.06803 -105.287)
(-37.7743 5.75609 89.1431)
(35.9773 -2.56511 -148.826)
(35.8687 -4.34773 -147.103)
(35.9055 -2.60212 -144.053)
(-0.038229 -3.33334 174.545)
(-0.0334485 -3.59936 180.362)
(-0.0205766 -5.05891 192.5)
(-36.0492 -4.4698 -155.342)
(-35.8657 -8.33536 -126.465)
(-36.451 -1.06928 -21.1955)
(37.8269 -44.1336 -17.6926)
(37.02 -26.0156 -21.3466)
(37.2088 -19.4875 -28.7466)
(-0.018958 -16.2192 -1.20223)
(-0.0401385 -13.2203 -7.06337)
(-0.0525929 -12.4966 -11.7286)
(-37.8192 -37.4515 -14.0674)
(-37.1409 -21.8803 -17.5264)
(-37.2903 -16.3583 -24.2102)
(38.1227 -31.3244 -5.24046)
(37.3879 -18.5001 -26.8363)
(37.315 -3.9264 -46.2234)
(-0.00833035 -11.9739 12.1119)
(-0.0234876 -7.52781 -2.1886)
(-0.0400723 -4.70824 -14.6415)
(-38.0492 -27.4336 -3.73456)
(-37.4353 -15.4397 -21.9741)
(-37.3912 -2.37319 -40.4313)
(37.7286 0.126204 10.1598)
(37.5007 -11.9405 -16.694)
(38.2395 -0.434945 -57.1617)
(-0.00570945 18.9145 15.4868)
(-0.0176114 8.63631 17.0012)
(-0.0338819 -3.22946 -18.8659)
(-37.5276 10.0186 11.4547)
(-37.5862 -13.2435 -13.8379)
(-38.1596 0.0786354 -51.3292)
(37.7627 -3.8893 68.6036)
(38.1082 -0.886411 3.01896)
(38.1082 9.77257 -71.9328)
(-0.0213615 6.14665 58.0221)
(-0.020961 -8.33644 35.7217)
(-0.0223144 8.07214 8.07209)
(-37.76 2.39133 65.0094)
(-38.0771 -5.05826 14.349)
(-37.9919 8.50393 -67.1422)
(37.5634 1.601 -0.154791)
(37.4808 10.2957 -56.4612)
(37.3101 0.803443 -95.1917)
(0.0105785 4.26068 84.4533)
(0.0134236 2.71762 65.0026)
(0.016068 1.37487 31.4225)
(-37.4671 2.94866 27.2147)
(-37.531 9.12128 -20.378)
(-37.2113 1.63582 -86.829)
(36.0256 1.74805 -119.101)
(35.902 3.29388 -120.8)
(35.8948 1.92613 -122.658)
(0.0775299 2.82947 177.233)
(0.0770615 4.14397 187.659)
(0.0747789 2.65606 192.338)
(-35.7899 1.76007 -114.926)
(-35.6284 3.95928 -116.047)
(-35.5888 2.60249 -118.144)
)
;

boundaryField
{
    fuel
    {
        type            fixedValue;
        value           uniform (0 0 10);
    }
    primary_air
    {
        type            fixedValue;
        value           uniform (0 0 10);
    }
    Secondary_air_RHS
    {
        type            fixedValue;
        value           uniform (0 79.5 0);
    }
    Secondary_air_LHS
    {
        type            fixedValue;
        value           uniform (0 -79.5 0);
    }
    outlet
    {
        type            pressureInletOutletVelocity;
        value           nonuniform List<vector> 
18
(
(0 0 -119.101)
(0.0775299 2.82947 177.233)
(0 0 -114.926)
(0 0 -120.8)
(0.0770615 4.14397 187.659)
(0 0 -116.047)
(0 0 -122.658)
(0.0747789 2.65606 192.338)
(0 0 -118.144)
(0 0 -148.826)
(-0.038229 -3.33334 174.545)
(0 0 -155.342)
(0 0 -147.103)
(-0.0334485 -3.59936 180.362)
(0 0 -126.465)
(0 0 -144.053)
(-0.0205766 -5.05891 192.5)
(0 0 -21.1955)
)
;
    }
    stove_body
    {
        type            noSlip;
    }
    frontAndBack
    {
        type            empty;
    }
}


// ************************************************************************* //
