/*--------------------------------*- C++ -*----------------------------------*\
  =========                 |
  \\      /  F ield         | OpenFOAM: The Open Source CFD Toolbox
   \\    /   O peration     | Website:  https://openfoam.org
    \\  /    A nd           | Version:  6
     \\/     M anipulation  |
\*---------------------------------------------------------------------------*/
FoamFile
{
    version     2.0;
    format      ascii;
    class       volVectorField;
    location    "1.5";
    object      U;
}
// * * * * * * * * * * * * * * * * * * * * * * * * * * * * * * * * * * * * * //

dimensions      [0 1 -1 0 0 0 0];

internalField   nonuniform List<vector> 
297
(
(139.38 0.0144998 0.260713)
(139.311 -0.000908709 0.267661)
(139.374 -0.012351 0.260406)
(4.6758e-06 0.106173 -0.540709)
(2.99102e-07 -0.00820102 -0.553704)
(8.15387e-07 -0.107917 -0.540569)
(-139.38 0.0144976 0.260729)
(-139.311 -0.000910553 0.267685)
(-139.374 -0.0123507 0.260431)
(139.301 -0.0035724 0.602322)
(139.18 0.00046412 0.614842)
(139.292 0.00703286 0.600623)
(1.82851e-06 0.00347742 -0.325201)
(-4.53508e-07 -0.0019976 -0.311032)
(-2.14726e-06 0.00214366 -0.324686)
(-139.301 -0.00357061 0.60235)
(-139.18 0.000467067 0.614879)
(-139.292 0.00703404 0.600659)
(132.181 -0.0342253 0.942492)
(132.116 0.00261491 0.960022)
(132.146 0.0413566 0.940659)
(3.80921e-07 -0.00718273 0.519423)
(3.26708e-07 -0.000894236 0.55041)
(-2.74878e-06 0.0139795 0.516034)
(-132.181 -0.0342192 0.942507)
(-132.116 0.00262348 0.960039)
(-132.145 0.0413602 0.940676)
(92.6173 -2.6395 -3.33536)
(93.9607 0.374513 -8.18061)
(92.6362 2.66703 -4.11701)
(0.00224357 -1.14717 3.27614)
(1.11132e-05 -0.000264686 3.01295)
(-0.00222797 1.15547 3.27131)
(-92.6351 -2.65149 -4.08114)
(-93.9609 -0.372612 -8.17905)
(-92.6185 2.65083 -3.37094)
(94.7878 0.422795 8.77166)
(94.9967 1.35984 -14.6834)
(95.0733 -3.15178 7.13311)
(0.00490035 1.6334 24.6526)
(2.07515e-05 0.00303066 16.6297)
(-0.00485606 -1.6614 24.6536)
(-95.0733 3.10724 7.0931)
(-94.9967 -1.36019 -14.6833)
(-94.7884 -0.465575 8.81773)
(95.2256 13.9847 -11.0386)
(94.5176 2.33523 -15.8027)
(95.6132 -8.53974 -2.03256)
(0.0184912 -1.57326 30.2397)
(0.000121572 -0.000589622 2.94724)
(-0.0185837 1.5669 30.2398)
(-95.6148 8.54198 -2.00201)
(-94.48 -2.33149 -15.8037)
(-95.2258 -13.9873 -11.0642)
(94.2294 8.06274 -22.5309)
(94.5442 -1.94839 -16.563)
(94.4901 -1.01408 -19.3547)
(-0.00936787 0.864942 0.451688)
(-2.07306e-05 0.00779169 -7.85945)
(0.0091817 -0.872101 0.45088)
(-94.4915 1.01762 -19.3223)
(-94.5629 1.94905 -16.5745)
(-94.2287 -8.05524 -22.5615)
(94.1461 12.1919 -17.7071)
(94.1848 -2.75509 -21.9068)
(94.7816 -6.60639 -12.4181)
(-0.0182483 1.53407 4.32806)
(3.72744e-05 0.00576252 0.686248)
(0.0183053 -1.53955 4.32535)
(-94.7818 6.60955 -12.4083)
(-94.1846 2.76121 -21.9133)
(-94.1464 -12.1935 -17.7146)
(94.1145 15.6061 -24.1434)
(93.9519 -6.88353 -22.8828)
(94.3411 -15.7279 -23.156)
(-0.0282571 -0.459855 14.0254)
(0.000344951 0.000511806 6.66755)
(0.0288386 0.454344 14.0228)
(-94.3406 15.7277 -23.1627)
(-93.9512 6.88181 -22.8869)
(-94.1141 -15.606 -24.1446)
(87.9692 17.8058 -18.8211)
(88.0026 1.33621 -11.5935)
(89.7557 -10.2794 -16.9327)
(-0.0107549 -1.7756 38.9457)
(0.00048382 0.00762539 -22.1055)
(0.0107673 1.76714 38.9419)
(-89.7462 10.3103 -16.9025)
(-89.9939 -1.29149 -11.6315)
(-87.9827 -17.7754 -18.8498)
(86.0757 12.0997 -22.0629)
(90.0327 -0.117634 -9.44855)
(87.5332 -4.37282 -18.9079)
(-0.00984498 -1.91685 42.1929)
(0.00036091 0.0118417 -21.1114)
(0.00980303 1.90605 42.1841)
(-87.6445 4.4055 -18.885)
(-91.4972 0.188067 -9.40772)
(-86.0051 -12.0642 -22.0881)
(80.9549 10.759 -21.7246)
(94.493 -0.262664 -10.2441)
(82.7546 -3.48386 -18.7702)
(-0.00802424 -2.08125 41.2821)
(-0.000274292 0.0103954 -17.3658)
(0.00787902 2.06925 41.2732)
(-82.7729 3.49511 -18.7448)
(-93.513 0.304906 -10.226)
(-80.9382 -10.7437 -21.7482)
(92.1041 24.7826 -5.41181)
(92.9725 -7.63918 -8.14285)
(91.6637 -29.043 -6.82222)
(-0.0113197 -8.4141 13.6147)
(0.000367225 0.00188712 -5.39136)
(0.0116223 8.41545 13.6142)
(-91.6625 29.0489 -6.82778)
(-92.9715 7.63691 -8.14546)
(-92.103 -24.7815 -5.41295)
(93.3078 19.953 -1.35447)
(93.6302 -3.57867 -3.73153)
(93.1805 -23.8747 -1.74171)
(-0.00663872 -10.2753 7.43078)
(0.000374923 0.00212765 -4.4949)
(0.00690809 10.2774 7.42832)
(-93.1808 23.8792 -1.7451)
(-93.6291 3.57709 -3.73403)
(-93.3054 -19.9524 -1.35481)
(93.9956 3.37639 0.840217)
(94.1401 -2.36199 -1.12377)
(93.9588 -6.60555 2.2894)
(-0.00228066 -5.56624 -0.0411146)
(0.000378274 0.00203014 -0.862547)
(0.00253467 5.56906 -0.0420246)
(-93.9589 6.60899 2.28823)
(-94.1391 2.36356 -1.12385)
(-93.9946 -3.3748 0.83984)
(90.1814 -31.6785 -1.48689)
(91.4454 -36.4082 -4.39917)
(91.7067 -38.0696 -5.76392)
(-0.00782954 15.6056 9.75363)
(-0.00905541 13.1694 5.94037)
(-0.0119028 11.8636 7.41603)
(-90.7364 -26.9271 -0.751329)
(-91.6271 -31.6348 -2.89826)
(-91.8039 -33.3696 -3.91051)
(90.8017 -24.8449 4.05252)
(92.1927 -29.357 3.37627)
(92.8079 -30.4799 1.61709)
(-0.00265967 19.2761 1.8583)
(-0.00128484 19.3653 -3.3193)
(-0.0035225 18.936 -0.605212)
(-91.3957 -20.976 3.64726)
(-92.2564 -25.2753 3.13145)
(-92.5261 -26.7013 1.99504)
(93.3925 -8.273 7.62736)
(93.8901 -4.16702 7.72329)
(93.864 4.83192 8.12008)
(-0.000918649 11.2221 -5.29663)
(0.000153186 10.8611 -3.32157)
(-0.00504148 15.0749 -0.634579)
(-93.5799 -4.96457 6.18792)
(-93.8435 -1.21071 6.20983)
(-93.5371 3.77003 7.476)
(91.8083 33.3746 -3.91043)
(91.63 31.6417 -2.8981)
(90.7347 26.9327 -0.751035)
(0.00939162 -11.8603 7.41753)
(0.00724916 -13.1636 5.94143)
(0.00685351 -15.6005 9.75504)
(-91.7147 38.0653 -5.76515)
(-91.4521 36.4061 -4.3999)
(-90.1808 31.6841 -1.4881)
(92.5304 26.7056 1.99524)
(92.2603 25.2814 3.1317)
(91.3976 20.9804 3.64793)
(0.00108876 -18.9375 -0.602992)
(-0.000536353 -19.3633 -3.31772)
(0.00167838 -19.2722 1.86123)
(-92.8228 30.4723 1.61673)
(-92.204 29.3538 3.37535)
(-90.7996 24.8496 4.05163)
(93.537 -3.76405 7.47634)
(93.8433 1.21731 6.21006)
(93.5802 4.96946 6.18779)
(0.00269244 -15.0768 -0.634883)
(-0.00193276 -10.8601 -3.32264)
(-8.0724e-05 -11.2193 -5.29734)
(-93.8689 -4.84357 8.1209)
(-93.8931 4.16375 7.72268)
(-93.3933 8.2758 7.627)
(91.2048 15.2409 -16.8401)
(89.6197 19.1715 -10.7382)
(92.3453 31.2199 -8.23172)
(0.0554064 8.31424 -3.66113)
(0.045448 5.46157 4.62186)
(0.0249938 -4.49302 10.7302)
(-90.9243 17.4618 -19.5192)
(-89.6792 21.6541 -13.0875)
(-92.2774 34.5652 -10.6118)
(91.754 4.20924 -30.246)
(91.3371 11.82 -16.2249)
(93.5175 24.1106 -1.79505)
(0.0494529 4.39037 -7.04688)
(0.0338607 3.05006 8.34589)
(0.0142295 -10.9095 8.35727)
(-91.6206 5.8761 -32.4082)
(-91.1512 11.3474 -18.7627)
(-93.5963 25.2662 -2.27047)
(95.149 2.17283 -39.3592)
(91.1016 9.12262 -12.835)
(92.3982 6.98675 5.53732)
(0.0460114 4.48345 -11.7615)
(0.0242128 -6.4834 19.2615)
(0.0101342 -17.4861 11.7628)
(-95.3572 3.273 -41.1442)
(-90.1501 5.6671 -15.2995)
(-92.9553 17.5878 3.12744)
(93.8204 -6.61816 -55.2159)
(93.2923 1.25864 -1.03222)
(92.7065 7.29574 56.5927)
(0.0286136 -6.97047 13.0525)
(0.0239987 7.09261 38.3867)
(0.0247699 -2.11119 58.4762)
(-93.9624 -7.34773 -56.3963)
(-93.217 -0.882864 -8.7309)
(-92.6691 11.6905 58.8244)
(91.8801 -2.17438 -74.2753)
(91.2098 -7.96377 -18.3128)
(91.0085 0.0629009 12.0777)
(-0.0246444 -1.17877 30.5375)
(-0.0221237 -0.435889 68.2129)
(-0.0186536 -0.716468 86.5283)
(-92.0922 -1.71187 -78.349)
(-91.213 -8.47599 -33.0725)
(-91.0805 0.415437 -0.252196)
(86.3802 -1.9058 -120.243)
(85.7621 -3.15776 -109.625)
(86.1445 -1.43274 -106.839)
(-0.0884245 -2.02638 176.338)
(-0.0893418 -2.68611 187.373)
(-0.0897847 -1.55277 183.442)
(-86.7956 -1.716 -122.922)
(-86.0921 -2.77341 -112.913)
(-86.3693 -1.45376 -109.499)
(92.277 -34.5732 -10.613)
(89.6768 -21.6606 -13.0902)
(90.9188 -17.4644 -19.5244)
(-0.0279051 4.49707 10.7303)
(-0.0485634 -5.46301 4.62233)
(-0.0587033 -8.31548 -3.66087)
(-92.3466 -31.2157 -8.23139)
(-89.6223 -19.1691 -10.7375)
(-91.2098 -15.2399 -16.8398)
(93.5931 -25.2778 -2.27584)
(91.1479 -11.3602 -18.771)
(91.5904 -5.88008 -32.4267)
(-0.0169666 10.9091 8.35349)
(-0.036691 -3.05296 8.34667)
(-0.0523815 -4.39215 -7.04851)
(-93.52 -24.1073 -1.79427)
(-91.3402 -11.8173 -16.2235)
(-91.7608 -4.2089 -30.2428)
(92.9513 -17.6038 3.11588)
(90.1473 -5.68242 -15.3156)
(95.361 -3.27866 -41.1656)
(-0.0124897 17.4821 11.7584)
(-0.0265399 6.47822 19.2588)
(-0.0482135 -4.48489 -11.7657)
(-92.3983 -6.98435 5.53764)
(-91.1039 -9.1213 -12.8334)
(-95.1483 -2.17186 -39.3599)
(92.6676 -11.6925 58.8267)
(93.2141 0.875559 -8.72852)
(93.9733 7.34188 -56.3852)
(-0.0260815 2.10988 58.4719)
(-0.0251415 -7.09324 38.3819)
(-0.029715 6.97129 13.0464)
(-92.7089 -7.29685 56.5893)
(-93.2941 -1.25893 -1.03495)
(-93.8188 6.61791 -55.222)
(91.0838 -0.41076 -0.247291)
(91.2159 8.49044 -33.0615)
(92.0766 1.72263 -78.3264)
(0.0236053 0.71584 86.5254)
(0.0267822 0.435414 68.2103)
(0.0290041 1.17814 30.5366)
(-91.0042 -0.0621944 12.0653)
(-91.2052 7.96466 -18.3247)
(-91.8785 2.17423 -74.2776)
(86.3709 1.45391 -109.505)
(86.0935 2.77413 -112.921)
(86.7926 1.71629 -122.944)
(0.0906442 1.55193 183.444)
(0.0901817 2.68418 187.375)
(0.0892848 2.02503 176.333)
(-86.1456 1.43265 -106.837)
(-85.7632 3.15729 -109.622)
(-86.381 1.90552 -120.241)
)
;

boundaryField
{
    fuel
    {
        type            fixedValue;
        value           uniform (0 0 0.25);
    }
    primary_air
    {
        type            fixedValue;
        value           uniform (0 0 2.5);
    }
    Secondary_air_RHS
    {
        type            fixedValue;
        value           uniform (0 25 0);
    }
    Secondary_air_LHS
    {
        type            fixedValue;
        value           uniform (0 -25 0);
    }
    outlet
    {
        type            pressureInletOutletVelocity;
        value           nonuniform List<vector> 
18
(
(0 0 -109.505)
(0.0906442 1.55193 183.444)
(0 0 -106.837)
(0 0 -112.921)
(0.0901817 2.68418 187.375)
(0 0 -109.622)
(0 0 -122.944)
(0.0892848 2.02503 176.333)
(0 0 -120.241)
(0 0 -120.243)
(-0.0884245 -2.02638 176.338)
(0 0 -122.922)
(0 0 -109.625)
(-0.0893418 -2.68611 187.373)
(0 0 -112.913)
(0 0 -106.839)
(-0.0897847 -1.55277 183.442)
(0 0 -109.499)
)
;
    }
    stove_body
    {
        type            noSlip;
    }
    frontAndBack
    {
        type            empty;
    }
}


// ************************************************************************* //
