/*--------------------------------*- C++ -*----------------------------------*\
  =========                 |
  \\      /  F ield         | OpenFOAM: The Open Source CFD Toolbox
   \\    /   O peration     | Website:  https://openfoam.org
    \\  /    A nd           | Version:  6
     \\/     M anipulation  |
\*---------------------------------------------------------------------------*/
FoamFile
{
    version     2.0;
    format      ascii;
    class       volScalarField;
    location    "0.01";
    object      O2;
}
// * * * * * * * * * * * * * * * * * * * * * * * * * * * * * * * * * * * * * //

dimensions      [0 0 0 0 0 0 0];

internalField   nonuniform List<scalar> 
3773
(
0
0
0
0
0
0
0
0
0
0
0
0
0
0
0
0
0
0
0
0
0
0
0
0
0
0
0
0
0
0
0
0
0
0
0
0
0
0
0
0
0
0
0
0
0
0
0
0
0
0
0
0
0
0
0
0
0
0
0
0
0
0
0
0
0
0
0
0
0
0
0
0
0
0
0
0
0
0
0
0
0
0
0
0
0
0
0
0
0
0
0
0
0
0
0
0
0
0
0
0
0
0
0
0
0
0
0
0
0
0
0
0
0
0
0
0
0
0
0
0
0
0
0
0
0
0
0
0
0
0
0
0
0
0
0
0
0
0
0
0
0
0
0
0
0
0
0
0
0
0
0
0
0
0
0
0
0
0
0
0
0
0
0
0
0
0
0
0
0
0
0
0
0
0
0
0
0
0
0
0
0
0
0
0
0
0
0
0
0
0
0
0
0
0
0
0
0
0
0
0
0
0
0
0
0
0
0
0
0
0
0
0
0
0
0
0
0
0
0
0
0
0
0
0
0
0
0
0
0
0
0
0
0
0
0
0
0
0
0
0
0
0
0
0
0
0
0
0
0
0
0
0
0
0
0
0
0
0
0
0
0
0
0
0
0
0
0
0
0
0
0
0
0
0
0
0
0
0
0
0
0
0
0
0
0
0
0
0
0
0
0
0
0
0
0
0
0
0
0
0
0
0
0
0
0
0
0
0
0
0
0
0
0
0
0
0
0
0
0
0
0
0
0
0
0
0
0
0
0
0
0
0
0
0
0
0
0
0
0
0
0
0
0
0.00200442
0.00123293
0.00108562
0.000870208
0.000791618
0.00080535
0.00126408
0.00241237
0.00143879
0.0013587
0.00135889
0.00134204
0.00150306
0.00246667
0.00538242
0.00419452
0.00384442
0.00393994
0.00397706
0.00427293
0.00551477
0.00874336
0.00841803
0.00892861
0.0103711
0.00898949
0.00837233
0.00863132
0.0038892
0.00335848
0.00304354
0.00300325
0.00284521
0.00292219
0.00375008
0.00232573
0.00122644
0.000909307
0.000928644
0.00110482
0.00141883
0.00242616
0.00172435
0.000754435
0.000690634
0.000718471
0.000807278
0.00119704
0.00201874
0.000449231
3.84328e-06
6.01373e-06
6.83284e-06
6.63217e-06
9.21729e-06
1.2033e-05
0.000872102
9.15077e-06
6.33123e-06
3.10653e-05
0.000152692
0.000346678
0.000693512
0.00457415
0.00245631
0.00178014
0.00150419
0.00155832
0.00227645
0.00468479
0.00657284
0.00645327
0.00680766
0.00771091
0.00655914
0.00624491
0.00650778
0.00338954
0.00227852
0.00250934
0.00293969
0.00239696
0.00206275
0.00291626
0.00107824
9.53474e-05
4.7048e-05
1.54049e-05
1.45326e-05
1.40055e-05
0.000952942
0.00054674
4.79423e-06
1.45732e-06
3.6883e-06
9.97395e-06
2.24056e-05
0.00103564
0.000153761
5.3451e-07
9.68111e-07
1.73428e-06
2.24451e-06
4.05799e-06
2.93936e-06
0.000558209
9.91356e-06
1.6389e-05
9.56283e-05
0.000179244
0.000183186
0.000107232
0.00327308
0.00122592
0.00101268
0.00108257
0.00100626
0.00156071
0.0027099
0.00541941
0.00451615
0.00378005
0.00419099
0.00449831
0.00435124
0.00520315
0.00342304
0.00177939
0.00150123
0.00202894
0.0015653
0.00167616
0.00288086
0.000922168
0.000177366
4.93448e-05
1.93159e-05
4.27147e-05
7.55818e-05
0.000597597
0.000392386
3.43352e-06
2.54133e-06
6.33291e-06
1.88335e-05
6.01161e-05
0.000623806
8.18778e-05
1.81226e-07
4.95762e-07
1.59908e-06
2.30362e-06
4.99736e-06
3.13491e-06
0.000347582
6.63933e-06
1.90964e-05
3.38827e-05
3.08608e-05
4.95384e-05
4.71971e-05
0.00161281
0.000791623
0.000670434
0.000687425
0.000638234
0.00103077
0.00216417
0.00355656
0.00273068
0.00246336
0.00253269
0.00217214
0.00327579
0.00421534
0.00304956
0.0013251
0.000748023
0.000965158
0.000947352
0.00139844
0.00298765
0.00058054
0.000142329
2.18432e-05
2.5882e-05
0.000116412
0.000306741
0.000534715
6.00289e-05
1.66637e-06
3.05551e-06
7.24585e-06
1.78042e-05
5.10039e-05
0.00014473
2.11785e-05
2.66752e-07
3.82623e-07
1.21032e-06
2.74424e-06
6.01664e-06
4.29512e-06
0.000157748
8.29557e-07
1.9471e-06
6.50233e-06
2.10884e-05
8.79497e-05
8.50481e-05
0.00095804
0.000509161
0.000379589
0.000449547
0.000508942
0.000732161
0.00132494
0.0017191
0.00174818
0.00153301
0.00159985
0.00142076
0.00180018
0.0024973
0.00159761
0.000865697
0.000470129
0.000469692
0.000464569
0.000866374
0.0023573
0.000184781
1.84809e-05
9.88794e-06
3.82217e-05
0.00012587
0.000225351
0.000414234
4.48684e-07
1.53954e-06
3.25692e-06
5.16302e-06
7.74903e-06
2.40858e-06
1.82794e-06
5.48311e-06
4.33493e-07
8.30805e-07
1.54958e-06
3.37293e-06
6.16851e-06
1.12759e-06
1.94613e-05
1.16912e-06
3.92055e-06
1.25866e-05
4.07868e-05
8.55365e-05
5.20667e-05
0.000405328
0.000196522
0.000155957
0.000238138
0.000325102
0.000522678
0.000758737
0.00115538
0.00107771
0.00126732
0.00112177
0.00102389
0.00126187
0.0016106
0.00110247
0.000638098
0.000329076
0.000319438
0.000388047
0.000630227
0.00117858
7.56409e-07
4.38696e-06
9.17485e-06
1.75225e-05
2.61139e-05
3.14047e-05
5.27793e-05
6.12741e-07
2.13643e-06
3.14555e-06
3.46956e-06
2.82752e-06
3.16776e-06
3.17141e-06
5.87825e-07
9.67369e-07
1.48996e-06
1.83642e-06
2.37881e-06
1.02128e-06
0
2.30993e-07
4.05059e-06
9.11843e-06
2.269e-05
2.57161e-05
2.09844e-05
1.01943e-05
0.000119082
4.4637e-05
7.60205e-05
0.000119103
0.000179609
0.000293569
0.000422842
0.000925733
0.00063465
0.000554024
0.000703878
0.000665515
0.000587221
0.000714694
0.000571866
0.000268763
0.00017387
0.00016902
0.00026838
0.000483914
0.000830492
2.01705e-06
1.03653e-05
1.8512e-05
3.48987e-05
4.00696e-05
2.45613e-05
0
1.00779e-06
3.7943e-06
4.92217e-06
5.30871e-06
2.17642e-06
1.05217e-06
0
0
3.22957e-07
1.03579e-08
1.0235e-08
8.5109e-09
4.2286e-09
1.33347e-09
2.34984e-07
1.21692e-06
2.43276e-06
3.06439e-06
1.99809e-06
8.35783e-07
1.77801e-09
4.01027e-06
5.13807e-05
4.04184e-05
7.89944e-05
3.57073e-05
1.28122e-05
0
0.000270606
0.000350419
0.000342025
0.000425541
0.000301919
0.000216409
0.000119767
7.91129e-06
0.000103673
5.38584e-05
0.00010284
6.59769e-05
3.76027e-05
0
8.28854e-07
7.11429e-06
9.96977e-06
1.64091e-05
7.83844e-06
4.4019e-07
3.39372e-09
0
2.68813e-07
2.46657e-07
6.42112e-07
2.05847e-07
3.05657e-08
2.86804e-09
6.8193e-09
5.55856e-08
7.69384e-09
1.30505e-08
9.91995e-09
4.86301e-09
1.31425e-09
1.93188e-07
7.47145e-07
1.31735e-06
1.8103e-06
7.20307e-07
3.9272e-08
1.7807e-09
2.60938e-06
2.70009e-05
2.06945e-05
2.66516e-05
8.60186e-06
4.91669e-07
7.75034e-10
9.05785e-05
0.000207845
0.000188173
0.000161659
0.000103462
8.98369e-05
2.83306e-05
4.3662e-06
4.29898e-05
2.54006e-05
3.14257e-05
1.20659e-05
1.827e-06
7.36803e-10
3.45126e-07
3.6129e-06
5.11193e-06
7.71128e-06
1.97729e-06
1.32086e-07
4.85872e-09
9.62722e-09
1.86005e-07
5.27169e-07
1.28619e-06
2.92887e-07
3.48197e-08
2.42437e-09
4.67506e-09
2.13033e-08
9.55794e-09
1.55339e-08
1.02258e-08
4.68182e-09
1.73751e-09
7.76445e-08
2.45175e-07
3.06707e-07
6.13994e-07
1.54334e-07
2.12582e-08
4.40186e-09
8.92611e-07
1.15955e-05
9.43803e-06
8.57739e-06
2.00367e-06
2.20888e-07
1.11912e-09
3.03375e-05
0.000100841
8.84437e-05
8.45074e-05
5.52768e-05
3.75429e-05
5.61947e-06
1.5363e-06
1.64116e-05
1.05889e-05
1.20275e-05
2.4698e-06
5.69707e-08
8.98405e-10
1.37752e-07
1.2592e-06
1.84628e-06
3.03399e-06
4.10776e-07
2.33539e-08
2.36811e-09
7.90182e-09
1.46001e-07
2.51499e-07
1.65492e-07
4.32374e-08
6.1418e-09
1.24332e-09
2.78871e-09
7.1027e-09
1.25628e-08
2.00991e-08
1.0148e-08
4.78242e-09
2.36847e-09
2.59354e-08
1.23866e-07
3.46667e-07
4.20241e-07
8.73047e-08
3.06506e-08
9.61154e-09
3.45005e-07
4.64787e-06
4.07524e-06
3.12449e-06
1.49073e-06
9.7829e-07
3.12285e-09
1.09698e-05
4.71382e-05
4.54718e-05
4.79596e-05
3.013e-05
1.98716e-05
9.11287e-07
4.85718e-07
4.74232e-06
4.13188e-06
5.81095e-06
3.71651e-07
3.85221e-07
2.14374e-09
1.06518e-07
5.34512e-07
6.09972e-07
1.13071e-06
1.70595e-07
2.08018e-08
2.78504e-09
1.50387e-08
1.00352e-07
6.24533e-08
2.16677e-08
7.72342e-09
2.26919e-09
9.41425e-10
3.1555e-09
1.27703e-08
1.48469e-08
1.1805e-08
6.95598e-09
6.41177e-09
4.54944e-09
2.88384e-08
2.19562e-07
4.48244e-07
3.34832e-07
1.30266e-07
4.95357e-08
1.4195e-08
1.55439e-07
2.09997e-06
2.07112e-06
1.47724e-06
1.16161e-06
4.47519e-07
6.88643e-09
3.06127e-06
1.85014e-05
1.86181e-05
2.50559e-05
1.63461e-05
6.84999e-06
9.32498e-08
3.22687e-07
1.41322e-06
1.43042e-06
2.0167e-06
1.97992e-07
1.02157e-07
7.00023e-09
6.37116e-08
2.06598e-07
1.68181e-07
2.34507e-07
8.41974e-08
1.6995e-08
3.4407e-09
1.35285e-08
4.5006e-08
1.20173e-08
5.0097e-09
3.18252e-09
1.33194e-09
7.24307e-10
9.97804e-09
2.09037e-08
7.28166e-09
5.24082e-09
8.69805e-09
8.61569e-09
4.96925e-09
5.10773e-08
2.06336e-07
2.18496e-07
1.5458e-07
7.54051e-08
3.59971e-08
1.09375e-08
1.28529e-07
7.21379e-07
1.02312e-06
7.80219e-07
4.62658e-07
1.14213e-07
7.12562e-09
1.47441e-06
1.19941e-05
1.2031e-05
1.4372e-05
9.02485e-06
3.09509e-06
1.01749e-08
1.51821e-07
4.22652e-07
4.70139e-07
4.70369e-07
3.50604e-07
6.47419e-08
1.82979e-08
3.70969e-08
6.65252e-08
3.94063e-08
2.61637e-08
1.84175e-08
1.2962e-08
5.08699e-09
9.65862e-09
3.64469e-09
3.10024e-09
2.28611e-09
1.69397e-09
1.18805e-09
8.60445e-10
4.10341e-09
1.50109e-09
9.05383e-10
1.91511e-09
7.14325e-10
1.41239e-09
1.37135e-09
2.20347e-08
1.94575e-08
1.2126e-08
1.87879e-08
1.9875e-08
1.1809e-08
3.7127e-09
4.59955e-08
1.593e-07
1.57034e-07
2.10664e-07
1.50234e-07
6.54521e-08
1.49836e-08
5.90986e-07
4.88649e-06
5.112e-06
8.07129e-06
4.15279e-06
1.79958e-06
2.26642e-07
4.30475e-08
5.92266e-08
5.71571e-08
2.66028e-07
2.7726e-07
1.7599e-07
7.21412e-08
1.69542e-08
1.06437e-08
6.17529e-09
1.29457e-08
2.05331e-08
1.5985e-08
6.25944e-09
3.78318e-09
2.05872e-09
1.7637e-09
1.47671e-09
9.55334e-10
7.83475e-10
1.67551e-09
0
3.35754e-06
1.88244e-06
1.04854e-06
6.71117e-07
3.67638e-07
0
0
1.27385e-05
1.39147e-05
2.0458e-05
1.50537e-05
7.05577e-06
0
0
7.36291e-05
4.6858e-05
0.000161016
0.000115616
8.95072e-05
3.80451e-05
0.000668647
0.000535986
0.000517672
0.000660818
0.000614506
0.000549595
0.000624879
0.000325863
0.000276731
7.5646e-05
0.000208957
0.000241772
0.000425012
0.000423365
0
3.97888e-05
2.41176e-05
4.46118e-05
3.64618e-05
2.22747e-05
0
0
9.18024e-06
6.10915e-06
7.31879e-06
1.80086e-06
6.73571e-07
0
0
1.52574e-06
1.0888e-06
5.23724e-07
4.19943e-07
2.25894e-07
0
0
1.00198e-05
9.84714e-06
1.48442e-05
1.0981e-05
5.8499e-06
0
0
6.9948e-05
4.71204e-05
0.000158963
0.00011427
7.75033e-05
0
0.000643072
0.000521315
0.000509034
0.000639897
0.000603464
0.00053739
0.000593038
0.000262765
0.000268018
7.55142e-05
0.000206063
0.000240473
0.000399241
0.00029532
0
3.20508e-05
2.06848e-05
3.91233e-05
2.82943e-05
1.53471e-05
0
0
6.6039e-06
3.51423e-06
4.32745e-06
1.00536e-06
3.82092e-07
0
0
9.53156e-07
1.03088e-06
4.05491e-07
3.21945e-07
1.73241e-07
0
0
1.06871e-05
9.02876e-06
1.33241e-05
9.50958e-06
4.69943e-06
0
0
6.93979e-05
4.64708e-05
0.000155924
0.000111764
6.91585e-05
0
0.000598293
0.000506221
0.000492511
0.000632781
0.000585492
0.000506916
0.000532198
0.000210557
0.000250345
7.53294e-05
0.000200292
0.000239255
0.000345149
0.00014178
0
3.6092e-05
1.97637e-05
3.76486e-05
2.57633e-05
1.27557e-05
0
0
6.34673e-06
2.85916e-06
3.75706e-06
8.72337e-07
2.92866e-07
0
0
9.92939e-07
1.31867e-06
2.19691e-07
2.64753e-07
1.38196e-07
0
0
1.11874e-05
8.68046e-06
9.86953e-06
8.2809e-06
4.17551e-06
0
0
6.68464e-05
4.37416e-05
0.000148014
0.00010591
5.77452e-05
0
0.000568845
0.000492128
0.000477372
0.000627613
0.000570482
0.000473686
0.000484871
0.000173887
0.00023898
7.37002e-05
0.000190075
0.00023561
0.000291072
1.74501e-05
0
3.70948e-05
1.99239e-05
3.70045e-05
2.2391e-05
9.54207e-06
0
0
7.21385e-06
2.95075e-06
4.12406e-06
9.12553e-07
2.25218e-07
0
0
1.14546e-06
1.54879e-06
1.48207e-07
1.92661e-07
1.24284e-07
0
0
1.14847e-05
8.3663e-06
6.45471e-06
6.76769e-06
3.21153e-06
0
0
6.65288e-05
4.34914e-05
0.000143323
0.000101757
5.2163e-05
0
0.000521248
0.000477521
0.000463796
0.000616214
0.00054716
0.000451201
0.000407623
0.000150969
0.000221815
7.15317e-05
0.000177836
0.0002246
0.000235362
0
0
3.06937e-05
2.02601e-05
3.12166e-05
1.78606e-05
8.09585e-06
0
0
7.46995e-06
3.10712e-06
2.95449e-06
8.62744e-07
1.71515e-07
0
0
1.64654e-06
1.4723e-06
1.05675e-07
5.00312e-08
5.0001e-08
0
0
1.08725e-05
7.70918e-06
5.84292e-06
4.6024e-06
2.68191e-06
0
0
7.14458e-05
4.58722e-05
0.000132822
9.13332e-05
4.23805e-05
0
0.00049583
0.00046263
0.000450993
0.00059637
0.000531899
0.000431132
0.000370489
9.04717e-05
0.000209976
7.30395e-05
0.000164715
0.000197245
0.000211839
0
0
2.30138e-05
1.84857e-05
2.75692e-05
1.1096e-05
3.8476e-06
0
0
6.39178e-06
2.46323e-06
2.10761e-06
3.16177e-07
4.03895e-08
0
0
2.54942e-06
5.12096e-07
2.3864e-08
7.90616e-09
2.80701e-08
0
0
7.05217e-06
5.20975e-06
3.94088e-06
3.20301e-06
2.085e-06
0
0
7.2217e-05
4.7839e-05
0.000130809
8.84157e-05
3.97185e-05
0
0.000442712
0.000451852
0.000437127
0.000581002
0.000523831
0.00041104
0.000291531
1.58241e-05
0.00019002
7.27219e-05
0.000158406
0.000181974
0.000170635
0
0
1.83314e-05
1.58275e-05
2.42421e-05
8.30086e-06
2.25622e-06
0
0
3.94011e-06
1.21158e-06
4.89201e-07
1.51261e-07
4.98309e-09
0
1.17375e-10
2.84557e-10
8.91886e-10
9.73914e-10
5.36865e-10
2.23784e-10
1.22221e-10
2.74153e-11
5.72954e-10
2.10048e-09
1.23526e-08
2.16897e-08
3.88375e-09
1.50375e-09
2.30947e-09
4.0854e-08
4.64633e-08
5.85433e-07
5.92018e-07
4.54445e-07
8.11946e-08
5.11866e-07
2.98527e-06
3.22289e-06
5.35035e-06
3.24339e-06
1.66235e-06
2.12271e-07
2.01027e-09
3.38532e-08
4.84489e-08
6.43032e-07
7.00445e-07
5.63162e-07
1.82805e-07
5.03088e-11
1.13318e-09
1.88718e-09
8.19289e-09
8.82852e-09
3.27869e-09
2.79646e-09
4.33014e-11
1.86801e-10
1.01153e-09
1.15752e-09
5.87917e-10
2.2181e-10
1.51123e-10
4.98729e-10
1.22518e-09
1.57391e-09
1.83489e-09
1.56835e-09
5.78884e-10
1.11899e-10
5.74423e-11
2.65114e-09
8.52685e-09
1.59102e-08
1.92754e-08
8.38647e-09
2.44299e-09
9.25786e-09
9.66995e-08
1.17432e-07
2.91934e-07
4.04706e-07
3.20416e-07
1.17977e-07
4.28372e-07
2.37406e-06
2.52188e-06
4.60282e-06
3.03243e-06
1.45389e-06
2.86328e-07
1.524e-09
7.76124e-08
1.51949e-07
4.04678e-07
5.43187e-07
4.57806e-07
2.74792e-07
1.56156e-10
3.82611e-09
5.52865e-09
6.31811e-09
5.78416e-09
4.82127e-09
5.8146e-09
1.66495e-10
8.22919e-10
1.04737e-09
1.12962e-09
7.77685e-10
4.18025e-10
2.33794e-10
1.17152e-09
1.76782e-09
2.30582e-09
2.4053e-09
1.85394e-09
1.48717e-09
4.99032e-10
1.27413e-09
5.10256e-09
9.87732e-09
1.69333e-08
2.14845e-08
1.61908e-08
5.33271e-09
4.61912e-08
2.0548e-07
2.17448e-07
2.5819e-07
4.07432e-07
3.21687e-07
1.67137e-07
3.44239e-07
1.82698e-06
1.94965e-06
3.33286e-06
2.74151e-06
1.34624e-06
4.75414e-07
4.54954e-08
1.51297e-07
2.12326e-07
3.65544e-07
5.19436e-07
3.83476e-07
2.62966e-07
4.3241e-09
7.47884e-09
1.32446e-08
1.54772e-08
1.83167e-08
1.2027e-08
1.12037e-08
9.60935e-10
1.63437e-09
2.46515e-09
2.45736e-09
1.85352e-09
8.29995e-10
5.60629e-10
1.37835e-09
1.84167e-09
1.96812e-09
2.01541e-09
1.39238e-09
1.09689e-09
9.79612e-10
2.48028e-09
5.22794e-09
9.16487e-09
1.25334e-08
1.51208e-08
1.10341e-08
5.711e-09
6.84661e-08
2.05443e-07
1.95401e-07
2.56928e-07
3.01941e-07
2.57923e-07
1.51841e-07
2.1052e-07
1.4374e-06
1.44318e-06
2.27538e-06
2.07212e-06
1.23031e-06
5.04867e-07
5.77969e-08
1.62852e-07
1.99909e-07
2.96484e-07
3.73025e-07
3.05207e-07
2.09163e-07
5.47391e-09
7.43703e-09
9.91554e-09
1.0347e-08
1.05812e-08
9.66909e-09
9.88553e-09
1.46136e-09
1.85585e-09
2.21205e-09
2.0285e-09
1.73484e-09
1.89482e-09
1.90594e-09
1.35784e-09
1.5664e-09
1.47046e-09
1.3618e-09
7.92501e-10
4.23888e-10
2.96062e-10
2.65713e-09
4.1319e-09
5.15382e-09
5.70615e-09
5.65561e-09
4.34785e-09
3.13144e-09
4.90241e-08
1.37789e-07
1.24773e-07
1.74446e-07
2.25438e-07
2.14839e-07
1.46417e-07
1.84202e-07
9.00061e-07
9.25483e-07
1.57553e-06
1.44414e-06
1.13164e-06
4.80134e-07
3.70127e-08
1.04105e-07
1.22581e-07
2.07892e-07
2.73847e-07
2.67024e-07
1.81527e-07
4.15625e-09
4.59447e-09
4.04086e-09
3.81692e-09
4.41257e-09
4.6946e-09
4.66079e-09
1.38625e-09
1.55594e-09
1.14935e-09
9.95919e-10
9.8629e-10
1.02199e-09
6.58692e-10
1.08016e-09
9.04851e-10
5.37706e-10
4.49796e-10
3.68583e-10
2.65508e-10
2.40993e-10
1.57747e-09
1.54456e-09
1.22018e-09
1.42146e-09
1.47328e-09
1.27361e-09
1.16538e-09
2.85031e-08
5.2431e-08
4.54474e-08
6.6241e-08
1.34868e-07
1.57273e-07
1.37806e-07
1.35264e-07
3.75013e-07
4.10013e-07
7.12424e-07
9.58159e-07
8.22891e-07
4.71741e-07
2.48125e-08
5.28464e-08
5.0407e-08
7.25563e-08
1.67761e-07
1.66746e-07
1.4091e-07
1.81045e-09
1.64456e-09
1.0981e-09
8.9986e-10
1.06758e-09
1.60546e-09
1.82084e-09
1.06294e-09
9.17528e-10
3.7899e-10
2.56973e-10
2.34397e-10
1.93381e-10
1.39593e-10
6.71193e-10
4.56763e-10
2.68361e-10
2.12894e-10
1.4171e-10
1.03877e-10
6.95827e-11
8.46726e-10
6.89276e-10
4.88023e-10
4.2656e-10
4.04624e-10
3.38109e-10
2.68185e-10
1.50458e-08
1.89393e-08
1.65884e-08
1.88423e-08
4.18918e-08
5.52575e-08
7.02999e-08
8.36294e-08
1.37863e-07
1.12502e-07
1.31941e-07
2.78453e-07
2.73853e-07
2.81079e-07
1.36346e-08
2.69254e-08
2.23094e-08
2.38516e-08
5.26865e-08
6.44011e-08
7.39856e-08
5.69509e-10
5.07322e-10
2.16968e-10
1.72486e-10
2.65756e-10
4.2711e-10
4.8916e-10
4.63487e-10
4.0977e-10
2.56333e-10
1.75055e-10
1.44313e-10
1.32997e-10
9.89478e-11
1.38346e-11
1.83161e-12
1.67527e-12
1.96577e-12
2.05714e-12
2.16388e-12
1.81026e-12
1.11123e-09
3.50371e-10
3.64302e-13
3.49133e-13
3.81853e-13
3.76612e-13
1.90125e-13
5.90504e-08
2.94431e-08
5.32446e-12
4.31253e-12
7.1681e-12
1.00593e-11
1.79357e-11
1.12478e-07
4.83708e-08
2.10391e-08
1.16184e-08
2.58443e-09
1.56472e-09
9.49519e-10
1.24734e-07
1.10183e-07
7.88172e-08
3.19737e-08
5.22477e-12
3.17131e-12
6.49189e-12
2.57426e-09
2.18368e-09
1.70278e-09
3.02029e-10
3.4816e-13
2.92805e-13
2.28936e-13
2.13599e-11
2.81778e-12
1.75347e-12
1.58575e-12
1.65803e-12
1.59429e-12
1.2185e-12
4.18064e-11
1.09935e-11
7.65866e-12
7.40705e-12
8.49239e-12
9.01023e-12
6.91993e-12
1.50928e-09
8.15934e-10
1.80343e-10
8.75021e-12
1.38336e-12
1.52954e-12
1.15537e-12
6.29252e-08
4.32169e-08
1.82714e-08
8.99079e-10
1.1001e-11
1.60169e-11
2.56804e-11
1.28684e-07
7.17695e-08
4.30425e-08
2.59376e-08
1.52406e-08
6.40022e-09
4.33674e-09
1.59937e-07
1.44837e-07
1.16253e-07
7.88912e-08
3.13674e-08
1.31574e-10
1.11716e-11
5.81196e-09
4.62854e-09
4.235e-09
1.76396e-09
3.98376e-10
2.52418e-12
2.60575e-12
7.96607e-11
1.17951e-11
7.34861e-12
7.18921e-12
7.15783e-12
6.41052e-12
4.35756e-12
1.60442e-10
3.46252e-11
1.89218e-11
2.08497e-11
2.37941e-11
2.55405e-11
1.58134e-11
2.49948e-09
1.94212e-09
8.48836e-10
2.73112e-10
1.99531e-11
4.17415e-12
3.976e-12
1.01068e-07
6.07106e-08
4.47686e-08
2.80449e-08
7.16849e-09
1.95362e-11
3.30845e-11
2.0718e-07
1.17971e-07
8.87953e-08
5.67757e-08
3.94916e-08
3.01512e-08
1.49535e-08
2.21322e-07
1.86179e-07
1.63823e-07
1.37532e-07
8.42982e-08
4.76222e-08
6.64738e-09
1.17103e-08
8.6086e-09
7.11657e-09
4.7855e-09
2.72803e-09
4.69435e-10
3.89384e-11
3.34458e-10
1.30425e-10
3.79216e-11
2.42635e-11
2.04344e-11
1.46486e-11
1.23023e-11
4.73128e-10
2.3886e-10
1.46468e-10
4.62705e-11
5.4701e-11
7.04636e-11
4.20886e-11
4.23329e-09
2.63422e-09
1.33847e-09
4.39621e-10
1.05588e-10
2.25424e-11
2.19579e-11
9.25036e-08
7.0639e-08
4.37731e-08
3.25507e-08
2.07876e-08
8.65794e-09
1.78337e-09
3.12564e-07
2.00813e-07
1.60133e-07
1.15062e-07
8.18987e-08
5.44223e-08
4.76123e-08
1.9403e-07
1.74132e-07
1.58609e-07
1.29292e-07
1.15685e-07
8.01285e-08
5.84615e-08
1.07476e-08
9.47029e-09
9.74292e-09
9.09135e-09
5.67035e-09
2.60881e-09
1.1831e-09
1.94918e-09
1.28978e-09
4.22546e-10
1.19022e-10
5.42037e-11
3.86556e-11
1.79699e-11
2.08776e-10
1.95376e-10
2.10696e-10
1.72092e-10
1.3567e-10
1.05177e-10
6.09671e-11
2.4576e-09
2.25577e-09
2.31323e-09
1.52918e-09
3.99688e-10
1.3421e-10
9.74017e-11
1.25621e-07
9.58463e-08
6.90195e-08
5.19929e-08
3.12649e-08
2.21864e-08
1.33388e-08
3.53155e-07
2.93497e-07
2.27102e-07
1.58908e-07
1.36518e-07
9.22303e-08
7.27663e-08
1.35141e-07
1.11161e-07
1.00997e-07
8.604e-08
8.54918e-08
7.65402e-08
6.44361e-08
4.64316e-09
4.67797e-09
4.9946e-09
5.03866e-09
4.14905e-09
3.62974e-09
2.85582e-09
5.74495e-10
2.14253e-10
1.32485e-10
3.10918e-10
1.73112e-10
7.16896e-11
2.79944e-11
3.19313e-10
3.39787e-10
2.99115e-10
1.99632e-10
1.47642e-10
1.13552e-10
7.72084e-11
1.27022e-09
1.3549e-09
1.5456e-09
1.34701e-09
7.84776e-10
4.70828e-10
2.89933e-10
1.2249e-07
1.02594e-07
7.66196e-08
5.99361e-08
4.23713e-08
3.48715e-08
1.93032e-08
3.4682e-07
2.72107e-07
2.43326e-07
1.85044e-07
1.66905e-07
1.2896e-07
1.12017e-07
1.29033e-07
1.0789e-07
9.03628e-08
7.17996e-08
5.40544e-08
5.15199e-08
5.24301e-08
1.7626e-09
1.70886e-09
1.72078e-09
1.58974e-09
1.43508e-09
1.36177e-09
1.06031e-09
1.8823e-10
1.92023e-10
1.8223e-10
1.67216e-10
1.32745e-10
8.67249e-11
4.47079e-11
5.806e-11
4.48677e-11
3.79561e-11
3.90626e-11
3.88659e-11
4.11496e-11
5.26874e-11
2.3075e-10
1.95458e-10
1.91083e-10
2.26106e-10
2.62587e-10
2.72289e-10
2.68211e-10
7.23723e-08
7.00685e-08
6.50573e-08
5.78702e-08
5.05238e-08
3.7794e-08
3.34188e-08
2.56544e-07
2.30781e-07
2.00854e-07
1.72349e-07
1.54621e-07
1.28285e-07
1.19574e-07
7.3991e-08
7.03446e-08
6.22258e-08
5.48623e-08
4.72718e-08
3.68051e-08
3.41982e-08
4.82224e-10
4.57855e-10
4.56859e-10
4.79571e-10
4.62248e-10
4.29754e-10
3.45471e-10
1.04387e-10
1.11385e-10
1.08188e-10
9.87519e-11
8.34904e-11
6.6746e-11
4.76839e-11
1.15564e-12
3.82136e-12
7.21793e-12
1.38817e-11
1.81382e-11
1.82985e-11
1.90855e-11
6.3442e-13
1.2729e-12
2.54218e-12
5.53238e-12
6.16954e-12
6.37259e-12
6.49002e-12
8.28998e-14
1.66886e-13
3.00057e-13
5.871e-13
6.86177e-13
6.6834e-13
1.30272e-12
3.00815e-13
4.95318e-13
1.10296e-12
4.51304e-12
9.82788e-12
1.73542e-11
1.01562e-07
4.5624e-13
1.40773e-12
5.07261e-12
1.82164e-11
3.65665e-11
4.9653e-11
6.75807e-11
2.93698e-12
4.71243e-12
8.48594e-12
1.12453e-11
1.68946e-11
1.87348e-11
2.09882e-11
3.00453e-12
3.78899e-12
5.8213e-12
1.03229e-11
1.33301e-11
1.32772e-11
1.34091e-11
1.18337e-11
5.96926e-11
9.29258e-11
1.34136e-10
1.32125e-10
1.24145e-10
1.0467e-10
4.67534e-12
1.72442e-11
3.52018e-11
5.44103e-11
5.58347e-11
5.35958e-11
5.04606e-11
5.24033e-13
1.7067e-12
2.55878e-12
3.28556e-12
5.08815e-12
4.97903e-12
7.78657e-11
1.13029e-11
2.17233e-11
5.63347e-11
1.68757e-10
5.6117e-10
6.83193e-09
1.20616e-07
3.56429e-12
1.0617e-11
5.82534e-11
2.268e-10
3.60656e-10
6.72886e-10
7.05058e-10
1.9136e-11
6.01629e-11
9.03476e-11
1.17877e-10
1.5848e-10
2.10873e-10
2.02168e-10
9.82868e-12
2.48156e-11
7.60378e-11
9.51247e-11
1.00936e-10
9.41992e-11
8.44682e-11
7.34188e-11
2.05004e-10
3.1449e-10
3.08411e-10
2.36053e-10
2.70367e-10
7.03563e-10
5.31687e-11
8.52447e-11
1.60956e-10
2.01221e-10
1.85284e-10
1.39664e-10
1.21994e-10
2.42159e-11
2.62043e-11
3.2437e-11
3.29646e-11
3.03179e-11
4.26988e-11
1.53828e-09
5.55042e-10
1.00534e-09
1.55535e-09
4.50709e-09
1.14392e-08
3.86914e-08
1.3805e-07
3.42982e-11
6.26975e-11
6.43966e-10
3.43759e-09
5.54237e-09
9.16573e-09
1.60516e-08
1.67989e-10
3.41389e-10
2.91462e-10
2.66634e-10
8.69621e-10
1.30527e-09
2.40217e-09
4.60893e-11
1.54493e-10
2.30377e-10
2.26778e-10
2.68754e-10
2.09538e-10
4.09312e-10
2.29317e-10
4.50977e-10
5.80759e-10
6.20877e-10
6.88193e-10
8.54288e-10
1.12461e-09
1.83047e-10
3.53184e-10
4.16343e-10
4.20968e-10
3.84658e-10
4.44103e-10
8.16449e-10
4.3055e-10
6.84227e-10
1.25413e-09
1.96785e-09
2.9842e-09
7.87937e-09
1.94503e-08
2.05233e-09
4.41775e-09
8.21157e-09
1.42252e-08
2.75581e-08
5.58271e-08
1.25091e-07
7.29259e-10
1.29766e-09
2.47102e-09
4.38291e-09
8.04743e-09
1.3122e-08
2.44354e-08
6.24859e-10
1.07914e-09
1.2818e-09
1.77108e-09
2.56806e-09
2.94781e-09
3.99403e-09
1.34609e-10
3.52883e-10
4.499e-10
5.97253e-10
6.56062e-10
7.07867e-10
9.2296e-10
3.2931e-10
5.71118e-10
6.69079e-10
8.34596e-10
9.42804e-10
1.06783e-09
1.21784e-09
3.52656e-10
5.68859e-10
6.46679e-10
7.13577e-10
8.40457e-10
9.69778e-10
1.53479e-09
1.68996e-09
2.98385e-09
4.00025e-09
5.54216e-09
7.85255e-09
1.59779e-08
2.24745e-08
5.82584e-09
1.09717e-08
1.51821e-08
2.63151e-08
3.80286e-08
6.30868e-08
1.15939e-07
1.25706e-09
2.1127e-09
3.10884e-09
4.73354e-09
7.1283e-09
1.12826e-08
2.16378e-08
9.27083e-10
1.39601e-09
1.66804e-09
2.16627e-09
2.50055e-09
2.92869e-09
3.60079e-09
2.34542e-10
4.06934e-10
5.86097e-10
7.23528e-10
8.56928e-10
1.01961e-09
1.22364e-09
3.15324e-10
4.88492e-10
5.89262e-10
7.22317e-10
8.56486e-10
9.9789e-10
1.04812e-09
3.83692e-10
5.04694e-10
5.8937e-10
7.39646e-10
9.08666e-10
1.16356e-09
1.34277e-09
3.32479e-09
4.51385e-09
7.10178e-09
8.38615e-09
1.14216e-08
1.39397e-08
2.32203e-08
1.33995e-08
1.72023e-08
2.50137e-08
3.12241e-08
3.94753e-08
6.38875e-08
1.01414e-07
1.56152e-09
2.22704e-09
2.95305e-09
3.60361e-09
4.7363e-09
8.24019e-09
1.45383e-08
8.6169e-10
9.81256e-10
1.07582e-09
1.25668e-09
1.34438e-09
1.61083e-09
1.76183e-09
2.36388e-10
4.0599e-10
4.95284e-10
6.42623e-10
7.65277e-10
9.05959e-10
1.01026e-09
2.39514e-10
2.63005e-10
1.58155e-10
3.11718e-10
5.21293e-10
6.45283e-10
6.7495e-10
2.8191e-10
2.4202e-10
1.30273e-10
2.69202e-10
4.45332e-10
5.99846e-10
7.41348e-10
2.61624e-09
3.0161e-09
3.59228e-09
5.82446e-09
6.74683e-09
1.04261e-08
1.30102e-08
1.55112e-08
1.73285e-08
2.15166e-08
2.86698e-08
3.38317e-08
4.75732e-08
5.45246e-08
1.04704e-09
1.02479e-09
8.21053e-10
6.05569e-10
6.78509e-10
1.4002e-09
4.3977e-09
6.04092e-10
6.11034e-10
5.90992e-10
5.78647e-10
5.15129e-10
5.03458e-10
5.41423e-10
1.67374e-10
2.51432e-10
2.48518e-10
2.60372e-10
2.41774e-10
3.03644e-10
3.97781e-10
4.37533e-15
6.8392e-15
1.70865e-14
2.83024e-14
6.35936e-14
1.0943e-13
3.54965e-13
2.73116e-15
5.15952e-15
1.10605e-14
2.22864e-14
7.36985e-14
1.01736e-13
2.56654e-13
7.09934e-15
8.20734e-15
1.01983e-14
1.2303e-14
1.9981e-14
3.42577e-14
4.32225e-14
2.50032e-14
3.22723e-14
4.33053e-14
5.43905e-14
7.84006e-14
1.22522e-13
1.86924e-13
5.04597e-15
5.37092e-15
4.95235e-15
2.82403e-15
5.53022e-15
2.37974e-14
1.29987e-13
5.0366e-17
8.2707e-17
6.38613e-16
2.15751e-15
3.00262e-14
1.28717e-13
9.20829e-13
2.58102e-17
1.9063e-17
1.59296e-15
1.01656e-14
5.10686e-14
2.32915e-13
8.19569e-13
3.9466e-15
9.00681e-15
3.87897e-14
8.27292e-14
2.15962e-13
3.52072e-13
2.25626e-12
2.20499e-15
8.67157e-15
2.5617e-14
1.17171e-13
2.90811e-13
6.39631e-13
2.33268e-12
2.72786e-14
4.3378e-14
7.17277e-14
5.68331e-14
7.44043e-14
1.46207e-13
2.95718e-13
2.91365e-13
4.13282e-13
1.04656e-12
1.71079e-12
2.59655e-12
5.41819e-12
7.53384e-12
3.60322e-14
3.70535e-14
3.64003e-14
1.18911e-14
4.86917e-14
2.56678e-13
1.68949e-12
3.86044e-17
1.4004e-16
1.6663e-15
5.45655e-15
3.52503e-13
1.77337e-12
9.45598e-12
2.55338e-17
1.71219e-17
5.9166e-15
2.33802e-14
2.57005e-13
1.38177e-12
4.02173e-12
2.28235e-15
1.02408e-14
5.57968e-14
1.57163e-13
3.72774e-13
6.98207e-13
7.8287e-12
7.2673e-15
1.93669e-14
5.98512e-14
3.14781e-13
1.44062e-12
8.11759e-12
2.16904e-11
5.76012e-13
2.29242e-12
3.70202e-12
1.54861e-12
9.06415e-13
1.8369e-12
6.93042e-12
8.47503e-12
2.86559e-11
5.4862e-11
8.00702e-11
1.07849e-10
2.14118e-10
3.1357e-10
6.81575e-13
2.55964e-12
2.31805e-12
3.95063e-13
4.49373e-13
1.22261e-12
1.04492e-11
5.60222e-17
1.78842e-16
2.6147e-15
1.49984e-14
2.11114e-12
8.45259e-12
4.33181e-11
1.20913e-17
1.68467e-17
1.03666e-14
3.74349e-14
6.76199e-13
3.43784e-12
1.10433e-11
3.92419e-15
1.24867e-14
7.37385e-14
2.14414e-13
4.47299e-13
9.59182e-13
1.04987e-11
1.64094e-14
2.7975e-14
1.3205e-13
1.64493e-12
8.15639e-12
4.46994e-11
7.32241e-11
1.12035e-12
3.87576e-12
6.75708e-12
4.66332e-12
2.31241e-12
6.16684e-12
6.97128e-11
1.27701e-11
5.81751e-11
1.33694e-10
2.50826e-10
5.65925e-10
8.53242e-10
1.34525e-09
1.08895e-12
3.93327e-12
4.76703e-12
1.3045e-12
1.39737e-12
1.04916e-11
1.84536e-10
1.1793e-16
2.6799e-16
4.17885e-15
5.30714e-14
5.36266e-12
5.48872e-11
2.14925e-10
1.0244e-17
1.66247e-17
1.23218e-14
4.50787e-14
1.07314e-12
6.08397e-12
1.35885e-11
4.63032e-15
1.48123e-14
8.79982e-14
2.45101e-13
5.12431e-13
1.03602e-12
2.2287e-11
2.33809e-14
4.21002e-14
3.25392e-13
5.54084e-12
3.56257e-11
9.70718e-11
2.28105e-10
3.41481e-12
9.28202e-12
1.21698e-11
1.2521e-11
9.08133e-11
2.44332e-10
5.82874e-10
3.9122e-11
1.44533e-10
3.84476e-10
8.6366e-10
1.63373e-09
2.16349e-09
3.56193e-09
2.79016e-12
8.03788e-12
1.0491e-11
6.8826e-12
8.96484e-11
2.68142e-10
5.17764e-10
1.68562e-16
4.69443e-16
8.19556e-15
9.33211e-14
2.62895e-11
1.19759e-10
5.12411e-10
1.02408e-17
1.68698e-17
1.22753e-14
4.71048e-14
1.39601e-12
7.13254e-12
1.48277e-11
5.01769e-15
1.63631e-14
9.51867e-14
2.65683e-13
5.55033e-13
1.10994e-12
2.6783e-11
3.04242e-14
7.2403e-14
9.02211e-13
1.01226e-11
8.39629e-11
1.93003e-10
2.86539e-10
6.50773e-12
1.81495e-11
1.47148e-11
3.15699e-11
3.07147e-10
1.50161e-09
2.3918e-09
5.8987e-11
3.10689e-10
1.05654e-09
2.04812e-09
3.70744e-09
7.26658e-09
9.78278e-09
5.40566e-12
1.48169e-11
1.33659e-11
1.2746e-11
1.24201e-10
5.5667e-10
9.78528e-10
2.31961e-16
7.26268e-16
1.39858e-14
1.35747e-13
5.53135e-11
1.67904e-10
5.77587e-10
1.02824e-17
1.66506e-17
1.00409e-14
4.4687e-14
1.58805e-12
7.7125e-12
1.77409e-11
5.23532e-15
1.68741e-14
9.84738e-14
2.75741e-13
5.77482e-13
1.12614e-12
2.56179e-11
3.66002e-14
1.01367e-13
1.75969e-12
1.58005e-11
1.12686e-10
1.63023e-10
2.60799e-10
2.49357e-11
5.80821e-11
7.98889e-11
3.47046e-10
1.30761e-09
1.84785e-09
2.39823e-09
3.13203e-10
1.38969e-09
3.28111e-09
5.84443e-09
8.42016e-09
1.12344e-08
1.25399e-08
1.83562e-11
4.93694e-11
3.59098e-11
1.44763e-10
3.99856e-10
7.22343e-10
9.80323e-10
2.58027e-16
1.08678e-15
4.08844e-14
1.73118e-13
7.81929e-11
1.57796e-10
5.56632e-10
9.95784e-18
1.65985e-17
7.96186e-15
4.00019e-14
1.40684e-12
7.62285e-12
2.08194e-11
2.18159e-15
1.78386e-14
6.98884e-14
2.84909e-13
5.23151e-13
1.14095e-12
2.12702e-12
5.09074e-14
2.55511e-13
3.9326e-13
6.91544e-13
4.19515e-11
4.23939e-11
1.35207e-10
2.77768e-11
2.91326e-11
3.65586e-11
1.09826e-10
5.36313e-10
8.10692e-10
8.61546e-10
4.64014e-10
1.64697e-09
2.56729e-09
3.8489e-09
4.82414e-09
5.28258e-09
5.48578e-09
1.73804e-11
2.17993e-11
2.23946e-11
6.80602e-11
1.98613e-10
3.84345e-10
5.12388e-10
2.83762e-16
1.32911e-15
5.12146e-14
2.36295e-13
2.80733e-12
1.19189e-12
2.75089e-10
7.63219e-18
1.66519e-17
2.98835e-17
3.69228e-14
1.53627e-13
7.51469e-12
2.34865e-11
2.72625e-15
1.86688e-14
8.61913e-14
2.83709e-13
5.72587e-13
6.20595e-13
2.42667e-12
6.97556e-14
4.04444e-13
1.26903e-12
3.13783e-12
5.40652e-12
6.13243e-12
2.84955e-11
1.25797e-11
1.11249e-11
1.35139e-11
3.78551e-11
1.8708e-10
3.69542e-10
3.50668e-10
3.49751e-10
1.18313e-09
1.40922e-09
1.77384e-09
2.25543e-09
2.73868e-09
2.55169e-09
8.79879e-12
1.02676e-11
1.18913e-11
2.84677e-11
8.42736e-11