/*--------------------------------*- C++ -*----------------------------------*\
  =========                 |
  \\      /  F ield         | OpenFOAM: The Open Source CFD Toolbox
   \\    /   O peration     | Website:  https://openfoam.org
    \\  /    A nd           | Version:  6
     \\/     M anipulation  |
\*---------------------------------------------------------------------------*/
FoamFile
{
    version     2.0;
    format      ascii;
    class       volScalarField;
    location    "0.01";
    object      p;
}
// * * * * * * * * * * * * * * * * * * * * * * * * * * * * * * * * * * * * * //

dimensions      [1 -1 -2 0 0 0 0];

internalField   nonuniform List<scalar> 
3773
(
41631.8
41632.5
41632.3
41631.8
41631.8
41632
41632
101265
101265
101265
101266
101266
101265
101264
137426
137425
137424
137424
137425
137426
137426
149342
149341
149341
149341
149341
149341
149342
137427
137427
137427
137427
137427
137426
137426
101263
101264
101264
101265
101265
101264
101264
41631.2
41631
41630.1
41629.2
41629.7
41630.4
41630.6
41628.7
41629.3
41628.9
41628.4
41628.5
41628.8
41628.9
101259
101259
101260
101260
101260
101259
101259
137426
137425
137424
137424
137425
137426
137426
149341
149340
149339
149340
149340
149340
149341
137426
137427
137426
137427
137427
137426
137426
101258
101258
101259
101259
101259
101259
101258
41628.1
41628
41626.8
41625.9
41626.5
41627.3
41627.6
41622.7
41622.9
41622.1
41621.6
41622
41622.5
41622.9
101251
101251
101252
101252
101252
101251
101250
137424
137423
137422
137422
137423
137424
137424
149339
149338
149338
149338
149338
149338
149339
137424
137424
137424
137425
137424
137424
137424
101249
101250
101251
101251
101251
101250
101250
41622.3
41621.8
41620.4
41619.5
41620.3
41621.2
41621.8
41613.7
41613.5
41612.4
41612
41612.4
41613.2
41613.7
101240
101241
101242
101242
101241
101240
101240
137421
137420
137420
137419
137420
137421
137421
149337
149337
149336
149337
149337
149336
149337
137420
137421
137421
137421
137421
137421
137421
101240
101240
101241
101242
101241
101240
101239
41613.6
41612.7
41611
41610.2
41611
41612.1
41613
41602.7
41602.2
41601
41600.7
41600.9
41601.7
41602.4
101230
101231
101232
101232
101231
101230
101229
137418
137418
137417
137417
137417
137418
137418
149335
149335
149335
149335
149335
149335
149336
137417
137418
137418
137418
137418
137418
137418
101229
101230
101231
101232
101231
101230
101229
41602.8
41601.5
41599.8
41598.9
41599.9
41601
41602.2
41591.9
41591.3
41590.2
41590
41590.1
41590.7
41591.4
101221
101223
101224
101223
101222
101222
101221
137416
137416
137415
137415
137415
137416
137416
149334
149334
149334
149334
149334
149334
149335
137415
137415
137416
137416
137416
137416
137416
101221
101222
101223
101224
101223
101222
101221
41592.3
41590.6
41589.1
41588.3
41589.2
41590.3
41591.5
41585.1
41584.6
41583.5
41583.4
41583.4
41583.9
41584.5
101216
101218
101219
101218
101217
101217
101216
137415
137415
137414
137414
137415
137416
137416
149333
149334
149334
149334
149334
149333
149334
137414
137414
137415
137415
137415
137415
137415
101216
101218
101218
101219
101219
101217
101216
41585.7
41583.9
41582.5
41581.7
41582.7
41583.6
41584.8
61625.5
61594.5
61639.2
61812.4
62057.8
62302.1
62455.4
147035
146999
147001
147039
147080
147141
147315
197972
197884
197842
197792
197767
197794
197888
214572
214476
214411
214355
214300
214263
214302
197940
197783
197675
197590
197560
197576
197683
146871
146817
146905
146799
146629
146558
146577
61633.5
61682.2
61673.9
61548.8
61350.6
61191
61163.5
61207.2
61130.1
61074
61141.4
61287.8
61472.4
61666.7
146350
146297
146260
146217
146238
146405
146680
197522
197411
197353
197316
197305
197345
197452
214170
214095
214056
214034
213987
213942
213983
197387
197254
197181
197115
197083
197069
197189
146094
146036
146124
146028
145867
145768
145825
61207.7
61238.6
61266.9
61127.3
60854.2
60665
60671.2
60766.1
60695.3
60645.7
60634.8
60689.1
60764
60918
145861
145789
145718
145622
145613
145611
145844
197187
197086
197061
197057
197013
196956
196979
213863
213830
213862
213895
213852
213810
213797
197108
197035
196976
196913
196888
196904
197002
145684
145660
145670
145534
145381
145368
145565
60903.9
60894.6
60871.1
60746.2
60556.4
60530.8
60664.9
60541.7
60503.4
60483.9
60438.9
60407.5
60361.3
60473.8
145678
145594
145466
145338
145203
145080
145167
197152
197061
197048
196975
196873
196740
196664
213800
213806
213877
213891
213827
213739
213706
197168
197056
196964
196924
196921
196959
197084
145709
145655
145560
145351
145258
145314
145615
60760.7
60693.2
60585.8
60481.3
60489.2
60628.6
60903
60467.4
60439.6
60450
60357.7
60258.2
60150.2
60338.6
145632
145553
145399
145265
145015
144985
144987
197244
197134
197045
196912
196841
196856
196792
213897
213888
213908
213863
213823
213771
213733
197243
197075
196923
196903
196955
197034
197142
145720
145616
145473
145344
145308
145520
145809
60578.7
60477.5
60339.4
60240.2
60302.5
60519.9
60779.1
60422.4
60427.9
60404.2
60255.4
60113.6
60009
60186.9
145582
145508
145337
145169
145028
145059
144967
197143
197058
196969
196904
196889
196904
196834
213841
213884
213929
213862
213783
213745
213722
197005
196947
196834
196775
196804
196913
197088
145385
145274
145067
144936
145014
145339
145741
60277.5
60176
60011.5
59888.5
59920.4
60182.3
60441.4
60344.1
60329
60167.6
60068.6
60167.9
60234.8
60324.5
145407
145357
145234
145155
145126
145180
145187
196949
196925
196941
196948
196982
197005
196920
213721
213802
213887
213848
213742
213709
213662
196726
196703
196617
196627
196644
196728
196892
144971
144850
144641
144506
144515
144810
145522
59998.9
59878
59723.4
59592
59689.3
60135.8
60495
59949.7
59945.1
60081
60249.8
60563.1
60999.4
61340.6
145061
145016
145017
145186
145429
145738
146160
196924
196914
196915
197048
197260
197491
197641
213989
214001
214011
214005
214051
214172
214217
196802
196830
196847
196908
197038
197210
197364
144875
144773
144732
144878
145074
145253
145733
59837.7
59791.9
59774.9
59806.4
59929.6
60306.6
60827.4
59665.2
59666
59853.3
60043.8
60330.4
60671.9
61014
144693
144694
144705
144794
144889
145296
145879
196657
196661
196683
196758
196829
197019
197390
213886
213901
213917
213921
213928
213998
214117
196871
196877
196889
196891
196908
197010
197118
144909
144875
144868
144898
144969
145162
145619
59814.8
59792.6
59822.4
59833.2
59929.8
60225.7
60770.8
59574.5
59606.2
59666.1
59970.6
60260
60423.1
60691.6
144367
144415
144432
144536
144717
145135
145734
196259
196281
196330
196404
196427
196531
197017
213585
213602
213635
213613
213557
213559
213818
196742
196765
196772
196682
196504
196483
196850
144997
145005
144972
144835
144677
144949
145556
59957.1
59949.4
60010.7
59994.1
60017.6
60351.1
60877.7
59566.7
59696.6
59841.6
60178
60379.3
60557.3
60709.4
144303
144382
144407
144422
144693
145273
146091
196024
196073
196145
196142
196133
196323
197009
213341
213327
213347
213343
213245
213247
213636
196652
196596
196592
196414
196063
195964
196558
145072
145060
145042
144821
144433
144702
145533
60068
60085.4
60190.6
60240.5
60374.2
60659.8
61133.2
59532.5
59762.7
60323.4
60314.7
60355.7
60794.9
61286.6
144432
144555
144582
144448
144662
145678
147191
196131
196240
196270
196121
195997
196248
197139
213337
213381
213421
213376
213203
213153
213541
196615
196552
196524
196338
196033
196086
196647
144990
145034
145060
144976
144825
145126
145990
59972.9
60116.5
60296.4
60469.5
60449.2
60629.9
61003.5
59638.1
60018.3
60629.8
59944.9
59950.8
60636.5
61585
144564
144740
144777
144546
144793
146051
147942
196519
196659
196653
196437
196101
196082
196931
213591
213698
213813
213652
213248
212893
213160
196538
196643
196718
196493
196152
196323
196998
144435
144741
145072
145199
145279
145933
147076
59436
60117.4
60747.7
60440.1
60163.9
60567.6
61143.3
58501.6
61815.2
61507.3
60189.6
59832.1
60401
61330.2
143704
145521
145872
144911
144262
144993
147065
196562
197116
197166
196754
195912
195391
195852
213633
213853
214015
213729
213037
212353
212195
196336
196996
197187
196719
196428
196656
197031
143678
145752
146428
145437
144903
145368
146830
59094.8
61925.6
61921.4
60429.8
59931.6
59981.7
60803.8
60237.1
60169.6
60091.5
60502.8
60758.9
60881.9
60919.5
145301
145245
145225
145390
145496
145481
145588
196864
196829
196834
196936
197105
197242
197258
213685
213806
213790
213880
213833
213892
213857
196657
196649
196707
196663
196850
196830
197017
144903
144814
144693
144598
144658
144875
145884
59943.8
59867.1
59782.4
59699.8
59886.2
60764.4
61237.9
60222.1
60148.4
60079.7
60558.1
60808.3
60931.7
60978.6
145287
145230
145220
145427
145532
145529
145659
196860
196820
196824
196939
197101
197254
197277
213679
213760
213782
213859
213830
213912
213884
196660
196646
196721
196685
196847
196857
197052
144897
144813
144701
144620
144683
144917
145880
59938.3
59864.6
59784.7
59712.4
59885.7
60800.2
61300.2
60203.2
60130.9
60069.8
60567.8
60864.1
60979.5
61052.8
145274
145216
145202
145460
145545
145575
145740
196867
196819
196822
196948
197094
197256
197288
213687
213714
213787
213838
213835
213933
213912
196676
196652
196742
196713
196843
196887
197078
144894
144816
144708
144644
144708
144957
145843
59933.8
59861.5
59784.1
59727.1
59904.3
60828.8
61366.6
60185.9
60117.5
60058.9
60516.4
60958.7
61061.7
61143.6
145260
145203
145183
145486
145554
145611
145825
196877
196825
196821
196957
197092
197258
197309
213703
213706
213797
213829
213848
213955
213935
196689
196667
196753
196739
196855
196913
197086
144889
144821
144718
144670
144729
144975
145799
59929.7
59858.8
59785.3
59742.4
59950.9
60899.1
61462.5
60171.9
60105.8
60041.4
60433.5
61086.7
61205.5
61257.8
145242
145189
145170
145489
145574
145625
145902
196881
196834
196822
196963
197097
197266
197332
213726
213729
213810
213830
213868
213977
213954
196696
196686
196759
196764
196875
196935
197096
144882
144827
144730
144693
144756
144985
145760
59925.5
59856.1
59789.2
59753.7
59999.6
60995.8
61599.9
60156.3
60093.1
60023.6
60335.4
61142.2
61338.4
61390.2
145222
145174
145159
145482
145603
145619
145946
196884
196844
196827
196971
197113
197284
197358
213753
213759
213826
213840
213889
213999
213973
196700
196705
196769
196787
196902
196961
197129
144875
144831
144738
144708
144786
145018
145714
59920.2
59852
59793.1
59758.5
60019.9
61015.8
61668.4
60136.8
60077.8
60018.3
60258.4
61055.4
61335.6
61491.6
145203
145156
145145
145464
145607
145612
145973
196888
196853
196837
196983
197136
197311
197390
213782
213790
213846
213855
213907
214020
213999
196708
196722
196782
196808
196930
196991
197172
144873
144828
144739
144723
144815
145063
145664
59913.3
59845.7
59791.6
59758
60003.6
60907.4
61563.8
66106.9
65345.9
63001.9
60697
60216.9
60403.3
60911.3
150088
148536
146568
145790
144928
144733
145329
198197
197444
196775
196618
196159
195527
194885
213326
213806
213895
213869
213009
212300
210028
197411
197622
197282
196835
196277
195837
193644
149649
148897
147266
145959
144789
144486
144746
66136.7
66396.8
63745.9
60514.8
60015
60235.6
60772.8
67929.8
65419.1
62801.5
60901.2
60316.5
60054.8
60407
151793
149691
146660
145549
145089
144677
144646
198758
197637
196723
196500
196132
195425
194644
213417
213923
213977
213775
213015
212109
209863
197655
197738
197248
196797
196261
195528
193077
150670
149838
147341
145782
144985
144430
143891
67600.1
66373.4
63053.4
60679
60129.5
60023.8
60201.5
67318
64932.8
62498.1
61070.3
60244.4
59807.1
60214.1
151989
149859
146937
145608
145172
144722
144166
198953
197834
196880
196500
196148
195309
194362
213583
214158
214193
213778
213085
212051
210152
197708
197776
197317
196800
196374
195430
193144
150321
149521
147359
145881
145378
144631
143486
67121.6
65345.6
62296.9
60709.7
60201.5
59891.4
59640.2
66390.7
64218.1
62279.9
61136.8
60242.6
59870
60289.3
151601
149596
147151
145926
145213
144721
143962
198788
197990
197083
196574
196186
195250
194062
213767
214450
214473
213982
213276
212257
210533
197733
197821
197426
196954
196637
195587
193444
150199
148928
147118
146133
145727
144844
143461
66421.2
64100.7
61765.6
60770.2
60410.5
59915.7
59367.1
66029.9
63812.3
62172.2
61063.5
60293.8
60084.9
60517.2
151375
149332
147274
146141
145320
144831
143996
198701
198136
197279
196741
196271
195247
193879
214002
214743
214746
214261
213568
212615
210960
197861
197934
197568
197177
196952
195948
193888
150395
148523
146829
146349
146125
145130
143600
66419.8
63509.5
61520.3
60838.8
60613.4
59968.3
59244.6
66156.2
63668.4
62081.2
60950.4
60266.8
60266.9
60776.8
151543
149069
147235
146124
145419
144945
144031
198742
198276
197443
196898
196364
195267
193822
214277
214970
214966
214496
213857
212933
211434
198060
198061
197705
197371
197222
196299
194329
150799
148434
146725
146501
146502
145348
143569
66811.2
63475
61469.7
60928.2
60791.1
59955.4
59120
66537.8
63736
62052.4
60874.1
60250.3
60400.6
60977.8
151941
149103
147286
146151
145504
145047
144059
198949
198420
197619
197016
196455
195279
193811
214580
215077
215105
214610
214047
213082
211830
198319
198172
197778
197429
197380
196492
194617
151165
148519
146720
146593
146731
145459
143475
67285
63660.7
61529.1
61058.6
60957.4
59952.6
59053.1
60880.9
60523.5
60208.6
60625.3
62565.7
67449.8
75667.5
145070
144865
144158
143162
142662
143215
146080
193649
194120
193734
192213
189935
187143
184161
204746
204653
204441
203336
201262
198220
194309
187454
187187
188248
189265
189703
189230
187940
143488
142675
142985
144681
147298
150865
155336
62241.6
61982.7
61860.1
62714.2
66295.1
72594.6
81217.9
60419.8
60225.3
59694.8
59404.3
60414.2
64017.5
71219.1
144337
144249
143736
142651
141671
141917
144269
194026
193934
193410
192036
189918
187214
184161
206579
205489
204649
203447
201431
198450
194626
189093
188166
188506
189234
189657
189209
187721
142845
142401
142437
143589
145716
148524
152173
61094
61060.6
61051.2
61644.6
63954.4
68971.4
77160.1
60283.8
59845.3
59024.8
58501.8
58753
60566.6
65316.3
143711
143553
143051
141986
140755
140397
141740
193781
193399
192826
191695
189830
187297
184263
207844
206431
205132
203703
201709
198848
195148
190347
189164
188772
188885
189143
188843
187445
142837
142494
142279
142594
143524
145028
147375
60222.5
60403.9
60460.7
60564.7
61351.4
63878.3
69959.3
60366.3
59895.6
59347.9
58985.9
58958.3
59595.5
61908.7
143348
142977
142394
141471
140283
139483
139672
193273
192717
191993
190892
189306
187169
184378
208605
207262
205808
204146
201974
198980
195246
191334
190096
189109
188453
188057
187619
186529
143146
142836
142421
141940
141583
141625
142500
59912.5
60181.5
60310.1
60059
59771.5
60195
62893.8
60654
60372.6
59995.2
59776.4
59751.8
60009.5
60837.4
143293
142820
142194
141293
140204
139200
138549
192819
192100
191242
190149
188630
186565
184021
209251
208003
206530
204657
202210
198758
194444
192129
190941
189619
188257
186937
185702
184437
143519
143295
142804
141909
140541
139109
138421
59813.3
60130.3
60226.2
59805.1
59011.3
58525.8
58890.8
60973.2
60784.8
60432.4
60211.5
60205.7
60458.9
60902
143216
142675
142014
141146
140181
139309
138494
192524
191680
190744
189607
188034
185727
182746
209896
208781
207267
205228
202485
198328
192522
192792
191650
190191
188428
186310
183891
181357
143638
143543
143083
142001
140196
137907
135784
59737.8
60056.9
60089
59541.7
58645.5
58033.2
57659.8
61191.7
61086
60781.7
60494.8
60472.5
60727.4
61089.1
143164
142616
141917
141056
140185
139403
138518
192416
191484
190477
189327
187742
185180
180691
210426
209419
207849
205724
202754
198103
189683
193175
192095
190633
188679
186131
182903
178383
143710
143728
143273
142129
140160
137505
134970
59735
60047.7
60039.8
59426.2
58502
57803.2
57501.1
83833.2
77036.6
72451.8
69875.4
68753.8
68563.1
69143.2
160954
157815
155465
153801
152710
152204
152230
193767
194767
195677
196432
197203
197907
198258
203742
205934
207953
209580
210778
211647
212180
195019
196131
197013
197543
197771
197840
197826
163521
159824
156969
154833
153395
152591
152187
85975.6
78356.8
72861.6
69551.6
67878.2
67468.9
67843.1
80515.2
75234.2
71611.2
68852.1
67284.8
67124.4
68244.3
159476
157092
155065
152954
151604
151182
151392
193562
194544
195399
196073
196824
197679
198386
203696
205808
207692
209308
210580
211495
212212
194790
195981
197038
197553
197636
197567
197500
161426
158473
156036
154010
152446
151220
150460
82010.6
75838.4
71714.3
68721.6
66686.4
65932.9
66462.1
77383.7
74402.1
71432.4
68380.1
66626.2
66714.6
67515.4
157689
156597
154883
152609
150967
150716
151327
193452
194338
195129
195804
196608
197620
198468
203566
205695
207547
209126
210417
211465
212347
194634
195808
197148
197814
197676
197573
197560
159699
157571
155568
154028
152512
151086
150479
77956.8
74267.2
71537.3
68673.1
66119.6
65193.5
65881.5
76026.9
74248.8
71841.7
69252.8
67475.1
67037.4
67235
156957
156236
154559
152696
151295
150957
151343
193520
194270
194874
195594
196486
197462
198200
203257
205528
207450
209062
210369
211494
212495
194607
195507
196604
197295
197481
197525
197595
159315
157468
155686
154361
152987
151696
150881
76164.7
74060
71853.9
69387.5
67193.7
66042
66061
75553.4
73888.2
72067.1
70502.3
69161.6
68347.8
67842.1
156009
155356
154154
153101
152148
151760
151660
192840
193711
194508
195452
196480
197431
198124
202408
205063
207291
209048
210460
211683
212706
193900
195003
195988
196684
197106
197386
197608
158861
157327
155710
154537
153429
152346
151471
75726
74132
72019.6
70082.8
68607
67746.7
67402.6
74879.6
73246
72049.2
71527.7
70757.8
69743.4
68567.8
154171
153683
153550
153715
153164
152722
152489
190792
192509
193998
195344
196538
197492
198083
200581
204256
207120
209112
210663
211949
212959
192371
194194
195494
196290
196959
197477
197794
157862
156700
155467
154472
153694
152969
152178
75384.7
73984.6
72029.3
70571.7
69728.6
69241.9
68550.6
74121.5
72764.9
72102.6
72057.5
71673.1
70650.1
69191.1
152271
152646
153397
154006
154014
153755
153389
188172
191637
193802
195410
196659
197688
198354
198065
203747
207082
209286
210921
212221
213220
190609
193713
195337
196289
197035
197602
197970
156688
156173
155303
154435
153817
153347
152687
74792.4
73735
72031.5
70873
70343
69973.9
69183.4
98720.4
100634
100345
99116.4
96993.3
94063.1
90030.5
174552
175677
175401
173357
170456
167347
164325
193644
193166
192663
192273
192213
192459
192986
201214
200716
199870
199096
199146
200254
201804
194168
193790
193299
193072
193250
193574
194133
175008
175480
175074
173927
172237
169894
167086
101308
102920
102465
101747
99717.8
96665.2
92526.6
96150.6
97393.8
97883.4
97002.5
94916
91777
86899.1
172890
172701
172296
170283
167625
164955
162311
192717
191915
191380
191215
191453
191998
192719
201390
200423
199240
198423
198691
200016
201686
193409
192780
192359
192363
192717
193243
193888
172925
172589
172816
171944
169957
167532
164703
97956.3
99210.3
99935.1
99295.6
97006.1
93639.2
88807.6
95106.6
95165.9
94754.9
93614.4
91436.5
88153.1
82677.8
172626
170996
168856
166365
163955
161740
159647
191481
190661
190058
190061
190597
191509
192494
201176
199947
198570
197981
198370
199608
201422
192326
191676
191265
191386
192013
192928
193819
172262
171126
170374
169232
167117
164748
162266
96262
96394.3
96479.2
95450.2
92909.4
89291.2
83994.2
93769.1
92747.9
91292.6
89530.1
87250.1
83908.9
79445.4
170887
167944
164847
162477
160615
158960
157617
189828
189139
188661
188948
189913
191188
192393
200399
199258
197850
197092
197318
198579
200798
190925
190413
190071
190342
191269
192597
193747
170846
169005
167432
166361
164347
162417
160832
94838.9
93901.6
92841.1
91143.8
88425.9
84740.3
80158.7
90603.2
89463.6
87738.5
85741.2
83494.8
80733.1
77787.8
166648
163606
160546
158720
157508
156458
155927
187244
186861
186853
187582
188941
190414
191713
199322
198163
196571
195360
195199
197048
199727
188817
188533
188447
188954
190022
191334
192568
167290
165287
163814
162990
161607
160609
159726
92046.6
91018.3
89679.2
87803.4
85096.7
81758.2
78175.1
85912.6
85507
84119.2
82670.2
80632.1
78750.7
76747.3
160953
158361
155931
155229
154297
153809
153689
184059
183710
184041
185113
186674
187961
189249
197346
196045
194063
192715
192766
194183
196753
185835
185596
185723
186373
187380
188571
190368
162180
160706
159811
159566
158655
158623
157993
87897.6
87690.3
86808.4
85505.5
83158.9
80596.5
77226.3
80036.7
80446.5
79653
79130.2
77265.5
76211.6
74471.5
154529
152825
150805
150983
150053
150172
149761
180637
180261
180737
181976
182708
182416
182987
194815
193145
190683
188926
188099
187961
190025
182369
181910
182170
182974
183610
183803
185042
156179
155526
154711
155244
154525
155456
154398
82300.2
83112.5
82735.2
82402.3
80341.6
78992.9
75530.9
60429.9
59827.9
60058.9
59913.2
59785.5
59704.4
60133.4
134351
133366
132537
132072
131726
131338
130306
168347
167765
166866
165652
163168
159533
155807
180299
178793
176393
173488
169864
165616
160745
169477
169060
168395
167459
165707
162805
158756
136756
136529
136306
136266
136212
136065
135254
61513
61318.4
61533.8
61428.7
61541.3
61170.6
61251.7
52145.1
52127.3
51901.9
51677.3
52055.5
52193.8
52396.8
120437
120042
119902
120192
120841
120821
120696
152602
152343
152231
152335
152394
152291
152043
162246
161852
161317
160854
160464
160158
159698
151095
151022
151075
151203
151293
151279
150922
117667
117820
118143
118188
118307
118353
118755
50613.1
50582.7
50556.5
50588.2
50862.7
51196.7
51679.9
46345.3
46491.2
46669.7
46786.9
46833.5
46848.5
46827.8
108088
108397
108843
109306
109670
109896
110237
140138
140182
140483
141181
142113
142838
143199
149130
149168
149354
149719
150242
150841
151032
136789
136959
137350
137834
138290
138631
138679
102895
103086
103292
103469
103649
103929
104145
43578.1
43679
43763.6
43817.3
43898.8
43996.3
44080.7
42026.3
41955
42014
42072
42074.6
42094.2
42105.5
97645.1
97717.3
97893
98127.9
98347.4
98555.3
98577.2
129451
129442
129541
129764
130087
130303
130384
138867
138837
138851
138932
139049
139158
139136
126855
126892
126974
127082
127174
127211
127154
94170.1
94162.5
94237.7
94309
94420.6
94452.8
94496.2
40386.1
40351.8
40352.2
40390.7
40399.6
40417.7
40440.9
39650.7
39702.2
39702.9
39722.9
39786.9
39838.8
39877.5
91377.6
91402.2
91373.3
91361.6
91372.4
91379.6
91362.7
120917
120840
120769
120748
120701
120629
120549
130335
130200
130037
129901
129793
129696
129560
120085
120016
119913
119820
119722
119626
119524
90498.3
90510.2
90489.9
90456.5
90422.1
90392.9
90368.2
39768
39775.5
39781.9
39790.3
39799.2
39812.9
39820
39662.2
39669.8
39678
39683.2
39684.3
39690.4
39694.1
88735.1
88738.4
88744
88758.7
88770.6
88764.6
88763.8
114636
114532
114464
114428
114389
114326
114236
122972
122796
122619
122476
122400
122435
122271
115089
115019
115019
115037
115007
115010
114958
89689.6
89691
89700.5
89713.6
89734.4
89756.3
89779.7
40483.9
40486.3
40491.9
40498
40505.9
40515.9
40524.3
48220.3
48211.2
48195.6
48171.4
48146.4
48137.3
48125.6
86166.4
86179.1
86197.3
86212
86218.9
86223.5
86222.3
107685
107727
107719
107743
107747
107755
107685
115255
115129
115069
115024
114990
115190
115000
109252
109235
109346
109443
109439
109506
109441
88209.2
88226.3
88256
88285
88305.6
88319
88323.2
48630.8
48629.5
48624.4
48618.4
48611.7
48600.4
48578.8
83781.6
88971.5
92379.2
94988.8
97024
100107
103087
150498
154567
158318
162068
166947
173404
177371
182018
180729
180262
181184
183256
185825
187192
190546
187981
187599
189089
191451
193786
195176
186690
185932
185748
186463
187837
189121
190007
160033
164222
168685
172881
175839
176953
176709
88564.3
94155.2
99280.1
103555
106482
107208
104711
80036.5
86233.7
90423.3
93461.2
94812.2
96173.9
98008.6
148090
152178
156154
159697
163243
167624
171523
181794
180217
179494
180184
181880
183945
185370
190803
187635
186957
188555
191145
193697
195181
186201
185099
184569
184910
185989
187183
188256
156274
159951
163761
167578
170457
171706
172654
84678.7
90265.5
95165.1
99190.5
101003
100500
99922
73857.1
81214.5
86038.9
89288.2
91005.3
91587.7
91926.6
144681
148326
152300
155826
158800
161493
164087
181618
179816
178823
179114
180328
181839
183080
191111
187401
186261
187755
190500
193464
195476
185627
184074
182939
182716
183432
184719
185809
150594
153572
156541
159808
163142
166163
168428
77535
83195.9
87833.7
91414.8
93235.6
94297.6
94928.3
68215.3
75103.8
80103.5
83747.2
86090.5
86898.8
87156.7
141414
144012
147307
150857
153873
156134
157861
181548
179653
178190
177710
178329
179421
180349
191192
187128
185337
186594
189560
193098
195418
184789
182998
181321
180297
180477
181575
182542
144585
146929
149080
151324
154135
158136
161432
68752.8
74391.5
78339.6
81541.5
84003
86768.5
88333
65035.8
70069.2
74475.3
78526
81465.8
83067.2
83621.2
139008
140400
142762
146212
149391
151657
152939
181527
179380
177333
175881
175812
176594
177290
190004
185836
183341
184420
187814
192065
194993
182870
181153
179430
177752
177096
177666
178508
139458
141600
143029
144269
145836
149080
152235
62589.5
67429.4
71441
74841.8
77298
79868.5
81825
63248.4
65850.1
68437.2
71913
75636.3
78899.2
80798.5
138073
138499
139757
142215
145193
147325
149196
180038
177825
175723
173595
172931
173284
173811
186592
182591
180718
181317
184633
189463
192764
179292
177798
176239
174266
172983
173071
173999
135602
138049
138707
139176
139596
141513
143456
60445.5
64383.6
68050.5
71304.6
73863.5
76074.5
77108.1
62189.9
63006.3
63161
65533.7
68974
74154.4
77802.6
137476
137948
138350
139013
140743
142690
145483
174060
172780
172678
170975
169557
169290
169817
178041
174679
174815
176557
180184
185507
189533
172306
171579
171569
170512
168814
168427
169323
133566
135441
134747
134981
134918
135829
136414
59533.9
63001.5
66135.2
68794.5
70856.5
72231.5
72512
60075.5
59209.1
59183.7
59875.8
58699.7
57690.3
57155.4
125434
125645
125778
125485
125144
124870
124874
140974
145054
149048
151793
153259
154154
154878
138661
145428
151477
156581
160856
164668
167351
138648
143061
147486
150746
152263
153090
153515
119188
119414
119624
119962
120398
120939
121288
55971.8
55953.1
56219.2
56293.1
57381.1
58098.5
58544.2
46885.1
46708.5
46296.4
45727.1
45071.7
44962.5
44647
105173
105049
104845
104533
104184
103784
103392
132086
132303
132549
132824
133010
133157
133330
138061
138870
139298
139907
140681
141511
142123
130158
130447
130725
131071
131258
131429
131570
102692
102526
102499
102505
102469
102293
102209
44903.6
44505.3
44049.1
43567.4
43317.9
42792.3
42593.1
38718.6
38683.2
38605.8
38556.3
38541
38569.9
38662
90860.6
90812
90707.6
90570.7
90405.6
90228
90117.4
121499
121375
120870
120216
119623
119270
119165
130809
130664
129875
129167
128623
128349
128351
121545
121353
120746
119964
119173
118763
118623
91043.5
90999.8
90869
90613.2
90289.2
89972.1
89731
39059.7
39048.6
39053.9
39030.3
38932.9
38886.5
38884.2
37170.9
37158.8
37153.3
37165.6
37190.7
37228.1
37228.4
85669.9
85595.5
85503.6
85383.6
85282
85220.5
85181.8
114278
114274
114095
113887
113721
113589
113617
123433
123467
123269
123090
122973
122977
123091
114397
114422
114197
113996
113793
113657
113716
86205.7
86123.7
86040.4
85939.9
85870.9
85788.9
85774.5
37525
37494.3
37426.3
37375.2
37401.8
37449.1
37460.4
37042.8
37038.5
37038.3
37067
37045.2
37044.9
37048.5
84941
84914.8
84889.5
84888.4
84899.1
84927.5
84946.7
112061
112108
112135
112216
112290
112380
112555
120353
120557
120645
120801
121030
121315
121603
112651
112821
112804
112840
112926
113060
113255
85739.3
85751.1
85759.2
85762.3
85781.3
85808.1
85825.6
37332.4
37328.2
37330.6
37354.1
37323.1
37315.5
37317.4
38892.4
38917.8
38960.4
39015.6
38948.1
38893.3
38868
86805.9
86805
86801.9
86797.1
86789.3
86784.1
86781.2
111200
111237
111288
111370
111374
111373
111446
118253
118525
118492
118594
118793
119056
119373
111791
111903
111889
111948
111964
112011
112107
87270.2
87276.8
87280.5
87279.7
87284.5
87302.7
87316.4
38976.4
38992.4
39035.4
39101.4
39044.7
39008
38992.7
49246.7
49239.7
49233
49217.5
49240.3
49253.3
49254.9
86699
86694.1
86685.4
86661.6
86633
86601.1
86582.6
107246
107284
107301
107318
107235
107142
107151
113703
114011
113871
113958
114052
114152
114391
107798
107865
107812
107808
107672
107586
107582
87133.2
87132.1
87129.9
87113.8
87045.5
86981.7
86945.9
49266.4
49267.8
49266.6
49252.8
49271.4
49269.9
49264.2
)
;

boundaryField
{
    fuel
    {
        type            zeroGradient;
    }
    primary_air
    {
        type            zeroGradient;
    }
    Secondary_air_RHS
    {
        type            zeroGradient;
    }
    Secondary_air_LHS
    {
        type            zeroGradient;
    }
    outlet
    {
        type            totalPressure;
        rho             rho;
        psi             none;
        gamma           1;
        p0              uniform 100000;
        value           nonuniform List<scalar> 
98
(
43799.2
75353.6
100000
100000
100000
75779.7
43836.5
43741.5
75344.7
100000
100000
100000
75748
43817.5
43772.3
75450.5
100000
100000
100000
75781.9
43869.7
43669.1
75272.2
100000
100000
100000
75618.8
43763.9
43791.3
75365.1
100000
100000
100000
75650.2
43881.1
43780.1
75180.3
100000
100000
100000
75497
43850.8
43802.4
75072.2
100000
100000
100000
75392.9
43878.1
43654.8
75147.9
100000
100000
100000
76829.2
44393.9
43624.7
75206.4
100000
100000
100000
76906
44367.4
43619.4
75272
100000
100000
100000
77036.4
44362.7
43601.9
75323
100000
100000
100000
77119.4
44363.5
43584.1
75271.5
100000
100000
100000
77146.8
44364.4
43578.1
75290
100000
100000
100000
77106.1
44361.4
43599.8
75316.1
100000
100000
100000
77033.9
44382.4
)
;
    }
    stove_body
    {
        type            zeroGradient;
    }
    frontAndBack
    {
        type            empty;
    }
}


// ************************************************************************* //
