/*--------------------------------*- C++ -*----------------------------------*\
  =========                 |
  \\      /  F ield         | OpenFOAM: The Open Source CFD Toolbox
   \\    /   O peration     | Website:  https://openfoam.org
    \\  /    A nd           | Version:  6
     \\/     M anipulation  |
\*---------------------------------------------------------------------------*/
FoamFile
{
    version     2.0;
    format      ascii;
    class       surfaceScalarField;
    location    "0.01";
    object      phi;
}
// * * * * * * * * * * * * * * * * * * * * * * * * * * * * * * * * * * * * * //

dimensions      [1 0 -1 0 0 0 0];

internalField   nonuniform List<scalar> 
10143
(
8.74082e-08
-4.55709e-05
5.1581e-05
-1.96106e-07
-4.50148e-05
5.21108e-05
-1.01979e-07
-4.54229e-05
5.19658e-05
1.19739e-07
-4.5092e-05
5.16166e-05
-8.66492e-08
-4.47869e-05
5.18253e-05
-4.65458e-08
-4.50652e-05
5.18459e-05
-4.55406e-05
5.1344e-05
1.11655e-07
2.96402e-06
-1.74527e-05
-7.19396e-08
3.55775e-06
-1.68441e-05
-8.47831e-07
3.22875e-06
-1.63645e-05
-3.78179e-07
3.41911e-06
-1.75366e-05
1.26723e-07
3.71653e-06
-1.74491e-05
-2.76268e-07
3.51212e-06
-1.66297e-05
3.06583e-06
-1.77657e-05
2.95143e-08
1.04839e-05
3.44314e-06
8.62881e-07
1.05779e-05
2.79063e-06
4.54092e-07
1.00946e-05
4.16124e-06
-1.66075e-07
1.00943e-05
4.50876e-06
2.7865e-07
1.02205e-05
3.59334e-06
-3.86443e-07
9.97597e-06
4.81569e-06
1.05631e-05
3.15758e-06
3.30274e-08
-1.04358e-05
5.23467e-06
3.3712e-07
-1.04238e-05
4.94436e-06
7.70347e-08
-1.01651e-05
4.82048e-06
-3.972e-07
-1.0123e-05
5.01908e-06
-7.56118e-07
-1.03149e-05
5.21962e-06
-4.94358e-07
-1.00917e-05
4.15119e-06
-1.0588e-05
5.00506e-06
4.96389e-08
-2.87944e-06
3.49707e-06
3.38283e-07
-3.23592e-06
3.38972e-06
1.98336e-08
-3.2284e-06
4.08433e-06
-1.38193e-07
-3.59077e-06
4.30472e-06
2.42097e-07
-3.43343e-06
3.37501e-06
-3.23224e-07
-3.33195e-06
4.4572e-06
-2.89934e-06
2.93339e-06
3.95797e-08
4.57585e-05
-1.76309e-05
2.65145e-07
4.52945e-05
-1.73333e-05
-3.79854e-07
4.56121e-05
-1.67628e-05
-2.55627e-07
4.5115e-05
-1.73341e-05
4.87683e-07
4.49736e-05
-1.75971e-05
-2.08975e-07
4.52595e-05
-1.64219e-05
4.56511e-05
-1.76425e-05
9.44068e-08
5.15958e-05
-1.40219e-07
5.21993e-05
-2.68704e-08
5.20747e-05
-2.26221e-09
5.18501e-05
-1.07869e-07
5.1783e-05
-3.19267e-08
5.18739e-05
5.146e-05
2.29306e-07
-1.66655e-05
7.8168e-05
-1.64862e-07
-1.69788e-05
7.97646e-05
-1.58381e-07
-1.70277e-05
8.00056e-05
2.19798e-07
-1.7387e-05
7.94875e-05
-2.46648e-07
-1.63694e-05
7.89849e-05
-1.99232e-07
-1.68983e-05
7.90218e-05
-1.72466e-05
7.83276e-05
-1.79258e-07
1.9734e-05
-2.83454e-05
-5.67591e-07
1.89427e-05
-2.76201e-05
-8.72005e-07
1.88518e-05
-2.70551e-05
2.05562e-07
1.78587e-05
-2.91891e-05
5.06224e-07
1.9949e-05
-2.92795e-05
3.44596e-07
1.91562e-05
-2.78353e-05
1.95136e-05
-2.90961e-05
2.21264e-07
1.69351e-05
2.63167e-07
7.28566e-07
1.73181e-05
-1.48866e-06
6.50071e-07
1.6808e-05
1.04261e-06
3.18869e-07
1.60819e-05
1.48004e-06
7.46069e-07
1.66316e-05
9.80592e-07
-1.05973e-07
1.67636e-05
2.84226e-06
1.70826e-05
-2.51498e-07
8.73859e-08
-1.70632e-05
4.70567e-06
6.75257e-07
-1.72355e-05
4.24296e-06
6.11748e-08
-1.66938e-05
4.43852e-06
-7.63113e-07
-1.66052e-05
4.06728e-06
-1.28406e-06
-1.6702e-05
4.55132e-06
-6.84903e-07
-1.68923e-05
2.77227e-06
-1.71911e-05
4.24342e-06
4.52641e-08
-1.9417e-05
2.18699e-07
-5.59893e-08
-1.93064e-05
-1.34538e-07
4.85146e-08
-1.83734e-05
5.42375e-07
2.63629e-07
-1.88505e-05
1.16761e-06
6.73697e-07
-1.95065e-05
3.63603e-07
-4.97754e-08
-1.91987e-05
2.2683e-06
-1.94151e-05
-6.38826e-07
-3.55425e-07
1.75695e-05
-2.91954e-05
-8.30134e-08
1.66536e-05
-2.84747e-05
-3.29767e-07
1.78638e-05
-2.80497e-05
1.77628e-07
1.72329e-05
-2.92744e-05
8.92696e-07
1.69104e-05
-2.98911e-05
3.6799e-07
1.7287e-05
-2.7778e-05
1.75927e-05
-2.9166e-05
2.67592e-07
7.87096e-05
-1.17701e-07
7.95822e-05
1.1221e-07
8.03063e-05
-1.45841e-07
7.9359e-05
-2.83097e-07
7.90252e-05
-1.59346e-07
7.9277e-05
7.86295e-05
1.9636e-07
4.75588e-06
8.23964e-05
-4.3072e-07
4.59415e-06
8.44426e-05
-3.20614e-07
4.57713e-06
8.38234e-05
6.52521e-07
3.45256e-06
8.34249e-05
6.79987e-08
4.4594e-06
8.35323e-05
-1.21476e-07
4.00147e-06
8.37318e-05
4.4939e-06
8.29263e-05
-1.17889e-07
2.16952e-05
-2.09607e-05
-4.61012e-07
2.19955e-05
-2.069e-05
-8.25143e-07
2.18983e-05
-2.01625e-05
1.68928e-07
1.86047e-05
-2.07865e-05
2.26273e-07
2.02103e-05
-2.10391e-05
3.45099e-07
2.04017e-05
-2.02333e-05
2.14869e-05
-2.15026e-05
1.27321e-07
1.77019e-05
-9.73684e-07
5.55906e-07
1.84013e-05
-3.4018e-06
1.00038e-06
1.73885e-05
1.17261e-07
4.10496e-07
1.69261e-05
-1.11271e-06
6.15622e-07
1.73428e-05
-1.39741e-06
-2.78281e-08
1.91352e-05
-2.75549e-07
1.83723e-05
-2.27849e-06
-6.71104e-09
-1.80449e-05
6.24495e-06
7.56702e-07
-1.88597e-05
6.15454e-06
-8.91735e-08
-1.75124e-05
5.73477e-06
-6.77927e-07
-1.73036e-05
4.55194e-06
-1.38559e-06
-1.7499e-05
5.67725e-06
-5.28458e-07
-1.90983e-05
5.62853e-06
-1.84029e-05
6.32177e-06
9.40056e-08
-2.12718e-05
-1.60937e-06
-3.05019e-07
-2.01997e-05
-3.34656e-06
3.02836e-07
-2.15757e-05
-9.21997e-07
3.11849e-07
-1.93497e-05
-1.63337e-06
5.60253e-07
-2.00088e-05
-2.30758e-06
4.35073e-08
-2.06758e-05
-6.31834e-07
-2.15201e-05
-2.56068e-06
-5.03842e-07
-4.0491e-06
-2.18119e-05
3.65988e-08
-3.6366e-06
-2.1317e-05
-4.35013e-07
-4.24643e-06
-2.09284e-05
4.11812e-07
-3.87503e-06
-2.11865e-05
4.73429e-07
-4.06828e-06
-2.18339e-05
2.89344e-07
-3.79981e-06
-2.05221e-05
-4.14132e-06
-2.20844e-05
2.82598e-07
8.39105e-05
-3.25572e-07
8.52765e-05
-3.40243e-08
8.46245e-05
-8.61246e-08
8.44725e-05
-2.33865e-07
8.38448e-05
-1.90742e-07
8.41267e-05
8.38276e-05
-2.22402e-07
1.05475e-05
7.16391e-05
-2.15128e-07
1.0062e-05
7.29907e-05
-3.10432e-07
9.55843e-06
7.19897e-05
4.6179e-07
8.09274e-06
7.20199e-05
3.76446e-07
9.97481e-06
7.19721e-05
2.85785e-07
9.47604e-06
7.29946e-05
1.04553e-05
7.22936e-05
3.1628e-07
2.44724e-05
-1.22599e-05
-5.69802e-08
2.53322e-05
-1.31041e-05
-4.11116e-07
2.44747e-05
-1.2348e-05
-6.29618e-07
2.2824e-05
-1.26299e-05
-3.85707e-08
2.22559e-05
-1.08418e-05
-2.87539e-08
2.34765e-05
-1.13125e-05
2.44481e-05
-1.2523e-05
1.42206e-07
1.76972e-05
7.06945e-07
3.54582e-07
1.75018e-05
-6.50754e-07
1.1075e-06
1.57536e-05
3.38116e-06
4.3073e-07
1.76652e-05
1.15091e-07
4.57876e-07
1.59675e-05
7.72489e-08
1.93074e-08
1.89665e-05
-1.69143e-07
1.79005e-05
-6.69256e-07
4.94363e-08
-1.77681e-05
7.65009e-06
8.34351e-07
-1.82035e-05
6.69003e-06
-2.59149e-07
-1.58833e-05
4.34706e-06
-6.11059e-07
-1.57647e-05
4.23344e-06
-1.43331e-06
-1.64617e-05
4.82762e-06
-5.07229e-07
-1.88311e-05
8.10073e-06
-1.79384e-05
7.66329e-06
1.23486e-07
-2.41073e-05
-2.09864e-07
-4.09009e-07
-2.33644e-05
-2.35191e-06
3.70114e-07
-2.4575e-05
2.33128e-06
3.51002e-07
-2.23378e-05
3.39614e-07
4.67178e-07
-2.24153e-05
-1.17079e-06
1.63443e-07
-2.35427e-05
-4.1412e-07
-2.43967e-05
-8.39327e-07
-1.28098e-07
-1.01047e-05
-1.28353e-05
3.55115e-07
-9.20761e-06
-1.2911e-05
-6.44096e-07
-9.46291e-06
-1.26847e-05
3.57406e-07
-9.82816e-06
-1.17465e-05
7.16238e-08
-9.77268e-06
-1.12123e-05
-1.15745e-08
-9.474e-06
-1.16776e-05
-1.02201e-05
-1.33625e-05
-9.39575e-09
7.38613e-05
-2.33415e-07
7.51474e-05
-3.34615e-07
7.34369e-05
-1.608e-07
7.32752e-05
-6.4919e-08
7.25386e-05
-1.30893e-08
7.34025e-05
7.36321e-05
-5.42157e-07
1.20317e-05
5.10288e-05
3.72646e-08
1.09008e-05
5.17108e-05
-2.91539e-07
1.00093e-05
5.23212e-05
3.58904e-07
9.53505e-06
5.18602e-05
6.89793e-07
1.09965e-05
5.06365e-05
4.84114e-07
1.09109e-05
5.25713e-05
1.20653e-05
5.15938e-05
5.3091e-07
2.52055e-05
-3.99254e-06
-1.90026e-08
2.50322e-05
-4.84342e-06
5.66737e-09
2.45e-05
-4.93312e-06
-8.93072e-07
2.48622e-05
-5.27407e-06
-5.18119e-07
2.50337e-05
-3.43186e-06
-3.5253e-07
2.52759e-05
-3.93682e-06
2.56763e-05
-4.53119e-06
3.98332e-07
1.71959e-05
3.80941e-06
3.58091e-07
1.75888e-05
2.49541e-06
8.9976e-07
1.72567e-05
5.8489e-06
4.78985e-07
1.80905e-05
3.07221e-06
2.02773e-07
1.74561e-05
3.56275e-06
1.45191e-07
1.78136e-05
3.39471e-06
1.75727e-05
3.00846e-06
-7.9555e-08
-1.76031e-05
8.81596e-06
5.28632e-07
-1.78564e-05
7.45253e-06
-2.64223e-07
-1.71997e-05
5.66712e-06
-5.11162e-07
-1.72306e-05
5.88302e-06
-9.01944e-07
-1.70858e-05
5.80832e-06
-7.35294e-07
-1.74956e-05
8.33474e-06
-1.75455e-05
8.33824e-06
1.1495e-07
-2.52928e-05
2.95406e-06
-2.20633e-07
-2.51479e-05
1.04573e-06
3.00781e-07
-2.46257e-05
5.06856e-06
2.18236e-07
-2.47564e-05
3.76653e-06
2.33224e-07
-2.47667e-05
2.20391e-06
2.50117e-07
-2.49818e-05
3.13701e-06
-2.54448e-05
2.84328e-06
2.65294e-07
-1.18799e-05
-4.76029e-06
3.0138e-07
-1.07455e-05
-5.40548e-06
-2.46709e-07
-1.01317e-05
-4.8065e-06
1.56916e-07
-1.07041e-05
-4.49985e-06
-5.19678e-07
-1.10301e-05
-2.37646e-06
-2.50352e-07
-1.09742e-05
-4.12464e-06
-1.19613e-05
-5.26438e-06
-3.72059e-08
5.31501e-05
-3.7302e-07
5.51319e-05
-3.00574e-07
5.34615e-05
-4.46663e-07
5.27369e-05
2.36771e-07
5.08325e-05
3.36632e-08
5.29187e-05
5.28858e-05
-6.79206e-07
9.23014e-06
2.90408e-05
3.93867e-07
7.08434e-06
2.96643e-05
-3.92658e-07
9.20211e-06
3.03268e-05
1.21787e-07
7.69116e-06
3.00054e-05
6.86712e-07
7.25502e-06
2.8924e-05
5.8827e-07
8.83624e-06
2.99938e-05
9.67408e-06
2.91881e-05
6.76723e-07
2.41478e-05
2.29094e-06
-4.45603e-07
2.41991e-05
1.0562e-06
2.75664e-07
2.37812e-05
1.27378e-06
-6.19111e-07
2.41995e-05
7.86903e-07
-1.07928e-06
2.4549e-05
1.61847e-06
-4.12811e-07
2.39629e-05
1.97101e-06
2.48394e-05
1.73281e-06
7.29877e-07
1.492e-05
8.46765e-06
3.06827e-07
1.64618e-05
6.98423e-06
6.91228e-07
1.6601e-05
8.9518e-06
5.43312e-07
1.62967e-05
7.47149e-06
5.74975e-08
1.72136e-05
7.67192e-06
1.83468e-07
1.59143e-05
8.02565e-06
1.61228e-05
7.94113e-06
-3.96977e-07
-1.56393e-05
6.41879e-06
2.81476e-07
-1.68294e-05
6.33403e-06
-2.07902e-07
-1.68319e-05
5.90725e-06
-5.09015e-07
-1.70424e-05
5.82569e-06
-5.07374e-07
-1.6778e-05
5.98313e-06
-8.99786e-07
-1.56587e-05
5.82838e-06
-1.60164e-05
6.18654e-06
2.81165e-07
-2.44268e-05
7.70921e-06
-1.34767e-07
-2.40864e-05
5.20423e-06
3.14959e-07
-2.40961e-05
8.29905e-06
-2.39362e-08
-2.41052e-05
7.64121e-06
1.42713e-07
-2.44607e-05
6.20224e-06
2.34432e-07
-2.38757e-05
7.93362e-06
-2.4589e-05
7.82677e-06
2.80741e-07
-9.5186e-06
1.61108e-06
4.73649e-08
-9.20795e-06
1.44714e-06
2.55602e-07
-8.85641e-06
1.30316e-06
4.99866e-07
-8.57119e-06
1.18713e-06
-1.08043e-06
-5.13451e-06
2.11823e-06
-1.70703e-07
-9.252e-06
1.92912e-06
-9.7742e-06
1.41022e-06
1.01845e-07
3.02282e-05
-5.11803e-07
3.2801e-05
-3.41926e-07
3.07273e-05
-7.254e-07
3.05562e-05
4.60178e-07
3.04397e-05
7.39912e-08
3.01297e-05
3.00028e-05
-8.53876e-07
1.07661e-05
5.11864e-07
9.51052e-06
-4.86214e-07
1.23284e-05
1.92036e-07
1.07073e-05
7.62815e-07
9.59434e-06
7.93805e-07
1.10022e-05
1.10189e-05
7.81967e-07
2.74445e-05
-6.55722e-07
2.70518e-05
7.18089e-07
2.70246e-05
-2.16159e-07
2.73412e-05
-1.25425e-06
2.74512e-05
-1.88527e-07
2.69749e-05
2.7762e-05
1.13997e-06
1.89818e-05
1.80426e-07
1.93673e-05
7.9019e-07
1.89409e-05
8.06293e-07
1.9029e-05
2.93517e-07
1.9297e-05
1.99122e-07
1.94252e-05
1.94103e-05
-5.0062e-07
-1.91053e-05
2.46225e-07
-1.93342e-05
-3.13851e-07
-1.89973e-05
-6.59858e-07
-1.92466e-05
-6.11508e-07
-1.89386e-05
-1.04263e-06
-1.94122e-05
-1.94187e-05
3.99208e-07
-2.74478e-05
-2.51913e-07
-2.78655e-05
4.83959e-07
-2.70619e-05
-2.49569e-08
-2.73695e-05
5.97486e-07
-2.72045e-05
3.07885e-07
-2.6799e-05
-2.76027e-05
-3.01127e-08
-1.09699e-05
3.68425e-08
-1.47504e-05
5.48114e-07
-1.14574e-05
8.03201e-07
-1.16128e-05
-1.40492e-06
-1.05096e-05
3.16409e-09
-1.13146e-05
-1.12182e-05
1.74528e-07
-8.32905e-07
-5.00652e-07
-7.21639e-07
4.83866e-07
1.53328e-07
-0.00376761
0.00236972
0.00120734
-0.00507432
0.002001
-0.000860299
-0.00580807
0.00218067
-0.00153583
-0.00557012
0.00299601
-0.00325361
-0.00401869
0.00354053
-0.00510973
-0.00160898
0.00409855
-0.00652368
0.00427564
-0.00585172
-0.00428234
0.00505595
0.00201236
-0.00465457
0.00505848
-0.00228785
-0.00419077
0.00529144
-0.00316716
-0.00395531
0.00541915
-0.00224294
-0.0028965
0.00529986
-0.00233894
-0.000821941
0.0050484
-0.00247078
0.00549989
-0.00135279
-0.00244718
0.00336814
0.00433501
-0.00210446
0.00297196
0.00180846
-0.000835228
0.00291707
0.00116184
0.000594378
0.0029029
0.0011343
0.00171404
0.00304071
0.00119831
0.00185235
0.00318645
0.00178473
0.00357684
0.0039323
0.000385682
-0.00376317
0.0055944
0.000801923
-0.00297903
0.00435785
0.000376675
-0.00197064
0.00409021
-0.000991568
-0.00124082
0.00423607
-0.00104454
-0.00234656
0.0042211
-0.000455909
-0.00322861
0.00464085
-0.00399191
0.00592297
-0.00359965
-0.00428696
0.00440264
-0.00344233
-0.00479645
0.00174378
-0.00110595
-0.00549008
0.00126213
0.00185593
-0.00560913
0.0015012
0.00370785
-0.00574766
0.00169124
0.00356754
-0.00527741
0.0023557
-0.00473433
0.00460804
-0.0037713
-0.00255198
0.00241408
-0.00347797
-0.0028855
-0.00188874
0.0020077
-0.00247022
-0.00816044
0.00641526
-0.00219547
-0.00752773
0.00834361
-0.00220267
-0.00517405
0.00643106
-0.00158837
-0.00142671
-0.0011302
0.0032293
-0.00280749
0.000131979
-0.00153226
-0.00427579
0.000552965
-0.00470689
0.00275274
-0.00458937
0.00414545
-0.00379954
0.00347028
-0.00106392
0.00222654
-0.00359025
0.00220233
0.00241619
-0.00512374
0.00164373
-0.00111817
-0.00548876
0.00148639
-0.00270967
-0.00517128
0.00166813
-0.005338
-0.00422845
0.00199882
-0.00817063
-0.00255749
0.0017752
-0.0100881
0.0018883
-0.0104123
-0.0034094
0.0038096
0.00425246
-0.00332027
0.00328237
-0.00354501
-0.00404971
0.00357244
-0.00416282
-0.0057185
0.00380075
-0.00243757
-0.00607176
0.00346931
-0.00311665
-0.00484536
0.00365319
-0.00503396
0.00483418
-0.00838844
-0.000899072
0.00233174
0.00700132
-0.000600109
0.0015754
0.00333838
2.6307e-05
0.00153616
0.0026534
0.000495719
0.00150942
0.00297808
0.0002627
0.00185813
0.00303893
-0.000213632
0.0019944
0.00399855
0.00247521
0.00630251
0.00171387
-0.00254579
0.0075458
0.00174202
-0.00112549
0.00578008
0.000789866
0.000382486
0.00486371
-0.000893834
0.00112786
0.00498383
-0.00150825
0.000112133
0.00525923
-0.0015211
-0.00120401
0.00655764
-0.00285183
0.00848467
-0.00211463
-0.00278046
0.00699339
-0.00239729
-0.00285216
0.00381838
-0.00127287
-0.00202231
0.00263348
0.000529822
-0.00221743
0.00312015
0.00249209
-0.00349438
0.00348185
0.0021526
-0.00344733
0.00510454
-0.00347045
0.0077338
-0.00144736
-0.00254713
0.00400636
-7.06966e-06
-0.00160121
-0.00424397
0.00247954
-0.00146227
-0.010805
0.00415309
-0.00164255
-0.00943589
0.00470883
-0.00165131
-0.00724875
0.00397735
-0.0011991
-0.0025856
-0.0010693
0.00522042
-0.00232197
-0.00023955
-0.00239197
-0.00594365
-0.00175599
-0.00698455
-0.000750539
-0.00743156
0.000709282
-0.007081
0.00153367
-0.00320898
0.00259278
-0.00215134
0.00161204
0.00281389
-0.00300036
0.000958799
-0.00139893
-0.00293896
0.000731217
-0.00365998
-0.00226695
0.000138474
-0.00623106
-0.00202731
0.00115726
-0.00965955
-0.00135272
0.000417122
-0.0113083
-0.00027758
-0.0116338
-0.00254189
0.00395771
0.00513621
-0.00365621
0.00300799
-0.00402756
-0.00584687
0.00266302
-0.00357715
-0.00752137
0.00221114
-0.00255876
-0.0061524
0.002927
-0.00551867
-0.00454135
0.00299248
-0.00831467
0.00352833
-0.0158649
0.000174038
0.00232885
0.00885057
0.00110448
0.00151168
0.00410333
0.00117319
0.00122524
0.00407758
0.000247143
0.0012164
0.00487413
-0.000670541
0.00153696
0.00529732
-0.00124987
0.00118222
0.00656211
0.00110235
0.00789333
0.00183154
-0.0020656
0.00878045
0.00184551
-0.00140625
0.00734317
0.000978404
-0.000459531
0.00614814
-0.000597164
0.000676722
0.00589785
-0.00100018
-0.00044688
0.00634389
-0.00105269
-0.00137227
0.00785966
-0.00247267
0.00978055
-0.000918814
-0.00287229
0.00914587
-0.000532752
-0.00258563
0.00483089
0.000699878
-0.00161966
0.00275071
0.0018234
-0.00116621
0.00398089
0.00245148
-0.00179101
0.00437379
0.00192334
-0.00171378
0.00626909
-0.00283297
0.0104386
-0.000422395
-0.00231496
0.00444601
0.00148195
-0.00136593
-0.00678813
0.00236234
-0.00123678
-0.0115311
0.00218113
-0.000860392
-0.00920427
0.00136793
-0.0010539
-0.00700541
0.00143409
-0.00184623
-0.00219484
-0.00168766
0.00605903
-0.00166038
-0.00100016
-0.00290995
-0.00618406
-0.00355518
-0.00773901
-0.00330239
-0.00870359
-0.00239991
-0.00917043
-0.00080574
-0.00674386
-4.85764e-05
-0.000546562
0.000668641
0.00262122
-0.00104537
0.00013339
-0.00121215
-0.00136246
-2.84544e-05
-0.00347935
-0.00111701
-0.000137356
-0.00643137
-0.00127386
0.000781159
-0.0104446
-0.00113116
0.000177776
-0.0117769
-0.000687721
-0.0122292
-0.00168174
0.00379042
0.00451665
-0.0043549
0.00249269
-0.00333879
-0.00587304
0.00163561
-0.00328264
-0.00451634
0.00158759
-0.00502421
-0.00207753
0.0019379
-0.00844537
-0.0010004
0.000924081
-0.0097008
0.000943295
-0.0181283
0.00146067
0.00251048
0.00885577
0.00213579
0.00160534
0.00439517
0.00178845
0.0012102
0.00488963
0.000568993
0.00120135
0.00651483
-0.000298836
0.000969847
0.00724978
-0.00103543
0.000134637
0.00822547
-0.000407273
0.00839806
0.00154379
-0.00163513
0.00987991
0.00171126
-0.00137583
0.00878785
0.00123937
-0.00122834
0.00784226
0.000536307
-0.000920655
0.00756977
0.000564525
-0.00161202
0.00774821
0.000459452
-0.00185564
0.00874289
-0.00198692
0.0104473
0.00107859
-0.00348739
0.0103622
0.00172426
-0.00312843
0.00629853
0.00257586
-0.0025306
0.00337827
0.0026766
-0.00134943
0.00443176
0.00176669
-0.000703927
0.0045182
0.000808078
-0.000776632
0.00644835
-0.0015407
0.0112886
0.000901833
-0.00138959
0.00211524
0.000667223
-0.0014555
-0.00743126
-0.00236836
-0.00109217
-0.00953272
-0.00309158
-0.000376646
-0.00929737
-0.00273785
-0.000145826
-0.0075567
-0.00237572
-0.00134653
-0.00135774
-0.001822
0.00460528
-0.000724352
-0.00171065
-0.00327257
-0.00524926
-0.00484831
-0.00742408
-0.00531708
-0.00876984
-0.00505764
-0.00963135
-0.00377686
-0.00931141
-0.00558772
2.06284e-05
0.000531039
0.00196847
-0.000543744
6.23755e-05
-0.000877991
-0.000943918
4.92919e-05
-0.00327874
-0.000880136
0.000322495
-0.00691903
-0.000949763
0.000124427
-0.0106682
-0.00102215
-1.91349e-05
-0.0117585
-0.00140006
-0.0119205
-0.000119503
0.0037138
0.00203712
-0.00229917
0.00200624
-0.00266567
-0.00254517
0.00197228
-0.00448415
-0.000710534
0.00141166
-0.00738605
-0.000469791
0.000687985
-0.00882245
0.000280336
-0.000752188
-0.00936375
-0.000835091
-0.0180946
0.00251831
0.00273908
0.00735295
0.0028292
0.00141745
0.0046749
0.00249057
0.00152975
0.00575396
0.001334
0.00140169
0.00774139
0.000470532
0.000988967
0.00788975
-0.000816661
0.00037409
0.00841794
-0.00114944
0.00792952
0.00182597
-0.00188788
0.011187
0.00111276
-0.000887207
0.0104292
0.000800149
-0.000979667
0.00945602
0.000463998
-0.0011304
0.00926424
0.000767179
-0.00189756
0.00913873
0.000638545
-0.00162324
0.00955171
-0.00202201
0.0105525
0.0026401
-0.00401166
0.0102491
0.00388908
-0.0029628
0.00744445
0.00298198
-0.0019624
0.00530061
0.00142654
-0.00112589
0.00599553
-0.000631063
-0.00139804
0.0061528
-0.000899072
-0.00225565
0.00753411
-0.0024122
0.0111927
0.00059942
-0.000720748
-0.00121976
-0.00295819
-0.000365032
-0.00591428
-0.00784793
0.000318178
-0.00664523
-0.00914789
0.000491133
-0.00941936
-0.00875512
0.00112576
-0.00990414
-0.00501733
7.95643e-05
-0.00660451
-0.000698166
-0.00149146
-0.00135938
-0.00119108
-0.00370569
-0.00347268
-0.00532545
-0.00564401
-0.00614386
-0.00754511
-0.0053772
-0.00933168
-0.00383283
-0.0107221
-0.0100502
0.00026182
0.000683985
0.000858177
-0.000546039
0.000613239
-0.000834975
-0.00143936
0.000564188
-0.00302739
-0.00151368
0.000172994
-0.00714539
-0.000814376
-0.00128748
-0.0102369
-0.000111465
-0.00127929
-0.0111679
-0.00111956
-0.0109225
5.56107e-05
0.00310167
-7.29496e-05
-0.00102775
0.00188755
-0.00240779
-0.00107139
0.00115709
-0.00452359
-0.00133242
0.000303039
-0.00681742
-0.00214661
-0.000539208
-0.00835183
0.000119295
-0.00113351
-0.0112755
-0.000857882
-0.0177501
0.0023642
0.00242417
0.00559003
0.00297807
0.00122476
0.00464766
0.0030223
0.000519039
0.00638273
0.00219588
0.000507057
0.00838076
0.000937875
0.000334057
0.00833669
-0.000257466
6.60725e-05
0.00832794
-0.000723317
0.00740029
0.00144438
-0.00101117
0.0116998
0.00104678
-0.000997178
0.0117119
0.000532434
-0.000838894
0.0100988
0.000280372
-0.000788118
0.00964816
0.000475948
-0.00144604
0.00956199
-7.34963e-05
-0.000851831
0.0096871
-0.00164108
0.0100016
0.00264503
-0.0027624
0.00965805
0.00386821
-0.00234007
0.0077865
0.00293508
-0.00177192
0.00716457
-6.10788e-05
-0.000117614
0.00833453
-0.00407379
-0.000163964
0.00885716
-0.00364711
-0.00247531
0.00888691
-0.00353414
0.00977884
-0.00179943
-0.000358338
-0.00131944
-0.00629455
-0.000113085
-0.00331521
-0.00955322
0.000355189
-0.00526
-0.0114253
0.000970974
-0.00830259
-0.0110593
0.00171788
-0.0115774
-0.00635881
0.00193709
-0.0147372
0.0020451
-0.0121353
-0.0014108
-0.000310798
-0.00306228
-0.00214659
-0.00490783
-0.00361171
-0.00595484
-0.00558592
-0.00498948
-0.00858137
-0.00295427
-0.0107736
-0.0109738
-0.000433803
0.000835971
0.000330082
-0.00168664
0.000786456
-0.000437805
-0.00318471
0.000550508
-0.00212028
-0.00245174
-0.00102838
-0.00696015
-0.000739087
-0.00234642
-0.00976148
0.000539879
-0.00216428
-0.0103895
-0.000928206
-0.0095463
-0.000539812
0.00239052
-0.000619096
-0.00134871
0.00180351
-0.00216384
-0.00287787
0.000937322
-0.00292201
-0.0039057
0.000112273
-0.00644714
-0.00431819
-0.00105014
-0.00866576
-0.00088839
-0.00180153
-0.0144654
-0.00139469
-0.0176308
0.0012892
0.00137966
0.00539361
0.00175087
0.000832235
0.00527296
0.00170338
0.000757131
0.00667157
0.00147646
0.000954687
0.00776298
0.000139173
0.000799727
0.00796522
-0.000420279
0.000576693
0.00648545
-0.000330746
0.00592539
-0.000233308
-0.000532888
0.0124096
-0.00162701
-0.00188643
0.0146343
2.29312e-05
-0.00271739
0.0107395
-0.000827297
-0.00206557
0.0123581
-0.000391063
-0.000737609
0.0094149
-0.000499546
-0.000165559
0.00927275
-0.00110545
0.00898513
0.00170958
-0.00171486
0.00926554
0.00212408
-0.00202994
0.00763153
7.83729e-05
-0.000917176
0.0074468
-0.00185033
0.000853575
0.00731905
-0.00523564
0.00225173
0.00908699
-0.00519984
0.00121714
0.00746357
-0.00179208
0.00550354
-0.00234028
-0.00032344
7.10912e-05
-0.00548611
0.000121546
-0.00199001
-0.00786188
0.000530767
-0.0039896
-0.00959194
0.000892156
-0.00624029
-0.0089168
0.00136978
-0.0108554
-0.00571902
0.00222969
-0.0182388
0.00263079
-0.0213781
-0.000878877
7.20738e-05
-0.00199549
-0.00108196
-0.00322859
-0.0019874
-0.00439755
-0.00360289
-0.00425782
-0.00743578
-0.00225945
-0.0106468
-0.0106553
-0.000985277
-0.000251639
0.00255625
-0.00136109
-0.00193342
0.000123057
0.00136982
-0.000583673
0.0006186
0.00080224
-0.00472057
0.00132952
0.00185532
0.00228859
-0.0106147
0.00709556
0.00132971
0.00280535
-0.0115088
0.00930844
0.000856764
0.0021847
-0.0106997
0.00903496
0.00113978
-0.00760124
0.00735492
-0.00245086
0.00103936
0.00238746
-0.000683211
-0.00428391
0.000629609
0.000882897
0.000933528
-0.00511256
0.000265411
-0.000188571
0.00198793
-0.00631228
-0.000140095
-0.00289505
0.00696106
-0.00465467
-0.000996639
-0.0065418
0.00917755
-0.0014658
-0.00270662
-0.0132861
0.0154114
-0.000876769
-0.0163992
0.0172992
0.00024988
5.51262e-05
0.00623664
-0.00517615
-0.000288131
8.38249e-05
0.00677421
-0.00538837
-0.00170588
0.000210073
0.00794478
-0.00623717
-0.00365446
0.000685016
0.00927905
-0.00805489
-0.00594176
0.00122608
0.00733838
-0.00714197
-0.005365
0.0016131
0.000459935
-0.0051725
0.00172679
-0.00613564
-0.00160396
-0.00105053
0.000403973
0.0113483
-0.0117477
-0.00193441
0.000160926
0.0111476
-0.0114151
-0.00258505
-0.000216726
0.0107926
-0.0107659
-0.00291021
-0.000520833
0.0110148
-0.0105883
-0.00295192
-0.000704535
0.0102166
-0.00947144
-0.00207097
-0.00118907
0.00930756
-0.00854329
-0.00155998
0.00850953
-0.00840335
0.000982593
-0.000261562
0.00839255
-0.00862834
0.000674369
0.000411267
0.0082129
-0.00806103
-0.0017455
0.0012855
0.00759955
-0.00661086
-0.00500404
0.00220887
0.00886676
-0.00839013
-0.00718828
0.00259211
0.00645625
-0.00775405
-0.00531094
0.000616921
0.00205716
-0.0057716
-0.00182549
-0.00148021
-0.0034886
-0.00168034
0.000753327
0.00237898
-0.00132445
-0.00282619
0.000215937
7.33888e-05
0.00162657
-0.00285563
-0.000249137
-0.000972982
0.0028312
-0.00352575
-0.000628339
-0.00204207
0.00576889
-0.00282171
-0.00169464
-0.00625236
0.0101118
-0.000872399
-0.00319793
-0.0164264
0.0186208
-0.00272512
-0.0217685
0.0221559
-0.000135917
0.00162662
-0.000896015
0.000385971
-0.000751226
0.000296317
0.000299209
-0.00132406
0.00101874
-0.000175513
-0.00240247
0.00212152
-0.000168952
-0.00818435
0.00651112
-0.000250818
-0.0132638
0.0102341
-0.0131366
0.0102415
-0.000533768
-1.29851e-07
0.00306113
-0.000639586
-7.9936e-05
0.00154721
0.00283607
0.000457957
-0.00862107
0.00353231
0.000350882
-0.0116524
0.00324178
0.000176202
-0.0113754
0.00163062
0.000823957
-0.00992715
0.00109178
-0.00712556
-0.00150807
0.000737357
0.00367828
-0.00281946
0.000381983
0.0021799
-0.00325037
5.52419e-05
0.00105331
-0.00489473
-0.000678829
0.000160508
-0.00395623
-0.00200062
-0.0049346
-0.00126696
-0.00146916
-0.0133251
-9.13516e-05
-0.0161036
-0.000135559
8.87328e-05
0.00742397
-0.000902372
0.000261667
0.00797154
-0.00272169
0.000574601
0.00949777
-0.00549109
0.00104608
0.010524
-0.00735326
0.000980768
0.0065315
-0.00389767
0.00128535
-0.00530131
0.00201953
-0.0116104
-0.00127537
0.000310758
0.0114057
-0.00229028
-9.87023e-05
0.0115103
-0.002819
-0.000728079
0.0115364
-0.0029528
-0.000965434
0.0120279
-0.0034152
-0.00129368
0.011763
-0.00295154
-0.00193844
0.0109009
-0.00215263
0.00865571
0.000524766
-7.96157e-05
0.00850252
1.95562e-05
0.000325504
0.00842132
-0.00241864
0.00104616
0.00843294
-0.00627704
0.00243749
0.00945845
-0.00855943
0.0027401
0.00490288
-0.00602962
0.00232235
-0.00437482
-0.000348519
-0.00880495
-0.000335314
0.000289284
0.00272648
-0.00082192
0.000239952
0.000987699
-0.00187149
0.00034542
0.00110038
-0.00290297
0.000983996
0.000741409
-0.00167454
0.000543677
-0.00501262
0.00116106
-0.000273093
-0.0163348
-0.00023189
-0.0204583
0.000337978
0.00141054
0.000446215
-0.000784377
0.000608357
-0.00129701
0.00193661
-0.00289791
0.00278978
-0.00858642
0.00144817
-0.0122633
-0.0120162
-0.000427965
0.000306366
0.00312143
0.00115759
9.42661e-06
-7.28297e-05
0.00384552
0.000247658
-0.0115237
0.00432121
0.000206852
-0.0123141
0.00385976
0.000279489
-0.0112708
0.00158116
0.00104704
-0.00880564
0.00101764
-0.00664314
-0.00100145
0.00117121
0.00433542
-0.00156827
0.000837599
0.00230386
-0.000990296
0.000246897
0.000840429
-0.000956958
-0.000599275
0.00130535
0.00109457
-0.000882895
-0.00548738
0.000928475
0.000990239
-0.0128077
0.00179679
-0.0155814
-0.000121971
0.000269572
0.00892764
-0.00112052
0.00043292
0.00969166
-0.00325755
0.000899793
0.0111878
-0.00569662
0.00128259
0.0113497
-0.00556142
0.000602025
0.00525834
-0.00196182
0.000567242
-0.00807173
0.00201457
-0.0134287
-0.0013339
0.000101316
0.0119635
-0.00239841
-0.000261005
0.0123349
-0.00286249
-0.00124114
0.0130947
-0.00325181
-0.00150808
0.0140865
-0.00408892
-0.00185243
0.0139349
-0.00465873
-0.00141797
0.0124085
-0.00229745
0.00735151
0.000639429
-0.000546028
0.00879474
0.000250899
-0.000105491
0.00894532
-0.00280341
0.000522464
0.0100004
-0.0067323
0.00172938
0.0104411
-0.00707045
0.0018184
0.00204039
-0.00406034
0.000459358
-0.0086572
-0.00131265
-0.0132723
-0.000763172
0.000355631
0.00305454
-0.00133189
0.000233972
0.00162362
-0.00166358
0.000291489
0.00201968
-0.00106982
0.000275383
0.00197069
0.00108407
-0.000209809
-0.00470247
0.00146864
-0.00117301
-0.0146808
-0.00193259
-0.0179848
0.000305773
0.00132119
-0.000150568
-0.000222707
0.00101408
-0.00226098
0.00399262
-0.00559394
0.00491947
-0.00972392
0.0030356
-0.0116486
-0.0110413
-0.0012018
0.000235315
0.00402821
0.00299836
0.000454611
-0.00474062
0.00478365
-0.00013248
-0.0132027
0.00556766
-0.000747703
-0.0123353
0.00273468
0.0014179
-0.00984062
0.000232773
0.000694878
-0.00701481
0.000521429
-0.006949
-0.00126388
0.00114129
0.00517321
-0.000677363
0.000241445
0.0022741
-0.000362374
-0.00076172
0.00148566
0.00120074
-0.00131257
0.000684664
0.00497326
0.000423984
-0.00785824
0.00330446
0.00338445
-0.0135039
0.00483384
-0.0162068
0.000212685
0.000129278
0.0100525
-0.00083253
0.000435994
0.0107969
-0.00278949
0.000467034
0.0120945
-0.00494794
0.000873186
0.0115874
-0.00354962
-0.000225337
0.00483372
-0.00121563
-0.000745098
-0.00595037
0.00270306
-0.0122504
-0.000969966
-0.000543729
0.0125914
-0.00137737
-0.000883887
0.0130931
-0.00173674
-0.00106606
0.0139581
-0.00188039
-0.00109072
0.0150915
-0.00298805
-0.00136522
0.0151057
-0.00585088
0.000391523
0.0131227
-0.00197503
0.00528062
-0.000312567
-0.000233446
0.00910459
-0.00131103
8.4601e-05
0.00930605
-0.00283375
0.000340477
0.0104338
-0.00447135
0.00120644
0.0100833
-0.00348327
0.00070718
-0.000566215
-0.00126272
-0.00167277
-0.00849503
-0.00329367
-0.0129466
-0.00142658
0.000608297
0.0041705
-0.0018569
0.00033265
0.00227808
-0.00061411
-3.33248e-05
0.00155741
0.00300262
-0.000191134
0.000142786
0.00511913
-0.000600849
-0.00515592
0.00308945
-0.00181176
-0.0120956
-0.00265491
-0.0150919
-7.97833e-05
0.00196211
-0.000343213
0.000349347
0.00319482
-0.00577463
0.00759023
-0.0100551
0.00835614
-0.0110287
0.00547639
-0.0105686
-0.00827625
0.00161882
-0.00121086
0.00361409
0.00605175
0.000498414
-0.00969578
0.00678679
-0.000716091
-0.01325
0.005702
-0.000662857
-0.010575
0.0008036
0.00136194
-0.00625052
-0.000560293
-0.000969228
-0.00468517
-0.00273
-0.00483984
-0.00167985
2.40165e-05
0.0059717
0.000529503
-0.000909541
0.00188524
0.00434896
-0.00229925
-0.000292434
0.0123081
-0.00136102
-0.00608143
0.0158461
0.00203219
-0.0115921
0.0121517
0.0035647
-0.0139068
0.00630979
-0.0126486
2.66626e-05
0.000252641
0.00984023
-0.000697748
0.000106178
0.0106849
-0.0017268
-3.68973e-07
0.0110249
-0.00189983
0.000464763
0.0101744
0.000212313
-0.00089968
0.00597177
0.00046105
-0.0010243
-0.00130337
0.00269154
-0.00781354
0.000209296
-0.000872158
0.0123737
0.000171303
-0.00079734
0.0129367
-0.000102426
-0.000641848
0.0137495
0.000385358
-0.000672761
0.0145869
-0.00169372
-0.000216547
0.0154448
-0.00486612
-0.000257778
0.0145349
-0.00324637
0.00546048
-0.00201751