/*--------------------------------*- C++ -*----------------------------------*\
  =========                 |
  \\      /  F ield         | OpenFOAM: The Open Source CFD Toolbox
   \\    /   O peration     | Website:  https://openfoam.org
    \\  /    A nd           | Version:  6
     \\/     M anipulation  |
\*---------------------------------------------------------------------------*/
FoamFile
{
    version     2.0;
    format      ascii;
    class       volScalarField;
    location    "0.01";
    object      T;
}
// * * * * * * * * * * * * * * * * * * * * * * * * * * * * * * * * * * * * * //

dimensions      [0 0 0 1 0 0 0];

internalField   nonuniform List<scalar> 
3773
(
287.907
286.973
287.082
286.884
286.804
286.997
288.073
289.378
288.896
289.206
288.914
288.758
289.055
289.433
308.056
309.53
309.599
309.541
309.529
309.562
308.052
313.63
313.879
313.908
313.873
313.882
313.959
313.644
308.106
309.485
309.656
309.601
309.593
309.623
308.118
289.579
288.905
289.329
288.958
288.902
289.266
289.546
288.185
287.141
287.306
287.053
287.076
287.228
288.238
266.823
264.222
263.31
262.961
263.312
264.033
267.667
272.194
276.078
276.578
276.211
275.898
276.297
272.979
313.576
311.864
311.848
312.221
311.968
311.876
313.765
325.228
325.331
325.393
325.504
325.45
325.342
325.753
313.929
312.703
312.362
312.297
312.291
312.079
314.029
272.81
274.323
276.619
275.774
276.03
276.715
272.972
268.594
264.352
265.212
264.995
264.766
265.148
268.876
237.837
235.646
233.564
232.871
234.689
235.666
238.108
261.276
265.551
268.227
267.145
264.168
265.07
261.315
314.587
312.203
312.251
314.374
312.991
311.872
314.255
326.487
325.463
325.793
326.427
326.082
325.21
326.382
314.546
312.348
312.858
313.272
313.458
312.187
314.367
261.645
264.974
267.133
263.825
265.134
265.623
261.636
239.16
236.154
234.977
235.853
235.498
236.443
239.236
221.48
220.871
220.86
221.197
220.187
220.884
221.591
258.709
263.846
266.761
268.008
261.433
263.026
258.815
314.206
312.088
313.1
313.106
314.553
311.116
313.978
326.531
325.808
326.29
326.625
326.782
325.758
326.44
314.193
311.251
313.772
315.021
314.568
311.252
314.049
259.027
263.185
265.87
262.143
262.597
263.321
259.02
221.994
221.106
221.53
219.488
220.328
221.133
222.082
216.194
216.526
217.866
218.063
216.096
216.221
216.222
258.401
263.519
265.784
267.034
263.432
263.455
258.549
314.382
312.191
312.041
312.245
312.565
310.698
314.332
326.594
325.901
326.271
326.191
326.235
325.694
326.595
314.295
311.258
312.803
313.754
313.721
311.126
314.356
258.685
263.64
264.847
264.497
263.01
263.439
258.664
216.328
216.648
217.617
215.729
216.151
216.307
216.34
215.62
216.149
216.183
217.412
216.259
215.634
215.557
261.427
266.982
267.278
267.735
266.69
266.789
261.055
315.32
312.143
312.106
311.532
311.248
311.137
314.938
326.845
326.023
325.827
326.021
325.536
326.34
326.807
315.103
312.245
311.671
311.952
311.704
312.24
315.007
261.516
266.459
266.319
267.646
267.737
265.876
261.227
215.661
215.462
216.629
215.169
216.786
215.599
215.602
212.754
210.954
211.8
213.139
212.874
212.795
212.784
262.445
264.809
262.093
263.058
263.422
263.691
262.339
312.824
313.243
311.644
312.214
311.253
312.459
311.696
331.364
332.608
332.34
332.342
332.904
331.254
332.986
312.836
317.482
312.521
311.462
318.681
312.841
311.766
262.675
253.592
262.929
262.354
256.726
263.4
262.466
212.977
211.56
212.794
212.038
211.007
212.681
212.881
320.536
319.192
319.85
324.509
327.265
328.712
326.803
318.687
319.063
320.713
320.769
318.734
315.993
313.796
307.703
316.105
318.143
318.87
316.612
313.694
305.057
311.244
321.756
325.135
329.206
323.876
320.124
310.747
324.549
329.181
329.478
332.778
331.151
329.834
323.743
330.714
328.23
326.884
331.668
331.905
331.513
329.22
330.687
330.264
331.215
329.531
328.227
327.477
327.769
320.581
320.946
324.897
330.926
334.376
335.171
335.979
316.348
316.31
321.246
319.958
313.471
311.063
314.075
303.469
311.278
316.383
319.117
315.675
310.18
301.93
310.663
320.978
328.956
338.056
328.608
320.364
310.45
320.688
324.764
327.763
332.917
329.021
326.586
321.766
328.548
316.467
324.052
330.413
329.532
326.78
327.537
330.299
329.763
329.866
326.222
323.017
320.163
325.557
320.234
322.33
324.513
331.322
334.931
335.154
335.617
310.35
317.999
318.344
312.295
308.966
312.27
323.078
295.689
304.34
314.834
317.887
313.488
302.118
296.221
310.764
320.461
334.79
342.913
334.554
321.396
311.258
309.601
313.888
321.296
331.558
325.102
320.638
314.316
320.808
308.66
324.726
329.251
321.495
316.397
322.982
322.152
328.953
326.888
323.566
320.471
318.809
324.651
316.52
322.787
323.979
331.222
335.423
335.211
335.488
296.481
321.236
314.986
314.164
319.222
323.224
331.809
290.389
302.866
314.28
317.837
313.554
300.584
296.469
313.184
320.545
334.504
343.308
337.048
325.648
316.228
300.967
301.703
316.966
324.937
321.624
309.926
305.285
306.023
315.212
330.751
326.578
309.147
302.985
312.523
318.851
329.048
326.166
323.386
321.666
321.532
316.926
306.514
324.173
325.594
333.297
335.439
335.266
335.566
295.731
322.071
319.213
323.324
326.565
324.07
331.844
290.966
303.502
314.844
318.83
314.625
300.271
297.57
313.913
322.409
334.474
342.043
336.666
327.365
318.884
296.546
300.966
315.091
323.78
316.98
300.192
298.109
307.744
327.192
331.373
322.469
308.368
302.385
303.192
327.897
329.004
326.438
325.854
325.891
326.527
326.904
307.162
325.02
331.399
335.046
335.008
335.367
336.671
314.299
325.864
327.295
330.434
327.856
325.314
333.725
300.349
309.73
316.338
319.978
317.397
304.165
303.627
316.79
326.369
337.015
343.659
336.945
331.66
324.371
297.955
302.615
316.067
323.897
315.134
299.583
296.242
322.234
334.311
331.328
325.876
321.795
318.41
315.491
329.533
329.108
327.903
328.163
329.571
329.969
330.663
318.102
330.281
333.267
334.727
334.921
336.88
337.338
325.379
330.076
331.128
331.504
330.31
333.57
338.341
307.736
318.3
318.497
323.519
319.365
310.581
314.346
323.235
329.612
338.347
342.783
339.688
339.827
330.72
300.801
310.361
321.024
325.6
313.94
300.423
299.303
328.906
334.673
331.683
330.566
329.26
334.365
336.12
329.824
330.527
330.566
331.136
333.569
336.038
334.42
327.355
331.225
332.849
336.75
338.343
340.277
341.253
331.12
333.4
333.874
334.979
336.337
339.62
343.176
321.022
323.39
324.821
327.132
322.599
322.596
328.828
334.196
339.025
342.86
345.782
342.685
339.203
335.946
314.173
317.421
325.675
328.652
319.56
317.126
318.587
331.922
334.904
333.117
333.174
332.421
338.122
341.923
329.302
331.386
333.095
333.106
335.125
337.974
339.313
325.423
330.82
335.139
337.78
339.406
341.181
341.615
330.878
335.861
335.63
335.028
336.265
342.112
346.049
323.712
326.727
328.57
328.805
326.519
332.798
341.528
339.988
343.838
348.298
348.762
343.96
338.834
336.997
318.826
323.203
329.224
329.208
321.793
322.456
323.94
330.105
336.289
335.961
334.522
332.43
338.564
342.379
328.435
331.552
335.565
334.763
336.224
338.194
338.764
324.201
329.166
336.581
340.291
342.24
343.31
343.898
328.405
335.689
336.756
336.265
337.464
343.364
348.309
324.981
330.692
332.308
329.898
329.929
339.313
348.561
344.497
348.825
350.75
348.679
342.913
339.241
338.86
321.935
326.575
332.219
329.446
326.917
335.467
341.704
325.814
336.797
337.397
335.511
335.049
341.486
343.017
326.092
332.432
337.578
337.893
339.048
339.89
339.696
320.266
325.221
337.327
341.413
344.342
345.258
347.163
320.235
335.051
337.856
336.621
340.231
344.123
348.861
324.995
332.473
334.597
331.262
331.795
343.902
350.469
346.924
350.119
351.896
349.193
343.201
340.049
341.191
322.865
329.012
333.208
330.777
333.518
344.983
347.476
326.203
337.396
338.828
336.923
339.495
344.125
344.331
324.16
334.042
339.282
341.689
341.676
341.791
340.994
315.272
331.543
339.525
344.565
345.719
348.065
349.324
319.404
334.251
338.255
338.911
340.686
343.945
349.05
325.938
333.399
335.827
332.115
333.662
343.535
350.85
347.142
350.676
353.357
351.246
344.245
341.327
343.608
327.675
334.83
335.003
333.656
342.1
348.418
348.894
328.276
340.931
343.34
341.702
343.945
345.296
345.215
324.559
335.749
341.857
343.831
343.629
343.084
341.184
312.46
334.877
344.288
348.347
347.408
348.591
350.488
325.289
337.01
340.97
341.416
342.916
346.628
351.766
329.005
333.927
335.247
331.547
331.288
339.591
351.374
347.052
350.033
352.677
351.108
345.825
341.513
345.725
331.214
340.641
341.837
345.105
349.563
350.268
349.966
328.708
341.051
344.46
345.992
346.261
346.694
347.624
320.669
340.524
342.576
346.696
346.667
344.723
342.866
334.201
337.237
349.457
351.516
348.967
349.704
350.926
339.811
342.89
345.81
346.745
348.141
349.727
353.4
342.646
346.715
349.087
346.371
342.732
343.285
348.25
345.987
349.095
352.211
351.578
349.053
343.466
345.549
342.452
347.583
348.813
349.086
350.82
352.096
351.454
342.095
344.382
349.558
350.844
350.591
350.043
348.791
337.06
338.602
347.36
352.133
348.716
342.047
342.026
327.718
331.01
333.37
335.891
336.554
338.671
339.698
327.245
330.398
331.691
333.309
333.393
336.248
339.72
314.997
319.333
320.757
325.403
319.822
314.687
315.417
326.604
331.016
337.868
342.82
338.408
339.375
330.47
303.914
312.735
323.389
327.452
313.741
302.154
300.666
326.114
330.538
331.359
331.463
330.418
335.971
341.303
329.076
331.146
331.381
331.591
333.918
337.143
338.212
327.999
331.462
333.511
336.252
336.681
338.746
339.823
327.736
331.083
332.645
333.699
334.134
336.902
340.228
315.294
319.462
321.067
325.53
320.054
314.931
315.905
326.908
331.369
338.063
342.943
338.534
339.496
330.709
304.159
312.888
323.608
327.556
313.763
303.007
300.949
326.74
331.086
331.807
331.7
330.941
336.365
341.651
329.461
331.369
331.657
331.816
333.963
337.177
338.381
328.187
331.834
333.346
336.569
337.034
338.991
339.899
327.504
331.132
332.812
333.993
334.584
337.213
340.712
315.627
319.741
321.393
325.827
320.253
315.224
316.203
327.536
331.991
338.354
343.057
338.682
339.675
331.211
304.532
313.255
323.854
327.639
313.954
303.977
301.842
327.853
330.615
331.913
331.8
331.293
336.772
341.767
329.924
331.398
331.759
331.977
334.055
337.333
338.518
328.185
331.857
333.202
336.656
337.323
339.274
340.344
329.492
331.111
332.764
334.375
334.875
337.699
341.197
315.949
320.158
321.779
325.93
320.377
315.468
316.52
327.989
332.519
338.725
343.13
338.952
339.69
331.55
305.358
313.774
323.966
327.669
314.28
305.891
304.075
329.915
330.608
331.882
331.894
331.438
336.928
341.732
330.096
331.432
332.05
332.136
334.135
337.691
339.045
328.31
331.905
333.082
336.722
337.873
339.934
340.548
329.085
331.136
332.636
334.733
335.343
337.995
341.915
316.276
320.673
322.2
326.131
320.649
315.818
316.97
328.639
333.243
339.113
343.216
339.142
339.736
332.056
306.016
314.14
324.35
327.644
314.484
307.352
306.672
330.574
331.55
331.81
332.076
331.765
337.184
341.674
330.349
331.634
332.295
332.313
334.507
338.301
339.236
328.347
331.486
332.557
336.726
338.102
340.22
340.818
328.218
331.548
332.598
334.875
335.771
338.452
342.162
316.65
320.929
322.424
326.235
320.751
316.088
317.767
329.193
333.913
339.54
343.433
339.572
339.725
332.476
306.32
314.517
324.619
327.678
314.744
309.446
307.94
330.296
332.849
332.082
332.224
332.134
337.681
341.651
330.397
331.81
332.547
332.428
334.737
338.464
339.546
328.269
331.368
332.31
336.687
338.209
340.302
341.214
328.039
332.336
333.19
335.039
336.095
338.728
342.66
316.911
321.675
323.088
326.618
321.014
316.394
318.26
329.564
334.618
339.874
343.595
339.944
339.853
333.155
307.024
315.056
324.84
327.651
315.878
311.979
309.732
328.986
333.44
332.373
332.306
332.42
337.916
341.969
329.949
331.766
332.8
332.477
334.813
338.47
339.51
332.505
352.999
333.386
330.962
327.748
326.39
322.681
339.978
347.252
353.253
357.748
352.762
352.492
350.356
356.734
356.413
357.572
357.357
354.538
350.331
348.365
346.058
348.644
351.57
351.702
348.116
343.182
345.181
357.008
357.617
356.455
355.748
353.579
352.272
350.77
345.081
354.969
360.065
356.736
352.416
350.49
344.838
331.026
350.423
331.29
327.441
320.791
319.362
317.049
360.712
336.957
333.6
332.214
330.062
329.536
330.407
352.031
359.113
353.1
352.659
350.259
349.356
347.971
358.683
358.2
356.083
354.525
352.218
351.237
348.912
346.248
348.593
351.429
351.778
348.45
343.128
344.847
360.817
357.981
353.065
352.977
352.704
352.389
351.101
353.466
355.509
352.468
350.353
348.388
347.043
345.118
354.183
337.317
333.34
331.505
326.436
325.081
326.578
347.414
340.886
341.941
340.898
339.171
338.971
341.539
361.597
354.924
352.186
350.851
350.49
350.134
349.65
359.131
355.245
353.669
353.263
351.717
350.488
349.774
346.653
348.548
351.332
351.861
349.215
343.259
344.188
354.644
352.782
352.634
352.552
351.992
351.763
351.273
357.062
352.367
351.306
350.018
349.611
348.241
347.429
351.717
338.668
338.284
336.197
335.438
336.752
341.02
346.33
345.569
344.578
345.275
346.536
347.897
352.315
359.381
354.223
352.996
351.296
351.039
350.848
352.818
356.885
354.117
353.132
352.96
352.304
351.027
350.107
347.431
348.413
351.133
351.885
350.176
343.761
343.854
353.559
352.165
352.326
352.737
352.043
349.67
349.474
353.272
351.833
351.462
350.721
350.694
350.546
350.391
343.865
339.85
339.509
341.189
342.782
346.489
348.41
347.422
346.604
348.383
348.87
351.253
352.472
353.753
357.668
355.072
354.111
353.196
352.893
353.504
354.533
354.038
352.808
352.932
353.201
352.975
351.066
350.189
347.401
348.087
350.674
351.745
350.321
345.187
343.624
352.042
351.775
352.612
353.049
352.146
349.881
347.734
353.195
352.217
351.789
352.194
352.635
352.054
350.854
343.594
341.181
343.461
345.243
348.472
349.224
350.701
348.73
349.118
350.56
350.906
351.734
351.886
352.815
356.946
355.788
355.897
355.29
354.979
354.846
355.011
353.445
353.411
353.448
353.272
352.838
350.944
349.977
347.307
347.563
349.711
350.805
349.94
346.635
344.05
351.906
351.75
352.351
352.689
352.436
350.807
349.343
353.1
352.25
353.726
355.087
355.614
354.333
352.942
346.015
343.806
347.502
348.923
351.557
350.859
350.707
354.312
353.613
351.544
349.774
348.438
349.346
351.165
357.617
356.48
355.51
354.876
354.511
354.411
354.305
354.159
354.202
353.44
352.927
352.469
351.586
350.464
346.833
347.46
349.182
349.732
349.14
347.858
345.05
352.446
352.235
352.306
352.412
352.333
351.795
349.277
355.938
354.01
353.64
354.578
355.031
354.88
353.988
353.315
350.064
347.157
348.161
349.546
348.988
348.063
326.303
326.66
325.686
321.997
320.446
322.751
335.789
346.25
346.484
346.302
345.378
343.623
342.559
344.447
348.757
352.964
361.202
361.007
360.134
359.388
358.828
345.629
347.974
354.181
355.924
357.665
357.423
356.832
348.999
349.349
349.485
353.143
358.487
358.676
359.233
342.935
342.586
342.809
342.862
343.599
347.691
350.995
320.815
321.363
320.914
320.885
321.6
331.305
343.879
332.074
331.86
331.62
328.637
328.204
329.066
334.046
345.88
345.984
346.4
346.484
346.183
346.263
347.282
348.915
349.895
353.899
359.237
359.115
358.622
358.675
345.472
346.324
348.607
351.048
353.084
353.506
353.372
349.583
349.671
349.888
350.68
354.181
357.63
357.763
344.143
343.447
343.146
343.955
344.39
345.931
348.316
330.244
329.759
328.925
327.469
329.239
339.018
345.272
346.638
344.32
340.813
335.088
334.709
335.494
335.342
348.842
348.197
348.048
347.02
346.769
347.161
347.623
348.999
348.88
349.12
352.522
357.872
357.544
357.084
345.489
345.45
345.751
346.114
347.498
348.035
348.814
350.659
350.443
350.6
350.891
351.187
354.366
356.996
347.218
346.398
346.243
345.926
345.791
345.953
346.956
343.774
343.756
342.742
341.11
340.559
342.293
341.073
354.858
353.789
352.905
351.444
349.193
349.777
343.029
353.677
353.306
352.469
351.621
350.398
350.213
350.189
349.087
348.612
348.068
348.284
349.89
354.531
356.74
345.081
345.054
345.13
345.096
345.055
345.051
345.225
349.794
349.774
349.874
350.207
350.168
350.081
352.918
349.69
349.074
348.679
347.655
346.152
345.052
344.423
351.455
352.933
353.12
352.485
350.863
346.595
337.728
353.331
352.859
352.338
352.307
352.626
353.308
351.484
354.708
354.839
355.174
355.021
354.604
354.256
353.862
348.707
348.524
347.77
347.356
346.63
347.199
349.162
343.958
343.852
343.702
343.416
342.713
342.454
341.503
347.486
347.365
347.081
346.531
346.739
347.142
347.025
349.958
349.708
348.873
347.808
346.267
344.686
342.803
352.88
353.721
353.867
353.109
351.821
350.971
337.994
353.379
353.633
353.053
352.515
352.542
353.074
353.027
355.225
355.216
355.166
355.138
355.217
355.257
355.092
348.585
348.476
348.372
348.098
347.35
346.448
345.739
343.617
343.427
342.705
342.089
340.581
339.367
337.821
347.44
347.112
346.682
346.246
345.433
344.717
344.766
351.828
351.395
350.174
348.473
347.217
345.004
343.518
352.284
352.943
353.097
352.519
350.964
349.881
345.117
351.858
351.945
352.73
352.852
352.925
353.052
353.537
354.204
354.463
354.518
354.373
354.239
353.678
353.225
348.771
348.379
347.921
347.048
346.213
345.283
342.733
344.739
343.961
343.26
341.807
340.442
338.042
333.679
348.833
348.414
347.937
346.928
345.813
344.497
339.574
354.552
354.648
354.229
353.159
352.076
349.913
348.381
349.428
350.756
350.972
350.554
349.26
348.528
346.342
342.304
336.646
331.267
330.336
328.33
328.787
328.144
350.696
346.959
343.755
342.661
341.141
339.928
339.903
358.526
358.357
357.695
357.401
357.429
357.437
357.312
359.967
360.115
360.095
360.003
359.762
359.53
354.62
361.047
360.076
359.036
358.42
357.791
356.94
356.56
355.484
351.749
349.284
347.515
345.824
345.491
345.003
348.278
339.837
333.669
331.15
329.139
329.723
330.057
344.436
342.259
343.853
346.804
346.397
348.091
347.394
350.498
349.182
349.252
349.64
349.239
348.989
349.792
357.463
357.385
357.484
357.743
357.776
358.108
358.645
358.806
359.019
359.429
359.689
359.766
359.334
353.587
359.482
358.911
358.755
359.135
359.765
359.866
360.258
353.991
352.846
351.802
351.477
352.505
352.612
353.161
346.082
343.281
342.045
343.043
343.283
343.139
344.338
349.864
361.163
364.019
365.043
366.435
363.328
358.351
356.526
358.374
360.477
361.97
362.096
362.16
362.462
358.015
358.441
359.084
359.432
359.932
360.347
360.37
358.445
358.8
359.007
358.732
358.468
356.349
350.915
358.832
359.377
360.396
358.721
357.993
357.692
357.292
356.711
359.629
359.912
359.918
360.376
360.626
359.965
349.18
355.175
360.034
359.757
360.635
359.548
360.16
361.386
364.358
361.701
358.394
356.089
352.856
349
361.97
362.426
362.022
362.146
362.847
362.933
362.467
360.394
360.195
360.24
360.25
360.245
359.979
359.358
356.592
356.574
356.154
355.215
354.737
352.472
350.212
360.434
359.089
358.655
356.481
355.834
355.042
354.702
361.591
360.72
359.656
358.481
357.107
355.746
355.082
355.695
360.352
360.428
357.942
354.214
352.768
350.731
363.875
362.2
357.49
355.605
353.101
351.357
349.133
361.559
359.925
359.437
359.23
359.328
359.994
359.262
357.279
356.553
356.289
356.255
356.322
356.024
355.819
352.43
352.058
351.883
351.65
350.829
349.664
349.105
358.333
356.138
354.76
354.123
353.787
353.166
352.702
359.604
358.957
357.651
357.079
356.449
355.458
354.991
357.725
359.074
356.098
353.223
351.254
349.682
347.991
363.74
360.505
357.13
355.79
352.666
352.241
349.776
359.708
358.611
358.306
357.939
357.173
357.417
357.364
353.549
353.193
353.388
353.851
354.046
354.12
353.75
347.235
347.147
347.705
347.888
347.997
348.011
347.985
353.934
353.674
353.548
353.209
353.296
353.006
352.589
358.533
357.665
356.451
355.93
355.065
353.978
353.517
357.732
356.892
353.619
352.035
350.332
348.887
348.144
363.618
364.325
363.675
359.321
358.612
356.275
355.348
360.084
362.448
362.67
360.028
359.123
358.483
357.97
353.371
354.689
355.04
354.873
354.723
354.694
354.376
342.921
344.712
345.717
346.086
346.346
346.449
346.639
351.97
355.286
356.22
356.601
356.495
355.623
354.174
357.952
359.105
358.424
358.245
358.087
357.787
357.42
356.512
357.898
356.983
356.896
356.815
356.589
355.198
362.624
360.357
361.091
358.36
356.847
351.455
348.809
363.363
359.646
359.882
358.033
356.098
354.271
352.671
363.109
361.25
361.144
360.342
360.002
358.9
358.732
358.773
358.843
358.85
358.685
358.723
359.366
359.659
362.486
361.775
362.214
362.347
362.313
361.9
361.51
363.618
361.971
363.231
362.365
361.374
359.374
357.859
363.014
360.402
363.732
362.275
360.392
358.308
353.295
363.227
357.574
357.553
354.923
353.686
349.221
346.208
362.489
355.21
353.966
353.328
353.328
352.646
352.201
362.323
359.976
358.596
357.717
357.477
357.182
357.245
359.383
358.841
358.227
357.839
357.736
358.035
358.407
362.563
361.011
361.232
361.384
361.252
360.711
360.51
364.269
359.162
360.629
360.058
358.657
356.811
356.033
364.219
357.284
362.514
358.834
357.95
354.262
348.886
355.118
353.994
353.985
350.676
350.1
345.957
345.374
352.274
350.19
351.35
352.584
354.619
355.183
356.352
360.286
358.958
357.907
357.381
357.35
357.417
357.882
359.272
358.845
358.149
357.789
357.685
357.928
358.21
360.951
360.282
360.709
360.533
360.019
359.457
359.332
355.641
356.604
358.385
356.008
355.226
355.381
356.001
355.987
354.525
357.565
355.136
353.396
349.171
347.697
354.517
350.924
350.919
347.621
347.246
342.837
345.221
348.29
347.807
351.066
355.364
358.095
360.043
359.876
356.814
356.377
356.204
356.57
357.458
358.373
359.946
358.85
358.674
357.734
357.122
356.762
356.548
356.529
357.311
358.21
359.355
358.559
357.88
358.731
360.742
350.091
354.302
358.197
352.973
354.507
357.952
360.183
355.153
351.028
355.696
353.766
350.775
347.551
346.644
352.754
347.311
347.612
343.229
343.709
338.775
346.128
345.814
346.965
351.719
358.19
359.524
361.094
360.348
355.528
355.438
355.61
357.184
358.877
359.342
358.118
358.377
357.695
355.562
354.615
353.727
353.194
353.201
355.946
357.46
359.004
357.433
358.11
359.383
359.577
347.258
354.233
360.16
346.827
356.244
359.979
360.964
354.103
347.708
353.93
351.805
348.008
344.733
346.195
350.129
343.535
344.895
340.678
342.044
337.57
346.654
340.388
344.042
351.868
359.237
360.519
360.683
359.627
352.405
353.202
353.088
355.372
357.368
354.119
352.834
356.806
356.245
354.859
353.339
350.443
349.032
347.55
352.708
355.719
357.291
354.028
356.968
356.857
354.417
341.997
354.112
360.441
343.726
359.473
359.814
359.686
350.917
341.82
349.489
348.985
347.455
346.253
347.979
344.193
339.422
342.214
337.075
340.13
334.79
343.911
337.118
341.702
352.181
358.769
360.776
361.314
358.591
351.174
350.598
351.184
351.842
350.781
349.104
350.702
355.691
353.32
347.968
345.29
341.349
339.998
339.542
349.768
353.326
354.439
351.592
352.467
350.529
350.723
338.999
353.217
356.661
340.708
359.611
355.542
357.737
344.03
339.334
345.88
344.754
344.823
347.135
347.588
335.128
332.544
335.117
333.963
334.655
332.101
333.618
328.346
332.812
337.497
350.027
347.217
358.389
353.86
340.53
342.184
340.686
343.487
345.498
347.017
344.718
340.184
341.297
342.548
341.27
339.578
338.733
335.144
341.258
344.667
342.449
340.383
338.32
340.151
339.196
333.395
347.071
338.655
332.471
331.39
335.353
341.317
338.213
334.695
340.295
325.675
337.342
336.24
344.739
312.705
310.164
310.416
306.529
312.443
305.376
316.019
322.942
325.823
328.543
335.222
337.875
335.365
343.579
336.51
335.431
333.936
332.971
333.493
338.118
338.682
335.049
336.413
336.265
335.298
334.285
334.053
334.143
336.472
338.766
337.523
336.786
334.409
334.786
336.321
319.088
325.08
325.752
322.074
323.495
322.414
321.088
311.501
303.436
302.835
310.591
310.016
312.044
311.306
300.383
299.784
299.245
298.621
298.585
299.085
298.828
318.126
317.009
317.18
317.762
318.608
318.792
318.474
332.359
331.872
332.521
331.543
331.162
333.18
333.483
324.823
326.47
326.24
325.662
326.663
328.623
329.595
325.028
325.586
326.116
328.146
330.037
330.558
330.455
314.148
312.996
315.478
313.494
315.37
316.959
316.186
295.018
293.99
294.944
294.975
295.616
295.1
296.226
287.778
290.398
290.362
290.559
290.202
290.8
290.998
312.223
313.05
312.02
311.493
311.979
310.078
309.891
329.649
328.977
329.131
328.136
327.987
329.748
330.182
319.791
321.73
320.924
320.717
322.278
323.666
324.289
322.632
323.07
322.751
323.033
322.623
321.209
325.4
308.528
308.671
310.123
309.694
309.198
308.136
307.94
284.375
284
284.361
285.127
283.253
285.302
284.069
282.796
283.025
283.572
283.486
283.721
283.118
283.459
306.112
306.268
306.086
307.698
306.481
306.696
306.062
322.892
321.171
320.588
320.059
320.809
322.077
323.015
312.194
314.219
313.186
313.307
314.728
315.738
316.28
317.789
317.364
315.006
319.478
318.449
318.355
321.063
304.272
304.137
304.879
304.714
304.62
304.734
305.741
281.155
280.979
280.998
281.01
281.052
281.07
281.271
281.437
281.43
281.454
281.399
281.396
281.399
281.423
304.548
304.445
304.322
304.338
304.584
304.294
304.261
319.239
319.683
319.284
318.538
319.805
321.064
322.148
308.626
310.614
309.684
309.989
311.199
312.242
312.912
317.746
316.936
314.162
318.141
317.968
318.418
320.518
303.398
303.322
303.535
303.637
303.66
303.647
304.09
281.499
281.507
281.485
281.543
281.559
281.561
281.605
292.497
292.495
292.493
292.486
292.486
292.472
292.466
305.644
305.648
305.652
305.75
305.767
305.719
305.712
311
310.299
310.071
309.258
310.952
312.473
313.718
290.613
292.441
291.898
292.53
293.402
294.483
295.341
310.964
308.584
304.674
306.844
309.154
311.562
312.033
305.374
305.415
305.533
305.583
305.573
305.521
305.74
292.328
292.312
292.331
292.317
292.319
292.319
292.317
340.413
349.454
353.166
356.515
357.856
359.568
357.165
346.906
350.337
352.038
353.712
355.014
357.392
356.865
358.51
358.04
357.863
358.041
358.542
359.423
359.448
356.008
354.674
354.841
355.54
356.6
358.017
358.638
360.032
360.483
361.576
362.166
363.001
363.66
365.337
354.05
356.891
360.937
362.431
365.306
365.223
368.954
347.964
356.512
360.842
364.552
368.788
368
369.894
336.614
341.524
348.708
355.357
358.604
358.197
353.211
347.74
349.595
351.743
353.908
355.029
353.583
349.353
358.047
357.3
357.075
357.161
357.709
357.912
357.202
352.674
351.643
351.896
352.951
354.531
357.05
358.296
358.312
358.397
359.124
359.676
360.106
362.408
364.172
351.381
353.365
355.687
356.438
357.379
359.738
366.011
348.684
356.433
358.472
358.596
363.285
359.177
366.396
336.216
336.122
340.018
347.563
350.446
349.773
350.134
347.538
347.705
348.965
350.705
352.128
348.139
344.596
356.946
356.617
356.212
356.247
356.505
355.524
354.712
348.74
348.136
348.442
349.417
351.312
353.635
356.147
357.011
357.275
357.533
357.613
358.026
358.878
360.348
349.187
350.2
351.967
351.158
350.843
350.046
354.405
336.455
341.391
347.358
346.002
351.255
350.013
357.926
338.47
336.685
337.64
345.899
347.276
348.324
349.314
350.222
348.765
348.133
349.529
349.988
344.856
342.545
355.976
354.833
353.954
353.84
354.266
353.303
352.513
345.608
345.553
346.141
347.617
350.115
352.879
355.674
356.114
354.535
354.627
354.602
355.185
355.946
355.953
344.892
345.377
348.722
348.069
347.437
343.893
348.21
323.811
326.031
334.194
334.817
339.207
333.63
347.528
337.107
331.206
336.97
343.44
344.661
348.791
347.276
354.243
352.51
348.042
346.3
348.928
341.678
339.703
353.39
355.226
354.574
352.864
352.887
351.231
351.855
340.999
340.65
341.19
342.63
345.263
348.701
353.994
348.326
352.151
353.819
353.652
353.517
352.457
353.949
341.852
340.974
343.533
343.84
344.563
338.616
343.997
319.608
322.431
325.076
328.006
331.726
329.938
339.608
338.323
329.354
334.675
338.352
342.096
348.219
342.162
355.301
357.765
353.841
341.537
347.499
339.412
333.552
345.781
348.126
350.574
349.941
351.188
349.772
349.788
336.478
336.673
337.872
341.098
344.247
347.559
351.359
343.932
343.209
349.594
349.83
349.864
350.366
350.207
341.8
335.911
340.868
340.189
342.058
332.221
337.556
326.132
326.724
325.726
327.135
329.059
332.942
334.042
336.04
325.902
330.209
331.126
334.837
345.579
338.701
353.881
356.101
357.605
339.308
343.4
333.6
330.621
339.951
340.07
344.407
346.429
346.648
345.385
348.212
328.347
328.434
329.191
332.458
336.507
340
348.46
339.529
339.748
340.326
343.887
345.744
345.322
348.57
347.894
334.226
336.619
335.344
339.344
329.225
333.999
330.083
329.953
329.624
327.962
334.203
337.649
338.055
324.807
324.071
326.364
329.686
330.273
329.867
333.736
340.584
335.993
332.667
333.252
329.414
326.298
324.744
329.413
337.457
338.413
335.798
334.856
333.603
334.667
319.561
327.901
330.025
332.327
332.935
331.004
326.403
324.676
334.171
334.049
333.273
333.334
335.44
335.199
338.617
331.081
330.036
329.87
327.787
324.16
322.87
331.984
328.898
328.764
327.22
338.189
337.838
342.626
307.521
307.459
306.088
303.07
297.153
293.636
294.84
320.293
319.155
318.381
318.967
318.804
316.977
315.515
331.2
329.881
329.024
329.391
329.197
331.101
332.753
319.61
322.365
321.353
320.956
320.483
320.812
318.362
325.612
325.528
323.953
324.107
326.255
329.729
330.283
316.507
313.686
314.289
319.439
317.307
317.539
311.854
298.399
299.87
296.322
294.788
291.14
288.355
296.246
282.671
281.749
281.208
285.188
284.892
284.495
285.485
311.85
310.44
310.813
310.385
308.408
305.841
305.053
329.115
327.071
325.201
322.032
322.289
324.186
326.222
317.4
317.224
315.206
313.861
312.411
312.086
309.723
323.238
323.518
321.752
321.088
322.094
326.004
327.137
309.808
308.637
309.018
310.322
307.693
305.016
306.704
284.953
283.179
284.477
284.391
284.174
283.955
284.529
276.438
276.002
276.131
276.866
276.293
276.329
277.187
303.222
302.82
302.827
304.769
302.337
301.471
301.347
323.24
319.37
317.093
318.292
318.109
320.241
322.224
313.112
313.627
312.098
311.113
309.266
309.296
307.42
316.782
317.325
315.533
316.754
318.424
321.723
321.117
303.309
302.893
303.021
305.05
302.733
301.861
302.185
276.871
276.61
276.722
277.234
276.584
277.045
276.477
275.991
275.534
275.611
276.113
275.776
275.849
275.978
300.567
300.547
300.69
303.271
300.547
300.159
300.19
322.68
319.409
317.492
318.572
318.032
320.063
321.808
311.179
311.644
310.462
309.883
307.82
307.069
305.831
316.61
317.092
315.681
316.567
318.698
321.387
321.147
300.793
300.899
300.929
303.705
300.944
300.926
300.911
275.97
275.834
276.026
276.281
275.97
275.817
275.972
277.708
277.517
277.603
278.353
277.678
277.603
277.638
301.965
301.951
301.971
303.088
301.555
301.63
301.68
323.132
321.595
320.265
319.834
320.198
321.601
323.004
309.818
309.953
308.745
308.152
306.231
305.097
303.935
317.748
317.931
317.238
317.303
320.794
322.35
322.202
302.28
302.34
302.146
303.345
301.994
302.068
301.772
277.761