/*--------------------------------*- C++ -*----------------------------------*\
  =========                 |
  \\      /  F ield         | OpenFOAM: The Open Source CFD Toolbox
   \\    /   O peration     | Website:  https://openfoam.org
    \\  /    A nd           | Version:  6
     \\/     M anipulation  |
\*---------------------------------------------------------------------------*/
FoamFile
{
    version     2.0;
    format      ascii;
    class       volVectorField;
    location    "0.01";
    object      U;
}
// * * * * * * * * * * * * * * * * * * * * * * * * * * * * * * * * * * * * * //

dimensions      [0 1 -1 0 0 0 0];

internalField   nonuniform List<vector> 
3773
(
(36.6759 -0.0197644 0.560005)
(36.5534 -0.00452518 0.56867)
(36.5978 -0.00622535 0.558187)
(36.5718 0.00200356 0.551824)
(36.5377 -0.00395263 0.562434)
(36.5712 -0.00370488 0.573473)
(36.6734 0.0233806 0.574965)
(9.69112 0.0265297 -0.096062)
(9.64559 -0.0471409 -0.0882541)
(9.67805 -0.0415937 -0.0769363)
(9.65817 0.00168487 -0.0808016)
(9.63994 0.0154168 -0.0759561)
(9.66071 0.0291133 -0.0571562)
(9.68854 -0.0171154 -0.055494)
(3.90735 0.0314891 0.0362644)
(3.89845 -0.00441458 0.0389561)
(3.89916 -0.0149107 0.0485757)
(3.89847 0.0136811 0.0497707)
(3.89838 0.0161307 0.0488796)
(3.89876 0.00746787 0.06025)
(3.90664 -0.0152844 0.0516416)
(8.5436e-06 0.0064007 0.0579584)
(0.000117932 0.0129295 0.0591175)
(0.000177124 0.0156656 0.0577146)
(0.00021261 -0.00587819 0.0568536)
(0.00013632 -0.0202927 0.0556817)
(1.48669e-05 -0.0214466 0.0486041)
(-8.5564e-06 -0.0146825 0.0514541)
(-3.90858 0.0273756 0.0388818)
(-3.90491 -0.00897094 0.0406387)
(-3.90008 -0.0210749 0.0443356)
(-3.89947 0.0086767 0.046059)
(-3.89935 0.0137343 0.0452918)
(-3.89971 0.00561692 0.0552505)
(-3.90721 -0.0138226 0.0463574)
(-9.69353 0.0214624 -0.102982)
(-9.64522 -0.0469363 -0.0910469)
(-9.67763 -0.0297425 -0.077952)
(-9.65263 0.00746733 -0.080425)
(-9.63932 0.0211916 -0.0772999)
(-9.66688 0.0388766 -0.0566051)
(-9.68923 -0.0130985 -0.055175)
(-36.6672 -0.0151864 0.565066)
(-36.5422 -0.00406713 0.568043)
(-36.6123 -0.0045263 0.567487)
(-36.5775 0.0020751 0.568996)
(-36.544 -0.00610665 0.563828)
(-36.5867 -0.00370626 0.576831)
(-36.664 0.0205801 0.581684)
(31.5441 -0.0311669 1.10702)
(30.9655 0.00846055 1.10464)
(30.8542 0.00380637 1.1221)
(30.7816 -0.00163868 1.11632)
(30.8355 -0.00953196 1.10011)
(30.94 -0.0163746 1.09483)
(31.6583 0.0289673 1.10059)
(8.00947 0.00801525 -0.25162)
(8.09602 -0.0540618 -0.246521)
(8.11704 -0.0455124 -0.227532)
(8.10212 0.00564664 -0.236894)
(8.09169 0.029243 -0.244037)
(8.10555 0.0449584 -0.219391)
(8.03107 0.00285876 -0.220336)
(3.42373 0.0394116 -0.0125695)
(3.41138 -0.00362569 -0.0147041)
(3.41941 -0.020339 0.00622157)
(3.41921 0.0163433 0.00973113)
(3.41446 0.0302006 0.00549461)
(3.42406 0.0176892 0.0257545)
(3.42464 -0.0195885 0.00644271)
(-8.73513e-08 0.00836646 0.0371688)
(9.72172e-05 0.0168058 0.0360096)
(0.000149199 0.01852 0.0354695)
(0.000181267 -0.00939811 0.0342551)
(0.000115426 -0.0284918 0.0338551)
(1.12836e-05 -0.0265562 0.0202296)
(-7.8006e-06 -0.0162731 0.0273065)
(-3.42759 0.0337387 -0.0132277)
(-3.41631 -0.0144217 -0.0102497)
(-3.42296 -0.0284604 -0.000254326)
(-3.42051 0.0113625 0.00322412)
(-3.41674 0.0267486 -0.000392841)
(-3.42423 0.014868 0.0182238)
(-3.42704 -0.0183466 -0.00113989)
(-8.02616 0.00991538 -0.262109)
(-8.04372 -0.0515924 -0.246638)
(-8.11647 -0.0356087 -0.232958)
(-8.08814 0.00933787 -0.246329)
(-8.09438 0.0333954 -0.244323)
(-8.11724 0.0538909 -0.217405)
(-8.02995 0.0039051 -0.220367)
(-31.7908 -0.02023 1.10676)
(-31.0182 0.0106764 1.10667)
(-31.112 0.0032184 1.1224)
(-31.0482 -0.000636417 1.09572)
(-31.034 -0.0137039 1.10364)
(-31.0854 -0.0176467 1.09949)
(-31.8328 0.0235395 1.10375)
(26.5535 -0.0649264 1.59515)
(26.097 0.00771973 1.59154)
(25.7719 -3.86418e-05 1.55734)
(25.6648 0.00639122 1.54319)
(25.9537 0.00115813 1.56002)
(26.0958 -0.0118021 1.57659)
(26.5972 0.0574468 1.60072)
(7.67847 -0.00727642 -0.131323)
(7.77145 -0.0438373 -0.131801)
(7.84629 -0.0384868 -0.138453)
(7.81275 -0.00093007 -0.148198)
(7.72857 0.026779 -0.139837)
(7.75667 0.0395624 -0.133631)
(7.67969 0.0137348 -0.141423)
(3.40823 0.0365926 0.00900488)
(3.37223 -0.00405326 -0.00772648)
(3.37437 -0.0169019 0.0132071)
(3.39702 0.0153695 0.00916594)
(3.38194 0.0330847 0.00557364)
(3.36949 0.0202722 0.0149434)
(3.40506 -0.0229937 -0.00439011)
(-1.48443e-05 0.00923018 0.0395078)
(7.84222e-05 0.0155649 0.0368824)
(0.000129206 0.0162205 0.0361735)
(0.000158147 -0.00919378 0.0311957)
(0.000103558 -0.0291718 0.0360142)
(7.72956e-06 -0.0253105 0.0290627)
(-1.18588e-05 -0.0156654 0.0350183)
(-3.40838 0.0333295 0.00275983)
(-3.37413 -0.0148002 -0.00487325)
(-3.3804 -0.0282434 0.00605079)
(-3.38498 0.0105168 0.00550488)
(-3.38664 0.0296608 -0.00124392)
(-3.3729 0.0171757 0.0103869)
(-3.40631 -0.0218748 -0.00766193)
(-7.68937 -0.00557315 -0.133099)
(-7.75401 -0.0415817 -0.137855)
(-7.81549 -0.0313335 -0.139306)
(-7.71987 0.0037086 -0.132776)
(-7.75719 0.0325354 -0.147272)
(-7.77293 0.0447483 -0.134491)
(-7.68958 0.0114192 -0.143993)
(-26.7487 -0.0482125 1.6252)
(-26.1804 0.0111652 1.59918)
(-25.9782 0.00141173 1.58546)
(-26.1197 -0.00309563 1.59834)
(-26.0675 -0.0133058 1.56545)
(-26.1977 -0.0220552 1.58783)
(-26.7623 0.045655 1.6222)
(23.9174 -0.0825505 1.31306)
(23.6882 0.00256446 1.32557)
(23.6533 -0.00158122 1.29416)
(23.6846 0.00662528 1.28079)
(23.5971 0.00928658 1.30081)
(23.6866 -0.00268902 1.32137)
(23.9365 0.0770703 1.33277)
(7.58891 -0.00889515 -0.111851)
(7.70776 -0.0325641 -0.116542)
(7.79173 -0.0294518 -0.119135)
(7.82791 -0.0101863 -0.131828)
(7.63611 0.0204781 -0.111443)
(7.68338 0.0343918 -0.114405)
(7.59226 0.0137758 -0.120018)
(3.40379 0.0331194 0.00711129)
(3.36988 -0.00381449 -0.00671795)
(3.38072 -0.0137958 0.0191264)
(3.38082 0.0132156 0.00503945)
(3.39641 0.0327478 0.00274021)
(3.35936 0.0198406 0.00353076)
(3.40137 -0.0248286 -0.00550699)
(-3.59177e-05 0.0109337 0.0458403)
(5.26616e-05 0.0159126 0.0423129)
(0.000103699 0.0146834 0.0343803)
(0.000129663 -0.00927597 0.0297204)
(9.03913e-05 -0.0306649 0.0349246)
(2.02051e-06 -0.025028 0.0446029)
(-1.94826e-05 -0.0154908 0.0452211)
(-3.40374 0.0308548 -0.000367625)
(-3.36077 -0.0131402 -0.0128221)
(-3.38796 -0.0253038 0.0107309)
(-3.4014 0.00812382 0.000887193)
(-3.39649 0.0298055 -0.00654383)
(-3.36084 0.0190639 0.000693741)
(-3.40216 -0.023584 -0.00842813)
(-7.59859 -0.00831218 -0.113647)
(-7.68825 -0.0315509 -0.11669)
(-7.76635 -0.0283574 -0.124636)
(-7.65668 -0.0036989 -0.118213)
(-7.67075 0.0310116 -0.113968)
(-7.69232 0.038548 -0.114242)
(-7.59869 0.0105737 -0.122589)
(-23.9968 -0.0706122 1.35677)
(-23.7255 0.00383047 1.35479)
(-23.7459 -0.000733104 1.31628)
(-23.5233 -0.00562298 1.30417)
(-23.6227 -0.0138128 1.31962)
(-23.7204 -0.0167405 1.33245)
(-24.0099 0.0650144 1.35913)
(23.0941 -0.084732 0.939921)
(22.9817 0.00109736 0.953854)
(23.1239 0.00041473 0.950301)
(23.1482 0.00594753 0.955917)
(22.9308 0.0147398 0.930468)
(22.9491 0.00391066 0.955642)
(23.1 0.0834375 0.95415)
(7.57618 -0.00685928 -0.0508573)
(7.69478 -0.0263775 -0.0590713)
(7.76052 -0.022833 -0.0566714)
(7.79709 -0.012265 -0.0548683)
(7.69181 0.0157291 -0.0474923)
(7.69293 0.0291274 -0.0513744)
(7.58069 0.00944814 -0.0576236)
(3.40632 0.0303804 0.0200554)
(3.3716 -5.39145e-05 0.0105174)
(3.36978 -0.012914 0.0376651)
(3.37203 0.00880337 0.0172729)
(3.37555 0.0328988 0.0176337)
(3.3554 0.0174353 0.0158894)
(3.40585 -0.0249369 0.0121366)
(-5.84226e-05 0.00956515 0.0543181)
(2.09575e-05 0.0123921 0.0462596)
(7.78721e-05 0.0105449 0.0329135)
(0.000101912 -0.00807146 0.0326939)
(7.15861e-05 -0.0249037 0.0344617)
(-5.52143e-06 -0.0227654 0.0525326)
(-2.90253e-05 -0.0147802 0.05088)
(-3.40544 0.0272455 0.0133977)
(-3.3615 -0.00985543 0.000605517)
(-3.37803 -0.0226103 0.0301227)
(-3.38831 0.00384444 0.0185391)
(-3.38797 0.0286381 0.0069241)
(-3.36 0.016524 0.0125883)
(-3.40613 -0.0240309 0.00909712)
(-7.5846 -0.00506589 -0.0558041)
(-7.69836 -0.023509 -0.0630203)
(-7.73353 -0.0232275 -0.052972)
(-7.72325 -0.00575071 -0.0577609)
(-7.6798 0.0262313 -0.0412232)
(-7.69247 0.0309287 -0.0503816)
(-7.58419 0.00591321 -0.0600243)
(-23.1162 -0.0753291 0.976274)
(-23.0003 0.0010893 0.991139)
(-23.1044 -0.00118537 0.979505)
(-22.9006 -0.00910115 0.950381)
(-22.9407 -0.0141787 0.937039)
(-22.9609 -0.0115913 0.964106)
(-23.119 0.0727785 0.976496)
(22.9926 -0.0807633 0.540553)
(22.9034 0.00774101 0.548937)
(22.908 0.00275227 0.578228)
(23.0381 -9.08918e-05 0.570566)
(22.9168 0.0100384 0.535398)
(22.8488 0.00760156 0.561699)
(22.9869 0.0823446 0.54732)
(7.66486 -0.00311131 -0.0035761)
(7.79657 -0.0239842 -0.00437207)
(7.80472 -0.0201735 0.0111234)
(7.81809 -0.00914578 0.0119439)
(7.7877 0.0101469 0.018571)
(7.79091 0.0241268 0.0160675)
(7.65414 0.00366556 0.00714572)
(3.41683 0.0281847 0.0564483)
(3.37156 0.00431727 0.04594)
(3.37096 -0.0108567 0.0682451)
(3.36481 0.00505577 0.0549562)
(3.36179 0.0319099 0.058547)
(3.36059 0.0153296 0.0557219)
(3.41277 -0.0256589 0.0532157)
(-7.78594e-05 0.00590517 0.0588962)
(-1.58168e-05 0.00633401 0.0531464)
(5.70064e-05 0.008369 0.0440912)
(7.47246e-05 -0.00749728 0.0436679)
(4.42035e-05 -0.0205294 0.0435339)
(-1.37672e-05 -0.0212612 0.0516251)
(-3.79755e-05 -0.0135446 0.0549141)
(-3.41454 0.024343 0.0492658)
(-3.37267 -0.00594361 0.0324579)
(-3.36626 -0.0179646 0.061945)
(-3.36932 -0.00106319 0.0574039)
(-3.36666 0.0261798 0.0477502)
(-3.37248 0.0146699 0.0537061)
(-3.41355 -0.0246165 0.0530581)
(-7.66743 -0.00312259 -0.00863958)
(-7.7811 -0.0186434 -0.00482747)
(-7.77689 -0.0185978 0.0113445)
(-7.81573 -0.00147348 0.0164224)
(-7.81846 0.0268999 0.0222404)
(-7.76412 0.0238821 0.0138049)
(-7.65916 0.000243502 -0.000735249)
(-23.0007 -0.0704759 0.568455)
(-22.8307 0.00455337 0.605197)
(-22.9556 -0.00668179 0.584427)
(-22.8014 -0.0156315 0.577356)
(-22.9708 -0.014185 0.547927)
(-22.845 -0.0069102 0.562744)
(-22.9946 0.0749328 0.561694)
(22.5396 -0.0847495 0.341049)
(22.3479 0.00941782 0.352146)
(22.4392 0.00364749 0.357858)
(22.5813 -0.00285746 0.360558)
(22.553 0.0123119 0.347011)
(22.5445 0.0134555 0.356923)
(22.5429 0.0858877 0.345233)
(7.66478 -0.00289501 0.000729562)
(7.73373 -0.0214845 0.00840521)
(7.65427 -0.0180329 0.0264468)
(7.68257 -0.00574497 0.0227882)
(7.69328 0.0159109 0.025011)
(7.70118 0.028662 0.0314324)
(7.66178 0.00349881 0.0215447)
(3.3793 0.0312987 0.0226348)
(3.38376 0.00619526 0.00991444)
(3.36643 -0.0107192 0.0247379)
(3.37264 0.00583217 0.0215114)
(3.36231 0.0407006 0.0225615)
(3.37531 0.0193252 0.0228807)
(3.3672 -0.0320894 0.0210959)
(-9.13541e-05 0.00708988 -0.000932434)
(-5.95853e-05 0.00498107 -0.00195784)
(4.70866e-05 0.00746157 -0.00568263)
(5.49521e-05 -0.00978047 -0.00722875)
(9.16566e-06 -0.0251807 -0.00720667)
(-2.02495e-05 -0.0224912 -0.00747917)
(-4.4204e-05 -0.0163209 -0.0034207)
(-3.37947 0.0244386 0.0152742)
(-3.42959 -0.00690593 -0.00246303)
(-3.3759 -0.0164397 0.0203715)
(-3.3645 -0.00236581 0.0188919)
(-3.44245 0.0348635 0.0153227)
(-3.37941 0.0226976 0.0231791)
(-3.36799 -0.0302927 0.0227187)
(-7.67135 -0.00222366 -0.000931572)
(-7.40612 -0.0192795 0.0262877)
(-7.67887 -0.0171521 0.0219933)
(-7.66212 0.00207461 0.0272792)
(-7.49773 0.0299946 0.0327024)
(-7.69264 0.0224845 0.0253968)
(-7.66542 -0.00201391 0.0116731)
(-22.563 -0.0688056 0.356295)
(-22.4131 0.000895707 0.384102)
(-22.5451 -0.0167865 0.361782)
(-22.4654 -0.0168749 0.360139)
(-22.3519 -0.0151395 0.365616)
(-22.5325 -0.00641773 0.351403)
(-22.5531 0.0818082 0.350099)
(33.4147 -17.7349 -7.20672)
(33.2751 -21.7545 -16.3648)
(33.3114 -28.8656 -18.9291)
(33.7691 -28.8079 -27.6014)
(33.9438 -27.1923 -35.9487)
(33.9716 -15.8528 -41.5878)
(33.7332 3.18287 -29.0733)
(9.0969 -15.1078 -11.2472)
(9.10537 -7.7756 -18.68)
(9.15221 -8.56953 -20.0303)
(9.13206 -8.68078 -20.6897)
(9.05104 -9.25056 -22.8338)
(8.95973 -6.91351 -22.6673)
(8.8837 10.7082 -15.7193)
(3.23334 -8.4788 0.286275)
(3.32198 -3.62492 -9.06666)
(3.34189 -2.16275 -11.4946)
(3.34566 -0.0535045 -12.5057)
(3.31688 1.56753 -12.7184)
(3.28011 2.33126 -10.2262)
(3.18101 8.57413 -1.07739)
(-0.00144747 -3.75741 2.91704)
(-0.00467163 0.435338 0.491793)
(-0.00778766 1.21845 0.417756)
(-0.00956484 -0.366569 1.08952)
(-0.00960933 -1.91995 0.408165)
(-0.0100412 -0.807812 0.637673)
(-0.00916928 3.96758 3.04876)
(-3.41909 -12.6338 -1.18247)
(-3.47032 -6.15202 -14.7568)
(-3.46903 -2.24265 -16.6988)
(-3.50778 1.17678 -16.1425)
(-3.49703 3.97796 -14.2117)
(-3.48289 5.27558 -11.8658)
(-3.41583 12.124 -0.584599)
(-9.45217 -19.4444 -14.0832)
(-9.37247 -6.41323 -30.3574)
(-9.31208 0.976478 -33.8107)
(-9.45962 8.06303 -32.2928)
(-9.50052 16.6089 -27.6454)
(-9.50135 15.0174 -21.8705)
(-9.44329 19.0122 -10.6187)
(-34.426 -17.7212 -16.3706)
(-34.3543 -6.25467 -37.6924)
(-34.5041 -4.17371 -42.0837)
(-34.3663 6.42696 -41.4739)
(-34.2865 16.5429 -35.2197)
(-34.2585 18.7983 -24.9171)
(-34.2718 20.9592 -2.71113)
(33.4787 -17.8039 12.1764)
(33.5551 -21.627 -9.52961)
(33.9667 -31.5295 -19.5392)
(34.5449 -26.8476 -40.8527)
(34.8545 -26.8059 -62.1354)
(34.8013 -17.1486 -76.3997)
(34.839 -3.89224 -76.9379)
(9.074 -14.9896 9.39327)
(9.06191 -3.40867 -8.19383)
(9.20963 -8.31696 -12.5179)
(9.16928 -10.0893 -8.13047)
(8.97462 -15.3688 -7.52898)
(8.88744 -13.3303 -7.23993)
(8.95016 3.58418 -6.06362)
(3.20997 -7.74465 10.2619)
(3.29521 -0.0859746 6.34322)
(3.35125 -0.453934 5.22913)
(3.38237 0.492723 5.9914)
(3.34257 0.497346 6.49871)
(3.27271 -1.57068 7.49779)
(3.17097 7.41273 10.176)
(-0.00599842 -1.72361 13.1353)
(-0.00727815 2.49265 11.0781)
(-0.00812708 2.65355 10.1319)
(-0.00977224 0.0728717 10.917)
(-0.0105406 -2.64918 10.7289)
(-0.0127165 -2.41273 11.842)
(-0.0117754 2.14803 14.0612)
(-3.40682 -11.8799 9.50745)
(-3.45226 -2.06623 8.46216)
(-3.48007 -2.71395 6.14035)
(-3.54046 -0.268752 6.38627)
(-3.50472 2.23408 6.24499)
(-3.48043 2.12103 8.49075)
(-3.42591 11.4493 9.97978)
(-9.43445 -22.3142 8.14254)
(-9.0787 4.48908 -5.05154)
(-9.25028 2.92309 -31.9591)
(-9.44625 6.70629 -29.5976)
(-9.4859 10.4752 -22.7232)
(-9.4181 5.66556 -6.45509)
(-9.44827 18.2945 10.911)
(-34.4241 -17.2163 -3.16763)
(-34.217 -6.45693 -43.876)
(-34.3055 -12.2533 -49.6982)
(-34.0226 -8.55995 -51.462)
(-33.7794 -6.35064 -47.7587)
(-33.5761 3.82723 -18.6372)
(-34.12 20.305 11.6538)
(33.5617 -13.8484 18.0106)
(33.7947 -10.5008 -13.8814)
(34.0234 -21.0088 -29.1606)
(34.5995 -12.2757 -48.6106)
(35.076 -12.1507 -73.0352)
(35.0245 -9.81809 -87.8576)
(34.9945 3.63535 -91.3259)
(8.94497 -11.5898 17.2331)
(9.1538 -1.77296 -13.0851)
(9.16093 -12.5384 -13.4521)
(9.0088 -14.8608 -6.83953)
(8.91994 -16.6445 -8.85283)
(8.98286 -10.3945 -19.1574)
(9.2533 -0.325238 -43.7246)
(3.1443 -5.05117 19.4688)
(3.2402 1.85674 10.1022)
(3.35757 1.71229 9.24349)
(3.39657 1.32931 10.3265)
(3.349 -0.379734 10.4524)
(3.2257 -2.4446 12.9915)
(3.15014 3.30183 17.6947)
(-0.0035351 0.0331981 17.7297)
(-0.00233871 2.88993 14.9361)
(-0.00410648 2.81173 13.3325)
(-0.00712793 0.482574 13.4423)
(-0.005999 -1.95148 13.8858)
(-0.00238471 -2.10423 16.7677)
(0.00102591 0.794672 19.8495)
(-3.30169 -10.1113 21.8467)
(-3.34869 0.778137 12.363)
(-3.4285 0.318175 10.5325)
(-3.54722 1.899 12.5855)
(-3.48569 3.31462 12.2007)
(-3.43497 1.30405 15.3789)
(-3.35606 11.4647 23.0606)
(-9.23925 -17.6229 20.7657)
(-8.89012 8.13265 -16.1565)
(-9.32881 3.28082 -36.613)
(-9.47237 6.03378 -32.2586)
(-9.28461 0.758414 -26.948)
(-9.1421 -0.777715 -13.1572)
(-9.32103 18.8393 20.6868)
(-33.6334 -9.66121 4.21873)
(-34.2563 -8.22056 -47.509)
(-34.0933 -18.5771 -59.3021)
(-33.7086 -19.7348 -65.7634)
(-33.4538 -20.7441 -66.7948)
(-33.4101 -10.1765 -37.0672)
(-34.0025 14.9799 23.4525)
(33.2285 -7.77293 24.4796)
(33.8833 -0.0335271 -7.65855)
(33.9462 -9.31917 -25.7167)
(34.6684 -7.03629 -47.6806)
(35.0895 -7.3213 -80.1899)
(35.113 -8.95944 -93.6136)
(35.0048 6.82513 -96.2438)
(8.56676 -5.88498 18.8856)
(9.2682 -4.29407 -10.4584)
(9.1062 -14.0284 -7.62632)
(9.0977 -12.2788 -7.25997)
(9.23536 -6.45219 -23.9361)
(9.33239 -5.86 -34.5297)
(9.52635 7.89565 -61.2994)
(3.09305 -1.38083 20.9527)
(3.23109 3.15153 9.7425)
(3.36434 2.79727 10.8061)
(3.41177 2.88415 13.8979)
(3.37115 -0.417783 15.1919)
(3.23496 -1.76589 16.3886)
(3.1854 1.32841 16.8809)
(0.000744223 0.304149 20.8051)
(-0.000230696 2.62128 18.1449)
(-0.00408506 2.84391 15.6951)
(-0.00252886 1.67548 15.248)
(0.00231514 0.498236 15.9022)
(0.0102745 -0.0741567 18.3282)
(0.0191399 0.785871 21.7293)
(-3.20227 -4.70153 25.8353)
(-3.21776 3.47804 15.3269)
(-3.38646 3.5379 7.64994)
(-3.4821 3.91111 10.9846)
(-3.45133 3.76497 12.4624)
(-3.31911 0.0840383 16.8835)
(-3.25135 7.25643 27.9968)
(-8.8244 -8.40003 18.3265)
(-9.09569 8.8389 -17.709)
(-9.54276 -5.83164 -33.9957)
(-9.45071 -6.50655 -26.5986)
(-8.94795 -9.78724 -15.4213)
(-8.75769 -6.54443 2.52678)
(-8.99779 10.0547 23.9269)
(-33.3724 5.35281 -7.94487)
(-34.4824 -14.4584 -42.9929)
(-34.1867 -25.4542 -59.1025)
(-33.7432 -27.7911 -68.267)
(-33.5108 -28.9425 -71.3266)
(-33.5578 -23.7608 -56.8264)
(-33.0506 -2.85324 -8.00583)
(32.2018 -2.70152 21.2389)
(34.0645 1.29851 -5.3109)
(34.0827 -5.86141 -24.4796)
(35.0172 -6.50088 -52.1754)
(34.9916 -6.68947 -86.8078)
(35.203 -8.64812 -96.4143)
(34.8726 6.91937 -98.6416)
(8.56131 1.46355 10.1008)
(9.31412 -4.41744 -8.89458)
(9.24142 -7.30269 -12.075)
(9.35124 -3.13743 -23.664)
(9.46701 -0.8816 -31.5229)
(9.40245 -4.95256 -30.2564)
(9.59191 11.0632 -60.0217)
(3.10394 1.68196 17.988)
(3.23952 3.67881 10.3497)
(3.3748 4.45518 11.7032)
(3.42558 3.9214 15.465)
(3.39143 0.878871 15.9096)
(3.23577 -0.968324 17.307)
(3.20172 -0.0832899 17.6873)
(-4.63381e-05 1.41953 21.7828)
(-0.00273807 2.25837 19.6638)
(-0.0058675 1.79421 18.4354)
(-0.000485628 1.49449 18.0922)
(0.00554953 0.651302 17.8772)
(0.00841824 0.350579 19.0805)
(0.0161213 0.828773 22.269)
(-3.1578 0.149359 22.4414)
(-3.2108 5.8198 15.1808)
(-3.37444 4.96556 9.32486)
(-3.46866 4.13381 11.4816)
(-3.39776 1.08341 12.0382)
(-3.20617 -2.90413 16.6357)
(-3.16613 3.14057 26.56)
(-8.89719 2.29277 -2.3352)
(-9.44924 -0.472717 -25.4979)
(-9.54747 -16.3584 -23.5385)
(-9.31216 -19.3707 -26.9308)
(-8.92819 -20.4471 -21.5621)
(-8.73578 -11.7558 2.09242)
(-8.73138 -0.222327 13.0795)
(-34.4102 -1.69462 -15.6035)
(-34.5854 -19.3713 -37.1539)
(-34.353 -30.2989 -52.3181)
(-34.2702 -32.1096 -64.5295)
(-34.1184 -30.0658 -75.5171)
(-34.0937 -25.2809 -84.475)
(-34.1089 -4.01271 -74.8113)
(32.2934 0.69352 11.8658)
(34.1582 0.399922 -5.32379)
(34.7506 -5.51225 -25.4644)
(35.0833 -15.4182 -60.6839)
(34.9032 -4.13193 -88.3546)
(35.3401 -4.96491 -97.2261)
(35.1647 8.41817 -99.2792)
(9.09752 1.52547 0.33883)
(9.42339 -3.49757 -8.9929)
(9.47384 -3.14798 -17.3115)
(9.57667 -2.91825 -27.523)
(9.51438 -3.94118 -29.324)
(9.45434 -6.88652 -30.394)
(9.6681 10.8285 -61.2505)
(3.20535 2.5016 12.719)
(3.30748 3.46245 10.1845)
(3.39309 4.98473 13.4557)
(3.43814 5.05327 18.4611)
(3.41244 2.28033 18.752)
(3.26836 -0.157753 18.5663)
(3.26504 -0.528556 16.8549)
(-0.00630013 1.2368 23.6399)
(-0.00520591 2.14648 24.0073)
(-0.0065524 1.90003 21.7246)
(-0.00641109 0.646259 22.384)
(-0.00415286 0.430706 21.0373)
(0.000422349 0.189023 22.0369)
(0.0118877 0.0273451 22.9358)
(-3.18661 2.07249 20.3217)
(-3.24626 4.89761 15.789)
(-3.40928 5.25576 12.7849)
(-3.49434 4.64691 15.4522)
(-3.39364 -4.3517 15.1333)
(-3.20652 -6.6875 16.7341)
(-3.14892 -1.69886 22.7242)
(-9.3388 -0.464627 -10.5631)
(-9.6966 -12.2781 -19.5524)
(-9.62418 -19.3591 -23.193)
(-9.47281 -23.7404 -34.5514)
(-9.34542 -25.4339 -40.0446)
(-9.22091 -19.232 -45.0347)
(-9.10823 -0.563693 -26.4165)
(-34.6672 -12.5151 -10.0932)
(-34.6658 -14.1537 -26.6133)
(-34.5723 -29.3226 -42.8849)
(-34.6257 -29.5607 -58.2412)
(-34.7636 -28.8492 -76.8724)
(-34.5082 -20.9061 -91.3532)
(-34.4816 -6.29903 -91.7496)
(33.4529 -1.79066 4.15419)
(34.7181 -5.11159 -9.19132)
(35.0502 -17.0076 -27.3421)
(34.9983 -22.1809 -66.6701)
(34.8462 -3.93602 -88.9127)
(35.223 -2.73615 -97.41)
(35.2719 8.97806 -95.5003)
(9.42125 -2.17896 -4.84298)
(9.5549 -3.84066 -11.1748)
(9.61229 -5.5458 -18.8852)
(9.62866 -7.74633 -26.1559)
(9.56624 -8.75218 -31.2458)
(9.65044 -11.2585 -45.9575)
(9.73999 8.83049 -62.0758)
(3.28818 1.08094 11.7098)
(3.4069 1.48182 10.4832)
(3.42172 3.29104 13.7592)
(3.47629 3.84801 18.6252)
(3.42819 1.5134 17.8161)
(3.32912 -0.532864 16.6831)
(3.37084 -0.620129 13.2344)
(-0.0104296 0.248649 27.9449)
(-0.010561 -0.301812 24.3529)
(-0.0158189 -0.942512 26.003)
(-0.0158894 -0.813 22.7536)
(-0.016559 -0.545144 22.9757)
(-0.0135783 -0.29757 22.0005)
(-0.0013414 -0.408042 22.1501)
(-3.23178 1.57798 20.4252)
(-3.35498 2.87443 16.5671)
(-3.49093 2.2051 14.9415)
(-3.54392 0.0766978 19.3261)
(-3.40974 -6.25766 17.671)
(-3.23888 -8.28417 16.7542)
(-3.19114 -2.90289 11.7315)
(-9.56235 -5.52153 -9.92062)
(-9.74579 -11.515 -14.5157)
(-9.67425 -16.713 -22.1462)
(-9.65455 -20.6369 -27.5721)
(-9.5999 -22.3103 -41.7246)
(-9.66841 -15.9599 -60.3476)
(-9.64461 -2.32536 -67.8628)
(-34.7518 -13.1566 -7.01059)
(-34.843 -7.90173 -23.1126)
(-34.8649 -20.7019 -33.4329)
(-34.926 -22.3573 -50.6946)
(-35.0083 -20.173 -74.3268)
(-34.8198 -19.0145 -94.0551)
(-34.691 -4.12371 -95.8035)
(34.5066 -7.24613 21.0421)
(34.9253 -10.3613 11.2753)
(35.0578 -17.698 -20.1608)
(35.4648 14.9734 -78.1918)
(35.4605 16.3409 -84.269)
(35.3967 10.7516 -80.4808)
(35.2886 8.97629 -59.54)
(9.63713 -8.28889 3.09052)
(9.71169 -8.93473 -3.29639)
(9.71985 -13.4463 -6.40771)
(9.7401 -14.4528 -13.3316)
(9.74325 -15.4435 -30.4837)
(9.76218 -8.9873 -52.7392)
(9.88799 8.92321 -59.9766)
(3.45869 0.176212 11.414)
(3.48699 -0.0169642 12.4753)
(3.50439 -1.56887 15.0719)
(3.51884 -3.84493 17.9845)
(3.45794 -8.79408 12.6274)
(3.44171 -9.81031 2.51297)
(3.48874 -5.57267 -9.92583)
(-0.00587494 -0.966374 24.0576)
(-0.00407824 -2.53693 23.7544)
(-0.0033176 -3.96674 23.2715)
(-0.00694295 -4.61777 23.7742)
(-0.010907 -4.9986 21.223)
(-0.0137284 -4.23068 18.7203)
(-0.0133285 -1.77814 16.6177)
(-3.39312 1.28435 17.8995)
(-3.43375 1.70099 17.5509)
(-3.53021 -0.057879 15.8088)
(-3.55233 -5.87876 19.5253)
(-3.44613 -11.6511 14.0218)
(-3.4125 -11.0914 5.0148)
(-3.40461 -3.30485 -3.40784)
(-9.66622 -7.663 2.32223)
(-9.76691 -6.00494 -7.05512)
(-9.73008 -10.516 -9.67432)
(-9.73175 -9.62445 -12.9263)
(-9.68454 -6.12729 -24.9396)
(-9.81911 -2.39213 -58.8243)
(-9.88652 16.432 -78.4883)
(-34.6925 -11.1402 12.6837)
(-34.9588 0.860723 -6.14463)
(-35.1307 -0.784687 -10.5345)
(-35.1902 -6.2723 -17.1003)
(-35.39 9.34262 -50.5099)
(-35.6168 8.242 -94.673)
(-35.4523 9.20473 -90.6983)
(34.3865 -7.44435 24.0574)
(34.9548 -7.57015 11.4054)
(35.2516 1.50044 -52.6408)
(35.4703 20.7927 -92.1843)
(35.3027 23.2912 -92.6123)
(35.4206 15.5554 -83.9818)
(35.488 13.2552 -61.6542)
(9.65865 -7.37506 7.84903)
(9.80545 -5.71981 5.60954)
(9.78845 -7.13154 3.47446)
(9.75575 -11.7148 -2.48264)
(9.75363 -16.28 -18.4217)
(9.89816 -3.64485 -47.0262)
(9.96193 13.2538 -58.1377)
(3.50942 -0.466383 14.3323)
(3.54256 -0.623064 16.0256)
(3.56491 -2.32503 19.1853)
(3.56334 -6.83509 22.3597)
(3.5282 -14.765 16.2276)
(3.57381 -11.1049 -7.36658)
(3.63539 5.80362 -27.6581)
(0.0104783 -1.19784 24.976)
(0.0106586 -3.09859 24.9707)
(0.0102815 -4.59708 24.9516)
(0.00669478 -4.92771 25.7694)
(0.00388847 -5.42043 23.8488)
(-0.000470817 -5.35357 21.8426)
(-0.0131795 -2.40988 18.8842)
(-3.43866 0.58268 18.6304)
(-3.48913 0.929369 18.6323)
(-3.56063 -1.16289 18.2167)
(-3.55851 -7.25925 21.8688)
(-3.47248 -15.251 15.4554)
(-3.46947 -11.735 2.19054)
(-3.46646 -3.86096 -8.76327)
(-9.6243 -7.18366 7.81569)
(-9.81472 -1.41063 5.01486)
(-9.80374 -4.69191 4.82129)
(-9.75648 -9.00391 1.83406)
(-9.67078 -7.84314 -15.4722)
(-9.79808 -1.23894 -52.0778)
(-9.86166 20.9836 -70.6785)
(-34.6264 -10.3014 12.346)
(-34.9895 3.71261 -5.98401)
(-35.3863 2.35869 -7.50677)
(-35.3004 -3.29259 -16.3303)
(-35.4329 19.1714 -59.9714)
(-35.5453 23.0431 -98.6476)
(-35.3001 15.1598 -98.8689)
(34.2225 -7.55338 26.744)
(34.742 -6.82196 10.3821)
(35.421 20.9672 -91.8874)
(35.6012 23.2789 -99.9099)
(35.6018 27.0634 -93.9705)
(35.9507 17.4908 -81.5182)
(35.9599 15.066 -58.931)
(9.58992 -8.19653 14.7184)
(9.79882 -2.68886 7.81011)
(9.82796 -3.08595 3.06441)
(9.79004 -6.13844 1.45465)
(9.79391 -6.37921 -17.6581)
(9.9306 8.70335 -50.3924)
(10.0333 17.295 -61.1828)
(3.53564 -1.52928 19.1658)
(3.59579 -0.0172476 20.6951)
(3.61291 -2.87828 24.528)
(3.57851 -8.85501 26.0239)
(3.56237 -14.453 13.2913)
(3.63905 -8.79577 -23.1525)
(3.70912 14.4505 -37.0927)
(0.0240338 -0.884524 27.2846)
(0.0243818 -3.4096 28.1712)
(0.0223782 -4.45706 28.6295)
(0.0140147 -5.70787 29.769)
(0.00386042 -7.27896 28.8504)
(-0.00235429 -6.90146 25.709)
(-0.00817918 -2.04503 18.5108)
(-3.46008 0.740308 20.8805)
(-3.51002 1.41199 21.1407)
(-3.57515 -0.320956 23.0585)
(-3.54655 -9.66936 24.8682)
(-3.53056 -17.2288 8.72722)
(-3.60184 -7.28423 -23.0947)
(-3.64996 1.48004 -33.8498)
(-9.47904 -5.20691 10.8936)
(-9.80057 -2.63351 6.34585)
(-9.8089 -3.50244 8.19715)
(-9.75689 -9.24218 7.03829)
(-9.74723 -3.18903 -15.4604)
(-9.89026 8.38231 -56.8335)
(-9.87969 20.6688 -67.868)
(-34.3428 -7.47895 10.9448)
(-35.055 1.27199 -2.05356)
(-35.5657 -2.70647 -9.96423)
(-35.552 3.967 -28.3664)
(-35.5585 34.6144 -74.998)
(-35.5336 32.5828 -96.779)
(-35.4333 27.1609 -92.8101)
(33.8011 -10.897 29.1893)
(34.271 -2.41068 -8.55216)
(35.2895 30.1337 -102.021)
(35.3117 31.7465 -100.245)
(35.9284 30.2602 -87.3362)
(36.0583 5.02667 -60.4218)
(36.4556 9.54701 -54.4714)
(9.34074 -7.39423 19.1074)
(9.75425 -2.66265 10.3354)
(9.83139 -1.30514 2.41398)
(9.76796 -6.1928 5.12007)
(9.84021 4.4223 -22.121)
(9.91391 17.9961 -43.2437)
(10.0326 23.8479 -55.5157)
(3.53088 -0.776234 24.153)
(3.60643 0.717365 25.8771)
(3.61952 -2.28368 29.5779)
(3.58553 -8.49919 27.4985)
(3.57543 -13.0316 11.2272)
(3.6704 -7.04876 -19.3659)
(3.7037 22.6557 -33.878)
(0.0314762 -0.502712 28.7919)
(0.0264372 -1.52162 30.2334)
(0.0227141 -3.19334 32.802)
(0.0137237 -4.26261 34.2806)
(-0.00347024 -6.34349 33.1597)
(-0.0176899 -7.04836 29.8562)
(-0.0221575 -1.48065 15.5923)
(-3.45218 0.840738 22.1451)
(-3.52039 -0.83477 23.891)
(-3.56412 -3.11984 26.8893)
(-3.55305 -7.86186 24.6592)
(-3.61058 -13.4865 -2.92786)
(-3.71521 -3.50409 -26.1093)
(-3.7129 15.8885 -38.5743)
(-9.46564 -5.61592 12.2051)
(-9.78413 -4.05779 5.97472)
(-9.81752 -3.49164 5.69228)
(-9.75815 -6.12404 4.17741)
(-9.82751 9.02499 -21.9773)
(-9.92124 20.4588 -51.6088)
(-9.87718 21.2867 -63.5156)
(-34.1076 -9.03008 13.6546)
(-35.1795 -1.06452 -1.02176)
(-35.6644 -3.46225 -27.2209)
(-35.7079 32.0326 -67.8496)
(-35.2431 53.4655 -86.9207)
(-35.3298 50.4734 -88.92)
(-35.4071 32.4714 -77.5062)
(33.2559 -16.1334 30.0251)
(34.9187 45.8194 -74.8295)
(35.0332 36.4458 -110.681)
(35.6073 35.5581 -101.271)
(36.1422 26.6494 -69.5376)
(36.2779 -2.43456 -44.6692)
(36.5862 15.6354 -41.9194)
(9.3047 -5.14724 20.1727)
(9.72143 -2.18052 6.92761)
(9.79989 1.10693 4.75558)
(9.81005 12.4595 -1.39321)
(9.82965 38.2089 -27.0552)
(9.80376 41.3928 -41.9522)
(9.88399 37.4951 -41.8145)
(3.52632 -0.00140602 25.0424)
(3.60036 -0.183889 26.8508)
(3.61675 -1.22538 29.317)
(3.59317 -6.02619 27.6124)
(3.59507 -7.10705 11.7415)
(3.63969 -1.12103 -8.59784)
(3.63819 26.625 -22.0445)
(0.0242409 0.330273 29.6838)
(0.0157874 0.794107 30.0393)
(0.0129685 -0.232702 32.4479)
(0.0109891 -1.37908 34.1218)
(0.00180656 -3.52725 34.0831)
(-0.0080101 -7.59699 31.2025)
(-0.0243861 3.04705 12.7122)
(-3.50524 -1.81977 22.4215)
(-3.58536 -4.502 22.2653)
(-3.58181 -4.36284 24.9026)
(-3.58246 -5.65797 23.158)
(-3.68108 -3.93646 -6.06983)
(-3.72848 0.343447 -18.1936)
(-3.69656 27.4061 -27.701)
(-9.53279 -6.86645 17.0075)
(-9.8833 -6.55109 7.79038)
(-9.94561 -3.43608 0.316247)
(-9.87661 1.48314 -8.55872)
(-9.93203 16.8435 -19.435)
(-9.92715 34.6353 -39.4537)
(-9.88879 29.5021 -49.0396)
(-34.1685 -8.50559 21.5811)
(-35.3009 -11.0527 1.9108)
(-35.6393 38.8959 -78.1866)
(-35.4111 57.5165 -94.1525)
(-35.4499 60.29 -88.7216)
(-35.7555 55.0118 -79.7304)
(-35.6166 33.1205 -54.3855)
(32.8494 -26.7974 38.6617)
(34.705 74.1725 -101.666)
(35.3277 39.3448 -112.615)
(36.4565 36.0835 -89.3836)
(36.549 30.5188 -51.7991)
(36.5067 13.9943 -33.616)
(36.6534 24.0744 -23.1313)
(9.46363 -6.14338 24.5672)
(9.79857 -3.76848 -9.85396)
(9.85383 30.5658 -21.9314)
(9.90802 65.377 -39.0833)
(9.83247 72.4585 -46.0838)
(9.75972 64.1996 -46.7915)
(9.86932 49.7513 -32.2674)
(3.55183 -2.28519 25.3149)
(3.59927 -4.02234 24.6364)
(3.61832 -2.50125 24.7986)
(3.59147 -0.146094 25.2758)
(3.56006 -1.23373 21.6147)
(3.56576 0.789329 5.92612)
(3.58311 31.9613 -8.20677)
(0.000963086 -0.750915 31.1929)
(-0.00079165 1.07312 31.6827)
(0.00334727 3.25114 33.7846)
(0.00283168 3.97848 36.3933)
(0.00251725 2.08675 38.9842)
(0.0118934 -4.81135 37.6497)
(0.00336109 8.91 20.1265)
(-3.58319 -3.8947 26.1131)
(-3.67982 -6.17162 17.8173)
(-3.67814 -0.632912 17.7975)
(-3.70501 6.75192 10.0442)
(-3.73629 6.74783 4.62541)
(-3.682 6.28232 -3.49205)
(-3.61492 27.0006 -3.6527)
(-9.5873 -7.58347 30.9587)
(-9.91013 -4.29217 -7.37137)
(-9.92111 42.3963 -31.6517)
(-9.97565 47.6718 -28.755)
(-9.92417 55.5116 -26.3832)
(-9.83855 49.2579 -26.204)
(-9.8537 41.4877 -14.3833)
(-33.7519 -19.3246 37.686)
(-35.5552 53.9116 -81.0175)
(-35.3385 58.9164 -105.393)
(-35.8215 61.1048 -99.2632)
(-36.4092 61.1528 -82.0985)
(-36.2037 38.9783 -56.0194)
(-35.9751 8.88479 -13.7788)
(35.0039 125.489 -104.72)
(34.0061 110.077 -116.821)
(36.0159 -4.80475 -103.247)
(36.8313 -2.09276 -14.4014)
(36.5724 -16.0933 24.433)
(36.4591 -20.5235 26.3223)
(36.6103 1.6416 27.9597)
(10.0162 53.9389 -22.3677)
(9.79757 84.0263 -52.2486)
(9.77171 101.073 -54.8141)
(9.92228 96.2032 -52.6591)
(10.0907 86.2788 -48.3028)
(9.98049 69.6247 -45.7881)
(9.91517 45.8834 -1.46265)
(3.74604 17.7559 -0.255981)
(3.68796 15.6371 -0.749146)
(3.69998 21.2175 -6.31313)
(3.71574 21.8476 -5.43014)
(3.69191 21.2984 2.37703)
(3.63548 27.4051 3.27929)
(3.5625 28.982 18.6659)
(-0.0112226 1.37477 36.0184)
(-0.00602935 1.78116 32.2349)
(0.0010557 6.76073 32.458)
(-0.00180163 10.6061 30.8841)
(0.0260399 10.6671 34.6297)
(0.062992 3.50965 34.8424)
(0.0591017 6.53695 45.5652)