/*--------------------------------*- C++ -*----------------------------------*\
  =========                 |
  \\      /  F ield         | OpenFOAM: The Open Source CFD Toolbox
   \\    /   O peration     | Website:  https://openfoam.org
    \\  /    A nd           | Version:  6
     \\/     M anipulation  |
\*---------------------------------------------------------------------------*/
FoamFile
{
    version     2.0;
    format      ascii;
    class       volScalarField;
    location    "0.5";
    object      p;
}
// * * * * * * * * * * * * * * * * * * * * * * * * * * * * * * * * * * * * * //

dimensions      [1 -1 -2 0 0 0 0];

internalField   nonuniform List<scalar> 
297
(
125122
125123
125122
206452
206454
206452
125122
125123
125122
125112
125113
125112
206466
206469
206466
125112
125113
125112
125111
125112
125111
206477
206472
206477
125111
125112
125111
97133.4
97138.2
97158.2
161150
161142
161172
97113.6
97119
97137.8
97232
97142
97254.3
160987
161121
160937
97207.5
97123.5
97235
96596.3
96486.1
96503.4
157064
159657
156876
96593.1
96481.7
96495.8
94904.3
96167.8
95033.8
158696
158531
158894
94929.9
96137.2
95033.8
96746.4
96920.1
96811.5
161215
160780
161181
96736.2
96871.9
96873.6
96882.1
97092.9
97009.6
161078
161106
161129
96775.5
97015.8
97131
90692.3
96088.6
90218.8
145205
157014
144962
90821.1
96067.6
90287.1
90112.7
96070.8
89619.4
143582
156796
143490
90264.2
96048.3
89704.3
90372.3
96090.4
89944.5
144493
156883
144537
90528.2
96066
90039.2
97187.3
97375.1
97286.6
160999
161127
161109
97035.2
97256.3
97334.3
97251.1
97421
97353.4
161031
161152
161125
97110.8
97295.3
97372.2
97277.6
97418.7
97375.7
161060
161168
161134
97142.6
97299.5
97383.1
97227.4
97153.1
97113.4
160988
160955
160885
97215.1
97118.4
97049.1
97156
96980.5
96837.3
160966
160926
160812
97174.4
97012.9
96856.8
97147
96942.3
96781.4
160974
160883
160686
97163.8
96984.9
96800.1
96885.1
97000.5
97087.7
160368
160659
160751
97089.9
97031.7
97036.7
96497.5
96796.7
97015.6
160250
160641
160767
96519.8
96741.9
96952.2
96380.9
96753.3
97017.5
160006
160553
160777
96354.2
96669.8
96951.9
99335.6
98460.1
97335.9
160364
160210
160099
99503.7
98841.7
97775.9
98394.3
97274.4
96548.7
159614
159196
159466
98594.2
97776.8
96830.8
97376.4
96474.9
95967.9
158781
158275
158529
97437
96675.2
96056.6
93506.6
93424.9
93338.7
153900
153727
153482
92682.3
92540.8
92369.1
91072.1
91190
91254.1
147892
147904
147856
88804.6
88744.3
88702.6
87177.3
87292.3
87439.1
138318
138337
138324
86792.6
86951.4
87226.2
97473.1
98250.1
98835.4
160746
160741
160840
97259.2
97795.3
98234.9
96975.8
97476.9
98177.9
160469
160298
160515
96884.8
97215.5
97721.9
96688.1
97020.7
97587.5
160068
159929
160197
96626.7
96826.6
97208.2
95685.2
95717
95781.6
158266
158357
158454
95450.9
95487
95537.6
94304.7
94255.8
94183.2
154895
154910
154905
94421.9
94404.2
94359.2
90686.2
90601.7
90525.9
144122
144098
144062
91507
91420.8
91322
)
;

boundaryField
{
    fuel
    {
        type            zeroGradient;
    }
    primary_air
    {
        type            zeroGradient;
    }
    Secondary_air_RHS
    {
        type            zeroGradient;
    }
    Secondary_air_LHS
    {
        type            zeroGradient;
    }
    outlet
    {
        type            totalPressure;
        rho             rho;
        psi             none;
        gamma           1;
        p0              uniform 100000;
        value           nonuniform List<scalar> 
18
(
92468.1
100000
92947.8
92268.7
100000
92819.8
92048.3
100000
92578.2
88711
100000
87819.9
88940.2
100000
91602.3
89345.2
100000
99748.2
)
;
    }
    stove_body
    {
        type            zeroGradient;
    }
    frontAndBack
    {
        type            empty;
    }
}


// ************************************************************************* //
