/*--------------------------------*- C++ -*----------------------------------*\
  =========                 |
  \\      /  F ield         | OpenFOAM: The Open Source CFD Toolbox
   \\    /   O peration     | Website:  https://openfoam.org
    \\  /    A nd           | Version:  6
     \\/     M anipulation  |
\*---------------------------------------------------------------------------*/
FoamFile
{
    version     2.0;
    format      ascii;
    class       volScalarField;
    location    "0.5";
    object      p;
}
// * * * * * * * * * * * * * * * * * * * * * * * * * * * * * * * * * * * * * //

dimensions      [1 -1 -2 0 0 0 0];

internalField   nonuniform List<scalar> 
297
(
111031
111031
111031
181041
181041
181041
111031
111031
111031
111030
111030
111030
181041
181041
181041
111030
111030
111030
111030
111030
111030
181042
181042
181042
111030
111030
111030
97527.7
97553.4
97538.1
159448
159432
159449
97537.9
97553.4
97528
97475.7
97500.1
97497.6
159258
159275
159258
97497.4
97500.1
97475.9
97369.5
97496.2
97450.7
158214
158766
158214
97450.5
97495.5
97369.6
97384.1
97444.3
97342.7
159283
158988
159281
97343.7
97444.1
97383.5
97341
97385.5
97262.2
159214
159164
159213
97262.3
97385.4
97340.8
97274.1
97380.3
97153.5
158961
159035
158963
97151.5
97379.3
97274.3
97233.2
97590.1
97185.8
156388
158289
156385
97186.9
97587.5
97231.5
97203.4
97585.9
97150.5
156180
158352
156177
97152.2
97583.9
97201.4
97189.5
97568.5
97143.5
156377
158517
156374
97145.5
97569.3
97187.7
97598.5
97627.3
97551.1
158934
159033
158936
97548.4
97625.7
97598.3
97663.4
97675.9
97637.5
159049
159047
159051
97634.5
97674.1
97663
97686.5
97685.6
97679.8
159125
159075
159127
97676.6
97683.7
97686
97695.9
97636.9
97600.1
158540
158693
158907
97662.3
97603.9
97560.7
97639.9
97539.8
97453.6
158801
158800
158916
97629.2
97540.9
97450.1
97615.6
97514
97432.1
158919
158806
158729
97612.5
97521.1
97421.5
97557.7
97602.4
97661.8
158907
158692
158538
97604.9
97639.5
97695.6
97447.3
97539.5
97628.8
158916
158800
158799
97458.1
97542.1
97639.4
97418.8
97519.8
97612.1
158729
158806
158917
97436.3
97515.9
97615
98419.1
98172.8
97761.3
159074
159057
159032
98671.4
98380.4
97876.6
98120.3
97808.6
97529.8
158987
158950
158989
98346.8
97964.2
97598.4
97782.7
97504.8
97324.1
158768
158640
158604
97990.7
97618.3
97375
96591.3
96517.5
96499.9
157258
157159
157091
96717.6
96624.9
96609.8
95339.9
95377.6
95429.9
153230
153213
153214
95226
95271.7
95339.4
92442.6
92523.7
92587.7
141635
141657
141692
92058
92131.3
92195.4
97871.1
98374.1
98664.7
159030
159055
159071
97765.7
98178.7
98425.7
97593
97958.6
98341.6
158987
158947
158985
97534.1
97814.1
98126
97369.4
97612.8
97988
158602
158636
158765
97328.1
97509.6
97786.6
96599.1
96615.1
96711.2
157084
157152
157252
96504.1
96522.8
96597.8
95357.5
95288.5
95237.8
153224
153223
153240
95417.1
95363.5
95324.7
92195.3
92131.2
92057.9
141692
141657
141635
92585.8
92521.7
92440.5
)
;

boundaryField
{
    fuel
    {
        type            zeroGradient;
    }
    primary_air
    {
        type            zeroGradient;
    }
    Secondary_air_RHS
    {
        type            zeroGradient;
    }
    Secondary_air_LHS
    {
        type            zeroGradient;
    }
    outlet
    {
        type            totalPressure;
        rho             rho;
        psi             none;
        gamma           1;
        p0              uniform 100000;
        value           nonuniform List<scalar> 
18
(
93550.1
100000
93840.5
93169.6
100000
93536.2
92007.4
100000
92324.3
92326.3
100000
92004.6
93536.5
100000
93169
93840.5
100000
93549.6
)
;
    }
    stove_body
    {
        type            zeroGradient;
    }
    frontAndBack
    {
        type            empty;
    }
}


// ************************************************************************* //
