/*--------------------------------*- C++ -*----------------------------------*\
  =========                 |
  \\      /  F ield         | OpenFOAM: The Open Source CFD Toolbox
   \\    /   O peration     | Website:  https://openfoam.org
    \\  /    A nd           | Version:  6
     \\/     M anipulation  |
\*---------------------------------------------------------------------------*/
FoamFile
{
    version     2.0;
    format      ascii;
    class       surfaceScalarField;
    location    "0.5";
    object      phi;
}
// * * * * * * * * * * * * * * * * * * * * * * * * * * * * * * * * * * * * * //

dimensions      [1 0 -1 0 0 0 0];

internalField   nonuniform List<scalar> 
675
(
-1.27046e-05
-0.000537211
0.00584995
1.27045e-05
-0.000579487
0.00585417
-0.00053721
0.00584995
-3.42354e-05
0.000537211
0.00770494
3.42355e-05
0.000579487
0.00751776
0.00053721
0.00770494
-1.27046e-05
0.00584995
1.27045e-05
0.00585418
0.00584995
-1.14587e-05
-0.000721425
0.006583
1.14587e-05
-0.0007967
0.00662813
-0.000721425
0.006583
-1.63257e-05
0.000721425
0.00627869
1.6326e-05
0.0007967
0.00589199
0.000721425
0.0062787
-1.14587e-05
0.006583
1.14588e-05
0.00662813
0.006583
-7.19354e-05
0.00135572
7.1936e-05
0.00118499
0.00135572
0.000244493
-0.00135572
-0.000244494
-0.00118499
-0.00135572
-7.19351e-05
7.19363e-05
-0.001246
0.00465114
0.00935256
-0.00449461
0.00456568
0.0114444
0.00682244
0.00144949
-1.96014e-05
-0.00398517
0.0298235
-0.00529142
-0.00403872
0.0350471
-0.0061464
0.0288556
-0.00134709
0.0101189
-0.00424916
0.0116231
0.00236826
0.0142663
0.0123447
-0.0172727
-0.0195692
0.00188398
0.0433764
0.0148648
-0.0329984
0.00336713
-0.0119067
0.0506809
-0.0104076
-0.00129975
0.0519805
-0.0139644
0.0472523
0.0130667
-0.0148697
-0.0195426
0.0429162
-0.0311542
0.0110917
0.0487697
-0.0771408
-0.00949034
0.0171015
0.0468446
0.0456399
-0.0881413
-0.0800711
-0.0490347
0.228534
0.080507
-0.0168706
-0.0746509
-0.045589
0.218959
0.0110612
-0.0749759
-0.0102086
0.0472965
-0.0869672
-0.0373201
-0.0373528
-0.0234333
0.0980959
0.0383573
0.00328975
-0.042028
-0.036948
-0.0379877
-0.0315123
0.107851
0.00838295
0.0364517
0.109104
-0.191315
-0.0132115
-0.00285604
-0.0723251
0.100035
0.0379002
0.0901926
-0.179301
-0.0380729
-0.0217267
0.0962359
0.0375078
-0.0409293
-0.0375241
-0.0315409
0.106939
0.00720076
-0.0205492
-0.0100955
-0.00437686
-0.00299172
-0.0274648
-0.0175538
-0.0183465
0.0297633
0.0219484
0.0368444
-0.0353656
0.00393469
-0.0141502
0.0182681
0.0189937
0.00587629
-0.00566743
-0.00710823
-0.0240182
-0.0203982
0.0155624
-0.0114763
-0.0142034
0.00531859
-0.000556648
-0.0166754
0.00170483
-0.0147362
-0.0115049
0.0103434
0.0265119
-0.0240071
0.0011402
-0.00336403
-0.00228518
-0.00104317
0.0157669
-0.0110936
0.00896779
-0.0160725
-0.0137247
-0.00133603
-0.00191492
-0.0833742
0.00133498
0.000451166
0.0437217
-0.00231318
-0.0939278
-0.00631059
0.00176797
0.215976
0.0059137
-0.000409664
-0.0860171
0.00226384
0.205135
-0.00134691
-0.0813592
0.00129206
0.0442468
-0.0928536
-0.0016341
-0.000219391
-0.0909445
0.00164772
-0.000835207
0.0412744
-0.000559549
-0.101093
-0.00234426
0.000142809
0.202942
0.0022695
0.00085787
-0.0923267
0.000521929
0.191317
-0.00165583
-0.0890006
0.00161247
0.0418353
-0.100101
-0.00280974
0.00051001
0.00299639
-0.0014805
0.000348231
-0.00237764
-0.00059573
0.00232158
0.00152546
-0.000429811
-0.00282807
0.00300746
0.00690826
-0.00310592
-0.00178387
-0.0162295
-0.00449496
-0.000318031
-0.00495572
-0.00173834
-0.00396681
-0.0135191
0.0012365
0.00327783
0.0104215
0.00846749
0.0027854
0.000764024
-0.00599955
0.000293996
-0.00562013
0.00532625
0.0117579
-0.00220373
-0.0173723
0.0010435
-0.00459708
-0.00243255
-0.00995777
0.00658918
0.00101805
0.00289944
-0.0122946
-0.00313798
0.00115295
0.00361936
0.00188005
0.00213748
-0.0111174
0.00289415
-0.00105732
0.00275131
0.00685043
0.0020638
-0.00200967
-0.00200882
-0.0022835
-0.00284423
0.00344787
0.0106277
0.000469041
-0.0143645
0.000531485
0.00349026
0.00359871
-0.00778708
0.000170602
0.0027268
2.05509e-06
0.000865418
0.00292496
0.00328941
-0.000287213
-0.000760079
-0.00209998
0.00834683
0.00258619
-0.00243329
-0.00328851
0.0063161
-0.00100173
-0.000629842
5.45416e-05
0.00036193
-0.0143812
-0.00080666
0.00167181
-0.0149465
-0.00124472
0.00180934
-0.00128589
0.00151899
-0.0151816
0.00463234
0.000287307
-0.000401337
0.00111162
0.000939604
0.0013351
0.00111827
0.00462963
-0.0059225
-0.0112177
0.00154732
-0.0119194
0.00164147
0.00164856
-0.0124508
-0.0112676
-0.000600902
0.00242565
-0.0108136
-3.09615e-05
0.00138669
-0.000349582
0.000954939
-0.00990229
0.0041989
0.000125725
-0.00188045
0.00295009
-4.50856e-05
0.00259666
0.000595265
0.00797318
-0.00133918
-0.00855641
0.00244207
-0.00860851
0.00164851
0.00180376
-0.00817081
0.00168059
0.000459031
0.00293295
0.000134877
-0.000440245
0.00432818
0.00550557
-0.00061228
0.00855718
-0.000321412
0.000788125
0.0153007
0.00219035
0.00351644
0.00610718
0.0174953
-0.00150028
0.00186866
-0.0178642
0.0174273
-0.00192234
0.00198879
-0.000766824
0.00196181
0.00428726
0.00152446
0.00522897
-0.0125463
-0.00319037
0.00229025
0.00326279
0.00103651
0.00347247
0.0185029
0.0019394
-0.01893
0.0183191
0.00246608
0.00198368
0.0119578
-0.00118551
0.00276634
-0.011669
0.0124111
-0.000805851
0.0023404
-0.000744519
0.0028202
-0.00387708
0.000525668
0.0114761
-0.00408512
-0.00761502
0.0003762
0.00581959
0.00115216
0.00081066
0.0129175
0.00169264
-0.012156
0.0139047
0.0018508
0.00267496
-0.00492534
-0.00118942
0.00888093
-0.00243411
-0.000151824
0.000387402
-0.0150256
0.000983279
0.0243301
-0.00979129
0.000433949
-0.000243613
-0.00408626
0.00676169
-0.00180113
0.0119528
0.00215796
-0.0141077
0.0185596
0.000603306
-0.00720742
0.00102068
-0.000323916
0.012532
-0.00353361
-0.00684656
0.0153637
-0.00265665
0.000421354
-0.00162705
0.00545906
0.0104394
-0.0139814
0.0183583
-0.0105852
-0.00221256
0.00895087
0.00179973
-0.0248565
0.0128861
0.000501442
-0.0116417
0.000894456
6.44082e-07
0.0105167
-0.0020143
-0.0135516
0.00842244
-0.00118636
0.00419816
-0.000816689
0.0115024
0.00857297
-0.0245654
0.0142169
-0.0174129
-0.000971939
0.00904162
0.00470657
-0.0386036
0.00236078
0.000262525
-0.0052216
-0.000600972
0.0118436
0.00226635
-0.00498971
-0.00611931
-0.0120332
-0.00142427
0.0201835
0.000565866
0.0226322
0.00971006
-0.0392584
0.00489355
-0.0140151
0.0112499
-0.00253768
0.0131475
-0.0492164
0.00570733
0.00796487
-0.0214249
0.00629776
0.0112615
0.0115162
-0.0077351
0.00326196
0.0167819
-0.00343096
0.0263158
-0.00195793
0.0476833
0.00163338
-0.0485867
0.0145762
-0.0303849
0.023866
-0.0211349
0.012183
-0.0402764
-0.0185144
0.0101761
-0.0342231
0.0105235
-0.0177781
-0.00590431
0.00154541
0.019796
-0.00576706
0.00216809
0.0341871
0.00215284
0.0502968
0.000222222
-0.0472678
0.00287591
-0.0308662
0.0288969
-0.00871192
0.01924
-0.0112333
0.0186581
0.0205487
-0.0117447
-0.0185571
-0.012532
-0.0186047
-0.0196882
-0.0134182
-0.0181906
-0.0154642
0.000711714
-0.000432024
-0.0098354
0.000202505
-0.00583421
0.00152323
-0.0113614
-0.00902455
-0.000619201
0.00443296
-0.00918252
-0.000131862
0.000491504
-0.00129091
-0.00637075
-0.0130037
-6.80532e-05
-0.00846722
-0.00467127
-0.00976292
-0.0103164
0.000582657
-0.00060411
-0.00717217
6.35323e-05
-0.00904652
0.000956321
-0.0194948
-0.00403487
-0.000576179
0.00828679
-0.00661105
-8.49117e-05
0.00321418
-0.000881849
-0.0111478
-0.00888066
6.30075e-05
-0.00602213
-0.00761836
-0.0166719
-0.00300706
-0.000449684
0.00717965
-0.00642538
-0.000197586
-0.00543404
0.0030602
-0.0289832
0.00845981
0.000698545
0.0139784
-0.00154304
1.97955e-05
0.0129983
-0.00270039
-0.00693442
-0.00140244
0.00827018
-0.00608796
-0.00291589
-0.0254635
-0.00470161
0.00351818
0.00836187
-0.000224877
0.0045503
-0.0144595
0.00888031
-0.0381
-0.0111758
-0.00085871
0.0295249
-0.00917963
-0.00262357
0.0181691
-0.00612414
-0.00112458
-0.00480714
0.0122135
-0.00386711
-0.00648307
-0.0354346
0.0132357
0.00705888
-0.0119388
0.0155086
0.00639639
-0.0231369
0.00776088
-0.0303579
0.00924726
-0.00803456
0.035362
0.00876195
-0.00803793
0.0330786
-0.00862872
0.0240118
0.0118279
-0.00765478
0.0143482
-0.0170485
-0.0297298
0.00793503
0.0225315
0.00710454
0.0205998
0.020196
0.0115554
-0.0253658
0.0120535
-0.022942
-0.021875
0.00808272
0.00953549
)
;

boundaryField
{
    fuel
    {
        type            calculated;
        value           nonuniform List<scalar> 
36
(
0.00529939
0.00874591
0.00529939
0.00529944
0.00874568
0.00529944
0.00529939
0.00874591
0.00529939
-0.00529987
-0.00874485
-0.00529987
-0.00529993
-0.00874493
-0.00529993
-0.00529987
-0.00874485
-0.00529987
0
0
0
0
0
0
0
0
0
0
0
0
0
0
0
0
0
0
)
;
    }
    primary_air
    {
        type            calculated;
        value           nonuniform List<scalar> 9(-0.0127765 -0.0211969 -0.0127739 -0.0127771 -0.0211959 -0.0127746 -0.0127798 -0.0211999 -0.0127771);
    }
    Secondary_air_RHS
    {
        type            calculated;
        value           nonuniform List<scalar> 9(0.00943426 0.0151588 0.0094414 0.00937158 0.0150049 0.00938046 0.00940558 0.0151143 0.00941548);
    }
    Secondary_air_LHS
    {
        type            calculated;
        value           nonuniform List<scalar> 9(0.00948377 0.0151843 0.00949725 0.00942316 0.0150145 0.00943901 0.00945031 0.0151098 0.00946662);
    }
    outlet
    {
        type            calculated;
        value           nonuniform List<scalar> 
18
(
-0.0424163
0.0716876
-0.0411114
-0.0429175
0.0761063
-0.0414512
-0.0434605
0.0781175
-0.0420771
-0.0508096
0.0693311
-0.0524104
-0.0503652
0.0722305
-0.0447009
-0.0495656
0.0780046
-0.00897586
)
;
    }
    stove_body
    {
        type            calculated;
        value           uniform 0;
    }
    frontAndBack
    {
        type            empty;
        value           nonuniform 0();
    }
}


// ************************************************************************* //
