/*--------------------------------*- C++ -*----------------------------------*\
  =========                 |
  \\      /  F ield         | OpenFOAM: The Open Source CFD Toolbox
   \\    /   O peration     | Website:  https://openfoam.org
    \\  /    A nd           | Version:  6
     \\/     M anipulation  |
\*---------------------------------------------------------------------------*/
FoamFile
{
    version     2.0;
    format      ascii;
    class       volScalarField;
    location    "0.5";
    object      Qdot;
}
// * * * * * * * * * * * * * * * * * * * * * * * * * * * * * * * * * * * * * //

dimensions      [1 -1 -3 0 0 0 0];

internalField   nonuniform List<scalar> 
297
(
0
7.87173e-05
0
0
0
0.000157435
3.12812e-05
0
4.74361e-05
0
0
3.12812e-05
0
0
0
0
7.87173e-05
0
0
3.12812e-05
3.12812e-05
0
-9.13483e-10
6.25624e-05
4.74361e-05
7.87173e-05
3.12812e-05
0
1.34278e-10
-9.13483e-10
-7.79205e-10
0
1.34278e-10
1.34278e-10
0
0
0
0
-9.09287e-10
-9.13483e-10
0
0
3.35695e-11
0
0
-9.13483e-10
0
0
0
6.7139e-11
0
0
-9.13483e-10
0
0
-9.13483e-10
0
-1.82697e-09
0
0
0
-9.13483e-10
-9.05091e-10
0
0
0
1.67848e-11
0
0
0
0
0
4.19619e-12
2.0981e-12
0
0
8.39238e-12
8.39238e-12
4.19619e-12
0
-9.13483e-10
0
0
-9.13483e-10
-9.13483e-10
0
-9.13483e-10
0
3.35695e-11
0
0
0
0
-9.13483e-10
0
0
0
0
0
0
0
0
0
0
-9.13483e-10
4.19619e-12
0
0
0
0
0
0
0
-1.82697e-09
-9.11385e-10
0
2.62262e-13
0
-9.13483e-10
0
0
4.19619e-12
0
0
-9.13483e-10
0
-9.13483e-10
0
1.31131e-13
0
0
-1.82644e-09
0
0
-9.13352e-10
-9.13483e-10
6.55655e-14
1.63914e-14
0
-1.82487e-09
2.62262e-13
1.31131e-13
-9.13352e-10
0
-9.13483e-10
-9.13483e-10
0
0
0
0
-9.13483e-10
0
-9.13467e-10
-9.13483e-10
3.27827e-14
-9.13483e-10
0
-1.82644e-09
-1.82697e-09
0
0
0
0
2.62262e-13
0
0
8.39238e-12
0
3.27827e-14
0
0
0
5.24524e-13
-9.13483e-10
0
0
0
-9.13483e-10
0
-9.12434e-10
-9.12434e-10
0
0
0
0
4.19619e-12
1.04905e-12
1.04905e-12
0
-9.13483e-10
0
0
3.27827e-14
0
6.55655e-14
3.27827e-14
0
-9.13451e-10
3.27827e-14
0
0
0
0
-1.82697e-09
0
6.55655e-14
1.31131e-13
3.27827e-14
0
0
3.27827e-14
-1.82697e-09
0
0
0
0
0
0
0
-9.13451e-10
0
0
0
0
0
0
0
-9.13221e-10
-9.13352e-10
1.04905e-12
0
-9.13483e-10
0
-9.13483e-10
0
0
-9.13483e-10
-9.13483e-10
-9.13483e-10
-9.12434e-10
1.63914e-14
0
0
0
0
-9.13483e-10
0
0
0
-9.13479e-10
4.09784e-15
0
0
-9.13483e-10
0
0
0
0
4.09784e-15
0
4.09784e-15
0
4.09784e-15
0
0
-1.82697e-09
0
0
0
-9.13483e-10
3.27827e-14
0
0
0
0
0
0
-9.13483e-10
0
0
8.19568e-15
-9.13483e-10
0
0
0
-9.13483e-10
0
4.09784e-15
0
0
6.25281e-20
0
0
0
5.00225e-19
0
0
)
;

boundaryField
{
    fuel
    {
        type            calculated;
        value           uniform 0;
    }
    primary_air
    {
        type            calculated;
        value           uniform 0;
    }
    Secondary_air_RHS
    {
        type            calculated;
        value           uniform 0;
    }
    Secondary_air_LHS
    {
        type            calculated;
        value           uniform 0;
    }
    outlet
    {
        type            calculated;
        value           uniform 0;
    }
    stove_body
    {
        type            calculated;
        value           uniform 0;
    }
    frontAndBack
    {
        type            empty;
    }
}


// ************************************************************************* //
