/*--------------------------------*- C++ -*----------------------------------*\
  =========                 |
  \\      /  F ield         | OpenFOAM: The Open Source CFD Toolbox
   \\    /   O peration     | Website:  https://openfoam.org
    \\  /    A nd           | Version:  6
     \\/     M anipulation  |
\*---------------------------------------------------------------------------*/
FoamFile
{
    version     2.0;
    format      ascii;
    class       volScalarField;
    location    "0.5";
    object      T;
}
// * * * * * * * * * * * * * * * * * * * * * * * * * * * * * * * * * * * * * //

dimensions      [0 0 0 1 0 0 0];

internalField   nonuniform List<scalar> 
297
(
295.877
295.901
295.879
306.451
306.291
306.456
295.877
295.901
295.879
296.075
296.096
296.077
325.749
326.173
325.753
296.075
296.096
296.077
301.985
301.888
301.991
328.429
328.777
328.436
301.986
301.889
301.991
293.305
295.909
293.337
294.892
295.964
294.883
293.334
295.906
293.305
297.24
297.66
298.115
297.649
296.983
297.66
298.109
297.656
297.244
300.053
297.67
300.992
300.172
300.973
300.174
300.992
297.667
300.057
296.599
295.812
296.907
303.255
302.748
303.259
296.905
295.81
296.6
295.662
295.65
296.464
303.241
303.203
303.244
296.461
295.648
295.664
295.063
295.417
295.753
303.044
302.467
303.047
295.748
295.414
295.065
300.492
297.085
301.48
301.197
302.017
301.198
301.484
297.076
300.494
299.435
296.592
299.617
301.489
302.022
301.49
300.056
296.572
299.124
298.804
295.956
299.176
302.445
302.124
302.438
299.174
295.956
298.806
295.235
295.377
295.578
302.78
299.653
302.784
295.572
295.374
295.236
294.634
294.898
294.929
302.527
299.655
302.53
294.922
294.894
294.635
294.677
294.789
294.846
300.818
299.811
300.82
294.839
294.785
294.678
294.872
294.067
293.748
302.77
302.791
302.791
294.59
293.858
293.561
295.086
294.093
293.771
302.427
302.078
302.181
294.779
293.888
293.616
294.833
294.172
293.909
300.637
300.101
300.126
294.664
293.989
293.781
293.558
293.857
294.591
302.788
302.787
302.767
293.744
294.061
294.864
293.613
293.888
294.779
302.179
302.076
302.424
293.769
294.088
295.08
293.78
293.988
294.664
300.125
300.099
300.635
293.908
294.167
294.827
293.463
293.783
293.287
298.094
298.794
302.797
293.954
294.135
293.572
293.249
293.669
293.389
298.126
299.839
302.394
293.751
294.046
293.71
292.729
293.686
294.034
298.108
300.198
300.993
293.228
294.073
293.796
292.469
293.168
292.083
298.221
298.369
298.384
292.975
293.267
291.887
291.423
292.692
292.955
297.935
296.427
295.84
291.705
292.662
293.02
287.935
287.311
287.287
285.037
282.629
283.275
288.103
287.506
287.496
293.574
294.137
293.96
302.799
298.796
298.095
293.293
293.792
293.474
293.711
294.049
293.747
302.395
299.841
298.128
293.396
293.673
293.232
293.795
294.069
293.17
300.993
300.198
298.106
294.036
293.682
292.761
291.879
293.257
292.926
298.381
298.364
298.214
292.084
293.169
292.475
293.037
292.679
291.754
295.846
296.433
297.938
292.947
292.683
291.41
287.496
287.505
288.103
283.275
282.629
285.035
287.286
287.31
287.934
)
;

boundaryField
{
    fuel
    {
        type            fixedValue;
        value           uniform 293;
    }
    primary_air
    {
        type            fixedValue;
        value           uniform 293;
    }
    Secondary_air_RHS
    {
        type            fixedValue;
        value           uniform 293;
    }
    Secondary_air_LHS
    {
        type            fixedValue;
        value           uniform 293;
    }
    outlet
    {
        type            inletOutlet;
        inletValue      uniform 293;
        value           nonuniform List<scalar> 
18
(
293
283.275
293
293
282.629
293
293
285.035
293
293
285.038
293
293
282.63
293
293
283.276
293
)
;
    }
    stove_body
    {
        type            fixedValue;
        value           uniform 293;
    }
    frontAndBack
    {
        type            empty;
    }
}


// ************************************************************************* //
