/*--------------------------------*- C++ -*----------------------------------*\
  =========                 |
  \\      /  F ield         | OpenFOAM: The Open Source CFD Toolbox
   \\    /   O peration     | Website:  https://openfoam.org
    \\  /    A nd           | Version:  6
     \\/     M anipulation  |
\*---------------------------------------------------------------------------*/
FoamFile
{
    version     2.0;
    format      ascii;
    class       volScalarField;
    location    "0.5";
    object      T;
}
// * * * * * * * * * * * * * * * * * * * * * * * * * * * * * * * * * * * * * //

dimensions      [0 0 0 1 0 0 0];

internalField   nonuniform List<scalar> 
297
(
292.185
292.185
292.185
293
293
293
292.185
292.185
292.185
292.184
292.19
292.184
293.004
293.055
293.004
292.184
292.19
292.184
292.117
292.157
292.117
292.862
544.36
292.862
292.117
292.157
292.117
292.33
292.357
292.441
293.026
293.061
293.061
292.316
292.351
292.432
288.103
290.038
288.622
290.145
292.094
290.386
288.101
290.122
288.486
286.296
288.561
288.747
287.829
290.077
288.607
285.748
288.401
288.491
287.062
291.748
288.082
287.492
288.598
288.849
286.858
291.184
287.949
288.256
293.634
292.013
287.705
288.836
288.841
287.184
292.656
292.074
295.066
297.712
296.943
288.524
291.098
290.646
293.981
297.747
296.837
284.814
288.406
286.413
284.415
288.32
285.799
284.409
288.284
286.222
285.305
288.518
286.679
282.799
288.197
284.354
284.996
288.399
286.397
286.361
288.535
287.272
282.349
288.16
284.053
286.125
288.421
287.255
298.83
298.63
296.666
288.513
295.123
297.57
298.663
299.085
296.259
300.317
299.351
296.887
290.44
298.414
298.202
299.744
299.806
296.387
300.435
299.476
297.383
298.05
300.336
298.713
299.619
299.793
296.548
296.703
296.603
296.417
297.594
297.538
297.446
295.732
295.662
295.479
296.925
296.822
296.768
298.097
297.896
297.537
295.927
295.868
295.746
296.953
296.825
296.758
298.075
297.888
297.558
296.168
296.007
296.091
300.392
300.312
300.087
303.07
297.03
288.453
300.576
300.481
300.119
300.895
300.705
300.056
301.427
290.654
289.029
299.856
300.071
299.499
299.937
300.445
300.343
295.492
294.32
297.208
298.921
299.644
299.839
301.054
301.072
300.257
302.743
302.824
302.772
301.281
301.104
300.439
300.653
301.079
300.92
302.789
302.839
302.648
300.68
299.497
299.552
299.508
301.082
300.086
302.61
300.321
297.532
299.685
298.739
299.031
297.702
300.836
295.799
303.021
299.667
295.447
297.848
295.867
295.504
293.906
296.845
299.183
300.939
297.531
293.935
293.177
294.238
294.476
291.689
291.316
290.836
289.058
286.469
282.748
291.133
289.943
295.028
296.452
296.98
296.983
297.403
297.469
297.453
295.342
295.734
295.638
296.838
296.769
296.391
297.361
297.553
297.457
295.701
295.705
295.184
296.879
296.808
295.773
297.326
297.346
297.351
296.123
295.817
294.659
294.375
296.466
294.754
295.769
296.22
297.467
294.038
295.736
294.113
295.921
295.188
292.945
294.03
294.366
296.047
295.271
295.527
292.467
290.336
290.161
290.073
284.421
283.267
282.684
289.867
289.664
289.648
)
;

boundaryField
{
    fuel
    {
        type            fixedValue;
        value           uniform 293;
    }
    primary_air
    {
        type            fixedValue;
        value           uniform 293;
    }
    Secondary_air_RHS
    {
        type            fixedValue;
        value           uniform 293;
    }
    Secondary_air_LHS
    {
        type            fixedValue;
        value           uniform 293;
    }
    outlet
    {
        type            inletOutlet;
        inletValue      uniform 293;
        value           nonuniform List<scalar> 
18
(
293
284.421
293
293
283.268
293
293
282.684
293
293
289.059
293
293
286.469
293
293
282.747
293
)
;
    }
    stove_body
    {
        type            fixedValue;
        value           uniform 293;
    }
    frontAndBack
    {
        type            empty;
    }
}


// ************************************************************************* //
