/*--------------------------------*- C++ -*----------------------------------*\
  =========                 |
  \\      /  F ield         | OpenFOAM: The Open Source CFD Toolbox
   \\    /   O peration     | Website:  https://openfoam.org
    \\  /    A nd           | Version:  6
     \\/     M anipulation  |
\*---------------------------------------------------------------------------*/
FoamFile
{
    version     2.0;
    format      ascii;
    class       volVectorField;
    location    "0.5";
    object      U;
}
// * * * * * * * * * * * * * * * * * * * * * * * * * * * * * * * * * * * * * //

dimensions      [0 1 -1 0 0 0 0];

internalField   nonuniform List<vector> 
297
(
(55.775 -0.0333351 10.4812)
(55.7746 -4.07627e-07 10.4811)
(55.775 0.0333346 10.4812)
(1.31434e-08 -0.0820947 9.81882)
(1.26759e-08 6.89943e-07 9.77575)
(1.21719e-08 0.0820938 9.81882)
(-55.775 -0.033335 10.4812)
(-55.7746 -2.19467e-07 10.4811)
(-55.775 0.0333347 10.4812)
(55.721 -0.0317815 10.678)
(55.7226 -1.8852e-08 10.6975)
(55.7211 0.0317815 10.678)
(1.15971e-08 0.185244 8.51011)
(1.13979e-08 -7.48944e-07 9.13345)
(1.0977e-08 -0.185242 8.51011)
(-55.721 -0.0317814 10.678)
(-55.7226 1.85895e-07 10.6975)
(-55.7211 0.0317816 10.678)
(56.548 -0.316629 14.6495)
(56.5702 1.33655e-06 14.7765)
(56.548 0.31663 14.6495)
(1.18749e-08 -3.31221 6.90011)
(1.44152e-08 1.51015e-05 3.56304)
(1.14077e-08 3.31218 6.90014)
(-56.548 -0.316628 14.6495)
(-56.5702 3.08235e-06 14.7765)
(-56.548 0.316631 14.6495)
(36.5947 -0.390721 5.93672)
(36.5895 -1.50035 9.02246)
(36.6278 -1.21594 4.98508)
(-0.00169626 -0.208588 10.6929)
(-0.00164526 -0.978236 10.0241)
(-0.00174933 -0.775463 10.5813)
(-36.597 -0.42389 6.11695)
(-36.5941 -1.45879 8.99673)
(-36.6307 -1.1414 4.91448)
(36.6833 8.02802 25.9068)
(36.7858 -1.71944 22.5353)
(37.0741 -9.59045 17.3835)
(-0.00208454 11.1606 49.3173)
(-0.00157757 -1.74333 36.6972)
(-0.00164839 -12.4959 47.3082)
(-36.6365 7.55004 26.5357)
(-36.7508 -2.26343 22.6303)
(-37.0257 -9.28532 18.5104)
(36.1519 8.472 13.1102)
(36.9616 -2.65588 29.9946)
(36.4002 -4.00006 -3.15039)
(-0.000274593 -9.49804 72.5703)
(-0.000375972 -0.977294 22.3187)
(-0.000676444 11.5911 69.563)
(-36.0886 8.983 15.6905)
(-36.9208 -3.21239 30.4094)
(-36.3709 -4.34111 -2.06507)
(36.8954 -11.8189 -54.2062)
(36.8537 2.21909 -14.6736)
(37.051 9.90238 -62.9556)
(0.00221268 -0.189768 29.3745)
(-0.00270002 -1.72417 -30.9809)
(2.06453e-06 2.21912 17.0714)
(-36.8588 -12.6395 -51.8621)
(-36.7811 1.40009 -13.2406)
(-37.0323 10.3523 -61.2063)
(37.167 14.999 -32.9925)
(37.6956 4.80532 -42.1972)
(37.6739 -19.8028 -43.546)
(-0.000871384 6.01792 4.98131)
(-0.00418159 -0.622641 -19.1853)
(0.00538494 -6.72844 -6.48866)
(-37.0143 11.3806 -30.453)
(-37.5828 2.95712 -41.4927)
(-37.6152 -14.7935 -42.2029)
(37.9959 19.4143 -15.9566)
(38.2939 12.1258 -17.1907)
(38.3128 -18.0935 -18.0112)
(-0.00922547 2.01388 6.40662)
(-0.00674788 -8.71245 -14.03)
(0.0106109 -7.10332 -1.5873)
(-37.9454 13.2694 -14.7098)
(-38.3367 18.0336 -12.7018)
(-38.2178 -7.82337 -17.1893)
(31.1725 6.34289 -72.1539)
(35.9655 1.01097 35.2168)
(30.4606 -4.92701 -81.5895)
(0.0123267 -4.45831 98.2907)
(-0.00167439 -1.6915 -41.5609)
(0.0065358 6.95704 94.2346)
(-31.2947 6.61193 -70.3573)
(-35.9008 0.711916 35.6174)
(-30.5388 -5.13551 -80.5919)
(32.3415 -0.93914 -75.7196)
(33.8628 1.38279 34.3009)
(31.8042 0.676791 -85.0693)
(0.0116121 -1.62524 109.215)
(-0.0017799 -1.88132 -44.0882)
(0.00662732 4.14906 104.392)
(-32.4377 -1.1507 -73.7749)
(-33.7988 1.12074 34.7131)
(-31.8486 0.676643 -83.9826)
(34.8962 -5.30153 -69.9347)
(34.1586 2.00989 32.2991)
(35.0081 4.65741 -79.602)
(0.0111704 0.918741 107.967)
(-0.00212798 -1.90911 -44.4962)
(0.0069308 1.53458 102.832)
(-34.9638 -5.55286 -67.687)
(-34.0954 1.89876 32.6978)
(-35.1428 4.70836 -78.2138)
(38.0822 37.8874 -8.05367)
(38.1541 4.17165 -9.29152)
(37.8459 -32.4048 -8.64424)
(-0.0132104 -3.25544 7.67876)
(-0.0105317 3.8769 -1.98202)
(0.00426428 4.8812 -2.39483)
(-38.1684 39.9502 -6.06296)
(-38.2527 29.7931 -9.99281)
(-37.8843 -22.1048 -7.61684)
(38.5409 29.6694 4.80914)
(38.3403 8.20213 0.807684)
(38.1242 -25.9901 2.92193)
(-0.0122173 -1.50766 6.52983)
(-0.0112616 8.60919 -1.70968)
(0.0016825 -0.963775 -1.21013)
(-38.566 33.9515 4.267)
(-38.5458 27.1372 1.64642)
(-38.0812 -16.2148 3.09179)
(38.6662 -4.45499 -1.22537)
(38.4945 2.6159 1.41972)
(38.2654 6.21764 -1.7726)
(-0.0121118 -12.259 -1.60368)
(-0.010768 3.8269 0.391483)
(0.000664722 6.43765 -1.50894)
(-38.6066 -20.8437 -5.13385)
(-38.5744 13.201 0.870621)
(-38.1534 -1.57618 0.7481)
(37.8179 -37.2152 -3.93362)
(37.7662 -42.9752 -8.02313)
(37.6655 -46.7456 -9.5591)
(-0.00110059 7.15394 -1.6844)
(-0.00310804 11.6392 -0.470926)
(-0.00572439 -6.54359 1.24183)
(-37.8188 -29.2917 -2.7824)
(-37.7461 -33.4371 -6.04935)
(-37.6514 -38.1082 -7.1085)
(37.9384 -30.7598 5.9501)
(38.2001 -34.6915 4.91005)
(38.2026 -35.8001 1.76402)
(0.00164282 5.37076 -1.84221)
(0.00289835 12.7464 2.96896)
(0.00174143 2.1974 9.58585)
(-37.9087 -23.5335 5.61068)
(-38.0701 -25.8548 5.00027)
(-38.0036 -29.2666 3.22143)
(38.1716 -1.20102 6.97297)
(38.2412 3.42423 7.55356)
(38.1474 11.9835 10.8589)
(0.00151611 9.59167 -0.511648)
(0.00381829 13.457 0.530645)
(0.00166496 22.9658 5.76735)
(-38.0879 1.0185 5.80246)
(-38.1434 6.98634 6.12835)
(-37.9634 12.6346 8.49782)
(37.8507 55.9865 -11.2884)
(37.9354 49.9226 -9.48428)
(38.2486 46.1395 -5.25087)
(0.0185131 20.8666 -2.11413)
(0.00278006 -2.99822 1.70387)
(-0.00441563 -13.6689 6.67899)
(-37.6758 57.6489 -11.7794)
(-37.7734 52.5241 -8.90893)
(-38.2246 49.6603 -5.06536)
(38.4938 42.6329 5.48792)
(38.558 35.6704 8.35957)
(38.3405 33.1807 8.0812)
(0.00200889 3.56702 15.4546)
(-0.00477146 -20.3397 8.24025)
(-0.00550057 -11.6762 3.07392)
(-38.5276 46.0155 1.5779)
(-38.6097 43.0901 7.39054)
(-38.2278 37.6846 7.75235)
(38.2957 -18.1679 11.6811)
(38.6558 -8.79682 7.76096)
(38.6001 -3.54261 7.59121)
(-0.00236038 -36.8147 6.91815)
(-0.00740708 -25.011 -0.105772)
(-0.0058941 -18.1688 -0.727793)
(-38.2544 -17.8595 14.7565)
(-38.5629 -4.36328 8.58535)
(-38.5561 1.75648 7.4929)
(37.4213 23.7495 -35.381)
(37.1911 31.573 -26.4678)
(38.2266 53.5582 -20.7819)
(0.0151418 18.3311 -14.815)
(0.0345266 20.521 -10.7243)
(0.0396717 26.5482 -3.82879)
(-37.9377 18.5484 -36.3863)
(-37.9268 28.7413 -31.9189)
(-38.2346 50.0575 -24.8682)
(37.6605 3.94784 -56.519)
(37.6216 22.563 -32.69)
(38.6148 40.6734 -5.75747)
(0.0179423 9.14469 -15.9496)
(0.0458163 13.856 -2.92786)
(0.0255701 19.5548 17.4311)
(-37.6643 9.47379 -55.3769)
(-37.4474 23.9233 -44.9198)
(-38.2305 37.0652 -13.2244)
(38.8911 -0.411759 -71.3083)
(37.7907 18.2214 -22.8426)
(37.668 -13.3633 16.0351)
(0.00549282 6.48487 -23.9048)
(0.0180335 -11.7038 24.411)
(0.00771394 -30.5439 23.587)
(-38.973 3.63826 -72.7274)
(-37.9415 16.0957 -47.4745)
(-37.5005 -3.3789 18.9357)
(38.3694 -13.9071 -96.3328)
(38.521 3.23766 4.47387)
(37.728 -2.95503 97.6954)
(-0.0785173 -9.27745 11.6501)
(-0.0832633 11.8001 51.9799)
(-0.0901897 -11.0103 93.295)
(-38.6278 -5.05975 -107.334)
(-38.2146 -4.71397 -55.2649)
(-38.1055 6.9759 54.8938)
(37.0679 -1.02021 -129.594)
(37.2648 -14.9049 -94.3421)
(37.5356 -3.61619 -6.90309)
(-0.223187 -1.68544 41.0299)
(-0.237487 1.23417 75.7333)
(-0.244334 -8.5787 110.634)
(-37.641 0.502403 -139.557)
(-37.7819 -4.0809 -105.107)
(-37.7922 5.75646 89.504)
(35.9923 -2.56617 -148.773)
(35.884 -4.34729 -147.065)
(35.9217 -2.60014 -144.019)
(-0.038242 -3.33723 174.519)
(-0.0334515 -3.60429 180.345)
(-0.020565 -5.05095 192.518)
(-36.0656 -4.47601 -155.315)
(-35.8827 -8.34363 -126.274)
(-36.4713 -1.07312 -20.9537)
(37.861 -44.1745 -17.7012)
(37.0415 -26.0316 -21.3566)
(37.226 -19.4905 -28.765)
(-0.0190249 -16.1795 -1.20026)
(-0.0405193 -13.1906 -7.05462)
(-0.0532822 -12.4771 -11.7211)
(-37.824 -37.339 -14.0426)
(-37.1553 -21.8192 -17.4735)
(-37.3043 -16.3114 -24.1546)
(38.1489 -31.3373 -5.24798)
(37.4039 -18.5078 -26.8246)
(37.3127 -3.90357 -46.2344)
(-0.00811014 -11.9363 12.1441)
(-0.0233865 -7.50549 -2.17107)
(-0.0402698 -4.69448 -14.6074)
(-38.0597 -27.3572 -3.69063)
(-37.4571 -15.3915 -21.899)
(-37.4052 -2.347 -40.3302)
(37.7516 0.291498 10.1989)
(37.5162 -11.965 -16.6402)
(38.2184 -0.41639 -57.1799)
(-0.00538409 18.9901 15.4772)
(-0.017318 8.67873 17.0776)
(-0.0337053 -3.21751 -18.8312)
(-37.5506 10.1656 11.4668)
(-37.6047 -13.223 -13.7918)
(-38.1717 0.086986 -51.2256)
(37.7871 -3.85139 68.6434)
(38.128 -0.90292 3.18188)
(38.0815 9.75005 -71.9155)
(-0.0212115 6.16215 58.0825)
(-0.0208215 -8.34217 35.7478)
(-0.0221884 8.06712 8.08857)
(-37.7817 2.44821 65.1033)
(-38.0992 -5.08507 14.5245)
(-38.0347 8.503 -67.0582)
(37.5834 1.61793 -0.0777193)
(37.4995 10.2938 -56.1728)
(37.3375 0.823984 -95.0586)
(0.0107394 4.26692 84.4783)
(0.0136085 2.71247 65.0286)
(0.0162484 1.38077 31.4121)
(-37.4886 2.96689 27.1516)
(-37.5508 9.11505 -20.2836)
(-37.2204 1.63734 -86.7473)
(36.0423 1.74424 -119.026)
(35.9187 3.29075 -120.721)
(35.9116 1.92648 -122.576)
(0.07694 2.83042 177.275)
(0.0764688 4.14361 187.708)
(0.0741813 2.65909 192.389)
(-35.8081 1.75697 -114.876)
(-35.6464 3.95514 -115.993)
(-35.6063 2.5998 -118.082)
)
;

boundaryField
{
    fuel
    {
        type            fixedValue;
        value           uniform (0 0 10);
    }
    primary_air
    {
        type            fixedValue;
        value           uniform (0 0 10);
    }
    Secondary_air_RHS
    {
        type            fixedValue;
        value           uniform (0 79.5 0);
    }
    Secondary_air_LHS
    {
        type            fixedValue;
        value           uniform (0 -79.5 0);
    }
    outlet
    {
        type            pressureInletOutletVelocity;
        value           nonuniform List<vector> 
18
(
(0 0 -119.026)
(0.07694 2.83042 177.275)
(0 0 -114.876)
(0 0 -120.721)
(0.0764688 4.14361 187.708)
(0 0 -115.993)
(0 0 -122.576)
(0.0741813 2.65909 192.389)
(0 0 -118.082)
(0 0 -148.773)
(-0.038242 -3.33723 174.519)
(0 0 -155.315)
(0 0 -147.065)
(-0.0334515 -3.60429 180.345)
(0 0 -126.274)
(0 0 -144.019)
(-0.020565 -5.05095 192.518)
(0 0 -20.9537)
)
;
    }
    stove_body
    {
        type            noSlip;
    }
    frontAndBack
    {
        type            empty;
    }
}


// ************************************************************************* //
