/*--------------------------------*- C++ -*----------------------------------*\
  =========                 |
  \\      /  F ield         | OpenFOAM: The Open Source CFD Toolbox
   \\    /   O peration     | Website:  https://openfoam.org
    \\  /    A nd           | Version:  6
     \\/     M anipulation  |
\*---------------------------------------------------------------------------*/
FoamFile
{
    version     2.0;
    format      ascii;
    class       volScalarField;
    location    "2.5";
    object      O2;
}
// * * * * * * * * * * * * * * * * * * * * * * * * * * * * * * * * * * * * * //

dimensions      [0 0 0 0 0 0 0];

internalField   nonuniform List<scalar> 
297
(
0
0
0
0
0
0
0
0
0
0
0
0
0
0
0
0
0
0
0
0
0
0
0
0
0
0
0
0.10292
0.176805
0.109737
0.195339
0.218517
0.197906
0.102699
0.176881
0.110229
0
0.0491597
0
0.0399653
0.165514
0.0430578
0
0.0491837
0
0
0.0466018
0
0.0260013
0.0403499
0.026474
0
0.0466142
0
0.00713666
0.0193271
0.00709701
0
0.00314606
0
0.00724827
0.0193221
0.00721323
4.20097e-07
3.84424e-07
7.71957e-07
1.09692e-06
3.09281e-07
2.17444e-06
4.23267e-07
3.85455e-07
7.764e-07
7.10489e-12
1.54484e-11
1.91304e-11
1.98786e-11
1.27285e-11
4.06979e-11
7.15775e-12
1.55012e-11
1.92053e-11
0
0.0457277
0
0
0.00314682
0
0
0.045737
0
0
0.0453027
0
0
0.00314628
0
0
0.0453112
0
0
0.043903
0
0
0.00314614
0
0
0.0439108
0
2.092e-16
9.73356e-16
5.99497e-16
3.97156e-16
3.74885e-16
8.28709e-16
2.3169e-16
9.47212e-16
6.10588e-16
2.82093e-20
2.74488e-19
1.02123e-19
3.51998e-20
6.19799e-20
4.57518e-20
2.30372e-20
2.49346e-19
8.22331e-20
2.4361e-23
9.84676e-20
8.24524e-23
9.70088e-24
2.39444e-20
1.04312e-23
2.0474e-23
9.01845e-20
6.83624e-23
1.12674e-20
3.60298e-25
5.51904e-30
1.15368e-20
1.75702e-25
2.85302e-30
1.14669e-20
3.66505e-25
5.61481e-30
1.7817e-24
7.58947e-29
3.0732e-33
1.28964e-24
6.77507e-27
2.90096e-31
1.43477e-24
7.55847e-29
3.44383e-33
6.92044e-27
1.97274e-29
2.46348e-33
7.27933e-28
3.14978e-28
2.68237e-32
5.80386e-27
1.97415e-29
2.46667e-33
1.02757e-30
6.6945e-26
3.95156e-21
1.16385e-30
7.60068e-26
5.53685e-21
2.29464e-30
7.44903e-26
4.37682e-21
1.12945e-33
2.02071e-29
5.27815e-25
1.1824e-31
2.90645e-27
8.23517e-25
1.69319e-33
3.41363e-29
8.12392e-25
1.5097e-33
4.35076e-30
2.04527e-27
1.97123e-32
6.95408e-29
4.9742e-28
1.58481e-33
6.95753e-30
1.81226e-27
1.08606e-43
1.67972e-39
4.52226e-35
6.29892e-43
3.42241e-39
3.0934e-35
7.23008e-43
7.16909e-39
1.01017e-34
3.84173e-46
2.45127e-42
5.62163e-38
8.16148e-45
8.01594e-41
2.42732e-36
2.60707e-45
3.29965e-42
7.69444e-38
3.61374e-46
7.63376e-43
3.33001e-38
3.9916e-45
1.92457e-41
5.33705e-37
2.535e-45
1.01937e-42
3.82629e-38
4.50432e-46
5.43548e-45
1.53279e-43
4.42036e-45
1.92281e-41
1.92257e-39
2.55285e-45
1.60543e-44
3.02126e-43
5.53091e-48
1.54269e-46
3.34029e-45
6.78224e-43
2.12916e-41
6.40073e-40
5.72408e-48
2.44763e-46
3.29522e-45
1.10878e-48
3.09033e-47
5.34449e-46
3.23475e-43
8.91184e-42
1.88054e-40
1.96053e-48
5.58046e-47
8.54738e-46
1.29665e-34
9.16353e-39
9.21862e-43
7.65533e-35
3.79976e-39
9.02236e-43
2.45415e-34
9.55443e-39
9.66185e-43
1.23708e-37
5.27888e-42
8.46329e-46
5.86077e-36
1.8769e-40
1.66503e-44
1.41519e-37
4.9589e-42
4.68783e-45
6.15486e-38
1.40332e-42
7.91774e-46
7.28101e-37
2.55217e-41
6.46153e-45
5.94106e-38
1.55848e-42
4.71289e-45
2.6827e-43
9.3945e-45
1.00706e-45
1.80088e-39
1.95506e-41
7.10481e-45
4.48976e-43
3.28258e-44
4.84305e-45
1.86853e-45
2.0894e-46
5.73214e-48
4.46378e-40
2.35233e-41
9.37686e-43
2.68839e-45
2.21414e-46
8.3865e-48
4.48653e-46
4.32793e-47
1.63999e-48
1.4031e-40
1.16957e-41
4.70025e-43
8.0915e-46
8.11804e-47
2.91462e-48
)
;

boundaryField
{
    fuel
    {
        type            fixedValue;
        value           uniform 0;
    }
    primary_air
    {
        type            fixedValue;
        value           uniform 0.23;
    }
    Secondary_air_RHS
    {
        type            fixedValue;
        value           uniform 0.23;
    }
    Secondary_air_LHS
    {
        type            fixedValue;
        value           uniform 0.23;
    }
    outlet
    {
        type            inletOutlet;
        inletValue      uniform 0;
        value           nonuniform List<scalar> 
18
(
0
1.4031e-40
0
0
1.16957e-41
0
0
4.70025e-43
0
0
3.23475e-43
0
0
8.91184e-42
0
0
1.88054e-40
0
)
;
    }
    stove_body
    {
        type            fixedValue;
        value           uniform 0;
    }
    frontAndBack
    {
        type            empty;
    }
}


// ************************************************************************* //
