/*--------------------------------*- C++ -*----------------------------------*\
  =========                 |
  \\      /  F ield         | OpenFOAM: The Open Source CFD Toolbox
   \\    /   O peration     | Website:  https://openfoam.org
    \\  /    A nd           | Version:  6
     \\/     M anipulation  |
\*---------------------------------------------------------------------------*/
FoamFile
{
    version     2.0;
    format      ascii;
    class       volScalarField;
    location    "2.5";
    object      p;
}
// * * * * * * * * * * * * * * * * * * * * * * * * * * * * * * * * * * * * * //

dimensions      [1 -1 -2 0 0 0 0];

internalField   nonuniform List<scalar> 
297
(
111538
111538
111538
185857
185857
185857
111538
111538
111538
111538
111537
111538
185857
185857
185857
111538
111537
111538
111537
111537
111537
185857
185857
185857
111537
111537
111537
97602.8
97497.7
97592.7
162308
162242
162309
97603.5
97497.7
97591.9
97825.4
97007.2
97855.8
161716
161667
161740
97827.7
97007.8
97855.3
95213.1
94653.4
95480.8
154078
158238
154393
95216.6
94653.5
95479
92822
95100.7
92565.4
157858
156834
157752
92819.3
95101.3
92571.4
96920.5
97005.6
96844.8
161637
160789
161638
96920.7
97006
96845.5
97021
97242.7
96990.4
161580
161960
161665
97021
97242.7
96990.2
78113.9
92559.5
78386.7
127915
154085
127085
78089.3
92558.6
78381.6
78054.8
92469.1
78129.2
126651
154123
125411
78030.6
92468.2
78124.7
80059
92747
79986.5
128875
155091
127348
80040.2
92746.1
79982.9
97390.4
97475.1
97384.4
162138
162322
162140
97390.5
97474.9
97384
97459.8
97477.6
97452.2
162298
162378
162289
97459.9
97477.5
97451.8
97461.6
97473.6
97455.1
162375
162398
162361
97461.7
97473.6
97454.7
97528.2
97634.2
97875.9
162258
162333
162469
97528.1
97634.5
97875.5
97471.5
97498.1
97651.5
162269
162280
162336
97471.3
97498.3
97651.4
97413
97339.7
97275.7
162327
162284
162254
97412.8
97339.8
97276.1
97874.4
97634
97531
162476
162340
162267
97874.6
97634.3
97531.3
97653.6
97500.5
97475.4
162346
162289
162280
97654
97501
97475.7
97282.9
97345.4
97417.9
162264
162294
162339
97283.7
97346
97418.3
98424.7
98330.2
98141.2
162930
162851
162687
98424.6
98330.3
98141.2
98285.2
98160.8
97945.7
162748
162681
162525
98285
98160.8
97945.8
98125.1
97984.1
97725.6
162504
162429
162317
98124.9
97983.9
97725.7
97173.8
97118.4
97014.5
161254
161205
161118
97173.7
97118.1
97014.3
92208.7
92223.9
92261.9
152935
152941
152943
92209.3
92224.4
92262.4
85015.3
85014.8
85017.6
137087
137091
137086
85015.4
85014.9
85017.7
98143.7
98336.2
98432.7
162677
162843
162929
98142.6
98335.2
98432
97944.3
98163.9
98290
162512
162671
162743
97943.3
98163.1
98289.3
97720.6
97982.9
98125.8
162302
162417
162494
97719.8
97982
98124.9
97003.6
97108.4
97166.6
161104
161192
161241
97003.4
97108.1
97166.5
92248.1
92209.4
92194
152919
152918
152912
92247.7
92209
92193.7
84993.3
84990.4
84990.9
137045
137051
137047
84993.4
84990.6
84991.1
)
;

boundaryField
{
    fuel
    {
        type            zeroGradient;
    }
    primary_air
    {
        type            zeroGradient;
    }
    Secondary_air_RHS
    {
        type            zeroGradient;
    }
    Secondary_air_LHS
    {
        type            zeroGradient;
    }
    outlet
    {
        type            totalPressure;
        rho             rho;
        psi             none;
        gamma           1;
        p0              uniform 100000;
        value           nonuniform List<scalar> 
18
(
88616.9
100000
88617.1
88590
100000
88590.1
88586.7
100000
88586.9
88608.4
100000
88608.7
88611.6
100000
88611.9
88638.2
100000
88638.4
)
;
    }
    stove_body
    {
        type            zeroGradient;
    }
    frontAndBack
    {
        type            empty;
    }
}


// ************************************************************************* //
