/*--------------------------------*- C++ -*----------------------------------*\
  =========                 |
  \\      /  F ield         | OpenFOAM: The Open Source CFD Toolbox
   \\    /   O peration     | Website:  https://openfoam.org
    \\  /    A nd           | Version:  6
     \\/     M anipulation  |
\*---------------------------------------------------------------------------*/
FoamFile
{
    version     2.0;
    format      ascii;
    class       volScalarField;
    location    "2.5";
    object      Qdot;
}
// * * * * * * * * * * * * * * * * * * * * * * * * * * * * * * * * * * * * * //

dimensions      [1 -1 -3 0 0 0 0];

internalField   nonuniform List<scalar> 
297
(
0
0
0
0
0
0
0
0
7.45224e-05
0
0
0
0
0
0
0
-7.45224e-05
0
0
0
7.21497e-05
0
0
0
7.21497e-05
0
0
0
0
0
0
0
0
0
0
0
0
0
0
0
0
0
0
0
0
0
0
-2.63367e-10
0
3.87139e-11
0
-2.63367e-10
0
0
-5.26735e-10
0
0
-5.26735e-10
0
0
0
0
0
0
2.95363e-16
0
0
0
0
-1.05347e-09
-2.10694e-09
2.95363e-16
0
0
0
0
0
0
0
0
0
0
0
0
0
2.41962e-12
0
0
0
0
-2.63367e-10
0
0
-5.26735e-10
0
0
0
0
0
0
0
0
0
0
0
0
0
0
0
0
4.21388e-09
0
0
0
0
0
4.21388e-09
-4.21388e-09
0
-4.21388e-09
0
0
1.34316e-28
0
0
0
0
0
1.31168e-31
0
6.71578e-29
0
3.27919e-32
0
0
1.67895e-29
5.12374e-34
0
0
-5.12374e-34
7.8182e-39
0
0
7.8182e-39
0
0
-4.21388e-09
0
0
0
0
0
4.21388e-09
0
4.21388e-09
0
-2.00146e-36
0
6.10797e-41
8.00584e-36
-4.21388e-09
3.81748e-42
0
0
4.21388e-09
0
0
0
-4.21388e-09
0
0
0
3.12728e-38
-4.21388e-09
0
0
0
0
0
0
0
0
0
0
0
0
0
0
-4.21388e-09
4.21388e-09
0
-4.21388e-09
0
0
0
0
-1.45625e-47
0
0
0
-4.21388e-09
0
2.2754e-49
7.45602e-45
-4.21388e-09
0
0
0
0
5.82501e-47
0
0
0
0
0
5.82501e-47
0
0
0
0
0
0
3.47198e-54
0
0
0
0
0
-4.21388e-09
0
0
0
4.33997e-55
0
-1.6953e-57
5.42497e-56
0
0
0
0
3.3906e-57
0
0
2.38593e-43
0
0
0
0
0
0
-1.45625e-47
0
-4.21388e-09
0
-4.21388e-09
0
0
0
0
0
0
0
0
0
0
0
0
-1.165e-46
0
0
-4.44413e-52
1.38879e-53
0
0
0
0
0
0
0
0
0
0
0
0
0
0
0
0
8.67995e-55
5.42497e-56
0
0
-4.21388e-09
0
0
0
0
)
;

boundaryField
{
    fuel
    {
        type            calculated;
        value           uniform 0;
    }
    primary_air
    {
        type            calculated;
        value           uniform 0;
    }
    Secondary_air_RHS
    {
        type            calculated;
        value           uniform 0;
    }
    Secondary_air_LHS
    {
        type            calculated;
        value           uniform 0;
    }
    outlet
    {
        type            calculated;
        value           uniform 0;
    }
    stove_body
    {
        type            calculated;
        value           uniform 0;
    }
    frontAndBack
    {
        type            empty;
    }
}


// ************************************************************************* //
