/*--------------------------------*- C++ -*----------------------------------*\
  =========                 |
  \\      /  F ield         | OpenFOAM: The Open Source CFD Toolbox
   \\    /   O peration     | Website:  https://openfoam.org
    \\  /    A nd           | Version:  6
     \\/     M anipulation  |
\*---------------------------------------------------------------------------*/
FoamFile
{
    version     2.0;
    format      ascii;
    class       volVectorField;
    location    "2.5";
    object      U;
}
// * * * * * * * * * * * * * * * * * * * * * * * * * * * * * * * * * * * * * //

dimensions      [0 1 -1 0 0 0 0];

internalField   nonuniform List<vector> 
297
(
(12.4024 0.0174363 0.27402)
(12.403 -0.000102219 0.249371)
(12.4024 -0.017633 0.273763)
(1.24787e-08 -0.0262004 0.252485)
(1.24629e-08 0.000293176 0.24899)
(1.2399e-08 0.0264871 0.252558)
(-12.4024 0.0174471 0.274007)
(-12.403 -9.40917e-05 0.249369)
(-12.4024 -0.0176237 0.27376)
(12.402 0.0120661 0.297335)
(12.4031 -0.000344903 0.259736)
(12.4021 -0.0123842 0.297455)
(1.264e-08 -0.0764774 0.06565)
(1.25183e-08 0.000451487 0.231781)
(1.24558e-08 0.077462 0.0690815)
(-12.402 0.0120937 0.297336)
(-12.4031 -0.000313906 0.259732)
(-12.4021 -0.0123692 0.297444)
(11.3324 0.0253225 0.445584)
(12.3883 -0.00426724 0.398902)
(11.4251 -0.0269045 0.447118)
(9.04227e-09 -0.0575591 0.209992)
(1.24995e-08 0.00294641 0.013702)
(9.27707e-09 0.0609084 0.20759)
(-11.3427 0.0254134 0.445754)
(-12.3882 -0.00401509 0.398891)
(-11.4221 -0.02686 0.447042)
(54.9138 -7.04781 12.576)
(29.5778 0.444156 16.8875)
(55.3324 7.22589 10.5306)
(3.55897e-05 -0.79675 16.777)
(2.36386e-06 0.234628 10.3106)
(-4.06547e-05 0.400442 16.0186)
(-54.9879 -7.10092 12.4817)
(-29.5981 0.540425 16.8751)
(-55.42 7.15095 10.584)
(89.0648 -34.8352 51.8292)
(75.0751 2.00373 126.968)
(94.2903 36.305 59.2527)
(0.000400587 8.07326 210.202)
(4.93444e-05 -1.08349 130.66)
(-0.000107695 -6.91896 213.024)
(-89.0621 -34.9506 51.7279)
(-75.245 1.90465 127.12)
(-94.7846 36.2027 59.8115)
(87.1659 -88.0245 -50.6969)
(68.3266 -1.24161 166.992)
(92.234 99.0587 -42.0974)
(0.00051929 -59.9235 269.939)
(1.97056e-06 1.31837 -23.3757)
(-0.000274174 60.8688 279.792)
(-87.161 -88.1844 -50.411)
(-68.4635 -0.890676 167.215)
(-92.718 99.2224 -42.3463)
(54.7614 -55.3986 -212.965)
(38.0879 -3.57019 -28.6391)
(57.7008 63.6408 -217.591)
(-0.000614568 -106.413 -23.6951)
(4.48849e-05 0.75591 -120.648)
(0.00135901 114.778 -24.3808)
(-54.779 -55.3986 -213.034)
(-38.1383 -3.72284 -28.6801)
(-57.7336 63.6208 -217.813)
(25.2475 46.0516 -132.235)
(15.3497 -8.61845 -89.6939)
(30.584 -38.1008 -140.443)
(3.22921e-05 -0.859098 -115.278)
(2.9408e-05 6.49446 -100.463)
(0.000102794 7.51135 -121.913)
(-25.2246 46.0525 -132.262)
(-15.352 -8.64594 -89.6876)
(-30.5809 -38.0934 -140.313)
(8.46078 23.207 -21.158)
(8.46163 -8.64806 -16.7898)
(8.46416 -22.0352 -21.5539)
(4.16244e-07 20.6072 -19.5867)
(1.7331e-07 7.8832 -22.1192)
(-3.74668e-06 -16.564 -18.1947)
(-8.46255 23.1876 -21.1523)
(-8.46177 -8.65118 -16.7843)
(-8.46503 -22.0419 -21.5491)
(77.0198 -85.6364 -516.229)
(65.2369 -5.34356 211.63)
(80.409 100.918 -520.13)
(-0.00482561 -80.6341 401.864)
(-5.78646e-05 5.46793 -151.08)
(-0.0010541 85.5978 423.327)
(-76.8992 -85.8533 -516.208)
(-65.3665 -5.3144 211.853)
(-80.933 101.033 -521.984)
(69.0029 -64.0122 -412.048)
(59.2004 -5.45298 206.696)
(66.7425 75.3821 -414.544)
(-0.00513945 -76.4077 454.552)
(-6.0359e-05 4.8694 -152.747)
(-0.00104893 80.1728 482.735)
(-69.0421 -64.0952 -412.279)
(-59.3122 -5.45184 206.91)
(-67.0142 75.4012 -415.59)
(61.729 -68.312 -358.191)
(59.5029 -4.8601 189.262)
(64.3207 78.9851 -360.701)
(-0.00463707 -107.526 500.403)
(-6.38486e-05 3.7379 -143.578)
(-0.000928573 117.859 530.093)
(-61.7602 -68.4585 -358.397)
(-59.6141 -4.88666 189.447)
(-64.5917 78.9722 -361.478)
(8.42799 36.6313 -10.4082)
(8.45347 1.7244 -10.421)
(8.42888 -36.6919 -10.6142)
(1.32798e-06 28.4977 -11.3064)
(-2.71141e-06 -3.11076 -11.2644)
(-8.70854e-06 -28.9701 -10.4634)
(-8.42971 36.6293 -10.4062)
(-8.45342 1.72947 -10.4205)
(-8.43011 -36.701 -10.6155)
(8.46083 20.3071 -4.01962)
(8.47217 -2.16413 -2.00431)
(8.46225 -19.6107 -4.02006)
(1.09307e-06 19.1457 -4.71572)
(-1.67236e-06 0.488486 -5.56725)
(-9.16521e-06 -19.6718 -4.47496)
(-8.46141 20.3176 -4.02265)
(-8.47246 -2.14711 -2.00035)
(-8.46261 -19.6281 -4.01953)
(8.47239 -0.725792 -4.90947)
(8.47365 0.530387 0.48221)
(8.47327 1.04537 -5.12702)
(1.41319e-06 9.18889 -2.88915)
(-1.30173e-06 -1.87178 -2.20105)
(-8.69339e-06 -9.42582 -2.37027)
(-8.47288 -0.728307 -4.90572)
(-8.47401 0.530743 0.483198)
(-8.47321 1.06582 -5.12343)
(8.42429 -39.3911 -4.53262)
(8.44823 -35.4188 -6.69296)
(8.43918 -31.15 -9.086)
(-2.72257e-06 -31.5366 -3.86497)
(4.5939e-06 -29.184 -3.75281)
(-6.73688e-06 -25.0148 -4.08917)
(-8.42542 -39.3844 -4.53625)
(-8.44936 -35.3764 -6.69494)
(-8.44038 -31.1432 -9.08674)
(8.44973 -29.7761 -2.33271)
(8.46333 -30.8268 -7.59162)
(8.43749 -27.3286 -13.917)
(-4.56416e-06 -26.2417 0.141133)
(3.67917e-06 -26.1241 1.12949)
(-8.14357e-07 -21.9782 1.86535)
(-8.45019 -29.7831 -2.34682)
(-8.46383 -30.8223 -7.60644)
(-8.4381 -27.331 -13.914)
(8.47727 -6.19506 -4.316)
(8.4754 -17.2012 -12.8793)
(8.44321 -23.4844 -19.7859)
(-3.97019e-06 -15.3796 2.36149)
(3.50497e-06 -15.9922 3.49033)
(7.97806e-06 -16.4846 3.60714)
(-8.47731 -6.1717 -4.29831)
(-8.47542 -17.173 -12.8741)
(-8.44329 -23.4776 -19.7664)
(8.43816 30.9764 -9.02134)
(8.44695 35.3522 -6.66986)
(8.42332 39.1579 -4.52435)
(3.4622e-06 25.009 -4.07101)
(7.7005e-06 29.0243 -3.6987)
(6.00107e-06 31.4394 -3.8461)
(-8.43977 30.9738 -9.01755)
(-8.44886 35.3323 -6.66651)
(-8.42506 39.1467 -4.52192)
(8.43698 27.0741 -13.8126)
(8.46259 30.7195 -7.53974)
(8.44974 29.5142 -2.37103)
(7.73159e-06 21.9464 1.72685)
(9.57726e-06 25.9916 1.06058)
(6.21017e-06 26.0933 0.014637)
(-8.43748 27.0726 -13.8091)
(-8.463 30.7135 -7.54268)
(-8.45012 29.5124 -2.37759)
(8.44215 23.3897 -19.7901)
(8.47477 17.3625 -12.789)
(8.47647 6.05638 -4.4908)
(1.40992e-05 16.4718 3.56272)
(1.12142e-05 15.878 3.5259)
(7.03404e-06 15.2116 2.42536)
(-8.4425 23.3866 -19.7803)
(-8.47502 17.355 -12.7866)
(-8.47677 6.04996 -4.48265)
(8.42272 9.9882 -15.5865)
(8.42268 14.183 -11.4057)
(8.43014 21.914 -12.7586)
(-1.01202e-06 7.76085 -7.69614)
(1.29949e-06 12.1475 -4.27309)
(8.00724e-07 18.3219 -4.96507)
(-8.42518 9.98264 -15.5755)
(-8.42492 14.1759 -11.3973)
(-8.43165 21.9114 -12.7496)
(8.42677 5.23043 -23.347)
(8.43053 12.406 -18.0031)
(8.43002 22.3138 -21.4662)
(-2.72271e-06 6.01417 -5.25104)
(1.04138e-06 9.60419 -1.61317)
(2.47816e-06 17.2784 -1.55277)
(-8.42846 5.24348 -23.3425)
(-8.43156 12.4105 -18.0033)
(-8.43067 22.3193 -21.4601)
(8.45422 3.98662 -28.0114)
(8.4395 13.5232 -25.8607)
(8.44007 15.1559 -30.3494)
(-4.71076e-06 5.18325 -8.37806)
(-2.84967e-06 10.3922 -5.3394)
(2.02215e-06 14.3007 0.240502)
(-8.45611 4.00672 -28.0182)
(-8.44026 13.5359 -25.8639)
(-8.44058 15.1649 -30.3344)
(8.44758 -3.00774 -44.3377)
(8.44374 -2.88208 -44.5734)
(8.4467 -9.9709 -48.5902)
(-3.37611e-06 -2.02223 16.2017)
(-5.36279e-06 2.89805 21.378)
(-4.91256e-06 -9.17791 20.8617)
(-8.44903 -2.99419 -44.3308)
(-8.44386 -2.88809 -44.554)
(-8.44687 -9.96471 -48.5737)
(8.34596 0.870149 -111.479)
(8.34155 -0.635553 -113.896)
(8.34414 4.40039 -111.132)
(1.13752e-05 -0.837832 60.9808)
(1.06068e-05 0.864583 62.8632)
(1.03377e-05 -1.80847 60.5039)
(-8.34567 0.860787 -111.475)
(-8.34144 -0.632036 -113.89)
(-8.34353 4.39772 -111.128)
(8.00057 0.00619277 -149.533)
(8.00093 -0.0427148 -149.509)
(8.00182 -0.0614873 -149.313)
(2.19478e-06 -0.344233 180.442)
(2.13712e-06 0.315203 180.022)
(1.9485e-06 -0.592094 178.571)
(-8.00057 0.00621174 -149.531)
(-8.00093 -0.0425997 -149.507)
(-8.00181 -0.0613378 -149.311)
(8.43064 -22.1633 -12.839)
(8.42349 -14.1595 -11.4352)
(8.42341 -9.87273 -15.6074)
(-2.13482e-05 -18.6564 -5.01295)
(-1.92592e-05 -12.226 -4.30066)
(-1.33332e-05 -7.68434 -7.76233)
(-8.43213 -22.1781 -12.8307)
(-8.42541 -14.1422 -11.4248)
(-8.42589 -9.8462 -15.5918)
(8.43063 -22.6465 -21.6854)
(8.43113 -12.5314 -18.2229)
(8.42664 -5.21814 -23.4038)
(-1.91968e-05 -17.5964 -1.54598)
(-1.68514e-05 -9.70771 -1.63534)
(-1.33375e-05 -5.85837 -5.31293)
(-8.43162 -22.6689 -21.6759)
(-8.43261 -12.5453 -18.2246)
(-8.42913 -5.21691 -23.3852)
(8.44055 -15.2656 -30.5673)
(8.43933 -13.9289 -26.3522)
(8.45478 -4.29241 -28.3329)
(-1.56803e-05 -14.2901 0.621101)
(-1.74597e-05 -10.5747 -5.38889)
(-1.75671e-05 -5.21451 -8.49842)
(-8.44085 -15.2832 -30.5449)
(-8.44018 -13.9537 -26.3732)
(-8.45686 -4.33601 -28.3534)
(8.44795 9.84168 -48.4604)
(8.44485 3.11541 -44.6813)
(8.44834 2.739 -44.7785)
(-4.36105e-06 9.22972 20.6038)
(-5.69093e-06 -2.8321 21.1093)
(-1.5463e-06 1.93078 16.0777)
(-8.44783 9.82643 -48.393)
(-8.44489 3.13429 -44.68)
(-8.44997 2.67932 -44.793)
(8.34445 -4.35302 -111.303)
(8.34254 0.603974 -114.086)
(8.34637 -0.752599 -111.715)
(-7.54883e-06 1.8206 60.3788)
(-8.83195e-06 -0.877855 62.801)
(-6.8992e-06 0.87833 61.0492)
(-8.34465 -4.34517 -111.305)
(-8.34198 0.596529 -114.078)
(-8.34682 -0.723488 -111.714)
(8.00226 0.0628898 -149.47)
(8.00139 0.0460739 -149.67)
(8.00105 -0.00449141 -149.694)
(2.82358e-06 0.588741 178.47)
(3.30144e-06 -0.32566 179.954)
(3.79941e-06 0.349043 180.38)
(-8.00226 0.0628188 -149.469)
(-8.00139 0.0459701 -149.669)
(-8.00106 -0.00460159 -149.692)
)
;

boundaryField
{
    fuel
    {
        type            fixedValue;
        value           uniform (0 0 0.25);
    }
    primary_air
    {
        type            fixedValue;
        value           uniform (0 0 2.5);
    }
    Secondary_air_RHS
    {
        type            fixedValue;
        value           uniform (0 100 0);
    }
    Secondary_air_LHS
    {
        type            fixedValue;
        value           uniform (0 -100 0);
    }
    outlet
    {
        type            pressureInletOutletVelocity;
        value           nonuniform List<vector> 
18
(
(0 0 -149.47)
(2.82358e-06 0.588741 178.47)
(0 0 -149.469)
(0 0 -149.67)
(3.30144e-06 -0.32566 179.954)
(0 0 -149.669)
(0 0 -149.694)
(3.79941e-06 0.349043 180.38)
(0 0 -149.692)
(0 0 -149.533)
(2.19478e-06 -0.344233 180.442)
(0 0 -149.531)
(0 0 -149.509)
(2.13712e-06 0.315203 180.022)
(0 0 -149.507)
(0 0 -149.313)
(1.9485e-06 -0.592094 178.571)
(0 0 -149.311)
)
;
    }
    stove_body
    {
        type            noSlip;
    }
    frontAndBack
    {
        type            empty;
    }
}


// ************************************************************************* //
