/*--------------------------------*- C++ -*----------------------------------*\
  =========                 |
  \\      /  F ield         | OpenFOAM: The Open Source CFD Toolbox
   \\    /   O peration     | Website:  https://openfoam.org
    \\  /    A nd           | Version:  6
     \\/     M anipulation  |
\*---------------------------------------------------------------------------*/
FoamFile
{
    version     2.0;
    format      ascii;
    class       volScalarField;
    location    "3";
    object      p;
}
// * * * * * * * * * * * * * * * * * * * * * * * * * * * * * * * * * * * * * //

dimensions      [1 -1 -2 0 0 0 0];

internalField   nonuniform List<scalar> 
297
(
115933
115933
115933
192945
192945
192945
115933
115933
115933
115933
115933
115933
192945
192945
192945
115933
115933
115933
115933
115933
115933
192945
192945
192945
115933
115933
115933
96778.8
96793.9
96783.3
160657
160719
160721
96779.7
96793.9
96784.5
97096.7
96575.4
96918.4
160552
160972
160507
97095.9
96576.8
96916.9
93528.4
93598.2
93880
150280
155942
150741
93507.8
93607.7
93860.1
90164.8
93404.7
89758.7
153981
153707
153454
90175.7
93408.6
89770.4
95807.3
96182.9
95632.8
159715
159185
159768
95798.9
96178.5
95628.4
95769.7
96193.8
95691
159097
159791
159442
95764.9
96192.2
95687.9
70215.8
91452.4
71147.3
115558
148682
115970
70219.1
91530.4
71147.8
68725.7
91302.6
69605.8
111575
148099
111871
68730.1
91364
69607.1
71043
91438.4
71751.2
114421
148446
114558
71047.9
91474.2
71753.5
96552.2
96704.9
96534.6
160178
160421
160223
96554.1
96710.8
96536
96675.6
96703.3
96655.7
160501
160558
160505
96679.7
96711.8
96658.5
96677.2
96690.1
96658.7
160651
160626
160635
96682.1
96700
96662.5
96817.1
97050.8
97622.4
160455
160580
160839
96815.8
97047.3
97614.5
96682.5
96752.7
97146.1
160506
160513
160585
96682.5
96751
97141.1
96557.4
96415.4
96334.2
160634
160548
160427
96558.3
96415.5
96333.6
97629.1
97065.9
96833.7
160869
160607
160468
97620.4
97061.7
96832.6
97160.8
96773.6
96702.7
160618
160543
160527
97154.4
96770.5
96702.5
96362.7
96441.5
96579.6
160462
160579
160660
96359.3
96439.7
96580
98876.6
98645.2
98229.4
161894
161703
161319
98853.6
98625.9
98215.3
98558.3
98285.3
97836.1
161524
161331
160964
98539.5
98270.2
97825.3
98152.4
97867
97335.9
161049
160814
160547
98138
97855.9
97328.5
96166.3
96070.8
95899
158824
158706
158598
96169.5
96074.4
95903
90190.9
90231.2
90285.5
149021
149020
149017
90196.1
90235.8
90290
82797.9
82798.9
82801.3
132619
132614
132603
82801.4
82802.4
82804.7
98232.6
98655.2
98890.9
161297
161686
161880
98219.3
98636.8
98868.5
97832.8
98289.1
98566.5
160934
161307
161505
97822.8
98274.9
98548.3
97322.9
97862.6
98152.7
160508
160780
161021
97316.5
97852
98138.6
95861.9
96035.6
96132.4
158528
158637
158757
95865.5
96038.7
96135
90220.2
90165.6
90124.4
148907
148910
148911
90226.3
90171.8
90131.2
82731.9
82729.5
82728.4
132499
132511
132516
82735.7
82733.4
82732.3
)
;

boundaryField
{
    fuel
    {
        type            zeroGradient;
    }
    primary_air
    {
        type            zeroGradient;
    }
    Secondary_air_RHS
    {
        type            zeroGradient;
    }
    Secondary_air_LHS
    {
        type            zeroGradient;
    }
    outlet
    {
        type            totalPressure;
        rho             rho;
        psi             none;
        gamma           1;
        p0              uniform 100000;
        value           nonuniform List<scalar> 
18
(
86322.4
100000
86327.6
86273.2
100000
86278.5
86258.7
100000
86264.5
86328.2
100000
86333.1
86341.9
100000
86346.4
86390.7
100000
86395.1
)
;
    }
    stove_body
    {
        type            zeroGradient;
    }
    frontAndBack
    {
        type            empty;
    }
}


// ************************************************************************* //
