/*--------------------------------*- C++ -*----------------------------------*\
  =========                 |
  \\      /  F ield         | OpenFOAM: The Open Source CFD Toolbox
   \\    /   O peration     | Website:  https://openfoam.org
    \\  /    A nd           | Version:  6
     \\/     M anipulation  |
\*---------------------------------------------------------------------------*/
FoamFile
{
    version     2.0;
    format      ascii;
    class       volVectorField;
    location    "3";
    object      U;
}
// * * * * * * * * * * * * * * * * * * * * * * * * * * * * * * * * * * * * * //

dimensions      [0 1 -1 0 0 0 0];

internalField   nonuniform List<vector> 
297
(
(34.7964 -0.0102258 0.290635)
(34.7972 0.00953381 0.297453)
(34.7964 0.0158613 0.286408)
(-7.77134e-07 0.0159536 0.307335)
(-3.89754e-07 -0.0044951 0.318632)
(-7.15726e-08 -0.0194571 0.297186)
(-34.7964 -0.010155 0.290694)
(-34.7972 0.00964208 0.297459)
(-34.7964 0.0158983 0.286406)
(34.7965 -0.00324798 0.306428)
(34.8541 0.00119532 0.301127)
(34.7985 0.0082694 0.304626)
(-7.30564e-07 0.0517727 -0.260633)
(-3.59524e-07 -0.0269977 -0.291293)
(-4.21266e-08 -0.0561099 -0.233646)
(-34.7964 -0.00318502 0.306499)
(-34.8541 0.00129105 0.301156)
(-34.7985 0.00830598 0.304633)
(34.8036 -0.0222446 0.543662)
(34.9113 0.000272316 0.544632)
(34.8067 0.0311095 0.54601)
(-4.84219e-07 -0.057409 0.479962)
(-2.33241e-07 0.00545238 0.51808)
(-1.01307e-08 0.0854115 0.454027)
(-34.8035 -0.0221362 0.543775)
(-34.9112 0.000437113 0.544656)
(-34.8068 0.0311826 0.545999)
(21.9625 9.33366 1.3816)
(22.0585 5.44981 7.01411)
(21.8382 -9.4125 8.71374)
(4.68376e-05 5.4745 2.15159)
(2.40892e-06 2.69236 1.75108)
(6.15158e-05 -6.00559 4.70914)
(-21.9732 9.33618 1.38995)
(-22.0667 5.44105 7.01204)
(-21.8446 -9.4116 8.71231)
(21.8456 11.3376 9.45565)
(21.882 2.20887 38.4343)
(21.6652 -12.5767 16.3106)
(-4.04908e-05 23.63 73.3529)
(7.03667e-05 0.0859251 69.1025)
(-7.87712e-05 -26.6114 77.1861)
(-21.8578 11.346 9.4753)
(-21.8934 2.20253 38.4727)
(-21.6734 -12.5758 16.3227)
(21.2889 -0.732895 -17.7743)
(21.9159 4.07571 58.8063)
(21.0855 -1.33449 -1.08646)
(-0.00110885 -20.6179 112.569)
(0.000510704 0.766672 -9.91133)
(-0.00106141 18.2263 116.86)
(-21.3027 -0.71798 -17.7253)
(-21.9169 4.06794 58.7934)
(-21.0953 -1.35198 -1.06484)
(21.8606 -16.7882 -121.558)
(22.0414 -3.98379 -8.04871)
(21.7961 19.3531 -112.8)
(0.000573205 -3.507 2.2871)
(0.000219751 3.57906 -78.1879)
(0.000614547 1.70336 14.8704)
(-21.8706 -16.8174 -121.557)
(-22.0554 -3.96918 -8.01212)
(-21.8033 19.37 -112.806)
(22.7536 37.1148 -82.3213)
(23.0717 -13.5226 -73.063)
(22.3885 -28.9657 -74.1562)
(-0.000440727 17.0411 -45.3949)
(-0.000236044 1.54161 -58.9504)
(-0.000226037 -11.2697 -30.7718)
(-22.7736 37.0866 -82.3295)
(-23.0961 -13.4687 -73.0743)
(-22.398 -28.9726 -74.1637)
(23.8587 27.9897 -26.6105)
(23.8275 -17.0563 -22.7404)
(23.9066 -32.7785 -26.3819)
(-0.000275011 28.5903 -27.8919)
(-8.80358e-05 12.5693 -28.6253)
(-0.000174577 -17.0661 -30.6669)
(-23.899 27.9794 -26.6108)
(-23.8615 -16.9623 -22.7254)
(-23.9309 -32.7114 -26.3801)
(15.7782 2.94963 -177.326)
(21.0332 -0.686385 79.9562)
(15.8751 -2.6027 -166.905)
(0.000225066 -12.1587 158.378)
(0.00381079 3.11383 -96.8105)
(4.01554e-05 9.66362 162.259)
(-15.7866 2.89418 -177.382)
(-21.0315 -0.685075 79.9728)
(-15.8807 -2.55589 -166.965)
(16.6852 -2.44608 -180.761)
(18.8373 -1.09556 79.401)
(16.781 3.52583 -170.585)
(0.00024809 -6.40716 176.533)
(0.0029798 3.19404 -99.6991)
(7.08703e-05 3.86463 180.367)
(-16.6941 -2.49934 -180.813)
(-18.7897 -1.09886 79.4817)
(-16.7871 3.56946 -170.643)
(20.7084 -8.38474 -163.868)
(19.0247 -1.44334 76.8833)
(20.5313 10.2861 -154.277)
(0.000259208 -0.845525 172.908)
(0.00198192 3.26915 -100.1)
(0.000118641 -1.59658 176.978)
(-20.7196 -8.43152 -163.906)
(-18.9736 -1.44564 76.9593)
(-20.5401 10.3223 -154.325)
(23.4943 55.8212 -14.3137)
(23.6711 1.32202 -15.6725)
(23.5008 -56.1921 -14.5944)
(0.000106631 39.5619 -16.3456)
(0.000327941 -4.19753 -16.4908)
(7.58439e-05 -40.4433 -14.002)
(-23.5365 55.7182 -14.3175)
(-23.7133 1.37784 -15.6761)
(-23.5468 -56.0603 -14.5806)
(23.7958 35.4312 -4.47846)
(23.8916 -3.03098 -1.31994)
(23.8179 -35.7605 -4.52938)
(0.000225765 21.0733 -8.39486)
(0.000476411 0.867797 -7.19995)
(0.000159543 -22.2557 -7.97759)
(-23.8312 35.3751 -4.50018)
(-23.9268 -2.97037 -1.34685)
(-23.8522 -35.6815 -4.5574)
(23.9362 -3.95967 -5.00392)
(23.939 -0.69186 3.38797)
(23.9324 4.42402 -5.24314)
(0.000279994 6.16657 -5.62868)
(0.000555137 -1.71416 -1.967)
(0.000212181 -6.40258 -4.6198)
(-23.9612 -3.85611 -5.02888)
(-23.9722 -0.67612 3.34878)
(-23.9641 4.37435 -5.22623)
(23.4669 -58.8893 -5.99036)
(23.7525 -53.3879 -9.36416)
(23.6676 -45.6647 -12.7073)
(-6.85342e-05 -45.7353 -5.52617)
(-0.000199916 -43.7431 -5.09282)
(-0.000442678 -36.5817 -5.23043)
(-23.5213 -58.7585 -5.95559)
(-23.8113 -53.2501 -9.32213)
(-23.7274 -45.5304 -12.6658)
(23.6861 -43.862 -2.76316)
(23.8766 -45.435 -10.9881)
(23.5619 -38.4196 -20.4528)
(-1.28464e-06 -37.1303 -0.388867)
(-0.000100062 -37.488 1.53097)
(-0.000277959 -31.4707 3.66312)
(-23.7226 -43.7935 -2.78689)
(-23.9127 -45.3423 -10.9946)
(-23.5989 -38.3474 -20.4481)
(23.9691 -8.38849 -5.12259)
(23.9685 -24.0017 -18.4054)
(23.5912 -33.0036 -29.1332)
(5.13275e-05 -19.5193 2.02607)
(1.30968e-06 -20.7209 4.40944)
(-3.35944e-05 -22.8015 4.33145)
(-24.0011 -8.39579 -5.08003)
(-24.0008 -23.9632 -18.3505)
(-23.625 -32.9476 -29.0894)
(23.6654 45.2721 -12.609)
(23.7509 52.9002 -9.28799)
(23.4666 58.4123 -5.97145)
(-0.000487115 36.4486 -5.23542)
(-0.000232169 43.2392 -5.02683)
(-6.11411e-05 45.8181 -5.581)
(-23.7244 45.1671 -12.5843)
(-23.8082 52.7946 -9.25545)
(-23.5206 58.3153 -5.9439)
(23.5568 38.0744 -20.2724)
(23.8652 45.1187 -10.9327)
(23.6791 43.3965 -2.82893)
(-0.000362487 31.2494 3.57225)
(-0.000169082 37.2411 1.61336)
(-6.21539e-06 37.035 -0.600656)
(-23.5968 38.0216 -20.2812)
(-23.9051 45.0677 -10.9338)
(-23.7154 43.3613 -2.83923)
(23.5966 32.7259 -28.8666)
(23.9706 23.9205 -18.4753)
(23.9699 7.77892 -5.17184)
(-0.00018584 22.6346 4.27716)
(-0.000101532 20.6497 4.31567)
(2.37835e-05 19.4463 1.94379)
(-23.6227 32.6937 -28.842)
(-23.996 23.9012 -18.4226)
(-23.9949 7.86275 -5.11625)
(23.4847 14.1643 -22.1737)
(23.4975 21.0786 -15.2376)
(23.5876 32.8201 -17.8133)
(-0.00127408 13.5777 -11.1492)
(-0.00106816 18.3135 -6.13093)
(-0.00078428 27.8023 -6.45681)
(-23.5862 14.1233 -22.069)
(-23.5782 21.0267 -15.1589)
(-23.6546 32.7209 -17.7612)
(23.5516 5.55665 -34.0449)
(23.5833 18.2653 -24.1486)
(23.5012 31.6246 -30.5108)
(-0.00104342 9.25574 -10.3306)
(-0.000836213 14.4081 -5.0448)
(-0.000605071 25.3851 -3.13251)
(-23.6324 5.57448 -33.9006)
(-23.6397 18.2446 -24.0997)
(-23.5485 31.578 -30.4841)
(23.8865 4.67599 -42.5554)
(23.6467 20.2017 -37.7489)
(23.5485 18.4093 -46.9667)
(-0.00080196 7.46268 -16.4144)
(-0.000620085 15.1268 -11.3872)
(-0.000416497 20.6604 -0.682017)
(-23.9564 4.68966 -42.4002)
(-23.6775 20.1819 -37.7088)
(-23.5797 18.3861 -46.9089)
(23.7932 -5.70142 -67.9411)
(23.7935 -4.42671 -63.1854)
(23.8033 -10.2007 -67.4527)
(0.000180986 -6.33394 4.47859)
(0.000202376 1.62075 17.6749)
(0.000229634 -7.77679 14.7177)
(-23.8429 -5.63355 -67.7895)
(-23.7957 -4.39481 -63.1827)
(-23.8322 -10.2025 -67.347)
(23.3869 2.47502 -132.63)
(23.3759 -1.15199 -133.05)
(23.3678 4.59742 -131.781)
(0.000313363 -2.01219 64.4435)
(0.000276992 0.157984 66.7594)
(0.000272155 -1.84884 61.0804)
(-23.3858 2.44019 -132.529)
(-23.3749 -1.13892 -133.001)
(-23.3668 4.59435 -131.722)
(22.2411 -0.0972285 -165.967)
(22.2433 -0.0226644 -165.87)
(22.2457 -0.174184 -165.526)
(0.00022674 -0.591602 171.965)
(0.000223127 0.325799 170.61)
(0.000221002 -0.510356 168.469)
(-22.2404 -0.0947673 -165.931)
(-22.2427 -0.0215142 -165.838)
(-22.2451 -0.173159 -165.496)
(23.5945 -33.1237 -17.959)
(23.5069 -21.2784 -15.3591)
(23.4963 -14.2884 -22.3846)
(-0.000741434 -28.1833 -6.50253)
(-0.00102289 -18.4948 -6.18835)
(-0.00124175 -13.7477 -11.2502)
(-23.6575 -32.9988 -17.8849)
(-23.5812 -21.2082 -15.2592)
(-23.5906 -14.234 -22.2493)
(23.5032 -31.8321 -30.764)
(23.6016 -18.4662 -24.3146)
(23.5625 -5.58987 -34.387)
(-0.000556942 -25.6216 -3.17323)
(-0.000787514 -14.528 -5.10213)
(-0.00100554 -9.33509 -10.4682)
(-23.5492 -31.7646 -30.7242)
(-23.6404 -18.4206 -24.2601)
(-23.6315 -5.60148 -34.2065)
(23.539 -18.5337 -47.38)
(23.6551 -20.3381 -38.0898)
(23.9019 -4.71297 -42.9962)
(-0.000361992 -20.907 -0.682832)
(-0.000592247 -15.2107 -11.5612)
(-0.000784476 -7.5484 -16.6127)
(-23.5799 -18.5026 -47.2948)
(-23.6807 -20.3 -38.0485)
(-23.9608 -4.72006 -42.807)
(23.7889 10.2099 -67.9882)
(23.7908 4.47047 -63.6741)
(23.7647 5.7838 -68.635)
(0.000207144 7.7074 14.6864)
(0.000173803 -1.58396 17.5649)
(0.000146403 6.39121 3.84281)
(-23.8363 10.2152 -67.861)
(-23.7997 4.44423 -63.6954)
(-23.8477 5.71176 -68.4487)
(23.3698 -4.58554 -132.342)
(23.3781 1.16563 -133.603)
(23.3892 -2.51707 -133.28)
(0.000367327 1.85035 61.1442)
(0.000368807 -0.0985738 66.8259)
(0.000409201 2.042 64.8529)
(-23.3686 -4.5808 -132.272)
(-23.3769 1.14625 -133.549)
(-23.3878 -2.48045 -133.172)
(22.247 0.175636 -166.007)
(22.2446 0.0235596 -166.353)
(22.2427 0.100466 -166.455)
(0.00024763 0.499713 168.277)
(0.000249372 -0.337414 170.452)
(0.000252764 0.584471 171.717)
(-22.2463 0.174571 -165.971)
(-22.244 0.0227311 -166.316)
(-22.242 0.0979294 -166.414)
)
;

boundaryField
{
    fuel
    {
        type            fixedValue;
        value           uniform (0 0 0.25);
    }
    primary_air
    {
        type            fixedValue;
        value           uniform (0 0 2.5);
    }
    Secondary_air_RHS
    {
        type            fixedValue;
        value           uniform (0 150 0);
    }
    Secondary_air_LHS
    {
        type            fixedValue;
        value           uniform (0 -150 0);
    }
    outlet
    {
        type            pressureInletOutletVelocity;
        value           nonuniform List<vector> 
18
(
(0 0 -166.007)
(0.00024763 0.499713 168.277)
(0 0 -165.971)
(0 0 -166.353)
(0.000249372 -0.337414 170.452)
(0 0 -166.316)
(0 0 -166.455)
(0.000252764 0.584471 171.717)
(0 0 -166.414)
(0 0 -165.967)
(0.00022674 -0.591602 171.965)
(0 0 -165.931)
(0 0 -165.87)
(0.000223127 0.325799 170.61)
(0 0 -165.838)
(0 0 -165.526)
(0.000221002 -0.510356 168.469)
(0 0 -165.496)
)
;
    }
    stove_body
    {
        type            noSlip;
    }
    frontAndBack
    {
        type            empty;
    }
}


// ************************************************************************* //
