/*--------------------------------*- C++ -*----------------------------------*\
  =========                 |
  \\      /  F ield         | OpenFOAM: The Open Source CFD Toolbox
   \\    /   O peration     | Website:  https://openfoam.org
    \\  /    A nd           | Version:  6
     \\/     M anipulation  |
\*---------------------------------------------------------------------------*/
FoamFile
{
    version     2.0;
    format      ascii;
    class       volScalarField;
    location    "0.01";
    object      O2;
}
// * * * * * * * * * * * * * * * * * * * * * * * * * * * * * * * * * * * * * //

dimensions      [0 0 0 0 0 0 0];

internalField   nonuniform List<scalar> 
3773
(
0
0
0
0
0
0
0
0
0
0
0
0
0
0
0
0
0
0
0
0
0
0
0
0
0
0
0
0
0
0
0
0
0
0
0
0
0
0
0
0
0
0
0
0
0
0
0
0
0
0
0
0
0
0
0
0
0
0
0
0
0
0
0
0
0
0
0
0
0
0
0
0
0
0
0
0
0
0
0
0
0
0
0
0
0
0
0
0
0
0
0
0
0
0
0
0
0
0
0
0
0
0
0
0
0
0
0
0
0
0
0
0
0
0
0
0
0
0
0
0
0
0
0
0
0
0
0
0
0
0
0
0
0
0
0
0
0
0
0
0
0
0
0
0
0
0
0
0
0
0
0
0
0
0
0
0
0
0
0
0
0
0
0
0
0
0
0
0
0
0
0
0
0
0
0
0
0
0
0
0
0
0
0
0
0
0
0
0
0
0
0
0
0
0
0
0
0
0
0
0
0
0
0
0
0
0
0
0
0
0
0
0
0
0
0
0
0
0
0
0
0
0
0
0
0
0
0
0
0
0
0
0
0
0
0
0
0
0
0
0
0
0
0
0
0
0
0
0
0
0
0
0
0
0
0
0
0
0
0
0
0
0
0
0
0
0
0
0
0
0
0
0
0
0
0
0
0
0
0
0
0
0
0
0
0
0
0
0
0
0
0
0
0
0
0
0
0
0
0
0
0
0
0
0
0
0
0
0
0
0
0
0
0
0
0
0
0
0
0
0
0
0
0
0
0
0
0
0
0
0
0
0
0
0
0
0
0
0
0
0
0
0
0
0.00189022
0.000795828
0.000791894
0.000798169
0.000930124
0.00140166
0.00257833
0.00237198
0.00115164
0.00098546
0.00101239
0.00115696
0.00182126
0.00269448
0.00508832
0.00390404
0.00346512
0.00341485
0.00349417
0.00371679
0.00485115
0.00833001
0.00804128
0.00859076
0.0102874
0.00861073
0.00841594
0.00881526
0.00395781
0.00317375
0.00303123
0.00306692
0.00311749
0.00335013
0.00416051
0.00256315
0.00171847
0.00114397
0.000974433
0.000905588
0.0011136
0.0022204
0.0021093
0.0011019
0.000710003
0.000687407
0.000699719
0.000732779
0.00179956
0.000154219
1.9727e-06
6.40317e-06
2.14375e-05
5.97305e-05
0.000140695
0.00161014
0.000678534
4.02881e-05
6.53018e-06
1.32586e-05
3.29646e-05
4.12825e-05
0.00140965
0.00427797
0.00239269
0.00176963
0.00178772
0.00181916
0.00223455
0.00435475
0.0066252
0.00625364
0.00716056
0.0079837
0.00682836
0.00646866
0.00682908
0.00331285
0.00209377
0.00192326
0.00200939
0.00204398
0.00205631
0.00350313
0.00143394
8.17456e-05
4.62485e-05
1.78836e-05
6.7431e-06
4.3514e-05
0.000633282
0.00153219
5.22571e-05
2.79534e-05
7.855e-06
3.28375e-06
1.31717e-06
0.000126852
5.9521e-05
3.11447e-06
1.10729e-05
3.63512e-05
0.000112978
0.000260909
0.000901779
0.000515297
3.40089e-05
9.79712e-06
4.25528e-05
0.000114013
0.000141415
0.00122936
0.00369358
0.00151562
0.000994637
0.00105672
0.00111301
0.00137573
0.00374615
0.00513161
0.004605
0.00461759
0.00415087
0.00436091
0.00413981
0.00505693
0.00326115
0.00153218
0.00132756
0.00131456
0.00116161
0.00152158
0.00334081
0.000993736
8.95517e-05
0.000143247
6.12465e-05
1.51759e-05
1.85332e-05
0.000399558
0.00107405
0.00017155
5.06062e-05
1.23436e-05
5.0767e-06
1.87702e-06
5.4791e-05
4.90842e-06
3.26279e-06
6.94369e-06
1.5404e-05
2.57345e-05
3.48276e-05
6.77448e-05
0.000359613
1.79848e-05
1.42129e-05
6.31847e-05
0.000225156
0.000436998
0.000770931
0.00218703
0.000897266
0.000603527
0.000617395
0.000676129
0.00111629
0.00274106
0.004132
0.00296406
0.00239706
0.00290473
0.00269602
0.00339854
0.0041496
0.00308799
0.00113852
0.0007837
0.000693897
0.000659419
0.000998799
0.00280479
0.000875158
0.000432426
0.000223041
8.34165e-05
2.30875e-05
8.99747e-06
0.000313468
0.000617956
0.000152687
3.51778e-05
1.19587e-05
5.53105e-06
2.32119e-06
1.01538e-05
7.36721e-07
1.92799e-06
3.15982e-06
3.86242e-06
3.50578e-06
3.31139e-06
1.0876e-06
0.000184664
6.58128e-06
1.19988e-05
2.74068e-05
5.63464e-05
8.8339e-05
0.000113938
0.00124957
0.00069056
0.000423688
0.000383752
0.000439669
0.000696691
0.00135999
0.00237646
0.00180339
0.00150241
0.00176407
0.00142979
0.00169401
0.00229226
0.00188582
0.000817479
0.00045481
0.000503982
0.000420228
0.000710036
0.00146371
0.000354698
0.000183274
6.13665e-05
3.9019e-05
1.93804e-05
7.74874e-06
0.000175221
2.66214e-06
1.90635e-06
6.36774e-06
6.05653e-06
4.7481e-06
2.56439e-06
7.30332e-07
7.29084e-07
2.33293e-06
3.50781e-06
3.47297e-06
1.98342e-06
2.69495e-06
1.18765e-08
2.44188e-05
6.27311e-06
1.71307e-05
2.42648e-05
3.19719e-05
3.20626e-05
3.13402e-06
0.000837574
0.000418795
0.000231224
0.000245738
0.000294689
0.000572755
0.000956202
0.00146539
0.00136423
0.00113036
0.00131346
0.00106023
0.00131379
0.00149354
0.00115868
0.000645484
0.000343771
0.000254158
0.00025873
0.000550224
0.00101725
3.37339e-07
8.93303e-06
2.65725e-05
2.57282e-05
1.9922e-05
7.6825e-06
6.25935e-05
0
1.13109e-06
4.00373e-06
5.19012e-06
4.67798e-06
3.14252e-06
9.18067e-07
6.28653e-07
3.61321e-06
7.21923e-06
7.16253e-06
2.68084e-06
2.666e-06
0
1.79148e-06
8.91194e-06
2.49732e-05
4.40903e-05
4.57034e-05
4.28161e-05
8.7208e-06
0.000522821
0.000253348
9.79457e-05
0.000203945
0.000228832
0.000300626
0.000363344
0.000966964
0.00060941
0.000657831
0.000885727
0.00053836
0.00057681
0.00102328
0.000454743
0.000366268
0.000258261
0.000165036
0.000111704
0.000320232
0.000729988
0
1.9344e-05
3.70223e-05
3.45219e-05
2.30655e-05
9.48078e-06
6.13022e-06
0
1.63045e-06
4.88784e-06
7.33327e-06
7.10284e-06
4.1391e-06
9.7663e-07
0
4.35899e-07
2.09059e-07
3.51263e-07
6.10292e-08
1.02403e-08
1.9425e-09
1.96405e-08
4.46348e-06
1.24731e-05
1.88425e-05
5.27171e-06
6.08508e-07
8.20961e-09
0
5.3719e-05
7.55612e-05
9.81199e-05
3.91086e-05
1.19663e-05
4.92749e-08
0
0.000300371
0.000370027
0.000501985
0.00033965
0.000345607
0
3.10805e-09
1.40902e-06
2.90194e-05
7.25757e-05
6.09432e-05
6.9029e-05
0
6.58372e-09
7.81107e-08
2.27252e-06
1.39407e-05
9.63035e-06
4.40716e-06
0
9.04015e-09
6.17965e-08
3.17767e-07
1.24835e-06
3.61342e-07
1.27454e-06
0
9.89325e-09
1.3288e-07
2.77511e-07
2.89615e-07
5.48738e-08
1.04135e-08
1.92497e-09
1.76014e-07
1.6978e-06
7.72013e-06
1.08454e-05
1.22809e-06
6.60845e-08
3.10919e-09
1.56549e-07
2.81706e-05
3.81975e-05
4.79638e-05
9.83016e-06
8.86104e-07
5.01808e-08
4.8148e-09
0.000158845
0.000191487
0.000230133
0.000182712
0.000186556
4.77293e-06
1.96401e-09
3.05366e-06
4.32276e-06
2.18425e-05
2.62763e-05
2.91458e-05
2.29121e-07
6.45182e-09
9.52766e-08
9.12997e-07
6.91285e-06
6.37015e-06
3.06061e-06
1.9443e-07
7.51102e-09
7.03661e-08
4.10222e-07
1.46676e-06
1.27204e-06
4.19968e-07
2.17144e-08
1.26311e-08
1.29769e-07
1.25064e-07
2.6034e-08
1.17095e-08
6.19575e-09
2.06433e-09
1.69156e-07
9.59381e-07
2.21048e-06
1.91423e-06
9.60863e-08
1.36637e-08
2.46887e-09
7.37204e-07
1.30137e-05
1.49239e-05
1.5543e-05
2.60887e-06
3.92437e-06
3.56321e-08
5.7713e-08
5.9865e-05
9.013e-05
0.000124195
8.89058e-05
7.57999e-05
1.85432e-06
4.08524e-09
8.76655e-06
7.50038e-06
8.19265e-06
1.10926e-05
1.2228e-05
8.43008e-07
8.50302e-09
7.71914e-08
8.71903e-07
2.06172e-06
2.7602e-06
1.14755e-06
1.33352e-07
2.52222e-09
1.01847e-08
5.36528e-08
2.20946e-07
5.2818e-07
1.9711e-07
1.53083e-08
6.19526e-09
6.56944e-08
3.20636e-08
1.91135e-08
1.27665e-08
7.30867e-09
2.5958e-09
7.26467e-08
3.64991e-07
7.46333e-07
6.46563e-08
2.69457e-08
8.65939e-09
3.014e-09
8.21446e-07
5.57078e-06
5.81239e-06
5.20887e-06
3.25112e-06
6.1952e-06
6.80851e-09
1.13561e-07
3.52387e-05
4.676e-05
8.87976e-05
4.40843e-05
4.5747e-05
6.98552e-07
9.07336e-09
6.78848e-06
8.75422e-06
5.00435e-06
4.86803e-06
5.02602e-06
7.70772e-07
9.21663e-09
3.71759e-08
1.4227e-07
3.11816e-07
8.59615e-07
4.94858e-07
7.10972e-08
2.31956e-09
5.40395e-09
1.31772e-08
3.3334e-08
9.70969e-08
1.0697e-07
6.95312e-09
1.18352e-08
4.74957e-08
2.24093e-08
1.99042e-08
1.3571e-08
7.43368e-09
2.69275e-09
8.08096e-08
2.92867e-07
2.85923e-07
1.17013e-07
5.16297e-08
1.71463e-08
6.56317e-09
6.5159e-07
2.08654e-06
2.09326e-06
2.53679e-06
2.69631e-06
2.32933e-06
6.58511e-09
1.18929e-07
1.39675e-05
2.59794e-05
3.90976e-05
2.404e-05
1.95849e-05
2.02096e-07
1.31304e-08
2.01453e-06
3.63477e-06
1.80412e-06
1.61491e-06
1.6888e-06
5.40002e-07
1.0247e-08
2.6065e-08
5.45034e-08
8.6095e-08
2.47299e-07
2.78189e-07
8.26088e-08
2.40978e-09
4.87915e-09
9.93537e-09
1.25533e-08
2.45492e-08
7.57033e-08
1.45252e-08
2.76251e-08
8.91571e-09
7.75401e-09
9.72185e-09
9.59652e-09
7.30727e-09
2.90276e-09
1.11105e-07
2.02408e-07
1.62917e-07
1.17183e-07
7.20641e-08
2.52391e-08
9.67603e-09
3.77886e-07
7.68893e-07
6.72819e-07
6.17245e-07
1.2436e-06
1.41744e-06
2.17305e-08
1.37176e-07
7.22178e-06
1.25485e-05
1.71304e-05
1.25881e-05
1.0636e-05
1.2057e-07
4.94779e-08
1.09824e-06
8.50476e-07
4.47933e-07
5.20803e-07
6.13038e-07
2.89612e-07
1.53127e-08
3.16464e-08
7.2304e-08
7.91611e-08
1.11216e-07
1.37555e-07
8.30065e-08
2.42265e-09
4.64268e-09
1.02821e-08
1.20749e-08
1.34581e-08
1.77796e-08
2.13553e-08
9.75554e-09
4.39791e-09
3.95903e-09
3.36579e-09
2.3957e-09
4.43895e-10
6.58535e-10
5.16901e-08
3.85352e-08
2.20225e-08
1.33368e-08
1.04416e-08
5.22432e-09
2.1027e-09
1.05319e-07
1.47612e-07
1.15507e-07
6.98799e-08
7.19204e-08
1.73948e-07
6.89684e-08
4.1222e-07
4.74662e-06
7.62483e-06
9.29031e-06
7.15924e-06
5.99871e-06
5.89593e-07
7.16825e-08
1.15071e-07
1.76431e-08
4.9799e-08
6.70643e-08
9.12015e-08
8.01116e-08
1.2408e-09
2.80236e-09
6.66202e-09
1.09449e-08
1.27034e-08
2.19662e-08
3.40095e-08
5.02855e-10
8.66158e-10
1.77229e-09
1.90206e-09
1.86017e-09
4.84591e-09
9.74189e-09
0
9.12812e-06
1.14884e-05
9.19002e-06
1.66781e-06
2.63696e-07
0
0
2.143e-05
3.37353e-05
5.34905e-05
2.3262e-05
7.37742e-06
0
3.43889e-05
8.24221e-05
0.000102159
0.000198697
0.000152768
0.000114265
0
0.000358932
0.000563415
0.000619752
0.000816234
0.000516615
0.000547695
0.000441137
0
0.000147009
0.000251836
0.000170825
0.000108875
0.000218227
0.000307799
0
2.37442e-06
2.22786e-05
3.64042e-05
2.96584e-05
2.70785e-05
0
0
0
1.37366e-06
6.54726e-06
8.3971e-06
9.75486e-06
0
0
6.51532e-06
7.3179e-06
6.53985e-06
1.09021e-06
2.08481e-07
0
0
1.60084e-05
2.67665e-05
4.38658e-05
2.09916e-05
6.02325e-06
0
0
7.63291e-05
9.85512e-05
0.000196605
0.000142788
7.92171e-05
0
0.000135613
0.000552567
0.000609912
0.0008061
0.000510715
0.000538339
0.000282743
0
8.58122e-05
0.000238197
0.000167835
0.000106879
0.000202956
8.60121e-05
0
9.12578e-07
1.65568e-05
3.07905e-05
2.35713e-05
2.12066e-05
0
0
0
6.88634e-07
4.23746e-06
5.63063e-06
6.11402e-06
0
0
5.9975e-06
6.3449e-06
5.78341e-06
8.8992e-07
1.51913e-07
0
0
1.47115e-05
2.41726e-05
4.10564e-05
1.78077e-05
4.27654e-06
0
0
6.95877e-05
9.73652e-05
0.000194144
0.000127908
5.58805e-05
0
0
0.00053315
0.000597851
0.000785108
0.000496659
0.000511018
1.03257e-06
0
4.17516e-05
0.000226095
0.000165409
0.000101669
0.000175222
0
0
3.66064e-07
1.44061e-05
2.9144e-05
2.20259e-05
1.68738e-05
0
0
0
7.17851e-07
4.00875e-06
5.23818e-06
5.21018e-06
0
0
5.69548e-06
5.9804e-06
5.49879e-06
6.63083e-07
1.24105e-07
0
0
1.45608e-05
2.28039e-05
3.5748e-05
1.52916e-05
3.47415e-06
0
0
6.32355e-05
9.39718e-05
0.000188186
0.00010543
4.07237e-05
0
0
0.000506269
0.00057226
0.000764191
0.000485884
0.000500147
0
0
2.19361e-05
0.000203114
0.000159328
9.95824e-05
0.000162838
0
0
1.6218e-07
1.05388e-05
2.85804e-05
2.15467e-05
2.13439e-05
0
0
0
7.89441e-07
5.00612e-06
5.45259e-06
5.94394e-06
0
0
4.42414e-06
6.18334e-06
5.07907e-06
4.79009e-07
9.0786e-08
0
0
1.23527e-05
2.25787e-05
2.94909e-05
1.29661e-05
2.47517e-06
0
0
6.20943e-05
9.30854e-05
0.000184853
9.37742e-05
3.51546e-05
0
0
0.000487292
0.000556773
0.000733148
0.000463445
0.000478952
0
0
8.34526e-06
0.000163528
0.000155439
9.85278e-05
0.000147418
0
0
7.81736e-08
8.68851e-06
2.62647e-05
1.97548e-05
1.90452e-05
0
0
0
7.73838e-07
5.12808e-06
4.84759e-06
5.36287e-06
0
0
4.09633e-06
5.86513e-06
5.14741e-06
1.66109e-07
5.67425e-08
0
0
1.16367e-05
2.1247e-05
2.6224e-05
1.03804e-05
2.00124e-06
0
0
6.40559e-05
9.41402e-05
0.000178052
7.93336e-05
2.9566e-05
0
0
0.000462938
0.000526836
0.00072042
0.000454905
0.000465134
0
0
7.94745e-06
0.000134472
0.000143971
9.6976e-05
0.000138953
0
0
3.34438e-08
5.83431e-06
2.26453e-05
1.53482e-05
1.64648e-05
0
0
0
5.15663e-07
3.42605e-06
2.65439e-06
5.73837e-06
0
0
4.58229e-06
3.84334e-06
2.87706e-06
6.09118e-08
1.09748e-08
0
0
9.87571e-06
1.89559e-05
2.13506e-05
9.13574e-06
1.4952e-06
0
0
6.3885e-05
9.36747e-05
0.000176022
7.40925e-05
2.85884e-05
0
0
0.000436955
0.000515466
0.000701893
0.00043763
0.000444695
0
0
7.1511e-06
0.000107625
0.000140625
9.5314e-05
0.000128425
0
0
0
4.54621e-06
2.09316e-05
1.28848e-05
1.37007e-05
0
0
0
3.45488e-07
2.04343e-06
1.38024e-06
6.23453e-06
0
4.81595e-11
1.68118e-10
6.40754e-10
7.13848e-10
2.69628e-10
1.02447e-10
4.57389e-11
2.40449e-11
1.42988e-09
6.23157e-09
6.07436e-09
3.64511e-09
1.5352e-09
7.39223e-10
4.2828e-10
1.67763e-07
1.99929e-07
1.99813e-07
9.43806e-08
4.91186e-08
5.96071e-08
3.85556e-07
2.79827e-06
4.88011e-06
5.92388e-06
4.67197e-06
3.8195e-06
5.79366e-07
6.30868e-08
4.54798e-08
8.80877e-08
1.7605e-07
1.68489e-07
1.57842e-07
1.098e-10
4.81528e-10
8.50178e-10
2.57746e-09
8.75284e-09
4.15984e-09
9.66356e-10
3.20668e-11
4.53165e-11
1.35661e-10
2.32505e-10
6.59993e-10
4.21563e-10
7.37079e-11
2.55472e-11
1.76506e-10
4.80347e-10
6.30475e-10
6.59546e-10
4.57504e-10
1.35178e-10
6.46723e-11
9.88576e-11
1.31373e-09
3.73411e-09
5.12087e-09
5.49711e-09
2.24295e-09
1.26841e-09
5.47396e-09
2.60675e-07
2.70835e-07
2.48854e-07
1.20959e-07
4.93499e-08
4.86845e-08
3.93895e-07
2.42202e-06
3.81073e-06
4.3232e-06
3.83666e-06
3.0327e-06
5.79764e-07
5.40503e-08
5.05441e-08
1.58822e-07
2.68883e-07
2.44661e-07
2.78475e-07
5.72484e-10
1.11163e-09
2.09449e-09
5.34688e-09
5.11186e-09
4.06358e-09
2.0398e-09
1.60266e-10
8.69288e-11
1.62064e-10
4.49463e-10
4.62326e-10
4.20455e-10
2.93364e-10
9.7892e-11
5.15915e-10
1.04835e-09
1.40975e-09
1.49368e-09
1.05707e-09
2.75049e-10
1.59536e-10
1.74375e-09
4.24496e-09
1.03468e-08
1.36477e-08
1.46149e-08
4.41573e-09
2.98108e-09
1.19378e-07
3.37528e-07
3.54285e-07
4.01774e-07
3.34033e-07
1.06609e-07
5.03001e-08
4.12028e-07
2.12092e-06
3.20601e-06
3.46398e-06
2.95894e-06
2.24015e-06
5.53887e-07
5.83678e-08
1.22238e-07
3.67625e-07
4.29717e-07
3.29202e-07
2.92992e-07
7.54071e-08
2.59681e-09
4.33968e-09
1.12771e-08
8.45873e-09
6.36988e-09
3.66103e-09
2.3732e-09
2.50356e-10
4.16824e-10
9.66418e-10
9.78684e-10
8.44737e-10
5.74931e-10
3.9806e-10
1.695e-09
2.20957e-09
2.84117e-09
2.49771e-09
1.5397e-09
9.02497e-10
5.23296e-10
4.74395e-09
1.18784e-08
1.60951e-08
2.08919e-08
2.00056e-08
9.9311e-09
4.12823e-09
1.03759e-07
2.78192e-07
3.89936e-07
4.3799e-07
3.64337e-07
1.51735e-07
5.97291e-08
4.20707e-07
1.7907e-06
2.42177e-06
2.67996e-06
2.27357e-06
1.59533e-06
5.07137e-07
8.53697e-08
2.44891e-07
4.25911e-07
4.54997e-07
3.46186e-07
2.35538e-07
8.36312e-08
3.40665e-09
1.01697e-08
1.44015e-08
1.26893e-08
1.02045e-08
7.00164e-09
4.18583e-09
4.97424e-10
1.08973e-09
1.63836e-09
1.68282e-09
1.61186e-09
1.06797e-09
7.90288e-10
1.71824e-09
1.96035e-09
2.01345e-09
1.75979e-09
1.37384e-09
1.30341e-09
1.17975e-09
7.80014e-09
1.14448e-08
1.32255e-08
1.37802e-08
1.30361e-08
9.77102e-09
8.16781e-09
1.49828e-07
2.50869e-07
3.04176e-07
3.33442e-07
2.92768e-07
1.83691e-07
6.5613e-08
4.82209e-07
1.43704e-06
1.75449e-06
1.60922e-06
1.55635e-06
1.0305e-06
4.37766e-07
9.58606e-08
2.67038e-07
3.4063e-07
3.44924e-07
2.78352e-07
1.44465e-07
8.6739e-08
1.02056e-08
9.31853e-09
1.03803e-08
9.80143e-09
8.50243e-09
6.63968e-09
4.82116e-09
1.46786e-09
1.20726e-09
1.36246e-09
1.57314e-09
1.62178e-09
1.48968e-09
1.11102e-09
1.39664e-09
1.25959e-09
1.00502e-09
8.77005e-10
6.94673e-10
9.08598e-10
5.44814e-10
5.49475e-09
6.2997e-09
6.494e-09
7.12113e-09
5.38813e-09
4.39432e-09
5.48487e-09
1.05616e-07
1.34933e-07
1.79266e-07
1.97166e-07
1.68922e-07
1.18844e-07
8.61036e-08
4.74635e-07
8.54137e-07
9.66141e-07
1.18504e-06
8.16545e-07
5.40233e-07
3.55659e-07
1.23745e-07
1.70683e-07
1.99604e-07
2.13128e-07
1.53851e-07
8.83058e-08
6.93138e-08
1.00943e-08
4.35571e-09
4.62846e-09
4.75132e-09
4.1779e-09
3.01577e-09
2.2156e-09
9.73563e-10
7.67966e-10
7.80284e-10
1.0222e-09
1.07378e-09
1.10092e-09
9.82354e-10
7.74665e-10
7.44215e-10
6.99287e-10
5.47389e-10
3.65721e-10
3.66197e-10
4.47439e-10
1.95792e-09
2.37727e-09
2.06861e-09
1.91811e-09
1.72978e-09
1.78653e-09
2.05172e-09
6.62604e-08
6.31753e-08
1.08937e-07
1.27027e-07
1.17506e-07
7.33263e-08
6.3293e-08
2.9988e-07
3.2545e-07
5.44129e-07
6.02523e-07
4.63608e-07
1.94077e-07
1.76227e-07
8.87201e-08
1.00498e-07
1.3723e-07
1.355e-07
9.7266e-08
4.16678e-08
4.21139e-08
1.75265e-09
8.18601e-10
6.12896e-10
4.3723e-10
2.65582e-10
3.72227e-10
3.1234e-10
2.05413e-10
2.20079e-10
2.41542e-10
3.37801e-10
4.46721e-10
5.32509e-10
3.91657e-10
4.2557e-12
2.5015e-12
2.70124e-12
2.7945e-12
2.82458e-12
2.57482e-12
1.75379e-12
9.5232e-11
1.82437e-12
1.86924e-12
8.41238e-13
9.03813e-13
8.44912e-13
6.88624e-13
5.22013e-08
1.47883e-08
2.1229e-10
1.81454e-12
3.34491e-12
7.3867e-12
1.0452e-11
3.85657e-07
1.82026e-09
5.97565e-11
1.5333e-11
7.78535e-12
5.26593e-12
8.92133e-11
7.38789e-11
6.99426e-11
4.05094e-11
3.01351e-11
7.35561e-12
3.32101e-12
2.39269e-12
2.42609e-11
2.3519e-11
2.15551e-11
1.85772e-11
1.5167e-11
1.14439e-11
8.73606e-12
1.51834e-11
1.51482e-11
1.47977e-11
1.14705e-11
6.2248e-12
3.68949e-12
1.18044e-12
1.73025e-11
1.18564e-11
1.19673e-11
1.22956e-11
1.19347e-11
1.15149e-11
1.14441e-11
3.38261e-10
9.5926e-11
7.09785e-12
4.59241e-12
4.62446e-12
4.67861e-12
4.65366e-12
4.32668e-08
2.87749e-08
3.20709e-09
1.25199e-11
2.17974e-11
4.55981e-11
6.62115e-11
3.98055e-07
1.71053e-07
4.01477e-08
1.07805e-08
4.3431e-09
3.53514e-09
3.59219e-09
1.03898e-09
9.35247e-10
5.65476e-10
4.07797e-10
1.10268e-10
1.78891e-11
1.09156e-11
2.20378e-10
2.10159e-10
1.68412e-10
1.46799e-10
1.1082e-10
9.48077e-11
4.34639e-11
1.1585e-10
1.19626e-10
1.18466e-10
1.05317e-10
7.78867e-11
5.50725e-11
1.16957e-11
8.03644e-11
3.70759e-11
3.70397e-11
3.85026e-11
3.52788e-11
2.78848e-11
2.34565e-11
1.47871e-09
7.63824e-10
2.74491e-10
3.0331e-11
2.53531e-11
2.92652e-11
3.05119e-11
3.66206e-08
2.85769e-08
1.56209e-08
8.60514e-10
2.87941e-11
5.49314e-11
8.26536e-11
3.92505e-07
2.65585e-07
1.36669e-07
6.52568e-08
3.66752e-08
2.00737e-08
1.74077e-08
2.88416e-08
1.84647e-08
1.10998e-08
7.25383e-09
1.85281e-09
8.72147e-11
4.4201e-11
1.30506e-09
9.36604e-10
7.3078e-10
4.6528e-10
2.49994e-10
3.43661e-10
2.28806e-10
3.22929e-10
2.26329e-10
2.21025e-10
2.50024e-10
2.34821e-10
1.6079e-10
7.59044e-11
2.2584e-10
1.23947e-10
8.37921e-11
9.6223e-11
8.23876e-11
5.92821e-11
5.09038e-11
1.52959e-09
7.28045e-10
3.83417e-10
1.15044e-10
6.4297e-11
8.13392e-11
1.05287e-10
3.76067e-08
2.64801e-08
1.96728e-08
1.15087e-08
3.36644e-09
2.05768e-10
7.6519e-11
3.68935e-07
2.77491e-07
1.89729e-07
1.14577e-07
7.53393e-08
4.99528e-08
3.3529e-08
5.61639e-08
3.73198e-08
2.06566e-08
9.97576e-09
5.53432e-09
2.23106e-09
1.03947e-09
3.51741e-09
3.16557e-09
2.90952e-09
2.42719e-09
1.5084e-09
1.16253e-09
6.46192e-10
6.88757e-10
6.26755e-10
5.85338e-10
5.38618e-10
5.25071e-10
4.61645e-10
2.14146e-10
2.46032e-10
3.58234e-10
3.724e-10
3.23753e-10
2.19359e-10
8.66135e-11
8.25947e-11
4.37757e-09
1.89196e-09
1.21092e-09
7.92459e-10
6.47743e-10
2.58209e-10
1.11703e-10
4.36312e-08
2.94565e-08
2.31817e-08
1.44117e-08
1.0499e-08
5.31657e-09
1.92735e-09
3.11095e-07
2.72561e-07
1.74305e-07
1.50661e-07
9.56078e-08
7.40888e-08
5.82553e-08
6.39772e-08
3.80121e-08
2.58277e-08
1.45365e-08
8.93155e-09
4.93483e-09
2.41254e-09
4.03856e-09
3.61866e-09
3.31648e-09
2.79702e-09
2.21952e-09
1.52209e-09
9.53094e-10
9.48384e-10
8.78391e-10
8.12332e-10
7.61947e-10
6.57073e-10
5.84051e-10
3.40809e-10
6.65445e-10
9.03388e-10
7.71439e-10
5.87107e-10
3.55429e-10
1.58436e-10
1.12512e-10
6.25641e-09
5.29097e-09
3.56648e-09
2.05609e-09
1.55493e-09
1.12425e-09
6.9238e-10
5.27067e-08
3.89922e-08
2.96348e-08
1.95838e-08
1.48367e-08
9.35401e-09
6.05091e-09
2.46008e-07
2.24096e-07
1.65296e-07
1.366e-07
9.79614e-08
7.60667e-08
6.5286e-08
5.16494e-08
4.01837e-08
3.04061e-08
1.77531e-08
1.04485e-08
7.30903e-09
4.77161e-09
2.02231e-09
1.77826e-09
1.56806e-09
1.40921e-09
1.32603e-09
1.08241e-09
8.00905e-10
8.93559e-10
8.42676e-10
7.74314e-10
6.86168e-10
6.25612e-10
5.39714e-10
3.45702e-10
5.37355e-10
5.41688e-10
4.87982e-10
4.15601e-10
2.89732e-10
1.5667e-10
1.69259e-10
2.40956e-09
2.64181e-09
2.53562e-09
2.19759e-09
1.75692e-09
1.52772e-09
1.27709e-09
4.57367e-08
3.71533e-08
3.11944e-08
2.31593e-08
1.8302e-08
1.18979e-08
1.02769e-08
1.3364e-07
1.26728e-07
1.06302e-07
9.45616e-08
7.28099e-08
5.8929e-08
5.39522e-08
3.24608e-08
2.14873e-08
1.25237e-08
4.30646e-09
3.12515e-09
3.29464e-09
3.18861e-09
2.78952e-10
3.09385e-10
4.18366e-10
4.67173e-10
5.3189e-10
5.43777e-10
4.95473e-10
2.15557e-10
2.62113e-10
3.34805e-10
3.37213e-10
3.31776e-10
3.17627e-10
2.73244e-10
2.6934e-12
8.91149e-12
1.51395e-11
2.00977e-11
2.2019e-11
2.15053e-11
2.0445e-11
1.00817e-12
2.51203e-12
5.67684e-12
1.09005e-11
1.28694e-11
1.31653e-11
1.38982e-11
1.01994e-12
1.063e-12
1.62515e-12
4.82498e-12
1.462e-11
6.35154e-11
1.20974e-10
7.61437e-12
7.77876e-12
1.2577e-11
1.81708e-11
5.62527e-11
2.40343e-09
2.62057e-07
2.19955e-12
1.71089e-12
1.50881e-12
9.98665e-13
7.35595e-13
1.58385e-09
5.37568e-08
6.86839e-13
8.24511e-13
7.89671e-13
7.09571e-13
6.7028e-13
3.03537e-12
3.96231e-10
3.25085e-12
3.70198e-12
3.32402e-12
2.8831e-12
2.85587e-12
2.82566e-12
8.77607e-12
2.61832e-11
1.1493e-10
1.47101e-10
1.52977e-10
1.47001e-10
1.36065e-10
1.15685e-10
1.08357e-11
4.41159e-11
8.44501e-11
1.11301e-10
1.12269e-10
1.06239e-10
1.16161e-10
6.46197e-12
7.95917e-12
2.33388e-11
1.18175e-10
5.25935e-10
1.61105e-09
2.96253e-09
2.31986e-09
2.84756e-09
4.58886e-09
1.28854e-08
3.4898e-08
1.25412e-07
2.7799e-07
5.0202e-11
2.50706e-11
1.51352e-11
7.57873e-12
2.05699e-11
2.46921e-08
4.88219e-08
6.75952e-12
6.45986e-12
5.76444e-12
4.97368e-12
4.93697e-12
2.05171e-10
6.24458e-10
2.19081e-11
2.29628e-11
2.07217e-11
1.85134e-11
1.82618e-11
1.82411e-11
3.07564e-11
1.4937e-10
3.14894e-10
3.01213e-10
2.27257e-10
2.11165e-10
3.03225e-10
3.7524e-10
1.01428e-10
2.26347e-10
2.79824e-10
3.19007e-10
2.96476e-10
2.06463e-10
1.6654e-10
8.26373e-11
6.10967e-11
1.00191e-10
1.76718e-09
8.51914e-09
2.60325e-08
5.971e-08
1.33999e-08
1.76761e-08
3.22481e-08
5.73393e-08
1.15705e-07
2.11382e-07
2.97207e-07
9.06471e-11
4.98573e-11
3.04349e-11
2.96229e-10
1.29147e-08
3.49665e-08
4.45318e-08
3.83891e-11
3.38256e-11
3.05719e-11
3.21563e-11
3.13101e-10
8.86362e-10
1.11611e-09
4.48759e-11
6.2467e-11
7.7181e-11
7.69253e-11
8.00988e-11
9.90944e-11
1.35519e-10
3.71656e-10
5.85462e-10
6.38004e-10
6.4065e-10
7.49138e-10
8.85223e-10
1.03934e-09
3.65414e-10
9.20747e-10
1.37751e-09
1.63917e-09
1.70509e-09
1.7745e-09
2.39712e-09
2.30247e-09
5.5296e-09
9.85958e-09
1.76927e-08
3.37464e-08
4.91598e-08
8.00119e-08
3.94361e-08
5.52759e-08
8.21634e-08
1.1923e-07
1.68616e-07
2.45712e-07
3.09323e-07
8.61221e-11
8.74365e-11
3.38744e-09
1.25866e-08
2.73474e-08
3.5635e-08
5.00605e-08
1.69676e-10
1.46926e-10
1.31096e-10
2.42184e-10
6.93027e-10
1.16202e-09
2.06554e-09
1.33557e-10
2.27647e-10
2.52042e-10
2.18578e-10
2.18043e-10
2.30682e-10
3.47354e-10
6.47998e-10
9.33821e-10
1.01768e-09
1.13427e-09
1.21365e-09
1.29043e-09
1.53354e-09
8.47428e-10
1.80254e-09
2.53406e-09
3.03291e-09
3.39518e-09
4.13181e-09
5.35013e-09
1.09916e-08
1.76361e-08
2.7577e-08
3.83705e-08
5.64025e-08
8.03494e-08
9.81209e-08
7.8858e-08
1.00604e-07
1.28041e-07
1.52029e-07
2.05355e-07
2.29658e-07
2.81197e-07
3.12632e-09
9.36904e-09
1.65636e-08
2.37812e-08
2.94291e-08
4.35393e-08
5.90845e-08
2.17938e-10
5.21399e-10
1.85018e-09
2.42261e-09
3.67306e-09
4.89738e-09
7.59994e-09
2.62169e-10
4.58064e-10
5.77434e-10
4.90866e-10
3.74346e-10
3.40135e-10
1.30048e-09
6.38854e-10
8.85896e-10
9.76245e-10
1.09908e-09
1.17356e-09
1.2538e-09
1.35767e-09
1.20575e-09
1.69354e-09
1.95896e-09
2.24432e-09
2.59548e-09
3.24575e-09
4.20256e-09
1.52883e-08
2.07361e-08
2.95076e-08
3.7838e-08
4.60905e-08
6.657e-08
7.72163e-08
9.7942e-08
1.10349e-07
1.33494e-07
1.63827e-07
1.96644e-07
2.29077e-07
2.80501e-07
1.23456e-08
1.53271e-08
2.31914e-08
2.79171e-08
3.98785e-08
5.39606e-08
6.99363e-08
1.81667e-09
2.4039e-09
4.23311e-09
5.58031e-09
7.70724e-09
9.72239e-09
1.118e-08
3.8656e-10
6.83605e-10
9.31385e-10
9.45114e-10
8.44852e-10
9.42969e-10
9.60561e-10
4.73451e-10
5.39878e-10
5.38295e-10
5.16103e-10
3.99002e-10
5.48816e-10
6.75384e-10
8.46111e-10
8.61828e-10
7.4515e-10
4.03929e-10
2.63916e-10
5.09921e-10
1.10222e-09
1.07895e-08
1.31513e-08
1.69016e-08
2.53735e-08
3.7916e-08
5.17228e-08
5.86681e-08
8.55327e-08
1.00092e-07
1.17645e-07
1.45893e-07
1.65291e-07
2.09617e-07
2.33245e-07
1.59821e-08
1.79189e-08
2.67315e-08
3.28553e-08
4.35614e-08
5.33701e-08
6.18506e-08
1.69494e-09
1.9727e-09
2.6088e-09
3.35321e-09
3.741e-09
3.75558e-09
2.45522e-09
2.69055e-10
3.20773e-10
4.57737e-10
5.54499e-10
5.98035e-10
4.31369e-10
1.8921e-10
2.63001e-14
3.61994e-14
7.0669e-14
1.16066e-13
2.61509e-13
3.43027e-13
8.74901e-13
1.75989e-14
2.75046e-14
5.27608e-14
1.07854e-13
2.55416e-13
3.59451e-13
5.99237e-13
1.02617e-12
2.14507e-12
2.0522e-12
1.49077e-12
8.33094e-13
6.82748e-13
8.46494e-13
8.84096e-12
1.43785e-11
1.53917e-11
1.49819e-11
1.40272e-11
1.11303e-11
9.06638e-12
1.89801e-12
2.85387e-12
3.21449e-12
3.05364e-12
2.75964e-12
2.55937e-12
2.46713e-12
1.17004e-14
2.32807e-14
3.05067e-14
5.20201e-14
1.68531e-13
2.60898e-13
3.72752e-13
4.3527e-15
7.59385e-15
1.77002e-14
9.40814e-14
2.8302e-13
3.99375e-13
7.94128e-13
2.24023e-14
4.43806e-14
1.37783e-13
3.08592e-13
6.5113e-13
8.45858e-13
5.42474e-12
1.37464e-14
3.96104e-14
1.05142e-13
4.56933e-13
9.04151e-13
2.00753e-12
5.47137e-12
1.54656e-11
2.63756e-11
3.86482e-11
1.70503e-11
7.9989e-12
4.74431e-12
6.58874e-12
1.38449e-10
3.6905e-10
7.50129e-10
1.05004e-09
1.28828e-09
1.60789e-09
2.1296e-09
2.29926e-11
4.30505e-11
6.99171e-11
7.30488e-11
8.12765e-11
7.67887e-11
7.32557e-11
2.48031e-14
9.58526e-14
1.94368e-13
6.86444e-13
3.31262e-12
5.56933e-12
5.92244e-12
4.70667e-15
1.19679e-14
7.61738e-14
2.33255e-13
8.37946e-13
1.64414e-12
5.4537e-12
1.38456e-14
4.7636e-14
1.85475e-13
5.35931e-13
8.29706e-13
1.2654e-12
1.5275e-11
3.35638e-14
7.48988e-14
2.03004e-13
9.45097e-13
3.83917e-12
2.51813e-11
4.1574e-11
6.30362e-11
1.49727e-10
2.6311e-10
8.51276e-11
4.38626e-11
3.46428e-11
9.32305e-11
6.4732e-10
1.83686e-09
3.59445e-09
4.87429e-09
6.46164e-09
8.70972e-09
1.0897e-08
1.17926e-10
2.20321e-10
4.20488e-10
4.44961e-10
3.47599e-10
2.10428e-10
1.63888e-10
3.01325e-14
2.24414e-13
6.68052e-13
3.39912e-12
1.51806e-11
2.33713e-11
3.91913e-11
4.45999e-15
1.17017e-14
1.06168e-13
3.67333e-13
1.80314e-12
4.31536e-12
1.51881e-11
1.99138e-14
5.60964e-14
2.35866e-13
6.29624e-13
1.0424e-12
1.62963e-12
2.34461e-11
6.66879e-14
9.96455e-14
5.13808e-13
4.74785e-12
2.39545e-11
9.79037e-11
1.18481e-10
9.64632e-11
2.62042e-10
4.16502e-10
1.79768e-10
5.75817e-11
3.17733e-10
1.29577e-09
8.7098e-10
3.2092e-09
7.06838e-09
1.24369e-08
1.92088e-08
2.41363e-08
2.95734e-08
1.58712e-10
3.61305e-10
6.62653e-10
6.88944e-10
4.35276e-10
2.53806e-10
1.58766e-10
3.23594e-14
2.93042e-13
2.20648e-12
1.53371e-11
5.57877e-11
1.54079e-10
1.90931e-10
3.93831e-15
1.1319e-14
1.31119e-13
6.91178e-13
3.04535e-12
7.87593e-12
2.7356e-11
2.18811e-14
6.04084e-14
2.71921e-13
7.18866e-13
1.15672e-12
1.73862e-12
3.81971e-11
8.73066e-14
1.66234e-13
1.78229e-12
1.59798e-11
8.48169e-11
2.18024e-10
5.58779e-10
1.80878e-10
4.5315e-10
4.34668e-10
1.60564e-10
3.49058e-10
1.33124e-09
4.21289e-09
1.90708e-09
6.86142e-09
1.56598e-08
2.3821e-08
3.2704e-08
4.82322e-08
6.23447e-08
2.78998e-10
6.4926e-10
1.03366e-09
5.94412e-10
3.2374e-10
2.75691e-10
8.8639e-10
4.1024e-14
3.2168e-13
4.87471e-12
4.63047e-11
2.18403e-10
3.39023e-10
4.16726e-10
3.64104e-15
1.1373e-14
2.15007e-13
1.07395e-12
4.79504e-12
8.8542e-12
3.52815e-11
2.27661e-14
6.37743e-14
2.88818e-13
7.61249e-13
1.24808e-12
1.86126e-12
4.95777e-11
1.09789e-13
2.73584e-13
5.22078e-12
3.34252e-11
2.14463e-10
5.41347e-10
7.81711e-10
3.41395e-10
1.02562e-09
5.50864e-10
3.19818e-10
1.91233e-09
6.97483e-09
1.10644e-08
3.02843e-09
1.4131e-08
2.59495e-08
3.41735e-08
4.91016e-08
6.00075e-08
7.07801e-08
4.53264e-10
1.28571e-09
1.91267e-09
6.1131e-10
4.64247e-10
2.33322e-09
6.13837e-09
4.48655e-14
4.43473e-13
8.87275e-12
1.1458e-10
4.06755e-10
9.87867e-10
1.30371e-09
3.52767e-15
1.23065e-14
2.65496e-13
1.38064e-12
5.37463e-12
9.07565e-12
4.4175e-11
2.21084e-14
6.50435e-14
2.94415e-13
7.86904e-13
1.3108e-12
1.90172e-12
4.1111e-11
1.27349e-13
3.77805e-13
9.69108e-12
6.29748e-11
2.87436e-10
5.40427e-10
7.42104e-10
8.1866e-10
1.63216e-09
7.77439e-10
1.737e-09
5.29662e-09
7.81331e-09
1.0151e-08
8.20397e-09
2.44819e-08
3.89565e-08
5.0025e-08
5.98122e-08
6.43926e-08
7.86223e-08
1.08678e-09
2.39835e-09
2.18902e-09
2.03914e-09
5.79555e-09
8.80576e-09
1.19709e-08
5.16734e-14
5.32186e-13
1.09925e-11
1.5145e-10
7.64338e-10
1.12375e-09
1.30725e-09
3.38638e-15
1.3875e-14
2.70257e-13
1.52836e-12
5.99385e-12
9.10033e-12
4.65677e-11
8.54494e-15
6.62556e-14
2.15282e-13
8.07599e-13
1.39317e-12
1.93924e-12
4.09308e-12
1.74629e-13
8.15971e-13
1.16807e-12
1.72757e-12
1.28392e-10
1.03997e-10
3.7732e-10
7.50292e-10
8.09574e-10
5.89335e-10
7.2858e-10
2.24351e-09
3.00567e-09
3.02755e-09
1.06494e-08
2.15876e-08
2.47809e-08
2.42958e-08
2.58374e-08
2.5855e-08
2.9741e-08
1.31025e-09
1.24083e-09
1.20305e-09
1.21461e-09
3.43607e-09
4.22402e-09
3.13922e-09
5.98032e-14
2.61331e-13
1.73111e-12
1.71652e-11
8.73149e-11
1.16626e-10
1.20523e-10
3.34507e-15
8.85536e-15
3.10502e-14
1.65974e-12
6.88457e-12
8.37702e-12
1.14167e-11
9.15157e-15
6.35948e-14
2.44974e-13
7.69112e-13
1.6273e-12
8.33993e-13
4.73411e-12
2.13559e-13
1.14598e-12
3.49175e-12
8.6226e-12
1.54336e-11
9.72053e-12
5.57887e-11
3.19058e-10
3.10678e-10
2.98795e-10
3.0242e-10
7.97193e-10
1.3225e-09
1.2206e-09
8.10486e-09
1.21261e-08
1.25194e-08
1.35097e-08
1.74025e-08
1.7225e-08
1.24463e-08
7.82955e-10
5.7272e-10
5.83387e-10
5.91482e-10
1.176e-09
1.55764e-09
1.23923e-09
3.03879e-14
1.80481e-13
4.19782e-13
5.17272e-13
2.01351e-12
1.41447e-12
3.55715e-14
1.61777e-15
4.91782e-15
1.03667e-14
8.16323e-15
4.24717e-14
2.15064e-14
1.57858e-16
9.36933e-19
1.16369e-17
2.23094e-17
3.44432e-17
4.39253e-17
9.69168e-17
9.72923e-17
6.99146e-16
9.62884e-16
1.26555e-15
2.03824e-15