/*--------------------------------*- C++ -*----------------------------------*\
  =========                 |
  \\      /  F ield         | OpenFOAM: The Open Source CFD Toolbox
   \\    /   O peration     | Website:  https://openfoam.org
    \\  /    A nd           | Version:  6
     \\/     M anipulation  |
\*---------------------------------------------------------------------------*/
FoamFile
{
    version     2.0;
    format      ascii;
    class       volScalarField;
    location    "0.01";
    object      p;
}
// * * * * * * * * * * * * * * * * * * * * * * * * * * * * * * * * * * * * * //

dimensions      [1 -1 -2 0 0 0 0];

internalField   nonuniform List<scalar> 
3773
(
41988.4
41990
41989.8
41990
41990.3
41989.9
41988.5
101591
101591
101591
101591
101591
101591
101591
136957
136956
136957
136957
136957
136957
136957
148736
148736
148737
148737
148737
148737
148736
136956
136957
136956
136957
136957
136956
136957
101591
101590
101591
101591
101591
101591
101591
41988.1
41989.1
41988.9
41989.1
41989.3
41989
41987.7
42017.5
42021.4
42022
42021.7
42021.6
42020.7
42017.1
101584
101580
101579
101580
101580
101581
101584
136943
136945
136945
136945
136945
136945
136944
148726
148727
148728
148728
148728
148727
148727
136943
136943
136944
136945
136945
136945
136944
101584
101582
101581
101581
101581
101581
101585
42016.1
42018.9
42019.4
42019.6
42020.2
42019.6
42015.7
42054.1
42058.3
42059.7
42059.4
42058.4
42057
42053.6
101557
101555
101554
101554
101555
101556
101558
136943
136944
136944
136944
136944
136944
136943
148723
148724
148724
148725
148725
148724
148724
136942
136943
136943
136944
136944
136944
136943
101558
101556
101555
101555
101555
101556
101559
42052.4
42055.9
42056.8
42056.6
42057.4
42056.3
42052.2
42080
42081.4
42082
42082.3
42082.3
42081.6
42079.6
101545
101544
101544
101543
101543
101544
101545
136941
136942
136943
136943
136942
136942
136942
148721
148721
148722
148723
148723
148721
148721
136941
136941
136942
136942
136942
136942
136941
101545
101544
101544
101543
101543
101544
101545
42079.2
42081.3
42081.1
42082.4
42081.5
42080.8
42078.9
42093.6
42093.5
42093.2
42093.7
42094.5
42094.4
42093.2
101541
101541
101541
101541
101540
101540
101541
136940
136941
136941
136941
136941
136941
136940
148718
148719
148720
148720
148720
148718
148719
136940
136940
136941
136941
136941
136941
136940
101541
101541
101541
101540
101541
101541
101541
42093.3
42094.2
42093.7
42095.1
42093.7
42093.8
42093
42100.3
42100.3
42100.3
42099.9
42100.4
42100.5
42099.8
101541
101541
101541
101541
101541
101540
101540
136939
136939
136940
136940
136940
136940
136939
148717
148717
148718
148719
148718
148716
148717
136939
136940
136939
136940
136941
136940
136939
101541
101540
101541
101540
101541
101541
101541
42100.1
42100.9
42100.2
42101.3
42099.8
42100.2
42099.9
42105.6
42106.8
42106.2
42105.1
42105.2
42105.1
42105
101546
101545
101546
101546
101546
101545
101545
136933
136934
136932
136934
136933
136934
136932
148714
148716
148717
148718
148718
148715
148717
136933
136938
136934
136933
136940
136934
136932
101546
101539
101546
101546
101539
101546
101546
42105.3
42106
42105.1
42105.8
42106.3
42105
42105.1
61858.8
61849.3
61760.6
61608.8
61403.1
61324.6
61434.4
147505
147515
147460
147311
147150
147133
147345
197165
197076
197041
196980
196962
197011
197149
213535
213486
213461
213449
213432
213430
213483
197317
197199
197140
197138
197184
197197
197261
147576
147381
147415
147595
147755
147780
147728
61607.9
61567.5
61730.2
61910.5
62023.2
62070
62033.5
61633.9
61616
61515
61302.4
61062.9
61061.5
61229.5
147039
146982
146883
146682
146508
146457
146686
196823
196695
196649
196547
196486
196509
196677
213236
213162
213149
213144
213108
213089
213158
196797
196651
196628
196691
196778
196803
196895
146663
146497
146610
146856
147098
147208
147204
60980.5
60880.7
61069.2
61350.9
61534
61618.2
61623.8
61396.1
61342.4
61260.8
61192.7
61120.7
61271.9
61520.3
146745
146672
146497
146315
146230
146309
146659
196565
196458
196371
196305
196290
196321
196458
213004
212944
212953
212935
212900
212868
212903
196549
196445
196416
196438
196503
196556
196642
146391
146167
146201
146384
146636
146870
146957
60845.6
60708.7
60717.4
60946.2
61188.1
61330.2
61397.4
61073.1
61002.8
60927.5
60877
60950.7
61208.2
61448.6
146559
146441
146275
146220
146252
146528
147063
196401
196301
196233
196249
196296
196368
196522
212877
212850
212854
212855
212826
212775
212769
196602
196480
196407
196343
196334
196388
196498
146752
146369
146195
146239
146417
146639
146816
61131.3
60891.1
60796.9
60887.8
61006.2
61131.7
61226
60727.6
60658.5
60543.3
60452.6
60450.9
60674.2
60994.6
146290
146180
146041
145963
145975
146188
146653
196242
196148
196076
196078
196112
196128
196216
212730
212723
212730
212733
212699
212646
212629
196648
196487
196357
196274
196251
196300
196413
147153
146709
146363
146288
146314
146448
146564
61357.4
61018.7
60843.2
60712.1
60750.7
60844
60900
60459.3
60370.2
60253.9
60136.3
60113.4
60296.8
60645.2
145964
145825
145641
145482
145422
145392
145738
195983
195915
195855
195849
195846
195790
195786
212516
212535
212562
212586
212573
212527
212485
196385
196283
196141
196079
196074
196148
196231
146578
146284
145956
145834
145898
146090
146220
61079.7
60768.8
60483.5
60339.3
60382.3
60488.8
60556.1
60318.3
60237.8
60132.2
60038.3
60084.1
60333.4
60706.5
145663
145551
145400
145315
145357
145339
145578
195658
195667
195689
195760
195816
195812
195763
212455
212458
212488
212509
212493
212420
212362
196308
196128
195981
195871
195832
195880
195910
146204
145753
145415
145393
145512
145727
145881
60937
60510.9
60103.4
59989.4
60074.5
60214.1
60325.8
60131.4
60135.4
60143.4
60125.3
60259.9
60767.6
61269.9
145573
145499
145478
145546
145795
146101
146482
195796
195803
195828
195962
196106
196190
196326
212583
212654
212657
212620
212550
212480
212424
196346
196171
196082
195966
195809
195749
195706
146230
145588
145300
145290
145335
145451
145568
61043.9
60351.1
60053.7
59978.4
59996.5
60016.3
60090.6
60059.6
60065.8
60040.7
60017.9
60114
60506.9
61046.7
145510
145492
145483
145495
145608
145768
146185
195828
195886
195922
195943
195933
195872
195945
212566
212573
212631
212630
212547
212424
212330
196151
195817
195865
195915
195857
195762
195681
146211
145529
145398
145406
145401
145409
145449
60877.8
60346.2
60125.6
60062.1
60018.7
60031.1
60080.9
60058.7
60029.2
60003.2
59962.7
60103.2
60540.1
61171.7
145517
145476
145423
145354
145406
145643
146178
195863
195857
195848
195832
195756
195714
195942
212593
212525
212505
212496
212462
212416
212392
196224
195792
195743
195793
195808
195784
195734
146552
145783
145578
145502
145460
145448
145437
61278.6
60681.2
60354.2
60215.7
60111.2
60072.9
60110.2
60021.8
59948.2
59975.2
60012.2
60303.8
60864.8
61550.8
145440
145339
145193
145150
145384
145924
146693
195835
195781
195693
195619
195605
195779
196162
212607
212501
212395
212365
212362
212397
212451
196407
195983
195785
195717
195758
195771
195758
147158
146237
145792
145516
145425
145422
145446
62033.5
61186.6
60628.7
60284.6
60089.7
60023.4
60086.6
59889.9
60011
60103.7
60340.3
60628.7
61094.5
61667.8
145219
145189
144964
144958
145545
146498
147530
195721
195683
195560
195432
195534
195891
196426
212537
212438
212375
212348
212305
212320
212414
196649
196093
195781
195672
195714
195696
195672
147972
146760
145965
145420
145282
145273
145267
62612.9
61786.1
61157
60543.2
60107.1
59917
59927.1
59564.6
60208.9
60641.3
60529.2
60534.8
60916.2
61542.5
144903
144984
145077
145104
145703
146846
148071
195628
195596
195566
195474
195519
195812
196460
212358
212316
212348
212331
212244
212182
212272
196697
196155
195853
195758
195680
195533
195463
148435
147282
146223
145544
145288
145039
144803
62294.1
61803.2
61238.4
60897.2
60511
59902.8
59494.7
59088.9
61798.2
61269.2
59726.9
59812.7
60620.2
61281.3
144308
145558
145935
145048
144796
145642
147346
195269
195683
195842
195627
195563
195486
195492
211897
212304
212386
212272
212262
212177
211769
196046
196035
195831
195716
195761
195616
195207
147678
146295
145192
145127
146044
145614
143980
61762
60879.9
59817.5
59747.8
61141.7
61386.7
58999.4
60276.3
60237.8
60206.6
60202.5
60406.9
61073.3
61706.9
145625
145550
145474
145503
145716
145552
146128
195557
195601
195691
195860
195954
196034
196066
212359
212414
212477
212493
212443
212379
212318
196724
196323
196146
195860
195737
195746
195720
146914
146031
145430
145361
145470
145659
145781
61829.1
61125.2
60358.5
60068.1
60087.1
60176.4
60268.3
60269.4
60233.2
60205.4
60206.1
60436.4
61135.7
61775.3
145630
145550
145482
145530
145771
145625
146209
195547
195604
195674
195823
195976
196064
196105
212361
212397
212467
212487
212438
212370
212318
196789
196343
196116
195859
195710
195720
195708
147020
146109
145456
145369
145470
145652
145765
61896.4
61156.5
60364.5
60063.7
60080.2
60169.7
60260.6
60262.7
60228.1
60200.3
60206.4
60475.7
61191.3
61842.5
145627
145552
145482
145552
145820
145694
146274
195564
195595
195656
195784
196005
196081
196132
212377
212389
212463
212486
212435
212362
212330
196835
196341
196079
195856
195684
195703
195715
147074
146159
145475
145376
145464
145641
145745
61977.1
61159.6
60374.1
60058.2
60072.6
60162.8
60252.2
60257.2
60222.4
60194.8
60210.7
60508
61269.2
61962.8
145619
145559
145481
145567
145864
145717
146333
195585
195582
195642
195768
196030
196084
196144
212386
212387
212465
212488
212437
212354
212340
196868
196325
196059
195857
195670
195694
195720
147048
146168
145485
145383
145459
145638
145726
62096.6
61133.3
60380.9
60058
60065
60155.4
60247.5
60252.4
60216.6
60192.1
60224
60502.6
61370.3
62150.1
145614
145565
145483
145573
145911
145719
146383
195598
195580
195638
195770
196051
196083
196151
212382
212396
212471
212496
212439
212356
212349
196893
196300
196060
195863
195670
195701
195714
146927
146162
145476
145390
145457
145632
145713
62261.5
61062.7
60381.2
60058.3
60056.6
60148.2
60245.7
60247.6
60211.1
60191.8
60239
60445.8
61403
62277.6
145612
145568
145486
145570
145968
145725
146433
195607
195598
195648
195786
196069
196095
196161
212373
212416
212483
212504
212443
212365
212355
196898
196283
196074
195876
195683
195709
195704
146743
146141
145442
145385
145452
145622
145700
62304.2
60929.9
60375.4
60053.8
60050.8
60142.1
60241.8
60240.3
60203.9
60189.7
60242.2
60389.8
61315.9
62190.7
145610
145565
145488
145565
145995
145787
146460
195618
195620
195667
195814
196087
196114
196179
212386
212443
212500
212511
212452
212376
212365
196872
196280
196089
195894
195701
195715
195697
146623
146131
145411
145371
145444
145606
145685
62115.5
60753.9
60332.8
60040.9
60044.8
60132.6
60232.4
66697.6
66397.1
63114.6
60375.6
59874
60876
61087.5
150450
149198
147437
146002
144884
144704
145517
196421
196459
196200
195519
195151
194981
193778
210819
212202
212141
211917
211950
212003
210735
194076
195288
195329
195589
196293
196864
196721
145548
145007
144795
145688
147796
149829
150158
61523.8
60154.6
59680.3
60447.8
63424.7
66332.1
66211.7
68063.7
66524.6
63168.4
60757
59951.9
60174.5
59886.7
151828
150445
147626
145888
144888
144379
144314
196765
196664
196180
195443
194987
194783
193627
210862
212144
212113
211942
211913
211974
210849
193724
195007
195140
195531
196319
197085
197055
144339
144551
144778
145850
148123
150808
151295
60295.3
59800.3
59760.6
60904.9
63559.6
66773.4
67507.1
67509.4
66065.5
63130.4
61143.3
59998.7
59338.9
58780.1
151924
150432
147911
146026
144963
144082
143199
197005
196937
196224
195458
194926
194617
193628
211184
212202
212264
212137
212050
212043
211174
193662
194785
195092
195617
196432
197198
197160
143271
144231
145004
146281
148499
150647
151283
59109.3
59387.5
59935.5
61297.1
63658.3
66528.4
67155.7
67079.2
65493.3
63083.1
61279.2
60015
58940.7
58323
151782
150309
148101
146194
144925
143764
142604
197262
197173
196393
195594
194984
194514
193597
211597
212408
212566
212447
212322
212223
211503
193672
194669
195240
195842
196601
197274
197290
142695
143979
145259
146771
148707
150419
151425
58591.5
59217.3
60025.7
61555.5
63721.9
66091.7
66980.2
66996.2
65108.7
63065.8
61303.9
60010.9
58855.2
58285.5
151895
150320
148327
146372
144921
143629
142507
197523
197362
196654
195858
195158
194501
193510
212014
212743
212950
212823
212668
212494
211843
193684
194693
195512
196161
196814
197301
197455
142529
144048
145545
147121
148911
150339
151619
58420.5
59171.8
60189.1
61781.2
63872.3
65875
67304.4
67089.9
64958
63023
61313.3
59966
58763
58265.1
152184
150356
148483
146536
144929
143556
142478
197822
197593
196914
196127
195346
194533
193443
212389
213084
213293
213169
212982
212758
212173
193735
194831
195777
196467
196988
197332
197644
142484
144225
145791
147384
149089
150413
151908
58285
59119.2
60334.5
61940.4
63907.7
65905.9
67755.4
67342.2
65009.5
63040.4
61358.4
59920.3
58701.4
58281.5
152474
150478
148582
146683
144969
143504
142477
198139
197754
197102
196308
195485
194545
193425
212694
213288
213541
213436
213221
212937
212487
193785
194885
195906
196609
197078
197393
197798
142410
144269
145901
147556
149133
150534
152123
58160.9
59053.3
60412.2
62061.4
63957.1
66079.8
68125.5
61284.8
60604.6
60354.1
61463.8
64589.9
70596
79311.5
144188
143179
142837
142757
143257
145546
149874
189987
190389
190526
189973
188556
186564
184733
207769
207722
207133
205787
203755
201104
198200
197075
197048
196744
196186
195350
194185
192856
153120
153768
154368
155783
157697
160752
165223
68654.1
68870.3
69334.1
70805.3
73793.6
79477.7
88304.8
59939.8
59626.5
59475.5
60255.6
62553.4
67327.7
75408.7
143062
142507
142053
141844
142274
143963
147393
191255
190854
190744
189953
188390
186407
184403
208662
207841
207055
205695
203746
201173
198157
196880
196830
196547
196038
195386
194313
192770
151738
152535
153391
154622
156526
159059
162543
67234.3
67354.9
68233.2
70067.9
72821.7
76839.4
83533.4
58767.7
58723.5
58802.9
59234.6
60359.3
63270.5
69516.1
142137
141865
141473
141125
141123
141932
144064
191861
191148
190772
189865
188239
186256
184076
209351
208199
207123
205709
203857
201373
198260
196730
196532
196383
196273
195854
194547
192736
151645
152172
153262
154953
156857
158498
160462
66952.5
67122
68105.3
70029.8
72771.2
75432.8
79064.7
58432.1
58511.1
58634.4
58881.8
59442.8
60700.1
64437.7
141827
141540
141162
140703
140425
140580
141437
192136
191285
190597
189651
188094
186089
183853
209896
208693
207389
205894
203952
201328
198087
196729
196476
196298
196111
195556
194314
192726
152137
152615
153702
155305
157055
158667
160268
67349.7
67764.8
68778.9
70653
73114.4
75363.1
77444.3
58442.8
58564.5
58669.7
58865.2
59291.5
59850.2
61493.7
141905
141535
141074
140536
140176
140212
140402
192259
191458
190547
189409
187835
185870
183798
210351
209241
207852
206152
203884
200815
197154
196855
196527
196227
195743
194947
193655
191930
152478
152951
153853
155240
156864
158558
159989
67741.8
68341.1
69371.3
71154.1
73309.1
75502.6
77120.9
58470.2
58608.2
58709.9
58881
59253.3
59556.5
59921.8
141910
141546
141054
140486
140105
140033
139951
192291
191527
190559
189317
187618
185391
182899
210752
209672
208298
206405
203835
200070
195117
197094
196663
196215
195484
194397
192615
190083
152617
153018
153808
155027
156489
158074
159123
68065.9
68694.7
69770.6
71428.1
73327.7
75372.9
76665.3
58576.5
58691.5
58799.7
58938.6
59192.2
59366.9
59326.9
141897
141579
141115
140550
140051
139709
139389
192265
191488
190516
189270
187513
184980
181011
211055
210038
208612
206663
203899
199659
192199
197301
196870
196321
195473
194183
191985
187591
152642
153010
153817
154960
156307
157625
157845
68292.9
68823.6
70030.7
71597.1
73339.5
75233.2
76036.6
85454.8
77949
72810.8
69733.6
68330.6
68188.3
68678.9
162172
159008
156542
154764
153670
153299
153160
192778
193909
195118
196263
197069
197403
197308
198624
201208
203613
205625
207099
207873
207938
184122
185956
187949
189621
190694
191117
190929
147988
144205
142521
142171
142226
142715
143763
78628.8
69871.2
63841.6
60915.5
60635.4
60819
61520.4
81862.4
75912.5
71761.3
68741.9
67001
66513.5
67282.1
160825
158180
155991
154047
152647
151879
151689
192571
193748
195083
196263
197018
197221
197109
198662
201263
203579
205502
206943
207913
208780
183937
185986
188057
189698
190677
191154
191707
146005
142679
141499
141564
141898
142284
142910
73806.8
65849.5
61307.7
59477.4
59259.5
59590.9
59979.1
78733.8
75090.7
71702.9
68692.6
66855.7
66178.2
66571
159492
157810
155869
153842
152295
151520
151574
192313
193522
195017
196295
196915
197001
197067
198814
201293
203565
205523
207041
208249
209434
183777
186057
188182
189700
190604
191165
191944
142557
140647
140363
140753
141176
141560
141949
66615.2
60979
58784.1
58333.3
58365.1
58617
58750.7
77702.1
75176.2
72216.7
69620.6
67822.3
66979.7
66920.4
159174
157856
155842
153979
152580
151921
151789
192236
193282
194596
195719
196398
196814
197113
198790
201239
203574
205615
207310
208755
210010
183788
186033
188096
189581
190494
191216
192089
139900
139507
139748
140216
140638
141082
141527
61751.1
58856.8
58017.9
57897.4
57973.5
58134.5
58326.4
77503.7
75195.2
72518.3
70414.2
68969.4
68189.2
67812.6
158428
157374
155463
154007
153141
152640
152308
191531
192702
193979
195100
196007
196755
197203
198026
200928
203615
205877
207729
209281
210498
184071
186103
187876
189471
190568
191418
192246
139182
139428
139543
140005
140602
141170
141637
60270.6
58830.2
58096.2
57778.3
57736.1
57881.4
58083.9
76995.5
74921.2
72605
70897.4
69900.5
69214.9
68428.3
156840
156040
154632
153835
153881
153611
153090
189412
191543
193393
194792
195941
196895
197452
196214
200368
203763
206284
208249
209791
210963
183477
185839
187889
189523
190679
191561
192347
138993
139288
139406
139873
140550
141164
141647
60121.2
59044.2
58168.4
57660.5
57541.8
57691
57912.7
76268.2
74638.1
72601.2
71066.2
70221.6
69651.4
68888
155250
155241
154359
153828
153926
153981
153618
186817
190766
193095
194692
195952
196988
197659
193656
200047
203949
206643
208639
210202
211313
181734
185488
187895
189584
190707
191589
192378
138709
139025
139285
139783
140493
141115
141584
60088.2
59131
58231.2
57641
57508.7
57695.4
57857.7
100685
102522
102114
100991
99147
96381.4
92204.4
175950
177001
176691
174744
171908
168713
165619
193257
192697
192102
191610
191355
191504
192000
198501
197660
196368
195164
194807
195427
196658
187979
187065
185239
183636
182820
182740
183103
177433
174749
170207
165993
161841
157722
153241
106251
104077
101878
99970.8
97073.1
92801.3
86926.6
98093.2
99190.8
99508.6
98754.6
96988.2
94108.2
88878.2
174214
174102
173750
171859
169269
166628
163872
192516
191636
191052
190822
190863
191274
191872
198794
197403
195753
194599
194329
195055
196538
186288
185264
183837
182650
182007
181992
182607
172914
170109
166296
162786
158970
154917
150705
101749
100264
98928.3
96891.8
93458.8
88844.3
82511.3
96808.7
96664.3
96262.9
95268.8
93325.7
90222.3
84509.5
173605
172334
170527
168230
165960
163803
161667
191481
190602
189975
189962
190451
191160
191727
198668
197028
195149
193898
193607
194632
196541
183742
182888
181896
181045
180786
181174
182152
165573
163465
160553
157383
153748
149836
146153
94809.6
94493.9
93557.2
90920.7
87169.8
82388.7
75387.6
95015.7
93967.4
92812.5
91315.9
89185.1
85939.2
81465.6
171811
169355
166753
164556
162749
161181
159958
189952
189228
188705
188985
190166
191261
191718
198074
196378
194116
192672
192654
194159
196406
180649
180090
179457
179079
179465
180614
182022
157757
156290
154083
151164
147670
144445
141805
88027.2
88060.5
87079.7
84234.4
80038.5
75221.9
68676.9
91776
90702.9
89409.9
87764.5
85619
82903.2
80005.2
168033
165407
162816
161057
159731
158632
158290
187551
187033
186850
187443
188831
190000
190789
197296
195076
192027
190574
191282
193215
195419
177461
177034
176686
176930
178142
180090
182000
151672
150502
148842
146189
142985
140844
139529
82623.7
82360.4
81067.2
78100.2
73766.6
69264.2
64761.3
87061.7
86791.3
85899.7
84735.5
82875
81042.6
78993.5
162573
160512
158484
157793
156749
156181
156071
184392
183837
183991
184832
186059
186958
187854
195228
192824
189423
187804
188176
189768
192319
174262
174098
173974
174923
176953
179308
181304
147477
146515
145225
143221
140764
139457
138831
79332.6
77575.9
75797.5
73327.2
69290.7
65778.4
62863.7
81030.7
81762
81328.2
80844.5
79387.4
78423.7
76513.5
156044
154942
153296
153418
152386
152768
152225
180674
180053
180380
181318
181408
180751
181214
192493
189825
186204
184035
183040
182860
185028
171331
171458
171596
173126
174810
175301
176518
144157
142859
142303
141706
140065
138966
138021
76795.3
72953.3
71056.5
69465.4
65749.9
63385.7
61628.7
61093.1
60871.7
60907.5
60561.7
60679.6
60598.3
60973.7
135672
134636
133716
133277
132944
132586
131413
166452
165748
164648
163204
160385
156437
152417
175242
173369
170477
167141
163106
158317
152854
161570
161148
160263
158896
156548
153187
149644
130289
129783
129153
128683
128164
127341
126815
59274.9
59122.9
58781.5
57920.2
57654.3
57225.9
57019
52341.6
52145
52078.9
52130.7
52288.8
52444.9
52628.7
119540
119175
119153
119522
120150
119986
119891
148706
148506
148451
148573
148603
148438
148120
155924
155455
154817
154239
153819
153509
152901
143124
142967
142809
142620
142361
142094
141879
109867
110111
110314
110529
110736
110869
110937
46504.4
46875.8
47068.8
47306.3
47697.9
47942.6
48167
45914.4
46041.9
46209.4
46335
46414.6
46453.8
46459.7
106276
106623
107089
107552
107940
108154
108414
135905
135985
136317
137062
137917
138557
138858
143011
143005
143182
143617
144252
144884
145058
129916
129954
130137
130499
130917
131268
131426
96687.7
96746.9
96977.7
97208.5
97395
97516.3
97596.6
40753
40773.9
40875.7
40981.1
41069.4
41176.4
41157.5
41373.8
41400.9
41469.1
41548.7
41605.3
41670.7
41701.6
95920.6
95969.9
96169.4
96447.4
96649.4
96826.9
96957.4
125871
125877
125978
126201
126466
126647
126698
134201
134158
134178
134314
134505
134679
134666
122050
122061
122151
122333
122507
122628
122664
91144.8
91146.4
91205.1
91265.2
91309.1
91383.3
91467.5
39194.5
39238.2
39244.6
39207.4
39242.8
39239.6
39224.8
39514
39534.6
39542.9
39541.3
39546.2
39551.7
39545.2
90172.7
90173.2
90130
90075.4
90042.8
90009.1
89976.4
118367
118301
118198
118101
118002
117881
117780
127268
127128
126943
126793
126677
126569
126410
117098
117036
116977
116931
116892
116845
116765
88741
88796.1
88815.2
88813.4
88864.2
88858.3
88830
38633.5
38583.8
38601
38662.2
38642.5
38640.8
38661.1
39718.4
39719.3
39722.2
39725.7
39729.7
39733.2
39735.5
88068.4
88071.4
88068.6
88065.1
88056.9
88040.4
88032
112789
112751
112688
112642
112565
112487
112408
120757
120564
120370
120236
120180
120187
119982
113368
113315
113276
113247
113221
113255
113197
88884
88918.9
88925.5
88904
88898.8
88881.6
88866.2
39785.2
39685.2
39675.7
39758.6
39740.5
39763.5
39846.8
48501.4
48499.9
48497.7
48497
48501
48507
48509.5
86428.6
86447.7
86477.3
86507
86530.1
86541.4
86547.3
106647
106651
106667
106710
106697
106714
106672
113420
113271
113193
113164
113156
113315
113097
107751
107704
107730
107807
107849
107935
107935
87766.3
87753.5
87773.8
87834.9
87897.2
87923.5
87932.1
48960.9
48990.9
48998.6
48985.6
48997.4
48988.5
48965.2
86424.5
91677.8
96155.3
99316.4
100728
100167
97116.8
154699
158767
162479
165535
167495
168024
167657
183598
182947
182734
183095
184072
185285
186312
195778
194026
192993
193245
194628
196462
197671
191972
191495
191287
191385
191655
192083
192502
169765
172552
174466
175955
177094
178085
180043
95470.9
99196.1
101204
102840
103773
103427
105210
82756.2
88063.2
92720.9
96216.8
97425.6
96453.9
95168.9
151723
155584
159093
162028
164140
165330
166434
182983
182124
181740
181957
182835
184107
185323
195602
193743
192606
192652
193946
195905
197389
191738
191153
190770
190593
190647
190964
191464
166847
170278
172506
174029
175090
175233
176623
91314.4
96676
98992.5
100247
100996
100765
101941
77271.3
83112.4
87863.9
91497.7
93156.1
93992.1
94373
147465
150987
154440
157614
160346
163205
165774
182343
181150
180386
180360
181213
182613
183815
195376
193181
191807
191659
192904
195084
196943
191488
190589
189848
189301
189158
189390
189749
163550
167018
169664
171259
172221
172057
172282
86023.7
92460.4
95517.1
96972.5
97859.7
98175.1
98026
71381.5
77580.8
82235.7
85965.6
88223.9
90346
91558.5
143561
146355
149750
153275
155655
159007
162505
181942
180415
179149
178625
179127
180330
181341
194906
192123
190375
190271
191754
194098
195940
191271
189957
188668
187716
187295
187217
187268
161834
163934
166472
168015
168733
168455
167901
82165
87828.4
91773.9
93587.3
94576.8
95085.3
94367.8
66877.2
73001.1
77463.5
81044.6
83505.8
85852.9
86716.3
141222
143351
146220
149357
151091
153597
156612
181604
179685
178012
176884
176673
177317
178138
193543
190091
187825
188134
190094
192640
194518
190104
188435
186898
185654
184780
184348
184233
160705
161574
163391
164547
164814
164293
163493
80127.3
84202.2
87817.1
89889.6
91079.9
91440.4
91119.4
64324.1
70460.9
74216
77215.9
79575.9
81477.7
81292.3
140145
142317
144394
146000
146813
148000
149584
180546
178548
176409
174522
173519
173640
174598
190074
186864
184978
185042
187089
190044
192037
187398
185185
183632
182249
181062
180538
180390
158863
159110
159538
159782
159956
159328
159073
78614.8
81441.3
83398.1
85179.5
86842.3
87717.2
88644.4
63423.2
69140.3
71297.6
73791.4
75627.1
77751.6
75628.2
138925
141409
142137
142563
142359
143017
142799
175180
174284
173638
171610
169983
169634
170732
182140
179280
179411
180583
183048
186525
188951
180602
179058
178938
177804
176464
175842
175898
154380
154732
153754
153399
153585
152949
153388
75787
77900.3
77991
79514.2
81291.7
82768.4
84482.2
55251.8
54911
55396.8
55817.9
57014.9
57301.1
58406.9
124086
124373
124747
125304
126031
126728
127146
144820
148988
152233
154215
155259
155964
156486
146191
152247
157244
161351
164855
167914
169946
147281
151544
155118
157145
158358
159296
160167
127119
127903
128576
129216
129558
129540
129855
58423.1
58102.6
58199.2
57989.8
57939.4
58407.7
58350.6
46579.4
46213.5
45789.7
45269.1
44939.5
44786.6
44780.3
106448
106234
106067
105951
105857
105676
105548
136067
136292
136302
136281
136335
136493
136667
144740
145416
145826
146330
146970
147626
148110
139056
139490
139821
139997
140059
140208
140525
111953
111594
111711
112229
112546
112900
112687
49531.7
49297.2
49206.3
49215.9
49155.9
49187.7
49030.9
39992.9
39970.2
39960.6
39945.2
39880.2
39760.5
39673.4
94006.4
93901.8
93697.7
93432.8
93188.5
92923.3
92706.2
125716
125517
124974
124291
123737
123375
123243
137396
137242
136585
135991
135594
135393
135393
131093
130796
130207
129563
128997
128648
128487
102911
102488
101800
101358
101213
101422
101195
44152
44121.8
44085.3
44088.4
44146.3
44144.6
44148.4
38061.5
38075.4
38034.2
37989.1
38005.7
38057.9
38095.4
88064.4
87984.3
87903.9
87807.5
87703.3
87636.1
87637.8
117501
117480
117272
117007
116782
116723
116762
128549
128524
128280
128049
127880
127817
127846
120579
120572
120455
120287
120056
119872
119777
92817.6
92613.6
92267
91990.3
91808.3
91661.4
91707.5
40467.6
40461.1
40388.9
40339.7
40293.2
40226.8
40178.9
37652.4
37654.1
37665.9
37712.2
37667.4
37653.4
37647.3
86527
86524.9
86507.1
86473
86489.8
86505
86515.3
113589
113709
113690
113650
113682
113792
113929
122397
122509
122494
122561
122684
122900
123109
114233
114403
114411
114407
114384
114378
114407
88013
88017.1
87988.4
87920.4
87894.4
87866.9
87872.3
39285.2
39279.2
39285.9
39282
39267
39273.1
39259.4
39110.9
39124.5
39167.5
39247
39152.6
39092.2
39065.8
87790.7
87787.9
87782.7
87756.6
87776.9
87785.3
87799.2
111812
111965
111953
111964
111983
112039
112137
118543
118764
118684
118759
118929
119203
119478
111802
111967
111964
111982
111948
111918
111954
88293.1
88274.9
88271.9
88254.1
88269.6
88272.3
88279.8
40183
40160.7
40180
40181.3
40172.2
40200.6
40209
49189.4
49187.8
49176.4
49155.6
49176.2
49186.5
49187.9
87457.2
87458.6
87461.5
87456.5
87412.7
87371.8
87348.1
107665
107755
107716
107721
107640
107587
107594
113776
114030
113842
113922
114036
114199
114404
107949
108013
108005
108057
108041
107984
107958
87854.9
87843.2
87869
87887.1
87891.4
87880.4
87864.5
48860.7
48875
48865
48868.3
48886.2
48876
48877.4
)
;

boundaryField
{
    fuel
    {
        type            zeroGradient;
    }
    primary_air
    {
        type            zeroGradient;
    }
    Secondary_air_RHS
    {
        type            zeroGradient;
    }
    Secondary_air_LHS
    {
        type            zeroGradient;
    }
    outlet
    {
        type            totalPressure;
        rho             rho;
        psi             none;
        gamma           1;
        p0              uniform 100000;
        value           nonuniform List<scalar> 
98
(
45437
76075.6
100000
100000
100000
76301.1
45648.2
45391.3
76090.4
100000
100000
100000
76467.5
45566.8
45413.1
76136.7
100000
100000
100000
76308.3
45612.7
45265.2
75831.1
100000
100000
100000
76381.5
45594.2
45422.9
76010.9
100000
100000
100000
76430.3
45652.2
45415.9
75884
100000
100000
100000
76284.5
45587.6
45432.7
75808
100000
100000
100000
76083
45625.8
45255.8
75041.5
100000
100000
100000
76215.7
45545.6
45231.6
75122.4
100000
100000
100000
76487.7
45702.6
45232.2
75220
100000
100000
100000
76536.6
45687
45233.3
75293.7
100000
100000
100000
76241.8
45525.9
45234.3
75306.4
100000
100000
100000
76622.8
45712
45243.9
75285.9
100000
100000
100000
76588.9
45699.6
45269.1
75312.8
100000
100000
100000
76435.7
45559.6
)
;
    }
    stove_body
    {
        type            zeroGradient;
    }
    frontAndBack
    {
        type            empty;
    }
}


// ************************************************************************* //
