/*--------------------------------*- C++ -*----------------------------------*\
  =========                 |
  \\      /  F ield         | OpenFOAM: The Open Source CFD Toolbox
   \\    /   O peration     | Website:  https://openfoam.org
    \\  /    A nd           | Version:  6
     \\/     M anipulation  |
\*---------------------------------------------------------------------------*/
FoamFile
{
    version     2.0;
    format      ascii;
    class       surfaceScalarField;
    location    "0.01";
    object      phi;
}
// * * * * * * * * * * * * * * * * * * * * * * * * * * * * * * * * * * * * * //

dimensions      [1 0 -1 0 0 0 0];

internalField   nonuniform List<scalar> 
10143
(
-1.17633e-07
5.75689e-05
4.18044e-05
-2.50907e-07
5.81979e-05
4.17143e-05
8.63679e-08
5.7853e-05
4.12767e-05
1.64852e-07
5.82309e-05
4.131e-05
-2.12647e-08
5.86874e-05
4.13005e-05
-1.22526e-08
5.84827e-05
4.13678e-05
5.78255e-05
4.13418e-05
-2.64809e-07
4.08821e-05
-1.0548e-05
1.85797e-07
4.12441e-05
-1.08896e-05
-3.13544e-07
4.1058e-05
-9.94203e-06
-5.48678e-07
4.12865e-05
-1.00498e-05
3.19812e-08
4.13849e-05
-1.0599e-05
-4.05716e-07
4.13087e-05
-9.6016e-06
4.08619e-05
-1.08801e-05
2.97874e-07
1.30387e-05
5.38385e-06
7.694e-07
1.30035e-05
5.38625e-06
-1.99531e-07
1.25184e-05
7.14409e-06
-3.53601e-07
1.26792e-05
6.38732e-06
1.12499e-07
1.2825e-05
5.75521e-06
-3.05745e-07
1.26324e-05
6.72501e-06
1.3207e-05
5.10839e-06
-4.91978e-08
-1.30287e-05
4.90016e-06
1.85329e-07
-1.30766e-05
4.60103e-06
2.9537e-08
-1.27418e-05
4.25394e-06
-3.0481e-07
-1.26703e-05
4.54158e-06
-6.34202e-07
-1.28928e-05
4.88306e-06
-5.2949e-07
-1.27677e-05
4.05291e-06
-1.3229e-05
4.68649e-06
-6.94879e-08
-4.05705e-05
5.48131e-06
-6.68068e-08
-4.05238e-05
5.32198e-06
-2.08716e-07
-4.09409e-05
6.05534e-06
-3.35383e-07
-4.1327e-05
6.53165e-06
2.42028e-07
-4.10449e-05
5.29945e-06
-1.64514e-07
-4.09919e-05
6.28303e-06
-4.05545e-05
4.9573e-06
2.30722e-07
-5.73384e-05
-1.10643e-05
5.89938e-07
-5.75707e-05
-1.08259e-05
-1.20936e-07
-5.7754e-05
-9.84127e-06
-1.78084e-07
-5.82431e-05
-1.04789e-05
4.57314e-07
-5.82623e-05
-1.07929e-05
-2.94007e-07
-5.80093e-05
-9.44478e-06
-5.74683e-05
-1.09083e-05
4.98192e-08
4.18104e-05
-5.16828e-08
4.16204e-05
-2.20458e-08
4.17306e-05
5.21613e-08
4.1614e-05
-1.5341e-08
4.14858e-05
6.89339e-08
4.16005e-05
4.1748e-05
-1.59136e-07
8.81068e-05
6.39727e-05
-1.80613e-07
8.73654e-05
6.53792e-05
2.28591e-07
8.72517e-05
6.50673e-05
2.14604e-07
8.75346e-05
6.47739e-05
-9.53042e-08
8.85213e-05
6.37727e-05
-7.88033e-08
8.8119e-05
6.37498e-05
8.7652e-05
6.33776e-05
-7.40717e-07
5.76863e-05
-1.97684e-05
-4.15735e-07
5.59034e-05
-2.07698e-05
-2.08286e-07
5.58495e-05
-1.96321e-05
4.58268e-08
5.61643e-05
-1.98876e-05
6.23404e-07
5.75347e-05
-2.12895e-05
2.12673e-07
5.74895e-05
-1.96595e-05
5.74091e-05
-2.0746e-05
5.91148e-07
1.94448e-05
2.01146e-06
6.52149e-07
1.97325e-05
1.03897e-06
-2.91474e-07
1.91753e-05
4.56032e-06
6.99114e-08
1.86699e-05
3.16413e-06
4.89319e-07
1.89502e-05
3.44184e-06
-9.81621e-09
1.94032e-05
5.04312e-06
1.9727e-05
1.79636e-06
5.35442e-09
-1.96263e-05
4.67966e-06
5.18747e-07
-1.97836e-05
4.24979e-06
1.14504e-07
-1.92545e-05
3.83897e-06
-5.63854e-07
-1.89841e-05
3.63544e-06
-1.12989e-06
-1.90058e-05
4.12047e-06
-8.18931e-07
-1.91872e-05
2.98885e-06
-1.97834e-05
4.08153e-06
-8.29096e-08
-5.71762e-05
2.24974e-06
-5.21191e-07
-5.69226e-05
1.89734e-06
-1.85084e-07
-5.68942e-05
3.05264e-06
3.70595e-09
-5.68027e-05
3.90377e-06
6.70987e-07
-5.69197e-05
2.10171e-06
2.19897e-07
-5.66506e-05
3.88906e-06
-5.70839e-05
1.51607e-06
-1.96576e-07
-8.69433e-05
-2.1404e-05
1.38412e-07
-8.80879e-05
-2.05557e-05
-2.74058e-07
-8.70687e-05
-2.01104e-05
2.84166e-07
-8.74841e-05
-2.14551e-05
9.34072e-07
-8.76882e-05
-2.16022e-05
2.34208e-07
-8.72879e-05
-1.90616e-05
-8.70144e-05
-2.09303e-05
1.68127e-07
6.41134e-05
6.92473e-08
6.43631e-05
2.15117e-07
6.48961e-05
-9.69822e-08
6.42869e-05
-1.61738e-07
6.43291e-05
4.51831e-08
6.46093e-05
6.42179e-05
-4.46579e-07
0.000112712
6.50387e-05
-3.08411e-07
0.000111973
6.69467e-05
6.39558e-07
0.000111568
6.65698e-05
7.44559e-07
0.000112488
6.60676e-05
4.51635e-07
0.000112239
6.51636e-05
1.97121e-07
0.00011187
6.52934e-05
0.000112405
6.44628e-05
-6.28586e-07
6.02381e-05
-1.3113e-05
-2.95494e-07
5.89372e-05
-1.50246e-05
1.34416e-07
5.83153e-05
-1.39266e-05
1.02222e-07
5.91988e-05
-1.37128e-05
4.49971e-07
5.78663e-05
-1.42529e-05
3.08455e-07
5.85778e-05
-1.30371e-05
5.97082e-05
-1.40097e-05
6.2597e-07
2.02766e-05
2.04015e-06
6.28764e-07
2.05644e-05
1.10864e-08
-2.31737e-07
2.0271e-05
4.14655e-06
2.52706e-07
1.97023e-05
2.8521e-06
2.93918e-07
1.96249e-05
2.41224e-06
3.06924e-08
2.11418e-05
3.37785e-06
2.11534e-05
1.06657e-06
-9.03566e-08
-2.07469e-05
7.19213e-06
5.09359e-07
-2.135e-05
6.84959e-06
-3.35109e-09
-2.00628e-05
6.02865e-06
-5.21e-07
-1.98364e-05
5.12863e-06
-1.22266e-06
-1.96665e-05
5.51541e-06
-7.73683e-07
-2.08034e-05
5.7447e-06
-2.11631e-05
6.98833e-06
-2.78449e-08
-5.93786e-05
1.71771e-06
-7.28554e-07
-5.81482e-05
2.2328e-07
1.09897e-07
-6.02774e-05
3.03692e-06
-1.22303e-07
-5.72231e-05
2.32689e-06
5.07377e-07
-5.92359e-05
1.76944e-06
3.49515e-07
-5.9368e-05
3.27224e-06
-5.95986e-05
1.02261e-06
-3.4678e-07
-0.000111716
-1.48269e-05
3.07222e-07
-0.000111481
-1.45045e-05
-4.91001e-07
-0.000112248
-1.44343e-05
6.4919e-07
-0.000111787
-1.44526e-05
4.39707e-07
-0.000112257
-1.5504e-05
4.45374e-08
-0.000111776
-1.31192e-05
-0.000111946
-1.46257e-05
7.28185e-08
6.55459e-05
-2.08107e-07
6.6772e-05
-5.36596e-08
6.62148e-05
-1.98035e-07
6.60416e-05
-1.65001e-07
6.56473e-05
1.139e-07
6.5938e-05
6.57278e-05
-6.51812e-07
0.000119257
5.50046e-05
-8.79839e-08
0.000117311
5.63692e-05
6.39053e-07
0.000116882
5.5753e-05
7.82494e-07
0.000118209
5.48234e-05
7.926e-07
0.000118315
5.44757e-05
6.91603e-07
0.000118
5.53593e-05
0.000119074
5.46926e-05
6.95433e-08
6.26039e-05
-6.16499e-06
-7.58977e-08
6.11888e-05
-8.39729e-06
5.22621e-08
6.06458e-05
-7.36389e-06
-3.88918e-07
6.24097e-05
-7.33559e-06
1.02575e-07
5.98163e-05
-5.8671e-06
6.44189e-08
6.06267e-05
-5.23683e-06
6.22586e-05
-6.63232e-06
6.95453e-07
2.0098e-05
3.8679e-06
5.03278e-07
1.95227e-05
2.04345e-06
-1.11996e-07
2.00465e-05
5.58932e-06
2.63917e-07
2.05699e-05
4.39261e-06
1.11413e-07
1.89171e-05
3.76478e-06
8.92751e-09
2.02537e-05
3.88995e-06
2.06809e-05
2.68702e-06
-8.49656e-08
-2.03611e-05
8.97162e-06
5.17413e-07
-2.10459e-05
7.9615e-06
-1.27508e-07
-1.82082e-05
6.19097e-06
-4.74654e-07
-1.84364e-05
5.78014e-06
-1.15205e-06
-1.92185e-05
5.61955e-06
-7.16279e-07
-2.11805e-05
7.98143e-06
-2.07774e-05
8.92543e-06
5.78739e-08
-6.17755e-05
3.20842e-06
-7.79335e-07
-6.12633e-05
1.33372e-06
1.80443e-07
-6.21508e-05
6.2133e-06
-1.96048e-08
-5.96795e-05
4.14026e-06
4.11449e-07
-6.1587e-05
3.89801e-06
3.35794e-07
-6.2238e-05
4.34754e-06
-6.20815e-05
2.71343e-06
-1.41451e-08
-0.000118568
-7.4098e-06
4.0756e-07
-0.000117837
-7.97546e-06
-4.99084e-07
-0.000118274
-7.2274e-06
8.17842e-07
-0.000118569
-6.71702e-06
6.7402e-08
-0.000118426
-7.69779e-06
-3.11409e-07
-0.000117945
-6.68602e-06
-0.00011877
-7.62906e-06
-2.9803e-07
5.61803e-05
-2.36595e-07
5.71558e-05
-4.665e-07
5.57389e-05
-2.51519e-07
5.57718e-05
-1.15815e-07
5.46472e-05
2.99961e-07
5.53721e-05
5.61412e-05
-7.78976e-07
0.000121592
3.81309e-05
1.98083e-07
0.000119066
3.94927e-05
3.55409e-07
0.000118633
3.9762e-05
7.99914e-07
0.000119533
3.78341e-05
9.99859e-07
0.000120735
3.68633e-05
9.10035e-07
0.000120533
3.84729e-05
0.000121484
3.80586e-05
4.60159e-07
6.28647e-05
7.10427e-07
-8.53239e-08
6.12643e-05
-9.57007e-07
7.75593e-08
6.12979e-05
-8.10632e-07
-3.93094e-07
6.21349e-05
-5.01503e-07
-3.24371e-07
6.26922e-05
6.44767e-07
-2.9359e-07
6.28534e-05
9.05353e-07
6.30747e-05
1.01447e-07
8.84699e-07
1.95037e-05
6.06292e-06
3.83433e-07
1.97695e-05
3.85733e-06
4.39055e-08
2.03981e-05
6.66503e-06
2.18469e-07
2.04525e-05
5.70581e-06
-8.24e-08
2.03458e-05
6.15901e-06
5.95656e-08
1.98025e-05
6.56874e-06
2.01872e-05
5.33736e-06
-2.22948e-07
-2.00343e-05
9.74456e-06
2.9723e-07
-2.06478e-05
8.75402e-06
-1.89203e-07
-1.94699e-05
7.53407e-06
-4.62316e-07
-1.96751e-05
7.18911e-06
-6.85998e-07
-1.98727e-05
7.02966e-06
-6.48507e-07
-2.0313e-05
8.67334e-06
-2.00954e-05
9.53548e-06
1.32114e-07
-6.27455e-05
5.53117e-06
-5.59022e-07
-6.28048e-05
3.80393e-06
8.8223e-08
-6.21744e-05
8.12179e-06
7.38946e-08
-6.23736e-05
6.74136e-06
1.70564e-07
-6.21743e-05
5.8668e-06
2.43121e-07
-6.25457e-05
6.32509e-06
-6.26843e-05
5.27535e-06
3.40858e-07
-0.000121177
-6.05737e-07
1.62765e-07
-0.000120094
-1.78317e-06
-4.29401e-08
-0.000119861
-4.63066e-07
6.30156e-07
-0.000120623
-6.57321e-07
-2.72876e-07
-0.000120098
-1.28378e-08
-5.02987e-07
-0.000119969
-3.39759e-07
-0.000121261
-8.10382e-07
-3.54644e-07
3.94337e-05
-3.91629e-07
4.06356e-05
-4.38705e-07
3.91722e-05
-5.00469e-07
3.86439e-05
5.47126e-08
3.71493e-05
4.004e-07
3.86152e-05
3.93807e-05
-7.71064e-07
0.000119386
2.14602e-05
5.12176e-07
0.000117308
2.24271e-05
1.45407e-08
0.000119168
2.29835e-05
5.35135e-07
0.000116892
2.18801e-05
9.1091e-07
0.000116871
2.11545e-05
1.07098e-06
0.00011799
2.19952e-05
0.000119768
2.13356e-05
5.97783e-07
6.21098e-05
5.04552e-06
-4.58947e-07
6.19535e-05
3.57253e-06
3.98923e-07
6.13046e-05
3.94406e-06
-3.44336e-07
6.18271e-05
3.56649e-06
-8.3625e-07
6.2067e-05
4.07892e-06
-4.51473e-07
6.16535e-05
4.64573e-06
6.24315e-05
4.57574e-06
1.06958e-06
1.73499e-05
1.00623e-05
1.91871e-07
1.87842e-05
8.06249e-06
1.46655e-07
1.85456e-05
9.85786e-06
2.63684e-07
1.85383e-05
9.14728e-06
-1.67744e-07
1.97616e-05
9.16398e-06
-6.42616e-09
1.85105e-05
9.82743e-06
1.86706e-05
9.39225e-06
-4.70681e-07
-1.81008e-05
6.66861e-06
1.43379e-07
-1.9248e-05
6.87513e-06
-2.18077e-07
-1.92072e-05
6.42984e-06
-5.23793e-07
-1.94728e-05
6.28429e-06
-4.58849e-07
-1.92369e-05
6.61505e-06
-6.76872e-07
-1.80943e-05
6.09928e-06
-1.84247e-05
6.74799e-06
3.44993e-07
-6.21023e-05
9.43383e-06
-4.331e-07
-6.16741e-05
6.75451e-06
8.16897e-08
-6.15439e-05
1.01568e-05
-5.88184e-08
-6.15989e-05
9.37831e-06
6.64123e-09
-6.18721e-05
8.09371e-06
1.26325e-07
-6.13444e-05
9.74652e-06
-6.20263e-05
9.33894e-06
3.99111e-07
-0.000119487
4.09982e-06
-4.36918e-08
-0.000118152
3.5312e-06
4.16238e-07
-0.000118357
3.83854e-06
8.0122e-07
-0.000118323
3.42208e-06
-5.42034e-07
-0.000115026
3.94319e-06
-4.31836e-07
-0.00011799
4.10896e-06
-0.000119772
4.19588e-06
-2.86508e-07
2.22215e-05
-4.56862e-07
2.44589e-05
-4.64258e-07
2.24816e-05
-7.00974e-07
2.23245e-05
2.04734e-07
2.23619e-05
4.57535e-07
2.20767e-05
2.21146e-05
-9.58706e-07
0.000121124
6.72336e-07
0.000120205
-7.43187e-08
0.000122758
6.27434e-07
0.000120077
1.01978e-06
0.000119591
1.29328e-06
0.000120415
0.000121339
6.32428e-07
6.50229e-05
-6.44782e-07
6.44452e-05
1.00319e-06
6.43795e-05
-3.44029e-08
6.4602e-05
-9.82074e-07
6.45813e-05
-2.46793e-07
6.40576e-05
6.51064e-05
1.42887e-06
2.14443e-05
8.50061e-08
2.18365e-05
3.25952e-07
2.16012e-05
4.28175e-07
2.1586e-05
2.65055e-08
2.18279e-05
-5.5861e-08
2.19166e-05
2.19675e-05
-5.25399e-07
-2.15165e-05
9.4899e-08
-2.17064e-05
-2.99722e-07
-2.13692e-05
-5.99012e-07
-2.1644e-05
-5.83792e-07
-2.12862e-05
-8.2507e-07
-2.17519e-05
-2.19165e-05
4.37431e-07
-6.4802e-05
-5.10216e-07
-6.49853e-05
2.31455e-07
-6.40381e-05
-5.60444e-08
-6.43666e-05
4.03669e-07
-6.42912e-05
1.59641e-07
-6.39088e-05
-6.48565e-05
1.08125e-07
-0.000121143
-7.65232e-08
-0.000123993
6.64357e-07
-0.000121082
7.97694e-07
-0.000121255
-8.94602e-07
-0.000120881
-2.51412e-07
-0.0001205
-0.000121395
-2.4753e-07
-7.65287e-07
-6.06208e-07
-8.40779e-07
2.35979e-07
5.52245e-07
-0.00182786
0.00484195
-0.000864807
-0.000221269
0.00462906
-0.00413073
0.0015735
0.00457635
-0.0042815
0.00337593
0.00455331
-0.00427234
0.0045326
0.00420792
-0.00326283
0.00299609
0.00352922
8.04379e-05
0.00298158
0.0021024
-0.0026957
0.00585005
0.000816166
-0.00024873
0.00604173
-0.00481567
0.00392468
0.00645462
-0.00697453
0.00735934
0.00661939
-0.00650336
0.00895287
0.00617225
-0.00455999
0.00606197
0.00519115
0.00024662
0.0048594
0.0032606
-0.0018261
0.00325576
0.0037255
-0.000648119
0.00255837
0.00150593
0.00214662
0.00212846
0.000760248
0.00504861
0.00229479
0.000588339
0.00593234
0.00330457
0.00117327
0.00448491
0.00366821
0.00219094
0.00397919
0.00473964
0.000281032
-0.00387475
0.00585986
0.000718159
-0.00344742
0.00455682
0.000536764
-0.00293786
0.00419684
-0.000652535
-0.00184137
0.00420364
-0.00085301
-0.00174832
0.00418992
-0.000384797
-0.00235703
0.00452988
-0.00320929
0.00582055
-0.0048042
-0.00475955
0.00502989
-0.00635033
-0.00507409
0.00237295
-0.00562015
-0.00590808
0.00140617
-0.00258772
-0.00653319
0.000804665
0.000553396
-0.00665631
0.000955624
0.00200384
-0.00607627
0.00144215
-0.0057526
0.00385967
-0.0070296
-0.00303481
0.00443692
-0.00995807
-0.00367293
0.0005963
-0.00793987
-0.00462982
-0.00427857
-0.00392127
-0.00510481
-0.00640917
0.000699667
-0.00505068
-0.00716971
0.00311939
-0.00469933
-0.00475966
-0.00494136
0.00140189
-0.0039079
0.00303906
-0.00492677
-0.000514327
-0.00304056
-0.00438767
-0.00115772
-0.00486377
0.000748871
-0.00483277
0.00260776
-0.00441532
-0.000181259
-0.00234247
0.00491212
-0.00127801
-0.00297221
0.00404206
-0.00544606
-0.00270571
0.00366294
-0.00611717
-0.00201633
0.00376236
-0.00661933
-0.000478169
0.00374121
-0.00636583
0.000263712
0.0039655
-0.0024935
0.00370964
0.000750336
-0.00174283
0.00461172
0.00198908
0.000415685
0.00386634
-0.00761681
0.00161428
0.00400372
-0.00947816
0.00140225
0.00446053
-0.00807524
0.00186267
0.00378464
-0.00618748
0.00203921
0.00347652
-0.000406953
0.00339855
0.00472135
-0.000498844
0.00201858
0.00617798
0.000207089
0.00103059
0.0028635
0.00204144
0.000404798
0.00173767
0.00364158
0.000438695
0.00213572
0.00365585
0.00125787
0.00284959
0.00238925
0.00187239
0.00431046
0.00281533
0.0071237
0.00174851
-0.0026845
0.00774458
0.00165521
-0.00141147
0.00599758
0.000725135
-0.000650875
0.00503114
-0.000936877
0.000137505
0.00506199
-0.00174805
-1.95686e-05
0.005137
-0.00174452
-0.000811137
0.00613163
-0.00197618
0.00785017
-0.00283416
-0.00302382
0.0075266
-0.00426754
-0.00343666
0.00502279
-0.00412855
-0.00383088
0.00358469
-0.00225852
-0.00441125
0.00258295
-4.16189e-05
-0.00446792
0.00238013
0.000915828
-0.00441344
0.00327686
-0.0045679
0.00671415
-0.00257924
-0.00300848
0.00610989
-0.0031798
-0.00329789
0.000110167
-0.00284805
-0.00378265
-0.00578118
-0.00193613
-0.0043273
-0.00849912
-0.000278109
-0.00412985
-0.0101536
0.0018221
-0.00348292
-0.00858399
-0.00464369
0.00237911
-0.00100868
0.00319739
-0.00114351
-0.00150896
3.72628e-05
-0.00724545
0.000770784
-0.00781429
0.00153658
-0.0076297
0.00213139
-0.00637328
-0.000547502
-0.00271413
0.00481611
-0.00113868
-0.0051022
0.00402807
-0.00493993
-0.00598172
0.00289326
-0.00597537
-0.00561435
0.00222329
-0.00698753
-0.00496272
0.00357223
-0.0082083
-0.00234894
0.00461345
-0.00727954
0.00478604
-0.00411706
-0.00150261
0.00471272
0.00284256
-0.000913346
0.00372409
-0.00854774
-0.00296556
0.00364324
-0.00920614
-0.00528952
0.0027348
-0.00742922
-0.0040167
0.00169426
-0.00656097
-0.00136703
0.00238606
-0.00169296
0.00349866
0.00386806
0.000253641
0.00151638
0.00858584
0.00174479
0.000551853
0.0038292
0.00314929
0.000279034
0.00283363
0.0036121
0.000290971
0.00315634
0.00234915
0.00134721
0.00357755
0.00106773
0.00224508
0.00500614
0.00240427
0.00880771
0.00157772
-0.00234487
0.00891058
0.00166262
-0.00192189
0.00727261
0.000762145
-0.00119055
0.0062577
-0.00106643
-0.000149759
0.00626258
-0.00198723
-0.000179982
0.0064407
-0.00164964
-0.000690978
0.00760673
-0.00176271
0.00926495
-0.00200869
-0.00277711
0.00932166
-0.00330088
-0.00196128
0.00560361
-0.00424111
-0.00191311
0.00436551
-0.00356749
-0.00286161
0.00375878
-0.00194816
-0.00352965
0.00332304
0.000189108
-0.00438913
0.00422331
-0.00493008
0.00953839
-0.000259957
-0.00310351
0.00581493
0.00195471
-0.00377785
-0.00126636
0.00343148
-0.00318083
-0.00693704
0.00287667
-0.00337648
-0.00855098
0.00147771
-0.00335878
-0.00998348
0.0016048
-0.00324305
-0.0104849
-0.00424315
0.0024423
0.000630835
0.00163478
0.00232493
-0.00472314
0.00280707
-0.0087703
0.00264783
-0.00893249
0.00216908
-0.0084062
0.00150368
-0.00684347
-0.00110311
-0.0027175
0.00409301
-0.000295512
-0.00543334
0.00350924
-0.00355541
-0.00666335
0.00276529
-0.00528786
-0.00665339
0.0020322
-0.00674458
-0.0066655
0.00261359
-0.00849286
-0.00431906
0.00294699
-0.0102525
0.00349762
-0.00946632
-0.001709
0.00487873
0.00311495
-0.0047799
0.00427034
-0.00700937
-0.0074548
0.00276739
-0.00753119
-0.00853286
0.00172525
-0.00712447
-0.00791767
0.00199138
-0.00734877
-0.00541084
0.00317258
-0.00496383
0.00463262
-0.00318246
0.00116505
0.00160708
0.010091
0.00296065
0.000430592
0.00515086
0.00382781
-2.16617e-05
0.0039061
0.00284054
0.000429035
0.00450164
0.000681898
0.00187787
0.00496087
-0.00084676
0.00232182
0.00661749
0.00195529
0.0099943
0.00121438
-0.00205728
0.0100584
0.00161223
-0.00258698
0.00866736
0.000826789
-0.00188175
0.0077733
-0.000938175
-0.000411106
0.00780692
-0.00173792
-8.832e-05
0.00806714
-0.0012877
-0.000816168
0.00904278
-0.0019855
0.010578
-0.000549041
-0.00330263
0.0105268
-0.00190547
-0.0022353
0.00592022
-0.00339755
-0.00151135
0.00463423
-0.00386706
-0.00156234
0.00452978
-0.00267064
-0.00242501
0.00364819
-0.000804501
-0.00418667
0.00512522
-0.00498193
0.011227
0.00231719
-0.00293115
0.00231891
0.00512614
-0.00302892
-0.00403172
0.00761373
-0.00212948
-0.00950044
0.00764923
-0.00230195
-0.00875627
0.00545537
-0.00237337
-0.00884336
0.00238708
-0.00325415
-0.00922856
-0.00377071
0.0029702
0.00233936
-0.0013896
0.00483418
-0.00797255
0.00527714
-0.00919107
0.00497229
-0.00883452
0.00392482
-0.00762938
0.00174353
-0.00579149
-0.000900944
-0.00181953
0.00337063
0.00034246
-0.00386984
0.00285858
-0.00218269
-0.00552109
0.00255438
-0.0039895
-0.00580833
0.00164359
-0.00586377
-0.00535402
0.00159349
-0.00827031
-0.00337987
0.00118858
-0.0111991
0.00143728
-0.0120689
-0.00127288
0.00497635
0.00201351
-0.00592935
0.00407368
-0.00445655
-0.00941519
0.00293553
-0.00536139
-0.0105165
0.00135156
-0.00657006
-0.0103861
0.00176222
-0.00826397
-0.00752323
0.00375296
-0.0107024
0.00548781
-0.014703
0.00241758
0.00156983
0.0103404
0.00322909
0.000875764
0.00679587
0.00335783
0.000183123
0.00566562
0.00111847
0.000296278
0.00685888
-0.00211452
0.00138787
0.00765952
-0.00318037
0.0017814
0.00891268
0.00177339
0.0100892
0.00138594
-0.00212621
0.0109899
0.00189823
-0.00215772
0.00992822
0.0011147
-0.0016412
0.00928124
-0.000687475
-0.000396883
0.00926504
-0.00144169
-0.000424796
0.00949797
-0.00123076
-0.00109623
0.0104341
-0.00202268
0.0117275
0.00259023
-0.00486203
0.010138
0.00182088
-0.00371109
0.00749777
-0.00107438
-0.00172787
0.00676311
-0.00291466
-0.00104746
0.00614993
-0.00261931
-0.00292191
0.00501401
-0.00206415
-0.00407292
0.00683042
-0.00493004
0.0113958
0.00688763
-0.00319849
-0.00648132
0.0109054
-0.00192748
-0.010257
0.0110473
-0.000333925
-0.0116353
0.0101686
-0.00141489
-0.00824179
0.00676736
-0.00262067
-0.00665821
0.00174273
-0.00290965
-0.00629053
-0.00331209
0.002423
0.00387276
-0.00592743
0.00535453
-0.00914674
0.00662578
-0.00863376
0.00587492
-0.00737593
0.00390045
-0.00614621
0.00143959
-0.00408283
-0.000532576
-0.00087739
0.00273623
0.00068202
-0.00194675
0.00249713
-0.00144078
-0.00336501
0.00259816
-0.0030039
-0.00442227
0.00239217
-0.00498566
-0.00453145
0.00213926
-0.00811118
-0.00217315
2.76906e-05
-0.0114299
0.000179402
-0.0122284
-0.00129061
0.00402425
0.00106688
-0.0048552
0.00348976
-0.00278199
-0.00743031
0.00284653
-0.00388415
-0.00815794
0.00119172
-0.00545908
-0.00642208
0.000375052
-0.00904982
-0.00358495
-2.02881e-05
-0.0143697
0.00273035
-0.0215191
0.00271903
0.000709639
0.0100818
0.00352224
0.000755394
0.00787738
0.00312267
0.000467102
0.00752887
0.000765022
8.51592e-05
0.00938664
-0.00223136
0.000464841
0.00962708
-0.00355447
0.000482755
0.00887481
0.000837119
0.00770536
0.00174378
-0.00211425
0.0106282
0.00212004
-0.00101953
0.00997683
0.00111886
-0.000623228
0.0102319
-0.000315408
-0.000548808
0.0102589
-0.000840839
-0.000700659
0.0100261
-0.000697895
-0.000839812
0.0102828
-0.00079794
0.0111959
0.00464049
-0.00447179
0.00727644
0.00471082
-0.00210067
0.0076836
0.000683714
-0.000460327
0.00953522
-0.00253641
-0.00103958
0.0089242
-0.00313796
-0.00286379
0.00684481
-0.00260484
-0.00355385
0.00818112
-0.0038694
0.0110834
0.00683316
-0.00208451
-0.0160475
0.0107394
-0.000524841
-0.0163024
0.0107939
-0.000231535
-0.012666
0.00954943
-0.00198553
-0.00689848
0.00605646
-0.00252096
-0.00437876
0.00122657
-0.00246527
-0.00345483
-0.00271064
0.0016223
0.00410418
-0.00965686
0.0059804
-0.00927572
0.00710008
-0.00778467
0.00551851
-0.0056384
0.00320824
-0.00421831
0.00119819
-0.00237673
0.000155967
4.8341e-05
0.00255559
0.00026833
-0.000660713
0.00227714
-0.000821323
-0.00187083
0.00215312
-0.00177047
-0.00321862
0.00189357
-0.00336379
-0.00361414
0.00115334
-0.00670211
-0.00161547
-0.000282203
-0.0110131
6.44589e-05
-0.0117405
-0.000903048
0.00391105
-0.000210227
-0.00354403
0.00308668
-0.00178803
-0.00490952
0.00175806
-0.00292962
-0.00524798
1.07111e-06
-0.00404865
-0.00360119
-0.00163625
-0.00882024
-0.000680613
-0.00264971
-0.0158397
-0.000568432
-0.0224073
0.00222054
0.000453757
0.0104189
0.00340502
0.00106399
0.00770575
0.00178273
0.000899939
0.00913404
-0.000388535
-0.000480881
0.0111579
-0.00290965
0.000729089
0.00886108
-0.00354883
0.00123409
0.00473832
0.00143328
0.00132516
0.00148969
-0.00336904
0.0114829
0.00193216
-0.00237963
0.0114728
0.00120744
-0.000663722
0.0111938
-0.000503104
-0.000353476
0.0106621
-0.000100569
-0.00201015
0.0111283
0.000260038
-0.00177125
0.01159
-0.000192135
0.0118146
0.00466437
-0.000614881
-0.00106045
0.00652888
0.000696922
0.00175458
0.00232183
0.00121878
0.01064
0.000145531
9.46436e-05
0.0096213
-0.00281339
-0.00205148
0.00887578
-0.00214851
-0.00352669
0.00832023
-0.00339965
0.0113169
0.0049899
-0.000445837
-0.0219949
0.00837196
5.63401e-05
-0.0198101
0.00932009
-0.0006163
-0.0126251
0.00820885
-0.00109705
-0.0054565
0.00543185
-0.00147695
-0.00305015
0.000731079
-0.00196184
-0.00119938
-0.00241586
0.000534334
0.00386429
-0.0117898
0.00553903
-0.0087356
0.00546035
-0.00616681
0.00395138
-0.00307538
0.0021604
-0.00175976
0.000549204
-0.000576765
0.000463921
-1.20361e-05
0.00119178
0.00185643
-0.000948661
-0.000468892
0.0019655
0.000696043
-0.000119776
-0.000967964
0.00231159
-0.000258766
0.000515892
-0.000401666
0.00244279
-0.00265846
0.0017117
0.00046883
0.00381717
-0.00874984
0.00619554
-0.000273603
0.00506032
-0.0125651
0.0103479
0.00426622
-0.0124713
0.00997096
-0.00271517
0.00168524
0.00253706
-0.0010679
-0.00419698
0.00123495
-0.000187937
0.00170171
-0.0042718
0.000214924
-0.000866962
0.00235336
-0.00401876
-0.000794356
-0.00174425
0.00403004
-0.00237671
-0.000973448
-0.00573841
0.00825453
0.000131444
-0.000267288
-0.0144725
0.0167147
0.00286384
-0.0208646
0.0218577
0.000286817
-4.84529e-05
0.00966536
-0.00920797
7.60486e-05
-0.000150598
0.00925824
-0.00858361
-0.0012795
-0.000127975
0.00920173
-0.00830075
-0.00383152
0.000458078
0.0100423
-0.0095848
-0.00546683
0.000856195
0.00709126
-0.00811534
-0.00423104
0.000908257
0.000262333
-0.00332976
0.00137142
-0.00753967
0.00425604
0.000977015
-0.00212744
0.0109719
-0.0110038
0.00121156
-0.00196619
0.0121231
-0.0118082
0.000741326
-0.00145858
0.0121224
-0.0116185
0.000401484
-0.000857384
0.0118804
-0.0113704
0.000274506
-0.000413
0.011504
-0.0112522
8.93938e-05
-0.000169963
0.0117414
-0.0117001
-2.73026e-05
0.0114807
-0.0111064
0.00466698
-0.00311772
-0.0113797
0.00725514
0.00894134
-0.000708586
-0.00510695
-0.000925044
0.0072441
0.00170153
0.00556407
-0.00788252
0.00263952
0.00219004
0.0102896
-0.00973721
0.000212295
-0.000194123
0.00956267
-0.00823735
-0.000548236
-0.00116181
0.00940787
-0.00853708
-0.00138569
0.0106279
-0.0107851
0.0024471
-0.00569686
-0.0239948
0.0232543
0.00458089
-0.00462603
-0.0184312
0.0193835
0.00510562
-0.00291396
-0.00895104
0.0122542
0.00586598
-0.00197462
-0.00227664
0.00483753
0.00476266
-0.00215662
-0.000459823
0.00269276
0.00287405
-0.00121232
0.00056228
0.000596846
-0.000835114
0.00394547
-0.00238322
-0.00142324
-0.0144875
0.012196
-0.000534843
-0.0112673
0.00778553
-0.000473765
-0.00598249
0.00506775
-0.000450335
-0.00166927
0.00170848
-0.000955008
-0.000198793
0.000572973
-0.000324022
0.000778469
-0.000599811
0.00227694
-0.00139347
-9.01031e-05
0.0017215
0.00227516
-0.000183463
0.00199313
0.000848988
-0.000504943
0.00227057
-0.000138456
0.00139639
0.00209035
-0.00455995
0.00279183
0.00195261
-0.0100638
0.00163858
0.00271808
-0.0120887
0.0024774
-0.011319
-0.00138298
0.00183233
0.00308272
-0.00318768
0.00130982
0.00157729
-0.00427869
0.000317407
0.00147983
-0.00372558
-0.00105774
0.000164466
-0.00159663
-0.000748688
-0.00576902
0.00120542
-0.00056649
-0.0145973
0.00196184
-0.0198421
-0.000305991
0.000925947
0.00995091
-0.000983186
0.000676019
0.00965992
-0.00304226
0.000658733
0.010096
-0.00597413
0.00129123
0.00982333
-0.0055213
0.0013364
0.00384862
-0.00315083
0.000787671
-0.00398932
0.000164106
-0.00942341
0.00104828
-0.00111776
0.0108258
0.000570556
-0.000182141
0.0122265
0.000268714
-0.00102729
0.0128878
0.000294158
-0.00108825
0.0130716
0.000606939
-0.00117126
0.0125437
0.000655793
-0.000861437
0.0121989
-0.000476417
0.011679
0.00434884
-0.00253535
-0.0148782
0.00693238
-0.000546029
-0.00783495
0.00798197
0.00168088
0.00109347
0.00491258
0.00282818
0.00852703
0.00160014
0.000619891
0.010188
0.000183355
-0.000870437
0.00992999
-0.00123089
0.010561
-0.00125897
-0.00285528
-0.0231951
-0.00034805
-0.00276638
-0.0178444
0.0013324
-0.00164936
-0.0080829
0.00325143
-0.00136442
-0.000835568
0.00253912
-0.00174192
0.00179968
0.000888913
-0.00145763
0.00201847
-0.00116122
0.00403718
-0.00263714
-0.0126982
-0.00294884
-0.0116161
-0.00202765
-0.00648535
-0.00113257
-0.00189727
-0.00110859
5.75547e-05
-0.000681318
0.000931915
0.00250524
-0.000348858
0.00189157
0.00275846
-0.000414276
0.00152636
0.00139461
0.00143473
0.00188577
-0.001836
0.00455175
0.00212138
-0.00774628
0.00496565
0.00263223
-0.0110913
0.00347245
0.00331123
-0.0118913
0.00461139
-0.010457
-0.00212282
0.00264505
0.00380121
-0.00371141
0.0012267
0.00274119
-0.00409701
0.000256645
0.00279397
-0.00118998
1.10826e-05
-0.00125226
0.00144535
0.00101862
-0.00739206
0.00151218
0.00153469
-0.0136235
0.00301842
-0.0175143
-0.00146751
0.0029641
0.0103089
-0.00346912
0.00172995
0.0103229
-0.00644675
0.00190975
0.0106126
-0.00705801
0.00207021
0.00764715
-0.00455731
0.00129125
0.000461345
-0.00286337
-0.000365655
-0.0044727
-0.000244775
-0.00974914
0.00156876
-0.000107225
0.0112246
-0.00021064
0.00220384
0.0124451
-0.000926927
0.000733275
0.0136669
-0.000190064
-0.000920125
0.0141765
0.000569745
-0.0017429
0.013666
7.99727e-05
-0.00176785
0.0129942
-0.00201575
0.0124328
0.00219942
-0.00378046
-0.014137
0.0037841
-0.00204144
-0.00591576
0.00587573
-0.000309799
-0.000642758
0.00623091
0.000457201
0.00601897
0.00372431
-7.78485e-05
0.0101881
0.00127066
-0.00091538
0.0106302
-0.00202828
0.0109561
-0.00291711
-0.00443252
-0.0203742
-0.00333041
-0.00398719
-0.0161356
-0.00173508
-0.00294736
-0.0077227
0.00125169
-0.0023686
-0.00172037
0.00169987
-0.00185478
0.00236974
0.00111092
-0.00137096
0.00232268
-0.00147921
0.00399601
-0.0030909
-0.0120529
-0.00454702
-0.0120983
-0.00328234
-0.00864518
-0.00157751
-0.00392921
-0.000941982
-0.000423188
-0.000436189
0.00108701
0.00268905
-0.000141482
0.00208362
0.002935
0.000281526
0.00169145
0.00130158
0.00457892
0.00214504
-0.00628043
0.00781076
0.0019876
-0.0109747
0.00777396
0.00229359
-0.0113521
0.00547159
0.00289046
-0.0104775
0.00500194
-0.00797119
-0.00192518
0.00252481
0.00479646
-0.0033702
0.00160761
0.00363349
-0.00148775
0.000249594
0.00213353
0.00229593
0.00143756
-0.00511128
0.0041083
0.00251637
-0.0101307
0.00237692
0.00331179
-0.0130112
0.00431695
-0.0151526
-0.00265113
0.00383187
0.0110156
-0.00564718
0.00256139
0.0116647
-0.00766021
0.00164155
0.0105135
-0.00576183
0.00118355
0.0053392
-0.0034825
-0.000132964
0.000168083
-0.00191185
-0.00169158
-0.00177125
0.000116905
-0.00820155
0.00229506
5.41065e-05
0.0116726
0.000655663
0.00251036
0.0131457
-0.000796785
0.00177979
0.0139738
-0.000421308
-0.000515304
0.0144031
-0.000881152
-0.00134884
0.0142691
-0.00175434
-0.00261182
0.0137262
-0.00307724
0.0128039
0.000788513
-0.00504945
-0.010505
0.00270856
-0.00301803
-0.00298722
0.00447865
-0.00179358
0.000530545
0.0061694
-0.00158101
0.00476189
0.00483566
-0.000633952
0.0100749
0.00203194
-0.00103882
0.0111489
-0.00183154
0.011072
-0.00381354
-0.00496865
-0.017279
-0.00568738
-0.00410223
-0.0138263
-0.00352158
-0.00343497
-0.0089049
0.000393881
-0.0024689
-0.00533072
0.00240013
-0.00211356
0.00116908
0.00155547
-0.00137898
0.00286964
-0.00148946
0.00473531
-0.00488467
-0.0100728
-0.00750792
-0.0115751
-0.00646853
-0.0111416
-0.00233086
-0.00848994
-1.99304e-06
-0.00281653
-0.000271891
0.00201254
0.00308176
-0.000905176
0.0013431
0.00462631
0.00339484
0.00177095
-0.00274618
0.00847638
0.00164655
-0.0109546
0.00982505
0.000909201
-0.0113073
0.00902128
0.00142544
-0.00999297
0.00579082
0.00220185
-0.00748808
0.00359979
-0.00377811
-0.00200492
0.000666197
0.00692019
-0.000192476
-0.000151019
0.00308947
0.00713288
-0.000553838
-0.00368154
0.01242
0.000903432
-0.011139
0.0117549
0.00305745
-0.0118901
0.00818505
0.00395291
-0.0119236
0.00674437
-0.010866
-0.00407008
0.0043251
0.0107702
-0.00632255
0.00248767
0.0105788
-0.00619648
0.00112793
0.00807003
-0.00457482
-0.000157189
0.00421875
-0.00338291
-0.000950209
0.00234615
-0.00186797
-0.00140178
0.00139971
0.000243254
-0.0043021
0.00223995
0.000118072
0.0126825
0.000648303
0.00211238
0.01417
-0.000443908
0.00127716
0.014
-0.00027911
-0.000737371
0.0138626
-0.000725841
-0.00141033
0.014254
-0.00188442
-0.00219928
0.0147259
-0.00372453
0.0138878
0.00107528
-0.00713737
-0.00493509
0.00192277
-0.00365112
0.00133988
0.00372327
-0.00271364
0.00216301
0.00541859
-0.00134253
0.00309282
0.00577821
0.000186778
0.0074682
0.0038619
1.24058e-06
0.0102355
-0.000776387
0.0113705