/*--------------------------------*- C++ -*----------------------------------*\
  =========                 |
  \\      /  F ield         | OpenFOAM: The Open Source CFD Toolbox
   \\    /   O peration     | Website:  https://openfoam.org
    \\  /    A nd           | Version:  6
     \\/     M anipulation  |
\*---------------------------------------------------------------------------*/
FoamFile
{
    version     2.0;
    format      ascii;
    class       volScalarField;
    location    "0.01";
    object      T;
}
// * * * * * * * * * * * * * * * * * * * * * * * * * * * * * * * * * * * * * //

dimensions      [0 0 0 1 0 0 0];

internalField   nonuniform List<scalar> 
3773
(
288.361
287.236
287.386
287.286
287.152
287.279
288.548
289.489
288.939
289.273
289.01
288.815
289.062
289.535
307.525
309.089
309.185
309.108
309.079
309.119
307.498
313.3
313.531
313.589
313.544
313.529
313.592
313.311
307.554
307.73
309.212
309.137
309.124
309.167
307.556
289.707
289.906
289.384
289.08
289.013
289.289
289.715
288.683
288.375
287.705
287.265
287.396
287.52
288.76
266.729
263.421
262.862
263.399
263.309
264.109
267.653
271.698
276.225
276.654
276.242
275.867
276.406
272.589
313.288
311.188
311.187
311.566
311.613
311.154
313.351
324.852
324.974
324.997
325.16
325.118
324.926
325.33
313.531
313.589
311.74
311.708
311.734
311.614
313.626
272.53
272.576
276.519
275.799
276.221
276.853
272.645
268.787
265.67
265.534
265.36
264.484
264.975
268.898
238.338
235.078
233.68
234.124
235.221
236.446
238.81
261.452
268.057
269.832
266.913
265.241
266.024
261.53
314.088
311.648
311.266
313.469
313.143
311.041
313.696
326.07
325.21
325.306
326.264
326.296
325.086
325.946
313.974
312.344
311.861
312.805
313.276
312.052
313.782
261.928
264.566
266.92
263.696
266.188
266.818
261.859
240.02
236.983
236.197
236.607
235.565
236.65
239.849
222.673
222.988
222.742
222.247
221.845
222.168
222.79
259.137
267.575
269.754
266.482
262.902
263.658
259.172
313.728
312.107
311.341
312.715
314.084
310.995
313.45
326.118
325.474
325.634
326.235
326.125
325.457
325.982
313.673
310.75
313.279
314.891
313.955
311.254
313.431
259.434
263.198
264.995
261.834
264.168
265.041
259.462
223.237
222.206
222.842
220.686
222.287
222.916
223.257
217.67
219.533
220.324
219.341
218.068
217.743
217.648
258.822
265.885
267.226
265.638
263.592
264.007
258.947
313.924
311.837
311.35
312.202
311.945
309.928
313.803
326.191
325.48
325.67
325.802
325.579
325.211
326.149
313.808
310.598
312.584
313.503
313.047
310.782
313.79
259.142
264.181
264.444
263.502
264.225
265
259.171
217.769
218.054
218.931
216.984
218.872
218.343
217.773
217.11
218.706
218.572
219.068
218.2
217.534
217.038
261.897
267.791
268.196
268.748
267.777
267.734
261.453
314.812
311.32
311.371
310.756
310.522
310.193
314.39
326.447
325.58
325.221
325.475
325
325.711
326.392
314.59
311.549
311.022
311.248
311.049
311.395
314.491
262.05
267.974
267.752
268.447
269.287
267.805
261.78
217.152
217.332
218.276
216.749
219.26
217.983
217.095
214.293
212.769
213.689
214.952
214.654
214.556
214.375
263.046
265.207
262.466
264.002
264.208
264.691
262.979
312.092
312.428
310.74
311.439
310.487
311.721
310.93
330.89
332.178
331.829
331.857
332.469
330.786
332.57
312.173
316.93
311.89
310.816
318.15
312.173
311.054
263.425
254.801
264.312
263.901
257.2
264.705
263.213
214.582
213.492
214.74
213.956
213.013
214.768
214.485
326.127
326.197
324.785
322.744
320.676
323.057
325.242
322.229
319.616
327.6
327.5
326.121
327.375
325.233
312.234
318.785
322.514
326.768
325.815
324.789
315.866
312.749
322.846
326.727
333.43
326.533
322.566
312.032
322.152
328.393
328.842
329.362
326.945
323.495
318.457
328.056
329.721
328.65
330.525
331.47
324.034
327.321
326.11
326.397
326.42
329.378
331.04
330.817
330.029
323.285
325.302
322.629
319.789
316.083
315.413
323.715
318.919
313.271
328.226
324.633
319.736
319.186
321.844
308.971
312.864
320.54
324.894
322.196
320.151
312.345
312.177
321.998
331.588
341.862
330.308
321.8
311.632
319.5
325.11
326.645
329.159
324.886
318.591
315.709
325.298
322.658
321.916
327.432
331.612
317.157
324.813
322.713
314.651
322.862
328.234
330.683
331.302
329.296
318.002
324.451
321.954
320.487
319.128
318.552
319.588
309.13
315.667
327.676
316.213
306.406
306.16
313.623
300.217
304.35
318.266
322.628
320.779
313.156
304.159
311.945
322.286
335.543
344.24
333.122
321.369
310.997
312.308
319.915
322.926
324.371
319.924
308.645
307.384
321.456
308.972
307.182
317.17
329.057
322.788
318.287
320.903
311.544
320.18
326.753
329.315
330.671
322.308
320.249
324.964
325.57
327.526
331.191
332.477
329.817
298.65
324.997
326.265
315.153
303.527
298.912
300.56
292.223
302.415
316.589
322.135
320.531
303.538
293.89
313.849
324.069
337.154
344.383
335.232
321.438
312.461
302.927
310.052
321.326
321.19
317.35
304.441
299.056
308.229
299.687
305.375
315.432
327.332
330.153
306.785
309.024
319.168
325.685
327.8
329.259
330.332
322.024
324.28
326.237
327.473
329.068
333.072
336.431
337.96
299.234
327.84
326.902
321.567
318.63
317.515
320.7
291.115
302.655
316.603
323.273
318.649
299.418
293.623
315.774
323.126
336.782
343.982
335.767
321.697
314.444
295.495
299.709
317.864
321.397
317.477
303.315
293.084
304.821
312.09
320.782
324.121
328.747
331.559
301.176
315.101
326.102
328.454
329.625
330.061
330.231
326.3
325.752
328.812
330.166
331.641
334.758
337.766
339.421
313.539
331.319
330.634
329.23
328.915
331.107
339.221
294.175
304.439
318.852
324.018
317.631
299.666
297.126
322.191
326.102
337.531
344.124
337.025
325.349
321.915
297.843
299.437
314.207
322.122
319.039
303.583
293.503
333.565
333.763
332.025
332.003
333.145
333.529
308.144
333.17
333.61
332.641
331.257
330.577
330.206
327.879
326.119
329.396
330.797
332.253
334.693
338.931
340.389
321.723
332.925
332.583
331.881
329.38
330.028
340.016
301.782
311.237
321.247
327.543
317.656
302.978
302.025
324.79
330.634
340.653
346.666
339.85
332.113
329.161
301.638
301.896
313.333
324.728
320.397
306.975
298.28
344.688
339.408
335.073
334.76
334.682
334.566
316.869
341.72
337.597
333.336
331.009
330.365
330.144
327.794
326.827
327.049
328.756
331.881
337.571
342.106
343.573
332.085
334.843
333.38
333.089
332.866
339.851
345.158
316.281
318.941
325.245
328.593
320.746
321.198
331.4
332.939
334.428
342.803
348.314
343.675
337.81
336.104
337.677
328.376
321.61
324.773
325.098
317.78
310.306
348.129
343.461
337.572
335.084
335.301
335.791
331.489
342.372
335.07
331.148
329.532
328.518
329.872
327.098
323.699
328.122
331.974
334.891
338.785
341.574
342.874
329.226
335.61
334.135
333.019
334.206
342.852
346.238
318.814
322.55
328.669
328.359
323.908
329.917
337.953
336.339
339.584
346.294
349.43
345.911
342.268
339.451
345.411
341.816
329.271
327.101
327.462
321.342
313.281
347.418
343.287
337.411
333.793
334.335
335.249
328.597
340.821
336.991
333.26
331.774
331.813
328.924
324.686
320.864
329.237
331.825
336.962
338.803
341.272
343.571
326.889
334.989
334.379
334.253
340.453
347.418
346.963
320.602
326.796
329.909
329.09
331.187
343.155
346.204
336.207
340.609
347.379
349.363
346.459
343.14
339.683
347.98
344.989
337.88
331.324
329.659
325.563
319.77
346.905
343.842
339.164
334.398
334.858
335.162
325.581
342.659
340.916
337.241
332.938
331.524
329.006
322.902
316.157
328.317
333.89
338.215
339.796
343.311
344.651
322.564
336.081
336.708
342.461
345.856
348.908
349.13
323.979
329.913
331.107
331.99
338.857
344.891
347.364
335.68
340.166
347.679
350.486
347.99
342.689
338.786
348.063
345.226
341.652
335.817
332.417
328.862
321.502
348.245
347.394
344.195
339.581
336.236
335.781
321.358
345.249
344.531
341.661
337.483
333.469
328.812
317.251
315.391
330.562
334.384
339.504
341.955
345.974
346.53
323.529
336.63
342.493
345.364
347.952
351.789
351.907
325.36
330.925
332.303
335.636
341.602
346.453
348.855
333.576
338.681
347.969
353.159
348.208
341.243
335.853
348.566
344.815
341.62
335.918
333.292
330.57
324.304
350.827
349.646
347.854
345.849
342.534
337.218
325.309
347.816
347.547
343.091
340.127
337.981
330.155
316.915
315.757
332.922
339.933
344.426
347.304
348.788
348.867
328.808
341.186
343.373
346.04
348.097
352.422
352.7
328.711
333.837
335.952
337.996
343.616
345.591
349.308
333.238
338.94
348.072
353.593
348.364
341.465
335.439
348.465
343.822
340.754
340.647
339.848
336.47
328.941
351.665
351.706
349.946
348.455
346.496
343.514
328.219
349.341
349.423
346.93
345.083
340.737
337.803
316.328
335.398
339.206
347.518
347.699
349.372
347.675
343.067
341.487
343.612
346.18
349.577
351.269
354.101
353.499
343.641
348.988
350.96
351.126
350.39
349.916
348.177
336.768
342.314
349.615
353.581
349.135
343.063
338.239
347.481
350.159
353.357
352.678
351.321
349.267
343.548
352.703
353.419
352.166
351.197
349.634
347.019
343.529
346.133
351.303
348.691
347.969
346.29
338.975
335.604
326.845
329.997
330.792
332.37
336.075
341.619
343.039
329.043
330.522
331.617
332.019
329.863
334.212
342.54
303.688
312.805
322.334
327.509
317.709
307.032
308.836
325.933
330.131
339.885
345.393
339.725
331.937
330.531
313.314
306.903
313.83
323.593
322.032
311.287
298.604
347.368
341.821
336.409
334.497
333.34
331.883
325.622
343.376
336.901
331.636
330.293
330.288
330.333
327.814
327.215
330.165
330.728
332.373
336.18
341.85
343.265
329.041
331.775
332.314
332.334
330.312
335.336
343.089
304.839
313.256
322.375
327.579
317.911
308.06
310.338
326.16
330.385
340.12
345.503
339.927
332.279
330.757
320.918
308.876
313.989
323.539
322.284
312.114
298.766
347.873
342.37
336.83
334.853
334.035
332.581
325.161
343.266
336.704
331.391
330.082
330.094
330.333
327.51
327.385
330.198
330.487
332.412
336.472
342.009
343.327
328.91
331.9
332.519
332.458
330.492
335.863
343.613
305.841
313.643
322.572
327.764
318.031
308.92
313.995
326.762
330.872
340.396
345.721
340.228
332.402
331.24
327.591
312.744
314.474
323.53
322.412
312.547
299.499
348.184
342.666
336.969
334.928
334.177
332.899
325.348
343.152
336.695
331.24
330.092
330.081
330.403
327.465
327.439
330.335
330.348
332.411
336.774
342.248
343.658
328.396
331.686
332.547
332.658
330.925
336.97
344
306.909
314.021
322.686
327.822
318.092
310.575
323.6
327.186
331.296
340.58
345.876
340.396
332.755
331.474
331.55
314.643
314.928
323.531
322.718
313.188
300.163
348.331
342.916
337.228
334.917
334.19
331.98
326.196
343.11
336.602
331.206
330.306
330.178
330.078
327.265
327.655
330.551
330.187
332.386
337.276
342.45
343.87
329.17
332.219
332.464
332.851
331.367
337.499
344.502
307.44
315.077
323.056
327.926
318.192
312.325
327.018
327.612
331.684
340.73
345.945
340.485
333.051
331.642
334.192
318.083
315.799
323.554
323.123
313.849
300.896
348.36
343.127
337.413
335.06
334.574
332.358
326.432
343.273
336.55
331.207
330.338
330.1
330.088
327.295
327.954
330.643
329.943
332.266
337.435
342.519
344.047
329.655
332.871
332.534
332.953
332.145
338.382
344.673
309.023
315.7
323.389
327.985
318.278
313.642
329.136
327.876
331.913
340.817
346.075
340.728
333.568
332.211
335.9
319.698
316.299
323.582
323.354
314.272
301.721
348.385
343.411
337.599
335.352
334.796
333.068
327.203
343.229
336.115
331.227
330.116
329.535
330.3
327.466
328.198
330.916
329.542
332.118
337.516
342.348
343.85
329.091
333.225
332.735
333.07
332.6
338.766
344.996
310.114
316.118
323.59
328.146
318.501
315.294
330.256
328.152
332.23
341.052
346.184
340.94
334.073
332.566
337.236
320.97
316.957
323.789
323.923
315.349
302.516
348.321
343.519
337.726
335.489
335.126
333.849
327.266
342.805
335.913
331.096
329.745
328.991
331.127
327.599
331.991
354.526
338.856
336.01
330.899
326.364
318.956
341.418
348.498
354.633
358.249
352.056
351.318
346.045
355.775
356.532
355.541
354.06
353.62
351.379
348.233
337.188
344.421
350.244
353.584
349.741
345.205
338.473
347.407
352.931
354.148
354.172
355.395
356.411
356.142
348.964
352.525
353.458
357.941
359.949
356.389
345.533
323.159
328.893
339.145
343.727
357.88
353.455
332.772
359.722
341.086
337.634
333.728
328.722
326.988
326.789
353.154
360.635
352.998
351.767
349.742
347.17
343.396
357.296
356.504
353.329
353.205
353.231
352.021
348.583
337.686
345.354
350.453
353.623
350.086
346.371
339.314
347.996
352.645
353.685
353.868
353.824
355.932
359.498
346.839
349.605
350.325
352.754
355.327
358.987
354.256
327.801
328.085
333.014
337.692
341.696
349.024
350.028
348.816
341.138
339.926
336.33
333.8
334.041
340.114
359.719
354.543
352.062
350.965
349.812
348.209
347.048
354.139
353.002
352.922
353.247
353.111
352.472
349.271
338.873
346.509
350.907
353.719
350.447
347.602
340.055
348.901
352.896
353.558
354.236
353.761
352.902
354.6
348.776
349.677
350.23
351.457
354.649
355.172
357.806
336.068
332.458
333.891
338.249
342.207
345.272
358.345
347.811
345.992
345.888
342.536
341.559
341.324
347.87
355.853
353.789
352.805
352.394
351.382
351.111
351.58
352.606
352.948
352.852
353.36
353.023
352.517
350.078
340.49
347.629
351.297
353.893
350.747
348.646
341.818
350.005
353.012
353.634
354.367
353.886
353.468
352.459
352.614
352.006
352.493
353.368
354.966
355.575
355.759
349.41
340.053
339.83
342.127
346.606
347.19
349.871
349.568
348.845
348.589
346.386
346.071
348.801
349.617
355.32
354.062
353.153
352.673
352.105
352.969
352.999
351.838
352.86
353.045
353.583
353.135
352.248
351.281
342.698
349.527
351.777
354.037
351.351
349.895
342.922
351.719
353.291
354.058
354.589
353.876
353.555
351.973
354.904
353.714
353.663
353.919
354.491
354.817
355.264
351.479
348.708
343.89
344.872
348.14
349.056
350.349
350.825
350.669
349.728
349.189
349.158
349.102
348.251
354.853
354.523
353.923
353.618
353.597
353.087
352.949
351.692
353.15
353.175
353.357
352.844
352.287
350.755
344.507
350.982
352.412
354.017
351.97
350.754
344.526
351.76
353.398
353.979
354.418
353.795
353.644
352.539
354.842
355.386
355.103
354.566
354.856
355.126
355.652
351.316
349.779
349.678
348.332
348.738
349.942
351.047
353.42
350.726
348.952
348.259
346.328
345.242
345.63
355.57
354.45
354.036
353.707
352.614
351.496
350.555
351.602
352.864
352.659
352.693
352.207
351.814
349.894
346.5
351.62
352.312
353.448
351.804
351.007
346.059
350.903
353.197
353.63
354.088
353.674
353.499
351.521
354.03
355.4
356.569
356.726
356.779
357.684
359.109
349.555
350.826
352.918
353.839
354.503
356.24
358.662
318.827
317.078
315.668
315.596
318.244
330.896
339.068
342.414
341.738
341.194
340.389
340.111
343.825
347.975
347.963
351.908
357.539
357.886
357.523
357.984
358.614
341.037
355.381
357.99
357.945
357.756
357.273
356.917
355.615
355.582
355.941
356.318
356.236
356.901
358.289
344.707
344.396
344.283
344.831
347.376
349
352.637
333.416
334.211
333.254
333.917
335.647
342.346
348.341
327.931
325.552
325.204
325.074
329.24
333.974
338.928
342.703
341.494
341.192
340.969
341.362
342.244
346.251
348.359
349.084
355.719
356.716
356.59
356.836
357.499
340.845
346.03
353.381
355.86
355.919
355.57
354.455
358.86
358.942
358.82
358.42
357.905
357.597
356.976
355.289
355.325
354.284
353.08
352.34
351.562
350.66
353.023
353.096
351.609
351.35
348.171
347.348
350.6
341.489
340.917
340.153
339.259
337.044
338.113
338.17
347.582
347.116
346.97
346.211
346.02
346.484
347.33
348.192
348.388
351.035
356.21
355.971
355.97
356.106
341.051
343.35
345.24
348.377
350.657
352.105
351.984
355.983
356.131
356.356
357.128
359.879
359.549
357.272
359.069
359.195
359.434
360.197
362.405
362.297
357.418
360.198
361.286
361.426
361.453
363.289
360.965
353.197
349.41
349.416
349.243
349.019
348.431
344.925
340.133
351.584
351.422
351.454
351.213
351.066
350.91
352.518
348.337
347.977
348.187
350.178
354.508
355.454
355.636
342.084
342.664
343.571
344.128
345.189
347.111
347.565
352.606
353.118
353.996
354.556
356.662
357.909
359.096
355.782
355.893
356.569
357.94
359.441
360.987
363.347
350.665
351.357
353.026
355.344
359.936
362.082
361.2
349.175
349.18
349.197
349.193
349.925
350.65
344.385
352.184
352.015
351.881
351.701
351.19
350.837
352.697
349.599
348.587
347.705
347.573
348.09
349.505
353.358
342.871
342.986
343.167
343.135
343.071
343.096
343.509
352.094
352.243
352.784
353.111
353.844
354.425
356.246
355.527
355.91
356.7
357.546
358.436
360.166
362.756
350.623
351.251
352.332
354.758
357.077
362.265
363.183
348.465
349.027
348.994
349.182
349.895
350.281
347.175
352.391
352.154
351.572
351.147
350.944
350.823
350.898
350.056
349.391
348.889
347.754
347.257
346.162
346.328
343.93
343.204
343.01
342.501
342.147
341.277
340.086
351.17
351.204
351.662
351.933
352.555
352.562
352.69
356.119
356.439
357.236
358.076
359.228
360.489
362.611
351.555
352.464
353.551
355.344
358.116
363.835
363.993
346.369
347.426
347.646
348.331
349.523
349.784
348.043
350.342
349.937
349.582
349.373
349.207
349.239
349.149
349.616
349.264
348.893
348.267
347.461
346.381
343.815
345.434
344.231
343.743
342.635
341.874
339.938
337.61
351.932
353.158
354.341
356.183
355.926
354.308
352.47
360.113
360.432
361.369
362.404
362.968
363.213
362.514
359.5
360.371
362.047
362.923
363.964
364.733
363.357
344.06
339.066
333.378
330.315
328.622
329.256
329.748
351.154
348.139
346.284
343.594
342.695
342.486
341.871
357.844
357.415
357.161
357.014
356.014
355.518
355.255
357.931
358.214
358.754
358.902
358.778
357.295
340.273
357.851
357.88
358.349
359.136
359.475
358.463
347.164
348.453
344.236
342.383
341.016
340.911
341.262
341.777
343.27
329.511
325.234
319.579
319.516
320.434
320.584
347.215
344.841
346.412
347.359
346.335
347.141
346.312
352.374
351.389
351.463
351.702
351.67
351.25
351.842
357.327
357.433
357.812
357.858
357.867
357.715
357.256
356.535
356.912
356.958
356.222
353.825
346.113
339.657
357.125
357.363
357.769
358.573
358.709
352.652
347.48
346.366
344.611
343.199
342.876
343.436
343.486
344.057
339.205
330.929
328.157
326.706
328.568
328.771
330.835
351.977
362.121
364.973
364.939
363.734
360.669
356.131
359.08
360.643
363.088
363.475
363.043
362.805
361.464
358.985
359.58
360.25
359.76
358.467
357.536
355.909
353.019
353.046
352.308
349.454
345.305
341.837
339.661
356.347
356.521
357.187
357.753
354.831
348.398
347.334
348.652
346.826
346.669
347.293
348.173
348.042
348.768
336.758
335.405
334.976
337.794
342.033
343.187
343.368
362.283
363.474
360.944
355.425
351.812
350.129
348.261
363.293
362.563
359.318
358.317
357.993
358.147
357.987
357.933
357.207
356.154
354.211
353.421
353.075
352.964
347.551
346.411
344.957
343.14
342.378
341.331
340.772
356.39
356.86
356.239
352.272
348.269
347.215
347.45
353.009
352.51
352.721
352.875
353.207
353.26
353.396
339.045
347.032
349.744
350.59
351.057
351.217
351.064
364.062
361.384
356.268
354.055
351.745
350.693
350.35
362.021
359.074
357.82
356.887
355.966
355.769
355.686
353.808
352.067
351.432
350.908
350.731
350.667
350.293
341.96
341.365
341.312
341.501
341.547
341.587
341.591
354.469
350.282
348.35
347.268
346.939
347.618
349.009
354.55
353.565
353.968
354.312
354.412
354.718
354.989
349.347
352.386
351.333
350.962
351.123
351.751
352.27
362.784
359.322
354.948
353.187
352.265
351.467
351.262
358.493
356.824
355.856
355.623
355.785
355.1
354.98
350.127
349.936
350.632
350.857
351.174
351.309
351.525
338.605
340.346
341.114
341.638
342.325
342.82
343.71
346.581
346.079
346.8
347.445
348.585
349.785
350.865
352.654
352.146
352.615
352.917
353.471
353.886
354.032
351.855
352.411
351.44
350.881
350.814
351.075
351.306
362.474
362.729
361.678
360.645
359.368
356.913
354.598
358.998
360.84
361.132
360.738
359.66
357.866
356.431
350.639
352.278
352.825
352.847
352.148
351.892
351.674
337.713
339.968
341.933
342.746
344.09
344.684
345.829
343.573
346.519
347.584
348.61
349.527
349.945
350.522
350.562
351.121
351.204
351.649
351.997
352.434
353.004
353.181
351.719
350.678
349.855
349.533
349.561
349.481
363.826
361.927
362.333
359.925
358.509
354.052
351.238
363.804
360.351
360.46
358.728
357.727
355.561
353.837
363.195
361.284
360.954
360.271
359.936
358.808
358.082
359.1
358.392
358.045
357.479
357.248
357.387
357.629
359.119
359.021
358.518
358.282
358.121
357.973
357.985
357.757
357.041
356.089
355.319
354.781
353.682
350.709
363.614
361.451
360.461
359.814
358.765
355.65
347.942
364.041
358.852
359.241
356.627
356.301
353.426
349.649
364.507
356.157
355.121
354.716
354.737
354.355
353.958
363.208
360.352
358.453
358.028
357.644
357.17
357.242
358.672
356.983
356.197
355.467
355.205
355.198
355.615
356.509
356.501
356.663
356.512
356.334
356.421
356.895
352.49
351.194
353.533
353.68
353.624
352.798
350.46
363.08
359.696
360.346
359.697
358.439
353.026
345.484
356.057
354.865
355.621
353.103
355.046
349.658
348.08
352.363
351.411
352.991
354.336
356.705
357.603
358.786
360.947
359.324
357.952
357.436
357.618
358.274
358.792
358.466
356.574
355.395
353.728
353.04
352.827
352.762
354.956
354.894
355.396
355.534
355.666
355.805
356.232
349.117
347.153
349.464
350.383
352.416
351.957
350.503
356.239
355.184
356.041
349.543
346.734
339.315
336.153
354.739
351.552
352.775
348.166
353.259
346.24
347.829
348.518
349.436
352.987
357.396
360.902
362.392
361.681
356.875
357.133
356.777
357.082
358.261
360.151
358.989
357.985
355.543
352.48
350.705
349.806
348.949
348.042
352.727
352.384
352.688
353.253
353.798
354.69
356.01
343.914
344.174
345.886
348.581
352.491
353.799
354.6
343.071
350.11
346.245
338.102
334.721
335.509
335.422
353.712
348.024
349.777
344.799
350.661
340.427
348.407
346.373
348.864
354.582
360.543
362.788
362.829
361.428
355.098
354.973
355.543
358.052
359.391
357.96
355.252
356.821
351.935
349.012
347.725
346.238
344.26
343.314
351.406
349.63
350.496
351.882
354.059
355.471
355.903
337.571
337.878
342.243
346.661
353.334
356.316
355.892
339.643
344.697
340.417
333.784
331.102
330.667
330.97
350.518
343.534
346.992
340.86
347.828
338.461
348.145
341.701
346.293
355.371
361.766
363.302
360.616
359.179
352.561
353.725
354.513
356.778
357.146
351.299
349.742
354.53
350.967
347.713
344.625
341.333
339.051
338.43
349.37
348.474
349.182
350.113
351.959
351.642
347.19
335.029
334.949
340.695
346.268
356.235
353.853
352.769
338.117
340.525
338.518
331.6
327.869
328.231
330.414
344.377
339.132
343.476
337.988
345.033
335.421
343.283
337.73
342.996
355.781
361.661
361.818
361.383
357.621
349.094
350.143
351.459
351.749
347.866
346.4
347.703
352.3
343.883
340.043
336.452
334.426
333.206
333.65
348.473
345.461
346.352
347.575
346.363
342.262
341.995
333.777
333.43
338.436
345.225
354.527
351.294
350.595
336.134
337.19
335.337
329.37
326.614
326.634
327.847
336.277
335.573
336.526
334.573
331.4
332.799
334.155
329.105
335.306
339.853
353.493
348.116
354.813
351.574
339.664
342.229
340.399
343.744
344.509
344.296
341.188
334.64
336.582
336.379
335.531
334.475
333.891
330.109
338.937
337.968
336.764
337.223
337.667
338.195
331.218
331.671
329.462
332.412
333.668
336.924
334.895
336.188
333.704
331.499
329.756
327.11
324.558
319.122
319.636
313.675
305.615
311.914
306.052
314.576
305.807
315.796
323.74
326.97
329.203
336.688
339.573
331.428
340.672
335.227
335.135
332.773
332.085
332.842
336.198
335.959
329.539
327.99
328.79
330.274
331.029
331.624
329.706
335.687
334.467
333.65
333.799
334.25
335.188
331.731
316.517
319.258
320.99
321.605
321.019
320.497
323.439
306.114
296.125
296.265
305.821
304.897
305.558
306.076
299.207
299.145
298.913
298.673
298.922
299.575
299.13
318.308
316.652
316.271
316.958
317.415
316.592
316.727
332.419
332.221
331.711
331.068
330.514
333.068
331.973
320.193
318.958
320.861
323.169
325.553
326.922
326.086
326.488
325.655
325.514
325.711
326.033
327.181
327.317
311.612
309.995
309.642
310.984
311.339
310.618
312.569
288.729
287.929
288.453
287.983
288.744
285.404
290.616
289.029
288.969
288.974
289.38
289.368
290.535
289.872
312.293
311.852
310.183
309.906
309.14
308.229
307.965
329.895
329.341
328.665
328.064
327.985
329.837
329.51
315.417
314.741
316.497
319.033
320.65
321.803
321.178
322.12
319.993
319.773
320.269
320.375
321.582
321.28
306.314
305.782
307.209
307.611
308.801
308.37
308.946
280.576
280.155
280.889
281.512
281.028
280.856
280.145
282.566
282.528
282.415
282.45
282.659
282.744
282.89
305.389
305.515
305.257
305.256
305.285
305.596
305.069
323.719
323.1
322.336
321.39
321.484
322.925
323.537
309.132
308.777
310.253
312.19
313.382
314.442
313.693
319.965
318.075
317.858
317.713
318.349
319.392
318.39
304.377
302.654
302.845
305.398
303.028
303.605
304.871
278.49
278.068
278.055
278.606
278.139
278.023
278.775
280.436
280.406
280.425
280.462
280.449
280.465
280.494
303.961
303.866
303.755
303.73
303.657
303.536
303.549
322.235
321.872
321.159
320.203
320.262
321.873
322.547
305.994
305.672
307.077
308.781
309.979
311.183
310.487
319.789
318.124
317.89
317.278
318.166
319.091
317.654
303.588
302.884
303.015
303.873
303.06
303.235
303.668
279.246
278.817
278.602
279.407
278.763
278.825
279.376
292.014
292.019
292.027
291.987
292.055
291.989
292.019
305.359
305.349
305.347
305.438
305.428
305.336
305.361
313.948
313.573
312.966
312.381
312.537
313.798
314.72
290.089
289.694
291.193
292.579
293.903
295.073
294.575
312.478
311.24
310.842
309.941
310.545
311.624
309.335
305.517
305.414
305.504
305.622
305.516
305.517
305.572
291.89
291.893
292.186
291.896
291.894
291.888
291.883
344.139
350.519
356.007
357.673
361.439
359.149
360.227
350.02
354.77
356.65
357.934
360.107
358.956
363.887
359.115
359.816
360.19
360.76
361.114
361.178
363.194
356.518
355.442
355.343
355.622
356.405
357.267
357.694
358.809
359.383
360.051
360.065
359.67
358.92
358.663
355.405
357.575
360.167
361.347
361.831
360.082
359.491
355.719
357.676
360.697
362.283
363.099
362.775
361.925
343.459
349.03
352.786
354.485
358.981
357.429
360.661
347.866
349.721
350.74
351.005
352.36
354.271
360.578
357.598
357.391
357.504
357.575
358.34
359.892
361.716
354.043
353.501
353.504
353.841
354.683
356.001
357.059
356.929
357.368
359.058
359.731
359.937
358.13
357.287
350.778
351.63
355.087
358.6
362.26
360.204
356.419
352.331
356.141
358.336
360.671
360.922
363.064
358.44
337.507
340.422
345.701
346.949
354.846
355.411
355.989
348.709
348.965
349.876
348.47
348.975
348.451
349.468
356.036
355.87
355.977
356.381
356.855
358.18
358.455
351.676
351.688
351.842
352.425
353.747
355.281
356.692
355.482
355.183
356.288
358.527
359.244
357.523
356.566
350.382
348.31
349.643
353.541
357.913
359.498
354.479
350.85
352.198
357.181
357.867
358.847
361.163
355.845
336.635
338.205
341.313
342.34
349.191
352.282
354.014
353.491
352.996
351.803
348.987
347.745
345.698
346.686
355.597
354.941
354.524
354.43
355.276
355.147
355.053
348.219
349.049
349.915
350.926
352.055
354.429
356.061
359.491
353.005
352.598
355.822
357.996
356.9
354.795
359.801
347.736
347.143
351.759
355.584
360.831
350.118
349.889
347.332
354.775
355.972
354.597
359.039
352.671
335
336.77
339.614
339.868
345.214
345.017
349.427
354.838
355.618
355.25
347.523
346.338
342.985
343.238
355.285
355.235
354.852
353.781
352.654
352.352
353.599
344.391
344.638
345.559
347.654
349.597
351.535
354.919
358.185
356.399
352.226
353.198
354.739
356.077
352.692
363.936
348.127
343.034
349.126
352.428
361.513
347.768
349.544
339.926
349.593
353.445
351.227
355.827
344.772
334.74
333.003
337.911
335.629
342.582
335.15
345.102
351.397
354.2
357.618
347.462
344.895
339.768
337.056
347.388
350.211
351.815
350.855
351.018
350.91
350.728
339.461
339.949
341.152
344.958
348.163
350.404
352.459
353.006
353.742
351.528
350.399
353.173
354.93
351.478
362.479
350.353
340.051
347.13
349.499
359.382
345.536
345.945
335.649
344.344
346.577
341.803
351.839
341.768
333.513
328.696
335.471
330.226
339.77
329.156
340.341
349.782
353.651
357.732
346.095
342.642
336.221
332.76
340.959
342.158
346.362
347.334
346.791
346.758
348.478
333.125
333.152
333.95
336.111
340.045
343.675
350.415
348.678
347.207
347.694
347.281
348.405
350.462
347.816
360.746
351.495
337.822
340.304
344.229
357.333
342.534
344.284
333.624
338.6
343.241
338.189
346.744
340.768
329.891
324.903
324.63
326.292
333.728
323.988
334.313
336.34
332.305
331.347
335.815
333.027
332.672
328.157
325.653
331.918
334.043
335.016
335.283
337.929
336.676
324.853
331.733
332.604
333.63
335.357
335.248
331.717
334.799
339.959
339.469
338.203
340.932
339.479
338.401
336.603
336.843
328.217
324.514
338.371
337.375
337.191
332.62
330.619
330.72
331.622
334.36
337.544
338.23
302.676
302.904
300.662
299.805
293.49
292.815
293.572
318.887
318.597
318.766
318.025
316.738
314.348
312.048
325.815
329.697
329.382
328.729
328.832
328.69
330.805
324.356
327.374
325.79
325.122
325.051
324.246
325.029
328.793
333.064
332.157
332.232
329.047
326.853
331.707
340.253
336.981
321.423
316.935
324.408
337.069
318.971
310.034
299.353
305.823
307.218
307.669
309
301.866
287.81
286.818
287.443
285.571
286.105
285.998
286.08
311.001
310.407
311.451
311.379
309.756
309.26
308.27
320.294
324.049
322.384
322.178
323.787
326.536
326.491
320.601
322.851
320.012
317.097
316.153
315.083
315.555
327.56
333.173
330.936
328.874
325.56
325.448
329.57
314.704
313.894
314.657
313.209
312.738
312.059
311.81
292.73
291.864
292.744
293.416
293.42
292.879
294.096
278.589
278
277.971
278.646
278.756
278.573
278.856
306.343
306.813
304.775
305.821
303.024
302.712
303.137
315.189
316.941
316.979
317.265
318.667
319.953
319.283
315.364
317.612
316.177
312.153
311.188
310.778
310.594
324.454
329.796
326.054
321.216
319.563
319.911
323.665
307.291
305.443
306.953
307.279
306.838
306.336
306.253
284.787
284.252
284.906
284.905
283.364
284.695
285.426
276.753
276.443
276.561
276.966
276.635
276.66
276.795
301.146
301.577
301.608
304.433
301.335
301.199
301.272
314.502
316.171
315.895
315.515
318.163
319.336
318.449
310.649
312.022
311.412
308.16
307.476
307.325
306.95
323.108
325.326
321.678
317.748
314.778
317.308
321.299
304.491
301.809
303.969
303.785
303.447
303.35
303.037
280.347
279.728
280.436
280.225
279.536
280.118
280.213
277.675
277.419
277.638
278.359
277.667
277.568
277.595
302.251
302.475
302.408
303.704
302.351
302.245
302.228
315.825
317.145
316.637
315.549
319.125
320.219
319.658
308.844
309.744
309.186
306.402
305.879
305.6
305.161
324.047
324.955
321.136
318.113
314.538
317.091
321.373
303.132
301.945
303.136
303.077
302.967
302.792
302.595
280.153
279.733
280.171
280.128
279.57