/*--------------------------------*- C++ -*----------------------------------*\
  =========                 |
  \\      /  F ield         | OpenFOAM: The Open Source CFD Toolbox
   \\    /   O peration     | Website:  https://openfoam.org
    \\  /    A nd           | Version:  6
     \\/     M anipulation  |
\*---------------------------------------------------------------------------*/
FoamFile
{
    version     2.0;
    format      ascii;
    class       volVectorField;
    location    "0.01";
    object      U;
}
// * * * * * * * * * * * * * * * * * * * * * * * * * * * * * * * * * * * * * //

dimensions      [0 1 -1 0 0 0 0];

internalField   nonuniform List<vector> 
3773
(
(28.1717 -0.0275445 0.433626)
(28.0514 -0.0124039 0.428899)
(28.0956 -0.000421388 0.418969)
(28.0782 0.00794393 0.422172)
(28.0329 -0.0016048 0.424525)
(28.056 -0.000448522 0.436951)
(28.1673 0.0245375 0.444183)
(7.38425 0.021452 -0.0597276)
(7.34533 -0.0470696 -0.0571701)
(7.37358 -0.0309186 -0.04442)
(7.35937 0.00498813 -0.0432913)
(7.33999 0.0112003 -0.0421495)
(7.35391 0.0256168 -0.0239838)
(7.3789 -0.0182462 -0.0225789)
(2.95539 0.0346638 0.0442133)
(2.94992 -0.00226507 0.0490056)
(2.95078 -0.0223871 0.0599985)
(2.95015 0.0056472 0.0572347)
(2.94998 0.0127748 0.0574982)
(2.95031 0.00631401 0.0679285)
(2.95461 -0.014698 0.0589477)
(-1.39718e-05 0.00529248 0.0566925)
(4.31256e-05 0.0105911 0.0578758)
(-2.49637e-05 0.0139235 0.0558451)
(-2.03128e-05 -0.00517471 0.0553365)
(-8.66513e-06 -0.0183822 0.0544687)
(-1.65011e-05 -0.0204962 0.0481566)
(-1.93082e-05 -0.0149075 0.0504014)
(-2.9559 0.0270594 0.0474121)
(-2.95022 -0.0135173 0.0491029)
(-2.95119 -0.0277288 0.0524298)
(-2.95056 0.00455123 0.0550705)
(-2.95046 0.0120184 0.0530436)
(-2.95075 0.00698115 0.0628405)
(-2.955 -0.0125624 0.0539328)
(-7.38401 0.023386 -0.0694166)
(-7.37374 -0.0397236 -0.0610764)
(-7.36992 -0.0214222 -0.0441056)
(-7.35521 0.0112765 -0.0467568)
(-7.34506 0.0204941 -0.0438183)
(-7.36215 0.0368174 -0.0244465)
(-7.38363 -0.01369 -0.0237528)
(-28.1708 -0.016515 0.439277)
(-28.0734 -0.0030068 0.429356)
(-28.1055 -0.000818246 0.435013)
(-28.0688 0.00379652 0.43814)
(-28.0533 -0.00207536 0.428877)
(-28.0829 0.0022671 0.442204)
(-28.1729 0.0237793 0.454939)
(24.1389 -0.0405472 0.853534)
(23.6121 0.000577999 0.855192)
(23.5545 0.0101066 0.858942)
(23.6035 0.00764211 0.852827)
(23.6031 -0.00459165 0.837928)
(23.6851 -0.0106148 0.82937)
(24.2277 0.0320547 0.83691)
(6.08049 0.00404748 -0.188506)
(6.16151 -0.057097 -0.18697)
(6.1765 -0.0380096 -0.16711)
(6.16419 0.0109382 -0.170361)
(6.15301 0.0291435 -0.180394)
(6.16687 0.0440045 -0.156152)
(6.09895 0.000389589 -0.157701)
(2.59188 0.0432791 0.000280419)
(2.58018 -0.00093928 0.00269558)
(2.58872 -0.0293094 0.0277846)
(2.58605 0.00631453 0.0221318)
(2.58442 0.0254433 0.0216575)
(2.58841 0.0164052 0.0398124)
(2.59161 -0.0190841 0.0199321)
(-2.77052e-06 0.00735258 0.0358513)
(-6.52171e-05 0.0146392 0.0348107)
(-3.34877e-05 0.0176792 0.0315684)
(-2.7581e-05 -0.00662702 0.0313254)
(-2.7908e-06 -0.0260429 0.0319437)
(-6.24112e-06 -0.0262559 0.0209171)
(-1.58311e-05 -0.0172107 0.025692)
(-2.59376 0.0337373 0.000932981)
(-2.58543 -0.0192037 0.00304048)
(-2.58843 -0.0351374 0.0148013)
(-2.58712 0.00718141 0.0200558)
(-2.58373 0.0244424 0.0125443)
(-2.5883 0.0169801 0.0307156)
(-2.59345 -0.016296 0.0130288)
(-6.09762 0.0141067 -0.204377)
(-6.07693 -0.0468628 -0.185868)
(-6.17126 -0.0334564 -0.174752)
(-6.15232 0.0115137 -0.187042)
(-6.16028 0.0345346 -0.179691)
(-6.17637 0.0517153 -0.150603)
(-6.09984 0.00133106 -0.15865)
(-24.3448 -0.0250765 0.845561)
(-23.9291 0.0127848 0.842891)
(-23.8447 0.0120518 0.852468)
(-23.7908 0.0041464 0.830418)
(-23.7194 -0.00862042 0.845034)
(-23.764 -0.0108681 0.839285)
(-24.3623 0.0287207 0.8451)
(20.3506 -0.0738658 1.31376)
(19.8648 -0.00302813 1.29975)
(19.6951 0.0196289 1.27475)
(19.7538 0.0272725 1.27196)
(19.8888 0.0146096 1.26472)
(20.0248 0.00220691 1.28354)
(20.4048 0.0641053 1.30595)
(5.84037 -0.0107342 -0.0710557)
(5.96079 -0.0459892 -0.0930308)
(5.99862 -0.0286116 -0.0906161)
(5.93499 0.00824527 -0.0862621)
(5.89845 0.0291159 -0.0888995)
(5.91701 0.0405095 -0.0765538)
(5.84236 0.0114852 -0.0830009)
(2.57932 0.0411957 0.0243435)
(2.5521 0.000972606 0.0112149)
(2.54944 -0.0272839 0.0380374)
(2.56798 0.00405462 0.0271177)
(2.56509 0.0281646 0.0252302)
(2.5475 0.0179876 0.0331166)
(2.57632 -0.0226591 0.0133424)
(-9.37905e-06 0.00833168 0.0424856)
(-4.12859e-05 0.0128006 0.0391563)
(-3.75316e-05 0.014651 0.0348611)
(-3.55403e-05 -0.00592043 0.0311138)
(-5.71595e-06 -0.0274985 0.033687)
(-3.8554e-06 -0.0260233 0.0299696)
(-1.31371e-05 -0.0170715 0.0368782)
(-2.57855 0.0331792 0.0198791)
(-2.55716 -0.0193173 0.0130288)
(-2.55402 -0.0340221 0.0268849)
(-2.56238 0.00547093 0.0268901)
(-2.56579 0.0252628 0.0167983)
(-2.55637 0.0184057 0.0266452)
(-2.57712 -0.0191388 0.0113652)
(-5.85092 -0.00107753 -0.078443)
(-5.88551 -0.0378173 -0.0815343)
(-5.93637 -0.0292423 -0.0824922)
(-5.86518 0.0048438 -0.0763972)
(-5.91957 0.0345491 -0.0943481)
(-5.93473 0.0423036 -0.0743838)
(-5.84972 0.00706064 -0.085971)
(-20.5375 -0.0526256 1.33489)
(-20.1149 0.00865394 1.31466)
(-19.9887 0.0026902 1.29702)
(-20.0415 -0.00364214 1.30923)
(-19.9188 -0.0128786 1.27605)
(-20.0368 -0.0145579 1.299)
(-20.5215 0.0509628 1.33483)
(18.3784 -0.0910508 1.03314)
(18.2664 -0.00368041 1.03819)
(18.2297 0.0203274 1.01885)
(18.1935 0.0299228 1.01294)
(18.1699 0.0228538 1.01702)
(18.21 0.0139312 1.03173)
(18.3953 0.0845517 1.03859)
(5.77724 -0.0106619 -0.0596621)
(5.94052 -0.0325146 -0.0846469)
(5.98816 -0.0263372 -0.0810899)
(5.91594 -0.00249953 -0.0767763)
(5.83664 0.0247099 -0.0672605)
(5.85377 0.0358161 -0.0634353)
(5.77831 0.0121811 -0.0700358)
(2.5762 0.0379625 0.0272798)
(2.55469 0.00239321 0.0133293)
(2.54849 -0.0240478 0.040321)
(2.55982 0.00152191 0.0323355)
(2.5709 0.0288697 0.0276918)
(2.54559 0.0159185 0.0287403)
(2.57395 -0.0247622 0.016814)
(-1.04791e-05 0.00984954 0.0531342)
(-5.76899e-05 0.0123028 0.0486228)
(-4.17878e-05 0.0126731 0.0409799)
(-2.98409e-05 -0.00640201 0.0364495)
(-3.46227e-06 -0.0265818 0.0369714)
(-2.7649e-06 -0.0251251 0.0450759)
(-1.24373e-05 -0.0168846 0.0513299)
(-2.57574 0.0309708 0.0216661)
(-2.5435 -0.0167419 0.0106428)
(-2.5643 -0.0305154 0.0363367)
(-2.57756 0.00354121 0.0266181)
(-2.56984 0.0269811 0.0235818)
(-2.54775 0.0189136 0.0288184)
(-2.57374 -0.0218383 0.0152034)
(-5.78418 -0.00506949 -0.0662379)
(-5.84354 -0.0300714 -0.0709319)
(-5.8832 -0.0252698 -0.0740453)
(-5.81257 0.00100685 -0.0746173)
(-5.86496 0.0350885 -0.0775104)
(-5.88459 0.0360176 -0.068043)
(-5.78492 0.00549408 -0.073659)
(-18.4463 -0.0739412 1.06358)
(-18.2264 -0.000476714 1.06339)
(-18.2604 -0.00353268 1.03475)
(-18.0777 -0.012964 1.01308)
(-18.2091 -0.0149959 1.02813)
(-18.2697 -0.010218 1.04214)
(-18.4479 0.0701362 1.06685)
(17.7697 -0.0926235 0.710522)
(17.8111 -0.00201427 0.741745)
(17.8722 0.0199269 0.728878)
(17.7899 0.0255758 0.708015)
(17.684 0.0275715 0.688025)
(17.6599 0.0189526 0.710629)
(17.7701 0.0907357 0.711042)
(5.76607 -0.00686204 -0.00990796)
(5.89965 -0.0265548 -0.0234385)
(5.92901 -0.0232579 -0.0220599)
(5.89381 -0.00576051 -0.0174303)
(5.84834 0.0232282 -0.0117663)
(5.85779 0.0312356 -0.00981219)
(5.76903 0.00729833 -0.0184401)
(2.57785 0.0350192 0.0379157)
(2.55248 0.00463458 0.0239746)
(2.54843 -0.0204131 0.0485194)
(2.55547 -0.000854637 0.0406334)
(2.55338 0.0288066 0.0392915)
(2.53673 0.0137139 0.0395073)
(2.57692 -0.0257019 0.0311756)
(-1.1129e-05 0.00841154 0.0615708)
(-3.98701e-05 0.00922799 0.0541612)
(-3.05595e-05 0.00901748 0.0445554)
(-1.60167e-05 -0.00695355 0.0417034)
(2.88123e-06 -0.0217459 0.0409159)
(-2.8113e-06 -0.0209326 0.0532447)
(-1.19176e-05 -0.0144138 0.0588088)
(-2.57691 0.0279903 0.033166)
(-2.5423 -0.012276 0.021873)
(-2.55857 -0.0279038 0.0529916)
(-2.56618 0.000965127 0.0410335)
(-2.56237 0.0275749 0.036319)
(-2.54371 0.0157953 0.0390979)
(-2.57676 -0.0242352 0.0290761)
(-5.77332 -0.00285171 -0.0203155)
(-5.86165 -0.0239623 -0.0312588)
(-5.86736 -0.0220863 -0.0168746)
(-5.84641 0.000583094 -0.0213509)
(-5.86245 0.0318656 -0.0183694)
(-5.87985 0.0310674 -0.0176224)
(-5.77403 0.000778854 -0.02176)
(-17.7843 -0.0796671 0.729851)
(-17.6915 -0.00335796 0.736255)
(-17.7611 -0.00416923 0.72534)
(-17.5994 -0.0170514 0.713123)
(-17.7513 -0.0188487 0.694408)
(-17.71 -0.00467631 0.712781)
(-17.7849 0.0788836 0.733765)
(17.6899 -0.084099 0.382356)
(17.707 0.00586704 0.408315)
(17.6974 0.0164347 0.431589)
(17.7377 0.0148836 0.393105)
(17.6668 0.0220271 0.371585)
(17.6136 0.0218066 0.389001)
(17.6846 0.0909168 0.381203)
(5.83307 -0.00224286 0.0253714)
(5.94083 -0.0251666 0.023892)
(5.94951 -0.0191896 0.0404462)
(5.9618 -0.0052834 0.039737)
(5.94023 0.0160607 0.0442206)
(5.93956 0.0258786 0.0448875)
(5.82343 0.00115192 0.0366144)
(2.58493 0.0314563 0.0688699)
(2.54815 0.00686098 0.0532802)
(2.54848 -0.0165506 0.0730174)
(2.54348 -0.00195934 0.0682753)
(2.54158 0.0277568 0.0711317)
(2.53879 0.0114986 0.0715263)
(2.58155 -0.0277336 0.0649923)
(-1.02622e-05 0.00510605 0.0626705)
(7.28623e-06 0.00436412 0.0589522)
(-1.55267e-05 0.00699004 0.0517019)
(-1.39296e-05 -0.0072306 0.0493956)
(4.24319e-05 -0.0201386 0.0491874)
(-7.38786e-06 -0.0188281 0.0527065)
(-1.06657e-05 -0.0119858 0.0606309)
(-2.58312 0.0253468 0.0633491)
(-2.55002 -0.00763781 0.0463134)
(-2.54563 -0.0229388 0.0777148)
(-2.54757 -0.00327624 0.0725334)
(-2.54589 0.024956 0.0654927)
(-2.54858 0.0126963 0.0697589)
(-2.58233 -0.0258619 0.0654823)
(-5.83654 -0.000962076 0.0169698)
(-5.94477 -0.0186901 0.0164612)
(-5.93962 -0.0174391 0.0357447)
(-5.95505 0.00241996 0.0373707)
(-5.97384 0.0351095 0.0396476)
(-5.94107 0.0258869 0.0381215)
(-5.83062 -0.0047313 0.0279569)
(-17.6964 -0.07678 0.398764)
(-17.5958 -0.00153508 0.425308)
(-17.6723 -0.0081861 0.402632)
(-17.5502 -0.0203537 0.395685)
(-17.7523 -0.0188664 0.386655)
(-17.6498 -0.00223647 0.39267)
(-17.6916 0.0820384 0.395753)
(17.3449 -0.0874664 0.283726)
(17.2206 0.00894676 0.299267)
(17.2958 0.015938 0.303194)
(17.398 0.0129984 0.298777)
(17.3738 0.0249701 0.287175)
(17.3664 0.0280629 0.297385)
(17.3517 0.0949194 0.285097)
(5.8342 -0.00344406 0.0103021)
(5.8822 -0.0231842 0.0169859)
(5.82128 -0.0144805 0.0363786)
(5.85555 -0.00117126 0.0319387)
(5.86007 0.0204161 0.0331329)
(5.87083 0.0298158 0.040253)
(5.83286 0.00107946 0.0310757)
(2.55413 0.0339758 0.0277382)
(2.55705 0.00838542 0.0125191)
(2.54324 -0.0155687 0.0257205)
(2.54896 -0.00156741 0.0262213)
(2.54122 0.0354783 0.0266946)
(2.55117 0.0143852 0.0285745)
(2.54481 -0.0349595 0.0248947)
(-2.36171e-06 0.00666402 -0.00016983)
(0.000228478 0.00322301 -0.000159984)
(5.67102e-05 0.00615126 -0.0040208)
(-5.58626e-05 -0.00879371 -0.00594334)
(0.00035837 -0.0241453 -0.00527773)
(-6.99953e-06 -0.0200524 -0.00677724)
(-1.02079e-05 -0.0143203 -0.00130388)
(-2.55479 0.0251644 0.0209539)
(-2.59413 -0.00861035 0.00230163)
(-2.55261 -0.0210856 0.0263983)
(-2.5439 -0.00474308 0.0242853)
(-2.60419 0.03321 0.0214202)
(-2.55484 0.0195373 0.0288593)
(-2.54578 -0.0318868 0.0270107)
(-5.84262 -0.000416077 0.00713979)
(-5.65207 -0.0194243 0.0311124)
(-5.86237 -0.0157309 0.029701)
(-5.85319 0.00272928 0.0323285)
(-5.70543 0.0341795 0.0384147)
(-5.87111 0.023988 0.0313467)
(-5.83792 -0.00660247 0.0200071)
(-17.3686 -0.0762174 0.295171)
(-17.279 -0.00632136 0.322417)
(-17.3813 -0.0171521 0.299109)
(-17.3177 -0.0223631 0.298039)
(-17.2385 -0.0227861 0.304361)
(-17.3836 -0.00218494 0.293647)
(-17.3607 0.0891514 0.289657)
(26.1212 -9.94116 -17.8549)
(26.1428 -3.23787 -34.9897)
(26.0639 3.3392 -35.2855)
(25.9271 10.3117 -36.9625)
(25.805 14.4871 -32.63)
(26.0114 23.2722 -24.3151)
(26.1609 20.7291 -2.26103)
(7.00986 -14.7046 -17.0971)
(6.94849 0.0161878 -24.8585)
(7.13425 4.60829 -29.2483)
(7.14416 11.0396 -31.6149)
(7.13204 14.2868 -28.048)
(7.16245 17.885 -24.8447)
(7.09891 18.853 -10.117)
(2.48053 -9.48957 -2.03897)
(2.53337 -1.47841 -12.6702)
(2.56528 1.47025 -15.2961)
(2.60537 5.93078 -17.3419)
(2.60344 8.19594 -14.9651)
(2.59403 9.22585 -11.6312)
(2.51275 11.0799 0.16844)
(0.00527107 -4.41166 3.13574)
(0.0044263 0.413157 0.473954)
(0.0035752 1.29912 0.179433)
(0.0058599 -0.112674 0.735178)
(0.0080697 -1.3562 0.276172)
(0.00666358 -0.539502 0.483322)
(0.00391218 3.96748 3.03127)
(-2.55485 -12.7643 0.701186)
(-2.61278 -9.04617 -12.1313)
(-2.61603 -9.28903 -15.7219)
(-2.61275 -7.24918 -17.9371)
(-2.58592 -1.75564 -16.2874)
(-2.55685 1.44637 -14.0655)
(-2.51857 10.6688 -2.3123)
(-7.15234 -20.4809 -6.66738)
(-7.1988 -19.7359 -24.6649)
(-7.16597 -17.8491 -29.6728)
(-7.18788 -10.5299 -32.6475)
(-7.19716 -3.91338 -31.3979)
(-7.0266 0.852117 -26.3536)
(-7.10588 15.652 -16.8456)
(-26.196 -25.5788 1.01669)
(-26.212 -24.6215 -29.2568)
(-26.1772 -15.3088 -39.5266)
(-26.3978 -10.0846 -40.5634)
(-26.5176 -1.14826 -38.7675)
(-26.4665 7.03439 -36.6379)
(-26.4104 13.3696 -17.36)
(25.9036 -9.78108 -9.24975)
(26.0487 -11.8601 -40.6801)
(25.8176 -15.6758 -44.9287)
(25.6459 -14.5708 -46.5489)
(25.464 -15.7301 -41.3)
(25.4014 2.1382 -4.1117)
(26.0155 17.9304 10.2773)
(6.95827 -14.9466 4.85251)
(6.82065 3.01662 -19.2159)
(7.16816 3.05772 -28.3869)
(7.1043 1.88259 -26.1002)
(7.0137 -0.31711 -19.5536)
(7.00711 2.16387 4.07321)
(7.05134 18.7308 9.97582)
(2.46629 -9.0658 8.69395)
(2.49965 1.36733 6.43856)
(2.56486 2.16058 5.12105)
(2.6088 4.13486 6.08128)
(2.5925 5.66159 6.65332)
(2.57529 4.19408 9.42883)
(2.50445 9.54991 10.5092)
(-0.000904463 -2.13291 13.3684)
(-0.00156324 2.55044 11.349)
(-0.000739227 2.80577 10.65)
(0.0054772 -0.27701 11.2993)
(0.0107551 -2.79933 10.7741)
(0.0105253 -2.54629 11.543)
(0.00756775 1.76981 13.5682)
(-2.56422 -11.2986 10.5989)
(-2.61442 -4.73253 9.39848)
(-2.6237 -6.41982 6.71403)
(-2.63408 -5.15305 5.83486)
(-2.58779 -1.81035 5.65663)
(-2.53248 -1.25976 6.53872)
(-2.50994 10.4485 8.779)
(-7.14683 -19.086 12.7958)
(-7.0988 -3.36682 4.2515)
(-7.06471 -4.05647 -19.4408)
(-7.16124 -4.0688 -27.721)
(-7.23642 -1.33437 -30.9551)
(-6.90212 -4.18968 -20.1327)
(-7.0826 16.1523 6.88211)
(-26.012 -22.6576 18.6872)
(-25.3923 -4.50535 -9.62687)
(-26.0101 6.05741 -53.582)
(-26.3824 2.15529 -58.2526)
(-26.5456 6.38834 -57.3205)
(-26.5583 7.56718 -47.7986)
(-26.4198 11.9411 -4.4106)
(25.5236 -5.09033 -7.6701)
(26.0327 -21.5927 -41.0505)
(25.7562 -30.3174 -47.8309)
(25.5677 -31.3395 -52.7634)
(25.5728 -32.8597 -53.6952)
(25.5059 -15.6924 -27.625)
(25.5834 5.70393 6.887)
(6.75815 -11.3344 11.0025)
(6.89309 2.22986 -25.0395)
(7.17007 -3.52896 -31.9236)
(6.92632 -11.6907 -25.3561)
(6.7159 -14.5739 -20.3322)
(6.70539 -5.38005 -6.67394)
(6.84433 13.4133 19.8302)
(2.40305 -6.73044 19.0685)
(2.43866 3.05682 9.77691)
(2.55801 4.03349 7.22809)
(2.59962 4.86897 7.50077)
(2.58668 4.83864 8.89272)
(2.52131 1.91653 11.55)
(2.43514 7.43427 20.1554)
(-0.000566864 -0.473777 18.4396)
(-0.00046666 2.56041 15.6906)
(0.00167252 2.63855 13.6869)
(0.00511917 -0.367744 13.842)
(0.00791204 -2.90543 13.7559)
(0.00843068 -2.90264 15.9925)
(0.00638128 0.38044 18.6555)
(-2.51301 -10.3102 21.5435)
(-2.58138 -2.86046 14.6734)
(-2.60549 -6.18949 11.8681)
(-2.60874 -5.56007 9.39691)
(-2.56162 -4.34394 8.9099)
(-2.46163 -3.55184 11.2802)
(-2.44765 9.48243 21.2541)
(-7.06827 -18.6882 22.9609)
(-6.8113 3.5515 -7.71806)
(-6.76605 10.3855 -20.2099)
(-6.96615 7.94292 -28.0334)
(-7.203 7.44101 -35.0453)
(-7.04548 -3.39645 -30.6499)
(-6.95226 13.1659 11.0936)
(-25.8814 -16.2493 25.6589)
(-25.1531 7.70703 -15.7089)
(-25.8527 20.4456 -62.5493)
(-26.302 15.9176 -68.8678)
(-26.4567 13.4344 -65.2901)
(-26.5717 9.62098 -52.1067)
(-25.8968 3.9369 -4.07837)
(25.7906 -3.47056 -3.93649)
(26.1794 -26.5071 -31.6297)
(26.1999 -35.0963 -42.7202)
(26.3447 -35.2399 -53.1103)
(26.5986 -37.3102 -65.7417)
(26.5983 -28.7398 -75.3525)
(26.4612 -7.23803 -57.5135)
(6.5442 -3.6285 13.9875)
(7.11762 -4.68938 -23.9677)
(7.1468 -17.1724 -24.1667)
(6.9133 -17.7213 -18.4588)
(6.66188 -19.5755 -13.9658)
(6.5398 -11.552 5.86227)
(6.54541 2.0979 15.3196)
(2.34286 -3.01831 22.5521)
(2.42979 3.82859 10.7822)
(2.55036 5.09667 8.42737)
(2.59697 5.16596 9.47516)
(2.58153 3.82336 11.0934)
(2.43226 -1.02402 15.1688)
(2.33254 3.33107 23.8914)
(0.00705379 0.343253 20.6631)
(0.00643868 2.61422 17.6124)
(0.00652917 1.7111 15.8773)
(0.00361097 -0.0233567 16.1394)
(0.00142136 -2.06402 16.3349)
(0.000708305 -2.74687 18.2495)
(-0.000847975 -0.156743 21.7938)
(-2.41909 -6.86701 25.8992)
(-2.49097 -0.541898 15.5185)
(-2.58896 -4.89318 12.5741)
(-2.58672 -6.01107 10.9514)
(-2.54763 -4.82084 9.15664)
(-2.43437 -3.93941 11.6298)
(-2.38264 5.25496 26.1923)
(-6.7457 -11.2942 22.5309)
(-6.58848 7.44349 6.94064)
(-6.72398 16.6656 -17.3939)
(-6.92524 17.4688 -22.5962)
(-7.16487 17.4294 -26.4076)
(-7.22171 7.4223 -31.387)
(-6.70848 5.33587 12.8115)
(-24.8732 -5.01157 14.3873)
(-25.6848 18.5453 -43.4062)
(-26.1479 29.0365 -66.8764)
(-26.3147 28.6633 -66.3767)
(-26.4703 27.128 -61.8423)
(-26.5842 17.8698 -50.1848)
(-25.9114 -0.392919 -5.00356)
(26.2008 -6.02785 -0.871558)
(26.3715 -19.7003 -22.5719)
(26.4919 -31.325 -38.013)
(26.6487 -31.0169 -53.4243)
(26.9664 -32.3691 -72.3015)
(27.1042 -20.7467 -91.4372)
(27.1414 -6.54089 -96.612)
(6.57978 2.82533 6.96785)
(7.2052 -10.0966 -18.6373)
(7.1916 -19.8672 -20.9442)
(7.07213 -21.8575 -22.5911)
(7.01161 -24.0098 -26.4171)
(6.96645 -17.5303 -29.0843)
(7.00085 -3.83614 -31.6021)
(2.34059 1.35476 21.4996)
(2.43776 4.04009 12.4644)
(2.55636 4.464 9.91176)
(2.61374 4.50885 12.224)
(2.57443 0.0957415 13.1799)
(2.40879 -4.68856 16.3306)
(2.3439 -1.25428 21.7921)
(0.0143159 0.693716 21.9863)
(0.0122139 2.6683 19.3342)
(0.0105596 2.06477 18.2334)
(0.00752561 0.326677 18.7992)
(0.00520189 -1.41762 18.8004)
(0.00621106 -2.18657 20.2028)
(0.00693002 -0.817638 22.9614)
(-2.33863 -1.0469 25.062)
(-2.39082 4.70444 15.5318)
(-2.55015 -0.107611 11.8442)
(-2.58235 -4.47176 12.0278)
(-2.54774 -3.59468 9.21398)
(-2.42755 -3.71269 12.8498)
(-2.34014 -0.0773469 24.4112)
(-6.64406 3.51146 1.67937)
(-6.83217 16.4043 -18.693)
(-7.03258 25.721 -32.9472)
(-7.10151 23.2123 -27.2722)
(-7.21574 21.2873 -25.3891)
(-7.27471 13.0581 -24.6144)
(-6.61084 -2.39317 8.61331)
(-25.3652 1.07534 -26.0933)
(-26.2489 25.3186 -72.0045)
(-26.3713 31.8712 -70.5652)
(-26.6456 33.8908 -64.2551)
(-26.6719 31.1849 -53.9215)
(-26.6705 19.3167 -38.1495)
(-26.3411 2.23832 -5.54541)
(26.3596 -9.49717 0.737969)
(26.6269 -9.78017 -19.8648)
(26.7477 -20.2927 -33.5019)
(26.8851 -22.435 -52.58)
(27.1315 -26.6808 -75.2994)
(27.1687 -18.5896 -96.3201)
(27.1961 2.81951 -104.862)
(6.91037 -0.622372 0.919118)
(7.30954 -9.84865 -15.3818)
(7.30887 -17.0089 -19.5604)
(7.29006 -17.6067 -25.3434)
(7.27662 -18.1878 -33.9131)
(7.29431 -11.7519 -48.8847)
(7.43981 4.8962 -75.2096)
(2.36899 2.41593 22.5074)
(2.46109 4.26825 16.2339)
(2.58651 4.473 14.4901)
(2.63615 4.78885 18.0917)
(2.58635 -1.35658 19.2024)
(2.43785 -5.25252 18.729)
(2.40564 -2.54395 17.0325)
(0.0144532 1.35835 24.9466)
(0.0133936 2.65182 22.7457)
(0.0107783 2.53177 21.8628)
(0.0088551 0.724804 22.2761)
(0.00860215 -0.929319 22.0497)
(0.0129916 -1.21084 23.1041)
(0.0160356 -0.612499 25.6603)
(-2.37318 3.12051 17.5955)
(-2.39633 8.12535 15.9453)
(-2.5326 4.99726 17.9198)
(-2.60334 -3.88694 15.5307)
(-2.57516 -3.43014 12.6361)
(-2.44095 -4.12412 16.6299)
(-2.35072 -2.37451 24.5117)
(-7.29889 0.143206 -51.2393)
(-7.33572 21.8845 -53.4759)
(-7.31779 24.3022 -44.7741)
(-7.32891 22.1657 -29.3135)
(-7.35812 20.7418 -22.8055)
(-7.35284 13.6212 -19.9099)
(-6.78948 -2.73464 3.29911)
(-26.7313 5.82547 -78.145)
(-26.8294 30.3559 -78.1828)
(-26.8446 33.6849 -69.8041)
(-26.8416 34.1983 -58.5674)
(-26.7754 28.7997 -47.5907)
(-26.7374 16.2361 -31.3239)
(-26.5356 8.30296 -5.26447)
(26.3966 -8.54126 0.943529)
(26.6736 -3.04869 -16.8366)
(26.7929 -10.5566 -30.3823)
(26.9159 -15.2745 -43.6194)
(27.0697 -19.9599 -68.7865)
(27.1449 -17.3616 -98.3351)
(27.1657 5.68416 -107.982)
(7.09395 -2.87333 -3.24492)
(7.34794 -8.11265 -13.809)
(7.35628 -11.8679 -17.1494)
(7.35693 -11.5406 -18.5378)
(7.28641 -9.82503 -29.0491)
(7.27012 -10.2115 -47.8331)
(7.45411 14.1111 -79.2107)
(2.44485 1.90588 22.051)
(2.52913 2.2349 17.3772)
(2.61751 3.37366 16.0533)
(2.67318 4.22449 20.7971)
(2.58925 -3.16821 20.5238)
(2.46319 -5.52863 15.7641)
(2.44754 -1.60684 5.8354)
(0.0235691 0.879461 25.4529)
(0.017064 2.44552 26.8286)
(0.0111521 2.33426 26.9005)
(0.00429169 0.709338 26.6122)
(0.00059312 -0.51454 26.3695)
(0.00253677 -0.20705 26.7949)
(0.00543656 0.0109403 26.651)
(-2.41722 2.1857 0.569621)
(-2.43696 9.15658 11.2053)
(-2.54911 7.37763 18.269)
(-2.64357 -0.614329 23.2958)
(-2.60525 -1.38811 14.5905)
(-2.48362 -2.45226 17.2891)
(-2.39903 -2.05892 24.5693)
(-7.53723 4.84835 -71.8332)
(-7.47096 13.9675 -65.3713)
(-7.42117 21.1663 -46.0551)
(-7.42452 19.4609 -23.5026)
(-7.41277 18.1013 -16.7269)
(-7.39326 11.6367 -13.5654)
(-6.99042 0.384921 -1.34385)
(-27.2804 10.8551 -97.2607)
(-27.0688 27.5127 -83.9104)
(-26.9825 27.3427 -66.7803)
(-26.8523 26.0574 -48.0622)
(-26.7985 20.6826 -35.7994)
(-26.7713 12.0728 -18.2456)
(-26.5698 8.53294 -0.265506)
(26.5113 -10.7988 17.6262)
(26.5176 1.77866 7.20636)
(26.6447 -2.96071 -1.54306)
(26.8927 -13.8155 -13.8776)
(27.4127 7.3681 -58.4764)
(27.6671 8.17732 -91.2019)
(27.5501 17.813 -89.5024)
(7.34107 -8.29012 3.56147)
(7.40197 -10.1982 -6.98095)
(7.37479 -11.8996 -7.95313)
(7.38422 -11.2406 -8.60938)
(7.36055 -7.04231 -22.534)
(7.47498 -4.14886 -55.343)
(7.5559 20.9431 -75.1411)
(2.56501 0.0412334 20.6673)
(2.59349 0.552603 19.7286)
(2.64567 -0.482143 19.2657)
(2.66887 -2.99531 21.605)
(2.59135 -9.33633 17.7197)
(2.57934 -10.7235 5.59049)
(2.64369 0.340103 -14.7679)
(0.0204277 1.17846 22.8308)
(0.0136836 2.33703 24.8549)
(0.00968549 1.78031 26.4372)
(0.000149311 0.905789 26.9101)
(-0.0113475 0.460482 25.6192)
(-0.0166001 0.0992717 25.8892)
(-0.0232471 -0.228984 24.6362)
(-2.70725 3.2205 -18.907)
(-2.66278 11.5528 -9.64717)
(-2.6216 16.9104 14.2738)
(-2.64747 7.08453 22.8582)
(-2.64673 1.83568 19.1446)
(-2.58148 -0.479372 19.8727)
(-2.5112 -1.03711 23.2458)
(-7.66865 -11.7174 -85.5303)
(-7.62119 4.61867 -68.2868)
(-7.515 8.65642 -40.2297)
(-7.4494 13.08 -14.9605)
(-7.4346 16.7281 -9.79782)
(-7.43662 13.0527 -5.0072)
(-7.32578 7.42032 8.63841)
(-27.5125 -16.4854 -100.256)
(-27.1104 -4.93487 -87.877)
(-26.8078 -9.87829 -42.1054)
(-26.7185 -2.80922 -11.3044)
(-26.6559 -6.06587 -1.99211)
(-26.7777 1.46387 5.5747)
(-26.5416 7.46237 21.1668)
(26.2749 -12.3818 19.9252)
(26.6155 3.02642 10.3843)
(26.9387 -4.26591 3.88441)
(27.1827 -9.72519 -20.9492)
(27.463 19.4471 -72.0966)
(27.5802 18.3905 -96.6253)
(27.4474 21.7018 -95.4735)
(7.28814 -7.55753 9.53391)
(7.43493 -5.92813 5.82983)
(7.40923 -11.1049 4.05395)
(7.38526 -11.7979 1.1849)
(7.39514 -6.51813 -17.3483)
(7.53571 -3.72471 -49.8249)
(7.56841 21.1933 -70.2318)
(2.58962 -0.505003 21.9737)
(2.62155 -0.692653 21.4271)
(2.67242 -2.01729 22.0595)
(2.67102 -7.718 24.7306)
(2.62826 -13.4273 14.4875)
(2.66465 -6.32339 -5.65636)
(2.7081 -0.986702 -21.181)
(0.0121452 1.17156 23.4341)
(-0.0026065 1.51413 26.4364)
(-0.00219977 1.2189 27.6727)
(-0.00108245 0.470411 28.2058)
(-0.00293455 0.539237 26.8846)
(-0.0041809 0.93753 26.7443)
(-0.010021 0.33715 26.175)
(-2.77153 0.537119 -37.8102)
(-2.77657 7.00479 -23.5336)
(-2.68513 16.6216 4.34943)
(-2.66535 13.8624 22.2028)
(-2.6648 4.53561 22.5975)
(-2.61219 0.627953 21.2736)
(-2.53912 -0.429743 23.6985)
(-7.63262 -18.4508 -85.0747)
(-7.58238 -8.16306 -65.3675)
(-7.4751 -1.1111 -29.149)
(-7.40224 10.9802 -1.30023)
(-7.4173 10.9403 6.48861)
(-7.42957 4.61425 8.60505)
(-7.26976 5.57773 13.5406)
(-27.3812 -25.5444 -107.816)
(-27.2123 -24.2075 -89.6879)
(-26.9594 -18.7623 -38.0103)
(-26.8877 -1.78076 -6.786)
(-26.929 -3.51491 4.5868)
(-26.6791 -5.25221 10.9373)
(-26.3103 6.60124 22.3787)
(26.0406 -11.7328 21.2349)
(26.7186 0.606458 10.0899)
(26.9254 -7.31963 -0.0288096)
(27.312 13.8513 -50.7708)
(27.4391 32.7949 -91.5483)
(27.4977 30.694 -100.393)
(27.5359 34.6851 -87.9026)
(7.23965 -7.08617 12.6539)
(7.42114 -7.09774 9.46755)
(7.41089 -10.5014 10.3381)
(7.41987 -13.4172 1.01701)
(7.54221 1.94835 -24.5684)
(7.6526 2.37726 -53.3515)
(7.59321 25.3461 -69.4604)
(2.60779 -1.37227 24.0545)
(2.65771 -2.27173 23.8861)
(2.68432 -7.24973 26.0791)
(2.67928 -15.6414 21.5784)
(2.69453 -13.4292 0.682087)
(2.77863 -5.13254 -18.0123)
(2.77721 4.08098 -27.4371)
(0.0135646 0.788789 25.2667)
(-0.00245795 0.786898 28.5312)
(-0.00409248 -0.900384 30.6607)
(-0.001517 -0.87528 30.8143)
(0.00202043 0.485811 29.1957)
(0.00268935 0.890361 28.7583)
(-0.00792426 0.460869 27.4921)
(-2.78111 -11.1322 -41.0523)
(-2.79219 4.55453 -20.1125)
(-2.7444 11.5663 -4.40904)
(-2.69306 15.4889 16.8313)
(-2.68001 8.9595 25.2606)
(-2.64513 1.80863 24.9326)
(-2.59743 0.200131 25.2906)
(-7.5828 -29.7738 -79.2334)
(-7.56526 -12.9288 -63.2515)
(-7.4862 -7.02602 -27.0347)
(-7.39858 7.87033 -1.62743)
(-7.41354 5.58082 10.3186)
(-7.42018 2.92698 9.43255)
(-7.20787 4.66139 14.944)
(-27.4865 -37.3388 -97.9178)
(-27.4387 -30.58 -97.9834)
(-27.2571 -30.5127 -58.624)
(-26.9467 -4.67061 -14.7154)
(-26.8809 -3.90943 3.51508)
(-26.6743 -4.21951 10.5676)
(-26.123 6.676 22.3724)
(25.6525 -11.4196 24.1291)
(26.6489 -1.00326 11.1962)
(27.0575 3.75114 -32.1698)
(27.342 41.2767 -83.8036)
(27.3782 48.5992 -92.6501)
(27.5088 44.3966 -88.581)
(27.5742 40.3601 -68.9978)
(7.1499 -6.74974 16.3445)
(7.45725 -6.8065 11.3674)
(7.46774 -9.7267 10.2215)
(7.59847 -3.60337 -10.3451)
(7.64387 6.71505 -30.7255)
(7.65989 10.196 -45.7912)
(7.60427 26.8892 -53.7023)
(2.63937 -1.59107 26.7149)
(2.68856 -4.49364 27.9449)
(2.69721 -13.1671 25.841)
(2.70885 -16.0819 12.9916)
(2.75574 -10.1377 -2.81901)
(2.78071 -5.60594 -6.94929)
(2.76576 13.5882 -23.5063)
(0.021451 1.32331 26.7602)
(0.00767062 2.42584 29.5086)
(0.00359568 0.270755 32.7178)
(0.0038648 -0.819345 34.3655)
(0.00594016 -1.85871 33.3887)
(-0.000329725 -1.91336 30.9418)
(-0.015315 -0.700916 29.5371)
(-2.75533 -19.751 -30.7746)
(-2.77185 4.88014 -8.44862)
(-2.76058 8.32406 0.543612)
(-2.72481 14.6733 12.6254)
(-2.69653 10.8494 25.2457)
(-2.67236 3.43706 27.7327)
(-2.61382 0.851176 27.7616)
(-7.54767 -30.8187 -61.0408)
(-7.6018 -18.4904 -49.1621)
(-7.57596 -9.02612 -25.448)
(-7.50525 3.53891 -7.2597)
(-7.44117 5.90437 9.80969)
(-7.43299 4.53858 9.54219)
(-7.11236 4.62609 15.9514)
(-27.5063 -39.5939 -84.5566)
(-27.6041 -45.3543 -94.0666)
(-27.5388 -46.6166 -84.3712)
(-27.2528 -21.7875 -49.5215)
(-27.0285 2.55611 -5.32211)
(-26.6714 -1.27493 12.1481)
(-25.6876 5.37189 23.3273)
(25.5739 -7.49767 29.8308)
(26.7656 -10.1407 5.36671)
(26.8707 45.0003 -79.2401)
(27.0923 56.8194 -90.3642)
(27.3795 57.1932 -85.535)
(27.7817 46.4906 -76.7518)
(27.8335 44.4823 -50.934)
(7.18492 -4.62688 21.0828)
(7.46615 -8.15274 14.6142)
(7.59745 2.58974 -1.24562)
(7.64572 27.6277 -29.0137)
(7.66025 28.3778 -35.3087)
(7.67111 29.2159 -38.9248)
(7.62719 31.3928 -38.8115)
(2.65712 -4.06986 29.2449)
(2.69846 -9.28663 30.0099)
(2.715 -12.6997 24.3891)
(2.74745 -11.847 11.2321)
(2.76982 -8.67138 3.28214)
(2.76442 -7.61579 0.345228)
(2.73707 18.0536 -11.6497)
(0.0345564 1.8846 29.8152)
(0.0155254 2.8104 32.5505)
(0.00860681 0.740037 34.4035)
(0.00950559 -0.726842 35.454)
(0.00700476 -1.43545 35.217)
(-0.00743302 -1.86778 34.4769)
(-0.0282773 -1.85456 32.5927)
(-2.71853 -20.6809 -14.5284)
(-2.74235 5.99829 -2.2812)
(-2.75228 7.33631 5.00843)
(-2.72922 12.1588 12.4529)
(-2.70513 10.5045 24.8049)
(-2.68639 8.53608 29.5647)
(-2.64247 3.56543 29.2595)
(-7.54227 -37.5396 -44.2013)
(-7.57926 -26.4596 -38.8527)
(-7.61088 -22.1735 -30.3466)
(-7.63163 -20.7575 -28.7151)
(-7.5909 -0.396728 -2.98309)
(-7.48091 9.26744 12.1783)
(-7.21367 5.19322 19.6623)
(-27.6469 -53.8387 -60.5944)
(-27.608 -61.8779 -84.2393)
(-27.2518 -69.4298 -88.7356)
(-27.2408 -63.1043 -89.6204)
(-27.3135 -34.7837 -52.2407)
(-26.7806 11.5425 16.2189)
(-25.6918 2.52936 28.5739)
(25.5971 -16.132 39.6987)
(26.7435 64.6332 -74.0664)
(27.0715 59.7631 -95.3959)
(27.4387 63.1176 -90.1774)
(28.0007 62.0351 -76.9748)
(28.1992 42.905 -53.8714)
(28.1726 37.817 -32.0582)
(7.31277 -8.41911 29.2019)
(7.55591 -4.02243 -10.0369)
(7.5657 45.5567 -34.409)
(7.6236 60.9675 -41.0665)
(7.60884 64.2456 -37.896)
(7.62271 54.9412 -36.2145)
(7.6233 41.5309 -25.0923)
(2.68481 -10.2148 28.3797)
(2.72353 -15.0881 22.4342)
(2.73799 -13.2674 16.4654)
(2.7548 -12.3112 14.6824)
(2.77518 -11.6089 16.4954)
(2.73653 -5.11674 14.1452)
(2.70856 21.7145 1.01982)
(0.0397668 -2.25114 32.673)
(0.0211911 0.761557 33.8051)
(0.0111617 -0.19409 34.5838)
(0.0111962 -0.478384 35.6592)
(0.00623627 -0.345464 34.2237)
(-0.0106202 -0.639005 34.3997)
(-0.0373382 0.979409 34.814)
(-2.68999 -23.6632 3.44268)
(-2.70629 6.75928 17.0542)
(-2.73124 11.4029 15.407)
(-2.75613 8.31233 8.9988)
(-2.75605 9.19485 11.7662)
(-2.73847 13.3819 19.1199)
(-2.69084 9.83878 28.6935)
(-7.54661 -42.5188 -25.2006)
(-7.55241 -46.653 -33.0566)
(-7.578 -53.0115 -31.7603)
(-7.61955 -53.3231 -35.0718)
(-7.63392 -42.3028 -35.5829)
(-7.62331 4.94972 -12.2417)
(-7.30171 9.50096 29.0573)
(-27.9907 -52.2877 -38.0025)
(-27.9944 -63.5188 -59.1261)
(-27.6913 -80.6626 -80.8825)
(-27.2864 -82.2685 -93.7122)
(-27.1312 -84.3724 -98.9946)
(-27.3124 -34.4288 -44.0257)
(-25.6583 10.4951 41.4676)
(27.2339 122.857 -82.3726)
(26.602 108.282 -114.567)
(27.5363 51.1778 -102.904)
(28.0554 58.846 -90.1933)
(28.2883 41.6813 -60.0485)
(27.9882 -16.9347 56.4343)
(27.6665 -8.36418 75.1043)
(7.62464 48.5251 -15.3144)
(7.48551 95.0361 -53.7497)
(7.49448 103.197 -56.8883)
(7.69157 88.0565 -55.088)
(7.79679 81.1784 -47.5434)
(7.74729 59.7312 -36.1991)
(7.62608 26.3323 32.9188)
(2.81808 12.4167 0.593098)
(2.82189 12.5604 -13.6886)
(2.82194 15.0617 -15.3397)
(2.85931 16.6785 -10.5097)
(2.86963 18.5496 3.20281)
(2.82623 10.1875 8.39575)
(2.71639 13.7069 42.9675)
(0.0292678 -2.25571 43.0981)
(0.0134639 -3.52244 33.395)
(-0.000455753 -5.16229 34.7121)
(0.00352228 -0.874057 35.9619)
(0.00772628 3.47668 34.6184)
(0.00498753 3.19339 34.2307)
(-0.0107955 1.30876 43.69)
(-2.69993 -12.0829 36.5649)
(-2.79702 -12.8126 0.0247167)
(-2.87781 -25.4307 -10.7271)