/*--------------------------------*- C++ -*----------------------------------*\
  =========                 |
  \\      /  F ield         | OpenFOAM: The Open Source CFD Toolbox
   \\    /   O peration     | Website:  https://openfoam.org
    \\  /    A nd           | Version:  6
     \\/     M anipulation  |
\*---------------------------------------------------------------------------*/
FoamFile
{
    version     2.0;
    format      ascii;
    class       volScalarField;
    location    "3";
    object      p;
}
// * * * * * * * * * * * * * * * * * * * * * * * * * * * * * * * * * * * * * //

dimensions      [1 -1 -2 0 0 0 0];

internalField   nonuniform List<scalar> 
297
(
121031
121036
121040
201673
201674
201673
121040
121035
121031
121031
121035
121040
201673
201673
201673
121040
121035
121031
121031
121035
121040
201673
201673
201673
121040
121035
121031
97209.8
97151.6
97229.2
161612
161568
161620
97211.2
97152.5
97230.6
97309.5
96605.4
97334.6
160881
161031
160950
97321
96606.2
97329.1
94083
93888.7
94237.2
151945
157019
152236
94085.5
93888.5
94237.6
91589.5
94394
91333
156223
155683
156211
91581.1
94392.7
91339.1
96291.7
96504.9
96191
160615
159874
160580
96291.7
96504.7
96192.5
96358.4
96727.2
96334.2
160499
161068
160561
96358.1
96726.2
96334.9
74140.9
91616.2
74513.4
122022
152726
121451
74070.3
91614.5
74520.8
74046.1
91502.2
74273.6
120372
152763
119524
73971.6
91500.6
74280.4
76316.7
91811.9
76443
122703
153825
121615
76250.5
91810
76447.5
96934.2
97062.6
96931.1
161344
161637
161321
96933.3
97061.7
96930.9
97040.8
97064
97029.9
161580
161715
161550
97039.8
97063.5
97029.6
97047.7
97060.2
97040.1
161693
161730
161661
97046.9
97059.7
97039.7
97158.4
97343.9
97756.3
161504
161633
161877
97157.6
97342.4
97753.2
97074.6
97136.8
97397.9
161522
161553
161666
97074.1
97136.1
97396.1
96995.6
96889.8
96780.8
161608
161549
161521
96995.3
96889.7
96781.1
97755.9
97344.6
97160.4
161887
161648
161524
97753.8
97343.4
97159.2
97398.1
97137
97076
161676
161568
161544
97397
97136.2
97075
96783.5
96891.2
96997.7
161533
161564
161630
96783.4
96890.9
96996.9
98629.2
98470.5
98180.3
162649
162506
162236
98620
98463.3
98175.8
98401.2
98202.7
97875.9
162356
162232
161971
98393.9
98197.5
97873.1
98125.2
97909.8
97511.1
161983
161846
161651
98119.7
97906.2
97509.5
96662
96586.7
96443.9
160234
160159
160059
96663.1
96588.1
96445.5
91050.6
91077.5
91125.1
151014
151016
151016
91053.2
91079.7
91127.1
83566.9
83567.2
83569.5
134757
134757
134749
83568.4
83568.7
83570.9
98181.8
98472.7
98632.1
162230
162502
162647
98176.2
98464.6
98622
97876.7
98203.9
98403
161965
162227
162352
97872.7
98197.9
98395
97510.4
97909.8
98125.5
161643
161840
161978
97508.1
97905.4
98119.4
96437.7
96580.8
96656.2
160048
160149
160223
96439.5
96582.3
96657.4
91112.6
91065
91038.2
150995
150996
150994
91115.2
91067.7
91041.2
83554.4
83552.1
83551.8
134725
134734
134733
83556.2
83553.9
83553.7
)
;

boundaryField
{
    fuel
    {
        type            zeroGradient;
    }
    primary_air
    {
        type            zeroGradient;
    }
    Secondary_air_RHS
    {
        type            zeroGradient;
    }
    Secondary_air_LHS
    {
        type            zeroGradient;
    }
    outlet
    {
        type            totalPressure;
        rho             rho;
        psi             none;
        gamma           1;
        p0              uniform 100000;
        value           nonuniform List<scalar> 
18
(
87318.3
100000
87320.5
87286.8
100000
87289.1
87277.6
100000
87280.1
87291.4
100000
87293.5
87300.6
100000
87302.5
87332.1
100000
87333.9
)
;
    }
    stove_body
    {
        type            zeroGradient;
    }
    frontAndBack
    {
        type            empty;
    }
}


// ************************************************************************* //
