/*--------------------------------*- C++ -*----------------------------------*\
  =========                 |
  \\      /  F ield         | OpenFOAM: The Open Source CFD Toolbox
   \\    /   O peration     | Website:  https://openfoam.org
    \\  /    A nd           | Version:  6
     \\/     M anipulation  |
\*---------------------------------------------------------------------------*/
FoamFile
{
    version     2.0;
    format      ascii;
    class       surfaceScalarField;
    location    "3";
    object      phi;
}
// * * * * * * * * * * * * * * * * * * * * * * * * * * * * * * * * * * * * * //

dimensions      [1 0 -1 0 0 0 0];

internalField   nonuniform List<scalar> 
675
(
-6.63501e-06
-2.70307e-05
0.000154107
-6.75785e-06
-2.67354e-05
0.000154591
-2.41614e-05
0.000153678
-1.02964e-06
2.40551e-05
0.000162493
1.12524e-06
2.67681e-05
0.000157446
2.68876e-05
0.000162678
6.70469e-06
0.000153712
6.65472e-06
0.000154613
0.000153975
-6.73336e-06
-4.93263e-05
0.000202379
-6.81353e-06
-3.64241e-05
0.000191254
-4.61248e-05
0.000201116
-3.19075e-06
4.61308e-05
7.00124e-05
3.4301e-06
3.64388e-05
7.66929e-05
4.89291e-05
7.08945e-05
6.75935e-06
0.000201307
6.72468e-06
0.000191306
0.000201835
-1.03148e-05
7.61644e-05
-3.89588e-06
5.75676e-05
7.79089e-05
1.09265e-05
-7.85768e-05
-1.0389e-05
-5.76834e-05
-7.53277e-05
3.56432e-06
9.98134e-06
0.00379638
0.00475572
-0.00535957
-0.00383269
0.00662158
0.00420691
0.00474536
-0.00538332
0.00478751
-0.0047165
0.00999297
-0.0056504
-0.00663484
0.0290109
-0.00481028
0.00921997
0.00390986
-0.00543385
-0.00371278
0.00418699
-0.00532836
0.0125262
0.0104306
-0.0283187
-0.0127129
-0.00390461
0.0333493
0.0097425
-0.0278407
0.00414452
-0.0105031
0.0267838
-0.00370081
0.00387978
0.0290698
-0.00969352
0.0249574
0.012428
-0.0283669
-0.0127801
0.0332737
-0.0278042
-0.000498226
0.0214588
-0.0492789
0.000256506
-0.00819096
0.0407862
0.020957
-0.0485412
-0.0527819
-0.0214596
0.122486
0.0531729
0.00820759
-0.0932825
-0.0209268
0.119983
-0.000428895
-0.0493968
0.000326223
0.0407274
-0.0484044
-0.0300687
-0.0269644
-0.0234934
0.0805293
0.029345
0.0086364
-0.0370068
-0.0310432
-0.0283345
-0.0228238
0.0805023
-0.00148741
0.0270063
0.0220393
-0.074521
0.00390829
-0.00861866
-0.10886
0.120724
0.0283096
0.0210073
-0.0737446
-0.0301372
-0.0234143
0.0805606
0.0292713
-0.037038
-0.0309891
-0.0228034
0.0803834
0.00659028
-0.009551
-0.0205353
-0.0107387
0.0138144
-0.0334909
-0.0130306
-0.0205352
0.0221994
0.00955374
-0.0192595
-0.014927
-0.0137991
-0.0441231
0.0129979
-0.0199455
0.00665669
-0.02052
-0.0107007
-0.0334786
-0.0205091
0.00140039
-0.000135962
-0.0217974
-0.0117183
0.000900947
-0.021268
-0.0100177
-0.02223
0.0150326
0.000158693
-0.0345938
0.0078003
-0.000852026
-0.0351459
0.0099559
-0.0321238
0.00140957
-0.0217684
-0.0116546
-0.0212612
-0.0222022
-0.00179771
-0.000514077
-0.0591573
0.00168167
-0.000146056
0.0374526
-0.000411401
-0.0586991
-0.00328256
0.000520393
0.104671
0.00357174
0.000146739
-0.100432
0.00041237
0.102749
-0.00180457
-0.0592505
0.00167234
0.037397
-0.0585719
-0.00180793
0.000272657
-0.0697966
0.00173526
-0.000585938
0.034495
0.000392991
-0.0695704
-0.00380164
-0.000252361
0.0892054
0.00385363
0.000586109
-0.10926
-0.000387158
0.0878151
-0.00181014
-0.0698553
0.00172821
0.0344445
-0.0694456
-0.00244883
0.00063359
0.00239931
-0.00139652
0.000762418
-0.0042311
-0.000625778
0.00444089
0.00139659
-0.000762258
-0.0024578
0.00239395
0.0077691
-0.000943038
-0.0109541
-0.0176684
-0.00672216
-0.000941429
-0.005834
-0.000864826
-0.010401
-0.0176855
0.00789445
0.000945755
-0.0205269
-0.02385
-0.0105389
0.000945701
-0.0185999
0.000863955
-0.020338
-0.0240538
0.0077588
-0.0109584
-0.0176221
-0.00668781
-0.0058676
-0.0103951
-0.0176302
0.00283799
3.98931e-05
-0.00249845
-0.0113324
-0.00342075
-8.24634e-05
0.000508665
0.000158064
-0.00271092
-0.0112682
0.00582112
-2.76861e-05
-0.00801546
-0.0182643
-0.00590147
9.21253e-05
-0.00705149
-0.00015661
-0.00740664
-0.0185183
0.00284558
-0.00251262
-0.0113179
-0.0034012
0.000472705
-0.00270834
-0.0112439
0.000185628
-0.000178096
-0.00250472
0.00060714
8.87186e-05
0.000124218
-0.00222729
0.00260886
0.00020547
-0.0110069
-0.00427581
-7.70792e-05
-0.000120119
-0.0114384
0.000200975
-0.00250684
0.000598135
-0.0022296
-0.0161934
-1.86104e-05
-0.00147323
-0.016562
0.00200259
-0.00163376
0.00246067
-0.00606587
-0.0129566
-0.0227482
1.88156e-05
-0.0013432
-0.0202325
-0.00199841
0.00148489
-0.00245483
0.00237293
-0.0176903
-0.0161405
-0.00147054
-0.0165086
-0.00163007
-0.00605735
-0.0129059
-0.0120608
-3.48354e-05
-0.000645524
-0.0121133
0.0013534
-0.00293447
0.000608746
-0.00672165
-0.0120661
-0.0196029
3.55255e-05
-0.000329231
-0.0165242
-0.00135068
0.00110994
-0.000604955
0.0033587
-0.0162966
-0.0120358
-0.000642889
-0.0120887
-0.00292765
-0.00671322
-0.0120376
-0.00285099
-2.15916e-05
-0.00522772
-0.000557523
-0.00129864
-0.0106505
-0.0118122
2.27488e-05
-0.0118171
0.000557073
0.00129822
-0.0110556
-0.0028495
-0.00521987
-0.0106346
0.0165491
0.00244506
-0.00605416
-0.0129398
0.0161698
0.00197413
-0.00159452
-4.62008e-05
-0.00145207
0.02015
-0.00244128
0.00237015
-0.0176342
0.0226006
-0.00197066
0.00149388
4.72002e-05
-0.00134296
0.016504
-0.00605543
-0.0128896
0.0161246
-0.00159095
-0.00144997
0.0121261
0.000594726
-0.00672069
-0.0120542
0.0121
0.00130994
-0.00287807
-8.86656e-05
-0.00059549
0.0164453
-0.000589388
0.00335317
-0.0162446
0.0194432
-0.00130741
0.00111309
9.15445e-05
-0.000344247
0.0121111
-0.00672423
-0.0120315
0.0120867
-0.00287369
-0.000589262
0.00524154
-0.0013138
-0.0106482
0.00298568
-0.00062197
-0.000114183
0.0117145
0.00131397
-0.0109894
0.0115831
0.000622298
0.000117756
0.00522913
-0.0106392
0.00297799
0.00561519
0.00213984
-0.00775511
0.00869276
0.00202707
-0.00510468
0.00212323
-0.00637025
0.00806305
-0.00213153
-0.00379223
0.0129752
-0.00201898
-0.00086664
-0.002116
-0.000420133
0.00558147
-0.00771308
0.00864414
-0.00508169
-0.00636146
0.00434281
0.00180364
-0.0139016
0.0081203
0.00176116
-0.0106434
0.00134576
-0.0116498
0.0059646
-0.001797
-0.00615669
0.0114881
-0.00175586
-0.00287355
-0.00133847
-0.00249285
0.00432261
-0.0138328
0.00809535
-0.0106103
-0.0116361
0.00533845
0.00352719
-0.0227673
0.00579613
0.00191282
-0.0130139
0.0011038
-0.0176057
0.0065214
-0.00351527
-0.0056361
0.0105366
-0.00191053
-0.00306586
-0.00110454
-0.000737642
0.005309
-0.0226571
0.00578092
-0.0129928
-0.0175988
-0.00635415
0.0123163
-0.0287289
-0.00121096
0.0106442
-0.0288006
0.0103223
-0.0291382
0.00134739
-0.0123187
0.0176494
-0.00135205
-0.0106689
0.0209444
-0.0103444
0.0185747
-0.00630067
-0.0286746
-0.00117721
-0.0287845
-0.0291197
0.000446093
0.00580046
-0.0349753
0.000987122
0.00589009
-0.0352316
0.00661064
-0.0347615
-0.00198115
-0.0058244
0.031253
-0.00138744
-0.00591025
0.0321488
-0.00662791
0.0304236
0.000462875
-0.0349617
0.000992794
-0.0352244
-0.0347546
-4.70095e-06
0.0183918
-0.000194271
0.0183044
0.018335
-0.000482582
-0.0183981
0.000213276
-0.01831
-0.0183405
-1.14831e-06
-0.000192479
-0.00870051
0.00213117
-0.00638727
-0.00562564
0.00203342
-0.00510836
0.00214502
-0.00777078
-0.0130055
-0.00212293
-0.000431124
-0.00808725
-0.00202482
-0.000860578
-0.00213575
-0.00380709
-0.00865616
-0.00637262
-0.00559175
-0.00508928
-0.00772759
-0.00812452
0.00134738
-0.0116762
-0.00434842
0.00176869
-0.0106532
0.00180931
-0.0139286
-0.0115192
-0.00134159
-0.00251998
-0.0059796
-0.00176304
-0.00286892
-0.00180178
-0.00617616
-0.00810075
-0.011651
-0.00432719
-0.0106259
-0.0138566
-0.00579229
0.00111617
-0.0176505
-0.00534705
0.00191691
-0.0130154
0.0035339
-0.0228096
-0.0105499
-0.00111486
-0.000794991
-0.00653809
-0.0019145
-0.00304979
-0.00352087
-0.00565997
-0.00578088
-0.0176196
-0.00531965
-0.0130017
-0.0226972
0.00119731
0.0103344
-0.0291813
0.00636512
0.0106504
-0.0288329
0.0123268
-0.0287707
0.00132361
-0.0103542
0.0185676
-0.00135125
-0.0106747
0.0209479
-0.0123301
0.0176436
0.00117669
-0.0291497
0.00631377
-0.0288127
-0.0287128
-0.000991664
0.0066033
-0.0347927
-0.000444032
0.00588249
-0.0352628
0.00579472
-0.0350093
0.00138776
-0.00662594
0.0304067
0.00198243
-0.00590791
0.0321414
-0.00582274
0.0312411
-0.000992172
-0.0347832
-0.000458922
-0.0352536
-0.0349944
0.000194898
0.0183279
6.45867e-06
0.0182968
0.0183844
-0.00021443
-0.0183348
0.000484204
-0.0183037
-0.0183918
0.000193611
3.42428e-06
)
;

boundaryField
{
    fuel
    {
        type            calculated;
        value           nonuniform List<scalar> 
36
(
0.000128165
0.00021356
0.000128174
0.00012817
0.00021356
0.000128169
0.000128174
0.00021356
0.000128165
-0.000128165
-0.000213561
-0.000128174
-0.00012817
-0.000213561
-0.00012817
-0.000128174
-0.000213561
-0.000128165
0
0
0
0
0
0
0
0
0
0
0
0
0
0
0
0
0
0
)
;
    }
    primary_air
    {
        type            calculated;
        value           nonuniform List<scalar> 9(-0.00319664 -0.00531444 -0.00319669 -0.00319472 -0.00531299 -0.00319475 -0.00319728 -0.0053147 -0.00319732);
    }
    Secondary_air_RHS
    {
        type            calculated;
        value           nonuniform List<scalar> 9(0.0122515 0.0199689 0.0122527 0.012212 0.0196521 0.0122132 0.0125687 0.0199958 0.0125695);
    }
    Secondary_air_LHS
    {
        type            calculated;
        value           nonuniform List<scalar> 9(0.0121902 0.0200628 0.0121786 0.0121746 0.0197915 0.0121624 0.012548 0.0201748 0.0125371);
    }
    outlet
    {
        type            calculated;
        value           nonuniform List<scalar> 
18
(
-0.0533153
0.0672838
-0.0533114
-0.0533709
0.0680433
-0.0533668
-0.0533869
0.0685015
-0.0533825
-0.0533622
0.0685255
-0.0533584
-0.0533461
0.0680673
-0.0533428
-0.0532905
0.0673124
-0.0532874
)
;
    }
    stove_body
    {
        type            calculated;
        value           uniform 0;
    }
    frontAndBack
    {
        type            empty;
        value           nonuniform 0();
    }
}


// ************************************************************************* //
