/*--------------------------------*- C++ -*----------------------------------*\
  =========                 |
  \\      /  F ield         | OpenFOAM: The Open Source CFD Toolbox
   \\    /   O peration     | Website:  https://openfoam.org
    \\  /    A nd           | Version:  6
     \\/     M anipulation  |
\*---------------------------------------------------------------------------*/
FoamFile
{
    version     2.0;
    format      ascii;
    class       volScalarField;
    location    "3";
    object      T;
}
// * * * * * * * * * * * * * * * * * * * * * * * * * * * * * * * * * * * * * //

dimensions      [0 0 0 1 0 0 0];

internalField   nonuniform List<scalar> 
297
(
292.862
292.883
292.866
292.848
293.067
292.849
292.865
292.882
292.862
292.864
292.883
292.868
293.277
293.347
293.284
292.866
292.882
292.864
292.18
292.642
292.244
354.408
330.577
355.197
292.225
292.642
292.225
1597.24
1050.29
1657.66
708.155
519.298
777.057
1604.12
1052.72
1658.46
2286.34
2093.44
2373.31
1982.34
1080.73
2071.41
2287.12
2098.58
2381.96
2289.39
1857.66
2375.02
1607.42
889.58
1643.88
2290.15
1860.96
2383.69
1440.4
1109.03
1489.74
2463.07
819.017
2473.43
1441.66
1109.76
1490.12
702.635
457.987
777.795
1512.24
774.602
1475.13
703.111
458.208
777.554
302.935
303.285
303.026
303.417
303.337
303.464
303.235
303.439
303.266
2207.8
1852.2
2285.66
1791.39
817.707
1832.02
2202.34
1855.54
2300.21
1860.93
1843.72
1800.64
1918.89
817.355
2092.29
1861.55
1847.01
1806.54
1622.66
1820.97
1675.04
2411.16
818.119
2467.67
1623.8
1824.14
1680.22
302.59
303.586
302.539
303.236
303.823
303.23
302.893
303.687
302.905
303.378
303.473
303.309
303.59
303.965
303.667
303.481
303.63
303.536
303.563
303.396
303.409
304.07
304.157
304.165
303.614
303.548
303.552
302.377
302.442
302.616
302.964
302.999
303.16
302.758
302.837
303.025
303.159
303.033
303.047
303.505
303.513
303.662
303.417
303.301
303.338
303.573
303.459
303.252
304.191
304.175
304.183
303.73
303.633
303.451
302.671
302.467
302.408
303.233
303.087
303.044
303.013
302.823
302.742
303.188
303.162
303.282
303.605
303.483
303.473
303.322
303.281
303.396
303.373
303.561
303.674
304.08
304.075
304.095
303.428
303.611
303.723
302.96
303.034
302.837
303.846
303.733
303.448
303.59
303.572
303.223
302.955
303.194
303.04
304.206
304.043
303.842
303.506
303.492
303.217
302.798
303.063
303.001
304.497
304.254
304.21
303.344
303.224
303.064
302.724
302.991
302.883
305.098
304.286
304.523
303.15
302.984
302.916
299.671
299.652
299.677
302.07
301.676
303.459
299.671
299.65
299.676
292.477
292.511
292.555
290.921
291.004
291.296
292.477
292.51
292.555
302.771
303.033
302.935
303.398
303.672
303.824
303.235
303.586
303.603
302.887
303.086
302.854
303.932
304.149
304.338
303.231
303.513
303.524
302.848
303.004
302.801
304.324
304.345
304.54
303.076
303.225
303.359
302.718
302.968
302.731
304.706
304.343
305.122
302.932
303
303.166
299.685
299.661
299.679
303.6
301.714
302.091
299.684
299.659
299.678
292.559
292.515
292.482
291.351
291.034
290.943
292.559
292.514
292.481
)
;

boundaryField
{
    fuel
    {
        type            fixedValue;
        value           uniform 293;
    }
    primary_air
    {
        type            fixedValue;
        value           uniform 293;
    }
    Secondary_air_RHS
    {
        type            fixedValue;
        value           uniform 293;
    }
    Secondary_air_LHS
    {
        type            fixedValue;
        value           uniform 293;
    }
    outlet
    {
        type            inletOutlet;
        inletValue      uniform 293;
        value           nonuniform List<scalar> 
18
(
293
291.351
293
293
291.034
293
293
290.943
293
293
290.921
293
293
291.004
293
293
291.296
293
)
;
    }
    stove_body
    {
        type            fixedValue;
        value           uniform 293;
    }
    frontAndBack
    {
        type            empty;
    }
}


// ************************************************************************* //
