/*--------------------------------*- C++ -*----------------------------------*\
  =========                 |
  \\      /  F ield         | OpenFOAM: The Open Source CFD Toolbox
   \\    /   O peration     | Website:  https://openfoam.org
    \\  /    A nd           | Version:  6
     \\/     M anipulation  |
\*---------------------------------------------------------------------------*/
FoamFile
{
    version     2.0;
    format      ascii;
    class       volScalarField;
    location    "0.01";
    object      O2;
}
// * * * * * * * * * * * * * * * * * * * * * * * * * * * * * * * * * * * * * //

dimensions      [0 0 0 0 0 0 0];

internalField   nonuniform List<scalar> 
3773
(
0
0
0
0
0
0
0
0
0
0
0
0
0
0
0
0
0
0
0
0
0
0
0
0
0
0
0
0
0
0
0
0
0
0
0
0
0
0
0
0
0
0
0
0
0
0
0
0
0
0
0
0
0
0
0
0
0
0
0
0
0
0
0
0
0
0
0
0
0
0
0
0
0
0
0
0
0
0
0
0
0
0
0
0
0
0
0
0
0
0
0
0
0
0
0
0
0
0
0
0
0
0
0
0
0
0
0
0
0
0
0
0
0
0
0
0
0
0
0
0
0
0
0
0
0
0
0
0
0
0
0
0
0
0
0
0
0
0
0
0
0
0
0
0
0
0
0
0
0
0
0
0
0
0
0
0
0
0
0
0
0
0
0
0
0
0
0
0
0
0
0
0
0
0
0
0
0
0
0
0
0
0
0
0
0
0
0
0
0
0
0
0
0
0
0
0
0
0
0
0
0
0
0
0
0
0
0
0
0
0
0
0
0
0
0
0
0
0
0
0
0
0
0
0
0
0
0
0
0
0
0
0
0
0
0
0
0
0
0
0
0
0
0
0
0
0
0
0
0
0
0
0
0
0
0
0
0
0
0
0
0
0
0
0
0
0
0
0
0
0
0
0
0
0
0
0
0
0
0
0
0
0
0
0
0
0
0
0
0
0
0
0
0
0
0
0
0
0
0
0
0
0
0
0
0
0
0
0
0
0
0
0
0
0
0
0
0
0
0
0
0
0
0
0
0
0
0
0
0
0
0
0
0
0
0
0
0
0
0
0
0
0
0
0.00202896
0.00108812
0.000837114
0.000712778
0.000684661
0.000796281
0.0017026
0.00239704
0.00139684
0.00120669
0.00116651
0.00111012
0.0013145
0.00252637
0.00538354
0.00419728
0.00396058
0.00406301
0.00394568
0.00419278
0.00535062
0.00903035
0.00893026
0.0095655
0.0104801
0.00943811
0.00891858
0.0092387
0.0050767
0.00406574
0.00383419
0.00400301
0.00385673
0.00408043
0.00497615
0.00233614
0.00119898
0.0010178
0.00103818
0.00106799
0.00130756
0.00232593
0.0019517
0.000795363
0.000663251
0.000679524
0.00076394
0.000971708
0.00182821
0.000471299
1.74851e-06
3.95368e-06
6.04688e-06
9.60233e-06
1.57581e-05
4.27254e-05
0.000921691
7.64052e-06
5.14761e-06
2.34877e-05
0.000103956
0.000260805
0.000930418
0.00461678
0.00250862
0.00194646
0.00158775
0.00178974
0.00232944
0.00465557
0.00649224
0.00617564
0.00664108
0.00757248
0.00663235
0.00611596
0.00651685
0.00413569
0.00244086
0.00189784
0.00180129
0.00215821
0.00258726
0.00445761
0.00111827
8.78408e-05
2.58279e-05
6.05995e-06
6.47677e-06
2.91738e-05
0.000998603
0.000805696
6.13978e-05
7.82223e-06
2.90998e-06
1.32444e-06
5.09593e-07
0.00055913
0.000257111
4.29752e-07
8.16411e-07
9.4403e-07
1.09266e-06
6.66097e-07
1.26353e-07
0.000597938
8.77852e-06
1.25745e-05
5.84622e-05
0.000114206
0.000172766
0.000200625
0.00348929
0.00129871
0.00102145
0.00111893
0.00106003
0.00149965
0.00282985
0.00495042
0.00396793
0.00407115
0.00376937
0.0040444
0.00393895
0.00511405
0.00363126
0.0014021
0.00116068
0.00135967
0.0011568
0.0015911
0.00387446
0.000674018
0.000243606
7.03432e-05
1.69299e-05
7.36422e-06
3.97363e-05
0.000760037
3.14073e-05
1.02697e-05
2.13577e-06
1.18412e-06
6.85054e-07
3.09301e-07
0.000268017
0.000138699
2.17993e-07
6.69121e-07
9.69027e-07
1.65302e-06
1.15002e-06
5.12059e-08
0.000384925
3.32236e-06
1.15389e-05
2.00163e-05
2.34818e-05
3.0506e-05
1.58852e-05
0.00177919
0.000840085
0.00066048
0.000634129
0.000641905
0.0010132
0.00207675
0.00338215
0.00242113
0.00241175
0.0028172
0.00234315
0.00253684
0.0035343
0.0020806
0.000957528
0.000706083
0.000756818
0.000728864
0.000953064
0.00209951
0.000217715
0.00012656
5.37458e-05
1.95422e-05
5.39291e-06
1.72285e-05
0.000485219
2.62129e-08
3.90314e-07
6.90435e-07
8.88569e-07
5.2937e-07
3.25013e-07
0.000121381
3.03937e-05
1.11504e-06
4.58821e-07
1.53383e-06
2.35816e-06
1.44905e-06
9.01715e-08
0.000176211
9.93052e-07
1.89626e-06
7.65409e-06
2.47305e-05
5.37732e-05
1.82453e-05
0.00106107
0.000556956
0.000444725
0.000486539
0.000506744
0.000738079
0.00149738
0.00164735
0.00148593
0.00124098
0.00137961
0.001354
0.00164202
0.00191145
0.0015004
0.000727708
0.000470765
0.000558533
0.000459325
0.000651036
0.00121769
7.78789e-06
1.53087e-05
1.55078e-05
9.43853e-06
3.4134e-06
2.1155e-06
0.000182217
2.73689e-08
6.79596e-07
1.18101e-06
1.39728e-06
5.00775e-07
5.42783e-07
2.53151e-05
6.83636e-06
4.60941e-07
4.64282e-07
2.139e-06
2.97816e-06
1.76065e-06
8.76446e-08
3.20599e-05
2.05133e-06
3.49002e-06
1.91691e-05
4.72617e-05
7.76738e-05
3.51339e-05
0.000502367
0.000272494
0.000184996
0.000237415
0.00031744
0.000525084
0.000908711
0.00114738
0.00106616
0.00102627
0.00115279
0.00101456
0.00107048
0.0010659
0.00084142
0.00051323
0.000331014
0.000307278
0.000261746
0.000345302
0.000539687
1.59414e-05
3.67062e-05
3.59918e-05
1.82678e-05
4.99162e-06
1.63357e-06
5.76939e-06
3.26609e-08
1.19666e-06
1.87337e-06
2.33095e-06
5.72784e-07
6.00786e-07
2.87104e-06
4.84431e-07
8.44925e-07
3.15276e-07
2.10882e-06
2.87227e-06
1.86307e-06
0
2.47406e-07
3.31173e-06
7.27861e-06
2.59709e-05
3.78322e-05
4.02629e-05
1.63967e-05
0.000205144
0.0001377
0.000101806
0.000141838
0.000163808
0.000256232
0.000377499
0.000717368
0.000727217
0.000681939
0.000769443
0.000615327
0.000685599
0.000854087
0.000337493
0.000268978
0.000217158
0.000154893
0.000102896
0.000112768
0.000177469
2.73535e-05
4.28632e-05
4.58427e-05
3.5865e-05
9.92733e-06
3.56866e-06
0
0
1.43268e-06
2.47813e-06
2.85118e-06
9.29915e-07
6.27394e-07
0
0
1.98528e-09
2.13198e-08
9.63986e-08
5.49584e-08
2.66075e-08
8.38853e-09
0
4.93404e-07
2.24197e-06
5.01839e-06
6.49177e-06
1.5084e-06
1.12774e-08
0
3.81588e-05
4.67411e-05
6.95158e-05
4.46764e-05
1.46997e-05
0
0
0.000250951
0.000282856
0.00033652
0.000295804
0.000279079
0
6.75061e-09
1.3783e-05
4.01411e-05
5.48009e-05
3.6711e-05
2.64444e-05
0
3.19986e-08
1.03003e-06
6.26041e-06
9.01964e-06
1.71849e-06
2.20387e-07
5.7739e-11
6.58511e-09
1.94849e-08
3.68244e-08
5.70007e-08
2.13677e-08
3.9827e-10
0
1.89378e-10
1.55019e-09
4.69623e-08
1.42037e-07
4.85019e-08
1.82144e-08
4.24832e-09
2.63805e-08
1.93444e-07
2.57874e-06
3.71076e-06
2.48708e-06
1.06825e-07
1.24483e-09
2.06522e-09
2.16059e-05
2.8113e-05
2.59764e-05
1.30326e-05
1.55094e-06
1.05746e-09
2.03744e-09
0.000139101
0.000145398
0.000160012
0.00012049
0.000153059
3.12381e-09
6.81314e-09
4.61894e-07
1.11707e-05
1.97063e-05
1.81608e-05
1.28749e-05
1.89248e-09
4.54662e-09
9.25829e-08
2.27468e-06
3.13195e-06
9.21179e-07
2.6892e-08
1.1742e-08
2.35441e-09
1.42174e-08
3.85768e-08
8.95371e-08
3.20154e-08
8.37105e-10
2.90521e-10
1.96091e-10
1.565e-09
9.50329e-09
1.84726e-08
9.90156e-09
3.304e-09
7.0281e-10
1.41417e-08
4.20268e-08
2.12856e-07
7.62063e-07
1.49847e-07
1.95497e-08
3.15716e-09
1.01573e-07
8.30837e-06
1.1524e-05
9.63585e-06
3.88694e-06
5.42969e-07
5.5233e-09
7.97597e-09
5.54476e-05
8.65798e-05
9.79906e-05
6.75183e-05
5.97441e-05
3.31266e-09
3.56646e-08
2.59404e-06
2.63521e-06
6.42478e-06
6.64131e-06
4.34056e-06
3.36481e-08
5.95726e-09
3.25009e-08
8.60378e-08
1.78105e-07
1.89393e-08
6.729e-09
4.42997e-09
8.1945e-10
3.95736e-09
8.81204e-09
1.33602e-08
4.03805e-09
1.61251e-09
4.9537e-10
1.67016e-09
1.50786e-09
6.97608e-09
1.16762e-08
9.21053e-09
4.306e-09
1.41814e-09
4.81189e-09
3.28415e-08
7.25521e-08
6.68351e-08
4.47176e-08
2.12186e-08
6.25893e-09
1.26869e-07
2.7466e-06
4.2733e-06
4.27182e-06
1.32937e-06
3.85505e-06
1.98373e-08
1.26817e-08
3.20431e-05
5.63843e-05
5.72218e-05
4.96135e-05
3.38535e-05
5.34789e-09
2.07803e-07
6.25802e-06
5.63692e-06
2.61381e-06
2.43737e-06
1.7973e-06
6.45781e-08
1.12399e-08
2.93059e-08
4.26166e-08
4.03165e-08
2.28867e-08
1.84199e-08
1.52502e-09
1.93047e-09
6.56292e-09
1.00517e-08
1.17034e-08
7.9749e-09
3.18564e-09
8.58696e-10
4.60343e-09
2.25977e-09
8.97533e-09
1.5748e-08
1.42354e-08
9.3586e-09
3.25247e-09
1.94145e-08
1.80447e-07
1.34409e-07
9.60547e-08
6.80466e-08
3.95905e-08
1.22281e-08
1.68626e-07
1.65651e-06
2.64494e-06
1.81851e-06
2.7572e-06
3.71421e-06
8.88967e-08
1.42625e-08
1.7965e-05
3.79491e-05
3.00576e-05
2.08561e-05
1.95583e-05
1.10947e-08
1.9389e-07
3.96712e-06
5.57605e-06
1.92988e-06
1.44855e-06
7.63608e-07
9.40406e-08
1.66798e-08
7.33504e-08
1.68715e-07
1.115e-07
4.31702e-08
4.95224e-08
1.14599e-08
3.79333e-09
1.0396e-08
1.48606e-08
2.09213e-08
8.9679e-09
4.35771e-09
1.27853e-09
6.39596e-09
1.74932e-09
1.3546e-08
1.72419e-08
1.2975e-08
5.94676e-09
3.49611e-09
4.52581e-08
1.28811e-07
9.40619e-08
8.44654e-08
7.21151e-08
4.37711e-08
1.28002e-08
1.61392e-07
6.06973e-07
8.3341e-07
9.77184e-07
1.78743e-06
1.34324e-06
7.0747e-08
2.9345e-08
6.71371e-06
1.38304e-05
1.71211e-05
1.36216e-05
7.31496e-06
1.64834e-08
1.13447e-07
1.43727e-06
1.87773e-06
8.89759e-07
7.02218e-07
3.66704e-07
1.14749e-07
1.76043e-08
1.4684e-07
3.48382e-07
1.27202e-07
2.74983e-08
3.13496e-08
2.95172e-08
3.51973e-09
2.89886e-09
7.67198e-09
2.23314e-08
6.55304e-09
3.32767e-09
1.19344e-09
7.26369e-10
1.106e-09
2.16078e-09
2.23162e-09
7.51824e-10
1.35537e-09
1.74134e-09
2.21898e-08
1.72839e-08
1.23468e-08
3.04984e-08
1.10082e-07
5.88093e-08
8.22971e-09
4.41562e-08
1.77333e-07
2.14536e-07
2.56458e-07
5.25367e-07
3.89761e-07
5.92608e-08
2.33282e-07
4.1383e-06
6.52094e-06
5.02637e-06
4.51875e-06
4.02721e-06
3.05252e-07
1.39655e-07
4.1799e-07
3.54465e-07
1.93269e-07
2.63497e-07
2.37968e-07
5.85905e-08
5.09689e-09
9.08285e-08
1.30133e-07
5.47044e-08
6.2839e-09
2.31484e-09
1.15024e-08
1.6466e-09
2.35518e-09
2.27769e-09
1.52475e-09
9.99674e-10
7.34859e-10
3.5974e-10
0
1.05506e-06
3.46413e-07
1.19697e-06
1.32698e-06
5.70076e-07
0
0
9.10199e-06
9.33126e-06
2.33367e-05
2.57288e-05
9.11936e-06
0
0
6.65227e-05
7.14119e-05
8.84027e-05
0.000109788
6.41411e-05
0
0.000580839
0.000681668
0.000572371
0.000538411
0.000492148
0.000543348
0.000548157
0
0.00019949
0.000145366
0.00015404
6.5089e-05
5.15231e-05
0
0
2.29877e-05
3.26141e-05
3.96393e-05
1.48108e-05
8.97459e-06
0
0
1.03396e-06
1.73062e-06
2.19936e-06
8.61258e-07
3.05146e-07
0
0
7.77435e-07
2.31956e-07
8.09262e-07
8.47364e-07
3.90216e-07
0
0
6.62018e-06
5.71395e-06
1.83466e-05
2.12952e-05
8.20649e-06
0
0
5.83061e-05
6.31509e-05
8.79707e-05
0.000105216
5.77936e-05
0
0.000519626
0.00065103
0.000547767
0.000520192
0.000482059
0.000515184
0.000484808
0
0.00017614
0.00014068
0.000150446
5.80662e-05
4.82729e-05
0
0
1.65023e-05
2.82429e-05
3.47975e-05
1.22723e-05
6.13872e-06
0
0
5.21929e-07
1.00102e-06
1.41655e-06
5.5667e-07
1.02944e-07
0
0
7.25394e-07
2.1184e-07
6.84929e-07
6.79441e-07
3.33445e-07
0
0
6.27754e-06
4.95588e-06
1.65884e-05
1.96047e-05
6.69486e-06
0
0
5.31561e-05
5.96905e-05
8.53891e-05
0.000100841
5.28614e-05
0
0.000371696
0.000556931
0.000534194
0.000511331
0.000467718
0.000500269
0.000345783
0
0.000148446
0.000134472
0.000142919
5.5841e-05
4.92076e-05
0
0
1.38662e-05
2.54707e-05
3.20189e-05
1.14335e-05
5.2965e-06
0
0
3.96792e-07
7.82182e-07
1.15434e-06
4.58902e-07
6.35301e-08
0
0
5.58854e-07
1.96268e-07
5.15211e-07
6.0706e-07
2.87488e-07
0
0
7.12436e-06
4.76176e-06
1.44572e-05
1.76153e-05
5.96074e-06
0
0
5.28965e-05
6.02432e-05
8.13349e-05
9.5058e-05
4.58897e-05
0
0.000304713
0.000459166
0.000506566
0.00050148
0.00045527
0.000468927
0.000265859
0
0.000119949
0.000122119
0.000134261
5.73407e-05
4.96054e-05
0
0
9.1731e-06
2.00167e-05
2.801e-05
1.05675e-05
3.93418e-06
0
0
3.75529e-07
7.14344e-07
9.4853e-07
3.11856e-07
3.18025e-08
0
0
2.24563e-07
1.62176e-07
4.40026e-07
5.7132e-07
3.02119e-07
0
0
4.45442e-06
5.25181e-06
1.283e-05
1.45419e-05
4.84582e-06
0
0
5.1306e-05
6.23553e-05
8.13708e-05
9.1439e-05
4.27564e-05
0
0.000193634
0.000429344
0.000492327
0.000495143
0.000437338
0.000455567
0.000100414
0
9.03713e-05
0.00011539
0.000128949
5.88366e-05
5.06849e-05
0
0
7.04088e-06
1.72114e-05
2.47874e-05
8.79653e-06
3.07638e-06
0
0
3.68373e-07
6.9138e-07
8.64702e-07
2.40499e-07
2.21662e-08
0
0
9.76653e-08
1.12227e-07
2.29459e-07
2.55998e-07
2.15266e-07
0
0
2.47783e-06
5.70131e-06
1.0926e-05
1.09487e-05
4.21196e-06
0
0
4.74963e-05
6.80647e-05
8.40975e-05
8.64825e-05
3.64869e-05
0
2.82955e-07
0.000399922
0.000460594
0.000483708
0.000424503
0.000427392
0
0
7.25098e-05
0.000101123
0.000119897
6.31002e-05
5.36852e-05
0
0
4.30093e-06
1.17098e-05
1.71001e-05
6.69338e-06
1.88111e-06
0
0
2.08273e-07
3.06594e-07
3.80687e-07
1.04714e-07
2.19495e-08
0
0
3.06128e-08
3.42326e-08
1.21262e-07
1.47536e-07
1.27834e-07
0
0
1.61297e-06
3.62744e-06
7.80306e-06
9.07539e-06
3.42467e-06
0
0
4.64749e-05
6.73419e-05
8.60333e-05
8.54897e-05
3.51768e-05
0
0
0.000382934
0.00044934
0.00047811
0.00040199
0.000412904
0
0
5.29288e-05
9.53946e-05
0.000110437
6.2712e-05
5.25104e-05
0
0
2.99525e-06
9.2179e-06
1.33367e-05
4.29171e-06
1.08579e-06
0
0
1.40064e-07
1.86352e-07
2.21616e-07
3.6506e-08
3.75941e-10
0
5.23136e-11
7.17421e-10
1.05803e-09
8.91262e-10
4.52573e-10
3.59201e-10
6.08611e-11
3.38626e-11
6.01232e-11
3.88178e-09
1.48359e-08
1.79247e-08
1.0595e-08
1.39156e-09
1.59978e-09
3.70778e-07
3.94275e-07
2.53213e-07
1.36512e-07
1.83329e-07
6.23824e-08
2.21091e-07
2.32857e-06
5.6978e-06
4.4284e-06
3.89755e-06
2.88933e-06
2.87419e-07
1.20905e-07
1.58691e-07
1.58102e-07
5.17877e-07
6.2704e-07
5.71758e-07
9.2087e-08
2.29999e-09
1.16084e-08
1.13911e-08
9.17286e-09
4.19056e-09
9.77072e-10
2.1385e-09
1.25686e-10
6.85359e-10
6.5357e-10
5.29609e-10
4.25428e-10
7.94828e-11
3.90219e-11
2.49636e-10
1.07913e-09
1.24162e-09
1.25041e-09
8.71774e-10
1.96235e-10
7.71453e-11
2.15068e-11
1.16881e-10
5.86562e-09
1.0125e-08
1.12651e-08
4.86534e-09
1.47838e-09
9.85264e-09
3.58081e-07
3.50423e-07
2.90827e-07
1.79197e-07
8.8219e-08
5.49868e-08
2.34608e-07
1.91578e-06
4.89844e-06
3.92823e-06
3.3749e-06
2.3943e-06
3.0115e-07
9.16207e-08
9.48855e-08
3.07312e-07
5.10872e-07
4.44806e-07
4.24949e-07
1.48664e-07
3.1394e-09
7.55419e-09
6.41486e-09
4.63208e-09
2.24782e-09
4.85211e-10
1.43386e-09
1.74353e-10
4.44432e-10
4.05768e-10
3.76582e-10
1.19111e-10
4.94102e-11
5.09991e-11
6.27523e-10
1.66974e-09
2.24706e-09
2.13454e-09
1.42625e-09
4.34248e-10
1.53897e-10
8.95593e-11
1.55889e-10
6.71161e-09
1.29587e-08
1.57741e-08
8.86629e-09
3.84227e-09
3.13011e-08
3.06941e-07
4.3994e-07
4.56795e-07
3.09291e-07
1.23969e-07
6.16751e-08
2.6273e-07
1.64554e-06
3.93744e-06
3.21198e-06
2.80176e-06
1.93435e-06
3.29956e-07
9.43866e-08
1.62825e-07
4.23756e-07
5.67053e-07
4.8326e-07
3.92251e-07
1.51615e-07
2.62681e-09
4.79474e-09
4.73756e-09
3.91293e-09
2.01517e-09
5.18264e-10
1.34508e-09
2.80736e-10
5.27689e-10
5.33456e-10
4.70166e-10
8.28062e-11
6.57394e-11
1.02328e-10
8.81935e-10
1.94358e-09
2.60745e-09
2.18825e-09
1.43122e-09
8.47344e-10
7.17358e-10
2.02977e-10
1.48892e-09
7.79187e-09
1.18341e-08
1.35283e-08
1.07446e-08
5.70333e-09
1.10554e-07
2.70738e-07
5.16278e-07
4.75878e-07
3.42647e-07
1.55079e-07
7.33471e-08
3.02394e-07
1.4127e-06
2.96791e-06
2.70474e-06
2.32602e-06
1.49961e-06
3.61728e-07
1.04948e-07
2.07088e-07
4.24538e-07
4.77057e-07
4.59916e-07
3.06967e-07
1.65686e-07
4.83498e-09
4.65572e-09
4.35932e-09
3.1125e-09
1.61766e-09
6.48185e-10
1.58665e-09
6.85628e-10
9.06583e-10
7.96581e-10
4.34428e-10
9.33015e-11
1.20392e-10
3.24324e-10
1.16581e-09
1.86281e-09
2.29116e-09
1.7635e-09
1.29855e-09
4.76881e-10
1.56825e-10
6.07553e-10
3.1793e-09
6.80824e-09
7.06082e-09
6.72196e-09
6.64649e-09
5.98856e-09
1.34526e-07
2.01721e-07
3.85444e-07
2.65295e-07
2.62125e-07
1.76759e-07
1.00476e-07
3.38683e-07
1.0644e-06
2.06974e-06
1.64204e-06
1.77483e-06
1.09809e-06
4.19623e-07
9.68899e-08
2.06227e-07
2.985e-07
2.63062e-07
3.4734e-07
1.96773e-07
1.52201e-07
2.41426e-09
2.5937e-09
1.8817e-09
1.48818e-09
1.07057e-09
4.87294e-10
1.03155e-09
3.2176e-10
5.6388e-10
6.30163e-10
3.54695e-10
1.023e-10
8.98103e-11
1.91954e-10
1.21941e-09
1.48916e-09
1.32552e-09
8.43445e-10
6.28156e-10
4.66688e-10
4.18119e-10
1.06176e-09
2.98347e-09
3.95448e-09
2.2578e-09
1.85934e-09
1.74398e-09
1.97446e-09
9.18043e-08
1.24401e-07
2.10324e-07
1.8553e-07
1.69595e-07
1.13485e-07
1.06562e-07
3.30404e-07
6.66963e-07
1.26991e-06
8.57538e-07
1.05502e-06
6.74793e-07
3.95879e-07
1.0003e-07
1.43169e-07
2.01666e-07
1.77204e-07
2.16221e-07
1.2773e-07
1.09768e-07
8.26046e-10
6.97029e-10
7.55097e-10
1.03566e-09
1.06436e-09
2.06649e-10
3.37035e-10
2.02136e-10
3.30378e-10
4.39231e-10
3.42668e-10
1.25944e-10
4.16131e-11
6.36871e-11
9.77785e-10
8.32782e-10
7.91045e-10
6.24032e-10
4.24758e-10
3.05401e-10
1.99653e-10
1.15077e-09
1.89945e-09
1.539e-09
1.10501e-09
8.91743e-10
6.16428e-10
4.43529e-10
4.19361e-08
3.96915e-08
7.53113e-08
7.14331e-08
8.32498e-08
5.95138e-08
5.76639e-08
2.0522e-07
2.31669e-07
4.50366e-07
3.50182e-07
5.38859e-07
2.47102e-07
2.3088e-07
5.67255e-08
6.45649e-08
8.38688e-08
7.46735e-08
9.35688e-08
4.60244e-08
4.59942e-08
4.46949e-10
4.9289e-10
6.35193e-10
7.69265e-10
9.34198e-10
2.82372e-10
2.1684e-10
2.37672e-10
3.21017e-10
3.41674e-10
3.27565e-10
2.07469e-10
1.00597e-10
8.07567e-11
5.57193e-12
7.72611e-13
7.58004e-13
7.75921e-13
7.19781e-13
5.83745e-13
2.80672e-13
3.7866e-10
1.9025e-11
2.69875e-13
2.57964e-13
2.01282e-13
1.66744e-13
1.17031e-13
4.5221e-08
7.02948e-09
3.93347e-12
8.0657e-12
1.18629e-11
1.6608e-11
3.17329e-11
1.80277e-07
3.08603e-08
4.97481e-09
2.17448e-09
1.47928e-09
8.92391e-10
8.33477e-10
9.25804e-09
1.92809e-12
2.33271e-12
6.36921e-12
1.01564e-11
1.75467e-11
2.60187e-11
1.01964e-10
8.53005e-13
8.83603e-13
9.06726e-13
7.93694e-13
5.45545e-13
4.23518e-13
3.71982e-12
3.25708e-12
3.3567e-12
3.43861e-12
3.4064e-12
2.57527e-12
6.46791e-13
1.58405e-11
5.14486e-12
4.94387e-12
4.99148e-12
4.36849e-12
3.27212e-12
1.44285e-12
4.6856e-10
1.1631e-10
5.44774e-12
1.5409e-12
1.30577e-12
1.25063e-12
1.02538e-12
3.62474e-08
1.85306e-08
5.724e-10
1.71212e-11
2.70203e-11
4.38255e-11
7.15186e-11
1.92242e-07
8.14661e-08
2.35743e-08
9.49361e-09
4.13851e-09
3.32903e-09
2.99003e-09
7.59475e-08
1.38505e-08
9.42252e-12
1.79668e-11
2.68009e-11
5.60433e-11
8.57292e-11
1.80756e-09
1.69169e-10
3.08804e-12
3.11047e-12
2.63806e-12
1.93383e-12
1.67946e-12
4.08252e-11
1.70757e-11
1.65029e-11
1.65557e-11
1.48834e-11
9.90638e-12
2.03926e-12
6.78972e-11
2.54894e-11
2.13914e-11
2.19481e-11
2.07605e-11
1.54587e-11
6.49557e-12
1.0859e-09
6.741e-10
2.44909e-10
2.66098e-11
7.38221e-12
6.49907e-12
6.10911e-12
3.349e-08
2.32767e-08
1.04032e-08
1.84149e-09
2.71938e-11
3.99284e-11
7.05721e-11
2.26876e-07
1.30172e-07
6.01126e-08
2.73395e-08
1.23627e-08
9.34369e-09
7.23139e-09
8.8224e-08
3.2129e-08
1.66546e-09
1.14048e-11
2.19419e-11
3.97419e-11
7.12525e-11
2.31212e-09
6.74902e-10
2.59493e-11
1.17818e-11
1.21656e-11
1.17548e-11
1.21132e-11
1.0959e-10
5.00058e-11
4.21341e-11
4.28043e-11
3.93397e-11
2.71117e-11
5.5158e-12
3.61858e-10
7.27221e-11
3.68999e-11
4.44594e-11
5.37482e-11
3.94306e-11
1.5775e-11
2.38681e-09
8.83822e-10
3.49057e-10
1.08469e-10
2.94276e-11
2.76791e-11
2.47274e-11
4.78764e-08
2.91453e-08
2.1958e-08
1.40536e-08
7.25194e-09
3.63051e-09
2.05444e-10
2.51304e-07
1.80873e-07
1.23566e-07
7.61549e-08
5.36807e-08
2.94765e-08
2.18075e-08
7.51217e-08
5.61791e-08
3.02787e-08
1.71082e-08
4.93398e-09
2.04229e-10
3.85871e-11
3.06518e-09
2.00315e-09
9.35134e-10
3.54802e-10
6.22331e-11
3.28242e-11
3.25118e-11
6.22253e-10
3.01756e-10
1.28819e-10
7.4737e-11
7.33434e-11
6.97572e-11
2.2258e-11
1.28382e-10
1.05273e-10
9.09069e-11
9.52782e-11
1.01057e-10
6.94086e-11
3.1104e-11
4.75753e-09
2.53999e-09
2.04439e-09
8.60697e-10
3.74252e-10
7.63662e-11
4.50306e-11
5.70391e-08
4.16881e-08
3.01784e-08
1.74847e-08
1.22149e-08
7.59345e-09
3.9788e-09
2.33247e-07
2.00495e-07
1.43065e-07
1.12395e-07
8.81282e-08
6.95618e-08
4.33472e-08
8.70539e-08
6.31964e-08
3.79313e-08
2.93962e-08
2.08624e-08
1.16984e-08
3.59917e-09
1.42536e-09
1.60613e-09
2.0134e-09
1.15577e-09
2.55287e-10
5.33477e-11
8.79084e-11
3.02714e-10
1.92833e-10
2.35036e-10
9.74089e-11
8.50788e-11
8.50126e-11
4.50983e-11
4.30538e-10
3.78849e-10
2.80627e-10
2.18035e-10
1.52586e-10
8.61139e-11
4.50771e-11
2.01568e-09
1.3848e-09
1.02581e-09
6.46108e-10
4.70083e-10
2.75053e-10
1.68619e-10
7.37043e-08
6.31324e-08
4.45125e-08
3.21327e-08
2.38753e-08
1.29541e-08
8.60131e-09
2.53464e-07
2.12325e-07
1.70015e-07
1.3878e-07
1.07593e-07
9.43189e-08
6.39312e-08
8.60908e-08
7.6284e-08
5.70444e-08
4.88593e-08
3.32247e-08
2.34121e-08
1.97082e-08
4.62488e-10
4.51245e-10
4.11865e-10
3.78339e-10
2.5883e-10
1.69804e-10
2.86091e-10
9.35699e-11
8.2331e-11
7.00596e-11
7.77225e-11
9.63643e-11
1.09614e-10
5.42259e-11
1.74326e-10
1.69986e-10
1.45115e-10
1.25841e-10
9.80902e-11
8.13662e-11
4.65533e-11
3.92889e-10
7.20595e-10
5.53085e-10
4.51478e-10
3.00782e-10
1.94841e-10
1.45042e-10
5.16624e-08
4.88834e-08
4.32581e-08
3.27747e-08
2.6419e-08
1.7887e-08
1.54831e-08
1.94825e-07
1.74983e-07
1.42892e-07
1.27053e-07
1.00988e-07
8.85492e-08
7.21331e-08
4.49623e-08
4.31055e-08
3.92461e-08
3.38074e-08
2.99045e-08
2.1914e-08
1.98233e-08
1.80682e-10
1.79281e-10
1.71493e-10
1.66495e-10
1.6344e-10
1.61991e-10
1.63911e-10
7.89535e-11
7.88646e-11
8.28941e-11
8.6955e-11
9.88836e-11
1.12676e-10
6.16265e-11
2.34985e-12
8.12676e-12
8.79185e-12
1.0029e-11
9.64276e-12
9.26876e-12
8.2964e-12
6.35574e-13
1.26824e-12
1.59113e-12
2.01425e-12
1.94882e-12
1.89679e-12
1.70305e-12
6.15309e-12
2.48372e-12
1.6894e-12
1.00274e-12
5.486e-13
5.59578e-13
2.91886e-12
1.94514e-09
2.2405e-09
2.5578e-09
3.40053e-09
9.06831e-09
3.47614e-08
1.48752e-07
1.45016e-11
8.01559e-12
3.24239e-12
1.78537e-12
1.15247e-11
2.4622e-08
9.26003e-08
4.73308e-13
5.14138e-13
5.19053e-13
4.89657e-13
5.33312e-13
4.04176e-11
4.89518e-10
1.03171e-12
1.42081e-12
1.47508e-12
1.50606e-12
1.46725e-12
1.56882e-12
6.97534e-12
1.09825e-11
3.94388e-11
4.63264e-11
6.04402e-11
5.8128e-11
5.5243e-11
4.44692e-11
3.93027e-12
7.47777e-12
9.27266e-12
1.19518e-11
1.13407e-11
1.10584e-11
1.00052e-11
2.38103e-11
1.30577e-11
9.08873e-12
4.71062e-12
2.48569e-12
1.85943e-12
3.41539e-11
6.30417e-09
9.03714e-09
1.21007e-08
1.82375e-08
3.45595e-08
8.11957e-08
1.56456e-07
6.31295e-11
3.23679e-11
3.99527e-11
2.43765e-11
7.78146e-09
5.10488e-08
8.01232e-08
2.51461e-12
2.61159e-12
2.54724e-12
2.81279e-12
9.92984e-12
2.17948e-10
8.09233e-10
3.61378e-12
7.32624e-12
8.34977e-12
9.84853e-12
1.00187e-11
9.93326e-12
2.52109e-11
3.17794e-11
1.0781e-10
1.65669e-10
1.48853e-10
1.35735e-10
1.2592e-10
9.055e-11
3.34642e-11
4.44842e-11
5.2997e-11
5.20466e-11
4.61967e-11
4.18459e-11
7.5136e-11
2.26367e-11
1.38636e-11
1.12454e-11
8.26862e-12
7.21971e-12
6.90668e-12
5.08165e-09
1.17193e-08
1.93356e-08
2.49442e-08
3.92776e-08
6.75973e-08
1.11686e-07
1.75002e-07
4.8437e-11
2.79575e-11
1.88566e-09
1.54003e-08
3.16856e-08
4.93023e-08
6.04062e-08
1.73762e-11
1.56567e-11
1.34591e-11
1.53641e-10
3.90876e-10
6.87149e-10
9.63198e-10
8.65327e-12
2.57199e-11
3.66575e-11
4.02613e-11
4.00026e-11
5.2685e-11
8.46606e-11
8.42023e-11
2.31437e-10
2.38418e-10
1.41308e-10
5.29266e-11
8.08013e-11
7.79479e-11
9.40402e-11
1.02338e-10
9.69801e-11
8.30203e-11
6.01445e-11
7.54628e-11
1.56831e-10
2.8771e-11
4.70461e-11
2.56138e-10
1.51962e-09
8.48218e-09
3.26286e-08
6.65527e-08
2.94273e-08
4.20396e-08
5.60778e-08
8.03227e-08
1.03801e-07
1.61276e-07
2.11903e-07
1.97463e-09
8.74139e-09
1.62416e-08
2.39153e-08
3.91831e-08
4.7427e-08
6.15545e-08
5.24997e-11
8.76263e-11
1.62597e-10
3.56493e-10
4.79758e-10
9.56872e-10
1.78008e-09
3.10754e-11
7.24465e-11
7.40287e-11
7.505e-11
7.10582e-11
1.82478e-10
2.99115e-10
1.37912e-10
3.26778e-10
3.56818e-10
3.1464e-10
3.31743e-10
4.47743e-10
6.0406e-10
1.36227e-10
1.74061e-10
1.25707e-10
1.02075e-10
1.19544e-10
1.73035e-10
3.53788e-10
1.71668e-09
4.6292e-09
9.5063e-09
1.8515e-08
3.17746e-08
4.2386e-08
5.99695e-08
4.42732e-08
5.67767e-08
7.68955e-08
9.43461e-08
1.42835e-07
1.63537e-07
1.85855e-07
7.3038e-09
1.14496e-08
2.0002e-08
2.78741e-08
3.78661e-08
4.62959e-08
5.80361e-08
1.02412e-10
4.46407e-11
1.2608e-10
4.92908e-10
1.04805e-09
1.03437e-09
9.76367e-10
6.20634e-11
1.24591e-10
1.44378e-10
1.4684e-10
1.63568e-10
1.66232e-10
2.07609e-10
1.75021e-10
4.236e-10
5.14538e-10
5.36584e-10
5.76298e-10
6.34012e-10
7.5992e-10
3.84816e-10
4.53401e-10
4.76606e-10
5.1205e-10
6.28809e-10
6.996e-10
9.06659e-10
1.33346e-08
1.61706e-08
2.51952e-08
3.12123e-08
4.31636e-08
5.46728e-08
7.14155e-08
5.65812e-08
8.03048e-08
9.11142e-08
1.14612e-07
1.46848e-07
1.64828e-07
1.93756e-07
9.86369e-09
1.51597e-08
2.12221e-08
2.90371e-08
3.56965e-08
4.69326e-08
5.51418e-08
2.61934e-10
1.72487e-10
2.92526e-10
4.42273e-10
5.65633e-10
5.94814e-10
6.65862e-10
7.75344e-11
1.43032e-10
1.71405e-10
2.00152e-10
2.15456e-10
2.1385e-10
1.98024e-10
1.89127e-10
4.42717e-10
5.7629e-10
6.31148e-10
6.8692e-10
8.21946e-10
8.80286e-10
4.73552e-10
5.40901e-10
6.16864e-10
6.70937e-10
8.09542e-10
8.72608e-10
1.02228e-09
1.32853e-08
1.55906e-08
1.86913e-08
2.22326e-08
2.68652e-08
3.32684e-08
3.83512e-08
6.1858e-08
6.7564e-08
8.28494e-08
1.00559e-07
1.15275e-07
1.36579e-07
1.53319e-07
1.27352e-08
1.46224e-08
2.03489e-08
2.52131e-08
3.11086e-08
3.81884e-08
4.13927e-08
2.42356e-10
2.20936e-10
2.67994e-10
2.98082e-10
3.77788e-10
4.15279e-10
3.64528e-10
8.28469e-11
1.25216e-10
1.44472e-10
1.68944e-10
1.8371e-10
2.10605e-10
2.24544e-10
9.11355e-15
1.52994e-14
3.79174e-14
7.56602e-14
1.69919e-13
2.0472e-13
2.51609e-13
9.53032e-15
6.10915e-14
1.73353e-13
5.01593e-13
6.51262e-13
5.81299e-13
5.38142e-13
9.92147e-12
3.58841e-11
7.05539e-11
6.40431e-11
4.44545e-11
2.23785e-11
1.21151e-11
7.04793e-11
3.0866e-10
5.80404e-10
7.92892e-10
9.91397e-10
1.19424e-09
1.69731e-09
1.05959e-11
3.85502e-11
7.53078e-11
7.2894e-11
5.87607e-11
4.22172e-11
2.6033e-11
6.8192e-16
2.50296e-15
3.75287e-14
1.20702e-13
3.63202e-13
3.75985e-13
4.13574e-13
1.41733e-16
2.4601e-16
9.38144e-15
4.52198e-14
1.1305e-13
1.66315e-13
3.42676e-13
6.07089e-15
2.08006e-14
8.07965e-14
2.69885e-13
3.54788e-13
3.73796e-13
5.00178e-13
3.80895e-15
3.16423e-13
9.04967e-13
2.68976e-12
2.43041e-12
2.1096e-12
2.92675e-12
5.76031e-11
1.05807e-10
2.2376e-10
2.07502e-10
1.20376e-10
7.57063e-11
4.72325e-11
4.42757e-10
1.23928e-09
2.35028e-09
3.41582e-09
4.09032e-09
4.81825e-09
5.8841e-09
6.25196e-11
1.20006e-10
2.48962e-10
2.33685e-10
2.19708e-10
1.43003e-10
9.50738e-11
5.80447e-16
5.53532e-15
2.05123e-13
8.9988e-13
1.80703e-12
1.84894e-12
2.25297e-12
1.14121e-16
3.62899e-16
2.25674e-14
1.34024e-13
4.93328e-13
6.14702e-13
1.34356e-12
5.53047e-15
2.35736e-14
1.09146e-13
3.6308e-13
5.02442e-13
4.99403e-13
7.96934e-13
2.69516e-14
1.1408e-12
2.05866e-12
6.97768e-12
7.25785e-12
9.28881e-12
2.97357e-11
1.29611e-10
2.6565e-10
5.41592e-10
3.859e-10
2.07543e-10
9.51905e-11
4.82153e-11
8.7958e-10
2.3306e-09
3.92507e-09
5.37957e-09
6.749e-09
8.07549e-09
9.827e-09
1.35221e-10
2.67668e-10
6.121e-10
5.84478e-10
2.83178e-10
1.7171e-10
1.11724e-10
4.00715e-15
1.40668e-14
7.01199e-13
3.25397e-12
9.07794e-12
1.1892e-11
1.77579e-11
1.93465e-16
6.75592e-16
4.40522e-14
3.0521e-13
7.24504e-13
8.15402e-13
3.74699e-12
8.81133e-15
3.04594e-14
1.39494e-13
4.23607e-13
7.37395e-13
5.20022e-13
8.38821e-13
1.01271e-13
2.21235e-12
7.35702e-12
2.75116e-11
2.17566e-11
4.14018e-11
9.81869e-11
1.43685e-10
2.87891e-10
6.08196e-10
3.34751e-10
1.39764e-10
5.92238e-11
3.46454e-11
9.31935e-10
2.91087e-09
5.70588e-09
9.34083e-09
1.35942e-08
1.72613e-08
2.44868e-08
1.51398e-10
3.09698e-10
6.48919e-10
5.49934e-10
2.64002e-10
1.31003e-10
6.69297e-11
5.80528e-15
2.17697e-14
2.16071e-12
1.90428e-11
3.0496e-11
4.85882e-11
5.96292e-11
3.14045e-16
1.05923e-15
6.88669e-14
3.87268e-13
8.02576e-13
8.92361e-13
6.12572e-12
1.04552e-14
3.53161e-14
1.63425e-13
4.59972e-13
8.42376e-13
4.66625e-13
8.41794e-13
2.33409e-13
3.66789e-12
2.88693e-11
5.50185e-11
4.53232e-11
1.20358e-10
1.93228e-10
1.86921e-10
3.98922e-10
7.25637e-10
2.57453e-10
1.09363e-10
3.08421e-10
5.39193e-10
1.454e-09
4.96217e-09
1.09231e-08
1.66193e-08
2.11615e-08
2.77386e-08
3.83085e-08
1.93959e-10
4.64721e-10
7.73689e-10
4.29077e-10
2.21128e-10
7.33413e-10
3.34685e-09
8.93631e-15
3.46618e-14
9.80824e-12
4.36331e-11
5.16348e-11
1.04883e-10
1.25297e-10
4.32423e-16
1.2831e-15
7.83581e-14
4.18354e-13
8.43308e-13
9.32556e-13
7.2377e-12
1.15748e-14
4.22044e-14
1.807e-13
4.76966e-13
9.1593e-13
4.32748e-13
8.14378e-13
4.34666e-13
9.91535e-12
5.85063e-11
1.14047e-10
2.30108e-10
2.95097e-10
3.59051e-10
2.71946e-10
6.60888e-10
7.84581e-10
2.75951e-10
7.14028e-10
3.96482e-09
7.29085e-09
2.03996e-09
9.27776e-09
1.79472e-08
2.35104e-08
3.13524e-08
4.07388e-08
4.88966e-08
2.84837e-10
8.41764e-10
1.17674e-09
4.42628e-10
3.99603e-10
2.60838e-09
5.96032e-09
1.05091e-14
4.99268e-14
2.78656e-11
6.72211e-11
1.3322e-10
2.32575e-10
2.95086e-10
5.91778e-16
1.66679e-15
8.85966e-14
4.25916e-13
8.53299e-13
9.47966e-13
9.55402e-12
1.19283e-14
4.56647e-14
1.927e-13
4.8265e-13
1.03725e-12
4.18187e-13
7.02497e-13
5.79211e-13
1.50413e-11
1.0874e-10
2.08696e-10
2.92964e-10
3.28413e-10
4.19599e-10
5.30738e-10
1.20172e-09
1.13087e-09
2.32936e-09
6.30423e-09
8.60765e-09
1.18999e-08
5.36442e-09
1.58758e-08
2.57943e-08
3.2803e-08
4.13435e-08
4.58132e-08
5.1658e-08
5.49422e-10
1.37733e-09
1.23374e-09
1.29992e-09
4.23486e-09
6.80894e-09
1.09564e-08
1.20619e-14
6.21111e-14
4.13514e-11
9.407e-11
1.82142e-10
2.08975e-10
2.43753e-10
6.3302e-16
2.10946e-15
8.65442e-14
4.21013e-13
8.59925e-13
9.59666e-13
1.13544e-11
2.51709e-15
5.60238e-14
1.66685e-13
4.86338e-13
1.54762e-12
2.45547e-13
5.62098e-13
5.93237e-14
3.3763e-13
3.17725e-11
4.32673e-11
9.48228e-11
1.53797e-11
2.75683e-12
5.09542e-10
5.7605e-10
5.61797e-10
1.33973e-09
3.42606e-09
4.13149e-09
4.12342e-09
6.00301e-09
1.456e-08
1.71104e-08
1.90242e-08
2.00179e-08
2.02423e-08
2.04988e-08
6.76362e-10
6.57986e-10
6.27629e-10
7.25875e-10
2.25567e-09
3.45e-09
2.77477e-09
1.14888e-14
7.85458e-14
1.07488e-12
1.65317e-11
2.49431e-11
6.37523e-12
1.97406e-11
2.53974e-16
2.51794e-15
9.74838e-15
4.28394e-13
8.94215e-13
9.67098e-13
2.23846e-12
3.47804e-15
6.447e-14
2.4687e-13
3.91034e-14
1.82182e-12
3.00705e-13
1.90548e-14
9.5357e-14
8.05339e-13
2.67442e-12
4.44835e-13
2.18961e-11
3.68935e-12
1.76173e-13
2.65471e-10
2.6102e-10
2.7089e-10
5.51823e-10
1.29026e-09
1.47779e-09
1.2007e-09
4.52866e-09
8.89117e-09
9.11847e-09
1.02415e-08
1.21909e-08
1.15751e-08
9.09435e-09
3.85156e-10
3.12516e-10
3.09961e-10
3.43582e-10
8.97471e-10
1.24818e-09
9.46022e-10
9.7464e-15
6.43899e-14
4.88721e-13
2.58274e-12
4.34252e-14
2.67197e-14
1.43282e-13
3.35732e-16
2.72923e-15
1.82671e-14
1.11398e-13
1.43936e-15
5.49542e-16
1.11837e-15
1.22601e-17
2.31299e-17
2.48517e-17