/*--------------------------------*- C++ -*----------------------------------*\
  =========                 |
  \\      /  F ield         | OpenFOAM: The Open Source CFD Toolbox
   \\    /   O peration     | Website:  https://openfoam.org
    \\  /    A nd           | Version:  6
     \\/     M anipulation  |
\*---------------------------------------------------------------------------*/
FoamFile
{
    version     2.0;
    format      ascii;
    class       volScalarField;
    location    "0.01";
    object      p;
}
// * * * * * * * * * * * * * * * * * * * * * * * * * * * * * * * * * * * * * //

dimensions      [1 -1 -2 0 0 0 0];

internalField   nonuniform List<scalar> 
3773
(
42041.2
42041.1
42041.2
42041.2
42041.2
42041.2
42041.2
101422
101422
101422
101422
101422
101422
101422
137070
137070
137070
137070
137070
137070
137070
149014
149014
149014
149014
149014
149014
149014
137069
137069
137069
137069
137069
137069
137069
101421
101421
101421
101421
101421
101421
101421
42040.2
42040.3
42040.3
42040.3
42040.3
42040.2
42040.2
42041.2
42041.2
42041.3
42041.3
42041.3
42041.2
42041.2
101422
101422
101422
101422
101422
101422
101423
137069
137070
137070
137070
137070
137069
137069
149014
149014
149014
149014
149014
149014
149014
137069
137069
137069
137069
137069
137069
137069
101422
101421
101421
101421
101421
101421
101421
42040.2
42040.3
42040.3
42040.4
42040.3
42040.2
42040.1
42041.7
42041.7
42041.8
42041.9
42041.8
42041.7
42041.7
101423
101423
101423
101423
101423
101423
101423
137069
137069
137069
137069
137069
137069
137069
149014
149014
149014
149014
149014
149014
149014
137068
137068
137068
137068
137068
137068
137068
101422
101422
101422
101422
101422
101422
101422
42040.6
42040.7
42040.8
42040.9
42040.8
42040.7
42040.6
42042.9
42042.9
42043.1
42043.1
42043.1
42042.9
42042.9
101424
101424
101424
101424
101424
101424
101424
137069
137069
137069
137069
137069
137069
137069
149014
149014
149014
149014
149014
149014
149014
137068
137068
137068
137068
137068
137068
137068
101423
101423
101423
101423
101423
101422
101423
42041.8
42041.9
42042
42042.2
42042.1
42041.9
42041.8
42044.3
42044.3
42044.5
42044.5
42044.4
42044.3
42044.2
101424
101424
101425
101425
101425
101425
101425
137069
137069
137069
137069
137069
137069
137069
149013
149013
149013
149013
149014
149014
149013
137068
137068
137068
137068
137068
137068
137068
101424
101424
101424
101423
101423
101423
101423
42043.1
42043.2
42043.4
42043.5
42043.4
42043.2
42043.1
42045.3
42045.4
42045.6
42045.7
42045.5
42045.3
42045.3
101425
101425
101425
101425
101425
101425
101425
137068
137068
137068
137068
137068
137068
137069
149013
149013
149013
149013
149013
149013
149013
137067
137067
137067
137067
137067
137067
137067
101424
101424
101424
101424
101424
101424
101424
42044.1
42044.3
42044.4
42044.6
42044.5
42044.3
42044.2
42046
42046.1
42046.3
42046.3
42046.2
42046
42045.9
101425
101425
101425
101425
101425
101425
101425
137068
137068
137068
137068
137068
137068
137069
149013
149013
149013
149013
149013
149013
149013
137067
137067
137067
137067
137067
137067
137067
101424
101424
101424
101424
101424
101424
101424
42044.7
42044.9
42045.1
42045.3
42045.2
42044.9
42044.8
63287.4
63207.1
63229.6
63425.2
63656.2
63771.3
63814.7
149780
149675
149645
149740
149856
149891
149985
200294
200195
200137
200102
200106
200145
200249
217054
216964
216905
216860
216843
216854
216913
200198
200103
200062
200017
200006
200026
200100
149612
149640
149711
149663
149584
149562
149599
63203.1
63338.2
63486.5
63477.7
63360.9
63244.4
63214.6
62697.7
62587
62546.7
62657
62918.2
63140.7
63252.2
149040
148958
148929
148954
149057
149245
149509
199797
199695
199649
199612
199623
199683
199845
216670
216583
216543
216523
216499
216497
216561
199689
199574
199535
199542
199535
199515
199591
148964
148838
148904
148918
148870
148830
148834
62973.9
62918
62926.2
62860.6
62739.3
62664
62660.9
62103
62055.2
62027.9
62053.9
62229.1
62469.8
62621.1
148406
148343
148302
148299
148331
148491
148732
199310
199216
199186
199170
199135
199106
199201
216240
216184
216169
216164
216128
216089
216114
199219
199120
199063
199103
199123
199084
199120
148603
148403
148286
148269
148275
148235
148251
62719.3
62595.5
62425.4
62197.3
62082.3
62107.3
62139.5
61830.2
61802.4
61779.9
61764.3
61799.1
61942.7
62118.4
147991
147916
147829
147669
147525
147490
147728
198902
198841
198832
198766
198658
198522
198487
215816
215821
215842
215848
215822
215777
215744
198761
198696
198682
198739
198787
198788
198842
148164
147960
147805
147778
147847
147880
147998
62305.9
62178
61996.2
61757
61714
61788.6
61861.9
61773.7
61726.8
61730.2
61547.1
61512.4
61569.9
61655.9
147734
147638
147526
147206
147018
146980
147205
198639
198580
198529
198428
198333
198217
198171
215516
215534
215561
215592
215626
215626
215584
198296
198293
198359
198470
198585
198684
198775
147514
147273
147163
147286
147537
147708
147880
61979.1
61853.2
61682.2
61555.4
61634.3
61663
61782.1
61787.1
61717.1
61646.2
61409.7
61257.2
61329.8
61437.2
147557
147413
147209
147009
146908
146832
146972
198405
198331
198260
198225
198224
198179
198128
215354
215351
215355
215371
215469
215509
215514
198150
198155
198206
198277
198363
198518
198639
147027
146876
146840
146995
147215
147534
147717
61635.5
61477.3
61371.9
61435.2
61536.5
61746.4
61843.1
61778.3
61696
61456.7
61523.1
61414.3
61501.4
61657.6
147334
147113
146859
146915
146970
146992
147104
198151
198108
198029
198089
198193
198265
198229
215323
215320
215278
215270
215312
215386
215441
198384
198220
198196
198199
198182
198269
198402
147156
146911
146887
147012
147105
147393
147584
61697.4
61485.3
61392.6
61420
61551.4
61887.2
61963.1
61566.2
61730
62011.8
62031.9
62096.9
62099.9
62238.7
147196
147072
147269
147311
147563
147759
148046
198085
198132
198193
198352
198605
198855
198870
215281
215311
215357
215397
215430
215492
215497
198520
198459
198357
198321
198254
198275
198341
147580
147392
147229
147353
147394
147520
147705
61939.9
61901
61962.6
61951.9
62053.8
62023
62307.4
61463.3
61344.6
61602.4
61663.2
61727.6
61745.7
61897.3
147131
146962
147005
147097
147261
147555
147882
197927
197972
197977
198099
198289
198519
198638
214904
214963
215063
215148
215162
215128
215092
198076
197985
198063
198095
198026
197923
197900
147338
147099
147036
147106
147167
147322
147405
61587.5
61455.5
61396
61404.3
61610.1
62108.3
62383
61902.9
61704.2
61775.3
61722.7
61706.4
61714.8
61829.1
147232
147248
147081
147108
147124
147430
147862
197659
197698
197667
197710
197782
197913
198230
214413
214417
214458
214497
214520
214533
214553
197596
197356
197485
197585
197488
197352
197299
147203
147014
147057
147048
146873
146623
146706
61417.8
61348.6
61279.7
61238.5
61175.5
61567.7
62068.1
61787.6
62240.7
62028.8
61768.7
61881.5
62012.9
62099.9
146630
146975
146881
147065
147253
147642
148299
197111
197207
197281
197337
197293
197378
197886
213880
213848
213837
213833
213856
213954
214077
197079
196795
196755
196819
196888
196912
196961
146842
146586
146539
146571
146298
146019
146341
61203.5
61159.5
61175.5
61164
60865
60767.8
61653.6
60880.8
61995.1
61110.2
61259.2
61695.6
61917.2
62085.5
145827
145812
146123
146668
147065
147461
148153
196708
196684
196813
196802
196735
196880
197392
213493
213489
213531
213551
213542
213615
213722
196434
196187
196191
196440
196824
197038
197076
145878
145368
145083
145464
146177
146470
146727
60664.7
60482.7
60368.1
60401.2
60645.3
61074.8
62103.9
60474.1
60759.8
59795.5
60256.5
60816.7
61176.7
61455.3
145568
145353
145395
145739
145779
146172
146856
196781
196792
196802
196582
196239
196210
196588
213387
213521
213682
213685
213555
213445
213432
196011
196022
196272
196741
197324
197526
197359
144979
144543
144375
144803
146751
147503
147430
60151.4
59851.5
59541.3
59552.5
60802.4
62367.2
63377.3
61382.8
63403
61707.7
60621.3
60527.6
60768.9
60781.9
145930
146801
146861
145530
144782
144988
145664
196946
197235
197190
196658
196045
195705
195704
212977
213466
213549
213476
213381
213112
212646
195782
196069
196224
196576
197758
197665
196749
145090
144780
144590
145559
149253
149333
147214
60161.8
59903.3
60123
61450.2
63654.4
64195.1
63471.1
61826.9
62101
62222.1
62559
62264.4
62175
62061.9
147335
147201
147061
147345
147423
147273
147571
197989
197991
198017
198151
198310
198448
198536
215333
215344
215255
215233
215258
215352
215413
198727
198677
198338
198229
198123
198158
198326
147551
147111
147173
147273
147444
147775
147737
62072.3
62083.7
62102.4
62184.3
62528.6
62609
62162.8
61832.1
62142.3
62275.2
62651.3
62333.9
62214.6
62072.2
147333
147218
147088
147390
147470
147320
147641
197978
197972
198014
198153
198326
198481
198550
215331
215334
215252
215213
215251
215352
215413
198766
198677
198348
198225
198120
198162
198331
147617
147170
147216
147315
147487
147824
147748
62071.1
62110.6
62140.4
62238.3
62636.5
62703.5
62184.9
61835.2
62185.2
62313.2
62741.3
62396.9
62242.1
62092.2
147324
147238
147110
147423
147504
147376
147706
197976
197962
198024
198155
198348
198512
198558
215326
215324
215254
215198
215254
215357
215418
198793
198656
198354
198227
198123
198177
198339
147678
147251
147263
147357
147514
147862
147748
62073.5
62096.4
62155.5
62273.7
62748.2
62739.2
62202.8
61833.5
62241.5
62365.6
62853.6
62491.4
62280.3
62135
147312
147261
147124
147465
147554
147437
147760
197973
197963
198037
198162
198372
198539
198573
215318
215316
215259
215199
215262
215364
215424
198814
198639
198357
198236
198130
198193
198341
147729
147322
147312
147400
147549
147899
147748
62104.1
62094.5
62216.3
62353.5
62864.5
62652.9
62205.7
61824.4
62325.7
62434.3
62997.8
62642.4
62344.1
62208.5
147299
147284
147144
147518
147610
147479
147805
197965
197971
198044
198175
198397
198568
198591
215312
215309
215266
215210
215274
215372
215428
198829
198623
198361
198251
198140
198206
198338
147761
147373
147352
147442
147582
147919
147748
62154.6
62137.6
62343.3
62505.9
63000.2
62513.5
62193.6
61804.5
62413.1
62486.9
63086.1
62779.5
62450.3
62278.4
147287
147307
147168
147570
147655
147497
147851
197961
197985
198050
198192
198423
198599
198611
215307
215305
215274
215225
215289
215383
215432
198817
198608
198366
198270
198150
198209
198336
147767
147399
147385
147479
147601
147921
147747
62199.3
62231.9
62482.9
62641
63078.7
62393.1
62188.5
61776.9
62384
62443.2
62980.9
62747.4
62520.1
62280.5
147276
147307
147185
147583
147671
147519
147897
197968
198004
198062
198212
198448
198636
198642
215305
215302
215282
215244
215307
215396
215439
198780
198594
198374
198287
198160
198213
198335
147752
147408
147387
147487
147602
147915
147746
62186.4
62301.9
62506.9
62628
62984.5
62313.6
62197.2
70186.2
69907.1
65537.4
62276.8
60885.2
60440.6
60715
150461
153283
152321
147489
145194
144715
145360
196839
198179
197780
196410
195955
195748
194852
211223
213060
212902
212858
213289
213029
210957
194949
195863
196078
196784
198301
197876
195463
144955
145726
147597
150574
154455
151871
145942
61240.9
61566.9
63756.9
67162.4
69386
66650.9
62167.2
71655.3
70241.7
65760.8
62598
60938.4
60238.7
60242.4
151532
154781
153194
148044
145328
144597
144781
196743
198555
198052
196363
195813
195660
194900
211191
212962
212881
212883
213282
213061
210944
195001
195735
196045
197134
198636
197935
195031
144766
146007
148675
152367
155385
151980
145547
60863.5
61917.4
64920.1
68663.5
69732.6
66040
61483.3
71049
69519.4
65574.3
62687.2
60872.9
60061.6
59814.7
151485
154933
153410
148372
145363
144409
144178
196726
198919
198372
196476
195645
195472
194893
211523
213031
213116
213201
213384
213159
211277
195009
195561
196184
197664
199041
197959
194725
144676
146277
149385
153196
155436
151550
145115
60525.9
62121.1
65506.4
69098.1
69796.9
64872.2
60372.2
69767.4
68300.5
65280.5
62647.1
60873.3
60006.8
59679.7
151131
154378
153098
148294
145386
144309
143910
196901
199178
198602
196693
195628
195313
194807
211882
213258
213498
213676
213646
213343
211669
194839
195495
196565
198221
199391
198114
194766
144661
146465
149567
153074
155069
150879
144590
60488.1
62113
65483.6
68944.4
69352.4
64009.5
59689.4
68796.9
67575.8
65088.7
62639.5
60911.1
59999.3
59639.8
151237
154017
152391
148241
145592
144408
143824
197382
199410
198795
196959
195744
195285
194686
212206
213562
213919
214127
214007
213590
212085
194648
195629
196966
198737
199702
198366
195031
144673
146605
149517
152932
154975
150698
144481
60455.4
62004.7
65317.8
68822.3
68986.2
64079.5
59735.9
68699.1
67433
65063.8
62670.7
60955.7
59948.6
59591.3
151635
154128
151962
148162
145701
144476
143703
197819
199605
199027
197199
195922
195312
194639
212508
213821
214270
214474
214335
213813
212498
194529
195770
197264
199126
200024
198650
195373
144610
146571
149437
153178
155233
151105
144725
60443.2
61940.3
65281.7
68935.5
69159.2
64654.6
60127.3
69392.6
67592.5
65156.3
62725.5
61007.2
59950.7
59605.2
152221
154482
151966
148223
145799
144579
143672
198161
199782
199256
197457
196139
195360
194707
212789
213956
214512
214686
214553
213945
212843
194524
195875
197507
199372
200355
198890
195738
144564
146534
149475
153569
155687
151734
145223
60571.3
61954.8
65376.3
69115.8
69454.4
65183.8
60498.5
61630
61336.1
61252.8
62235
65176.9
71364.8
80743.7
144986
144523
144320
144098
144469
146834
151374
192499
192812
192056
190430
188365
186186
184288
206473
206149
205189
203353
200745
197628
194218
193346
192382
191031
189283
187287
185238
183348
144145
143303
142850
142687
143251
145390
149035
61244.9
60428.1
60578.8
62550.3
67402.2
74783.6
82967.4
60549.4
60418.5
60471.8
61192.1
63230.4
67872.9
76032.1
144279
143991
143656
143329
143582
145344
149112
193407
192983
192005
190396
188352
186230
184265
207673
206451
205240
203357
200841
197808
194427
192986
192185
190996
189178
187187
185257
183279
143334
142595
141988
141629
142019
143782
147157
60056.8
59403.4
59416.9
60861
64490.4
71058.1
79800.1
59776.4
59763.8
59880.2
60293.6
61369.7
63840.6
69387.1
143546
143288
142929
142568
142509
143263
145684
193609
192863
191841
190252
188267
186337
184407
208561
206987
205470
203479
201020
198168
194804
192827
192041
190780
188923
187140
185422
183401
142805
141977
141300
140821
140854
142010
144808
58913.1
58393.1
58316.6
59163.2
61306.7
65501.4
74025.3
59727.1
59735.5
59782
60009.3
60587.4
61857.2
64740.7
143289
142960
142582
142190
141957
142072
143117
193589
192707
191611
190038
188265
186583
184692
209257
207613
205839
203705
201287
198454
194989
192753
191639
190248
188541
187223
185635
183539
142246
141330
140680
140272
140111
140481
142322
58569.1
58098.5
57868.6
58351.2
59641.8
61931.7
67841.6
59811.8
59853.1
59880.1
60034.5
60457.7
61455.4
63087.1
143297
142934
142556
142167
141960
141974
142167
193456
192574
191479
189984
188285
186508
184772
209787
208177
206336
204168
201538
198233
194426
192751
191413
189907
188337
186903
185182
183576
142102
141031
140441
140125
139899
139673
140202
58637.5
58188.6
57950.5
58204.4
59162.5
60792
64689.4
59901.7
59971.6
60004.2
60159.4
60656
61819.7
63246.4
143269
142983
142633
142267
142059
142073
142085
193360
192491
191429
189966
188105
185978
183732
210216
208667
206847
204615
201693
197652
192532
192960
191469
189847
188089
186301
184250
182242
142247
141107
140391
140005
139757
139439
139241
58758.7
58309.4
58160.5
58360.3
59327.2
61061.4
64023.5
60129
60210.8
60247
60490.5
61162.7
62341.7
63790.3
143307
143159
142787
142406
142222
142232
142159
193381
192512
191389
189927
187956
185389
181501
210551
209042
207253
204992
201890
197346
189805
193316
191717
189956
188074
186080
183718
179960
142602
141398
140559
140116
139943
139901
140191
58970.3
58554.9
58625.4
59070.4
60004.1
61418.4
62110.9
87013.7
78110
69963
65355.2
64343.7
65862.7
68322.3
154314
150135
147308
146139
146440
147794
149223
185511
186960
188696
190597
192341
193890
195218
195215
198149
201125
203590
205403
206529
207112
185072
186838
188816
190532
191728
192069
191744
150843
146579
144382
144033
144163
144243
144540
81491.2
72256.4
65794.3
62694.9
62047
62407.1
62609.4
83324.6
73882.1
67093.4
63422.4
62653.2
64177.1
67408.7
152330
148488
146053
145138
145480
146812
148582
185218
186847
188693
190585
192337
193955
195193
195390
198359
201231
203659
205546
206937
208228
184930
186772
188713
190408
191685
192358
192859
148540
145048
143395
143123
143430
143817
144135
77007.5
68616.1
63622.2
61508.4
60923.8
60948.3
61039.6
77492.8
69115.2
64324.7
61700.8
61092.7
62437
65743.3
150099
146785
144880
144121
144492
145919
147930
185144
186873
188799
190666
192366
193977
195125
195535
198561
201355
203829
205874
207555
209118
185035
186728
188612
190246
191419
192330
193268
145567
143216
142396
142522
142944
143414
143850
70600.4
64562.5
61818.6
60773.8
60320.4
60108.5
60128.5
72776.3
67032
63462.5
61232.6
60596.2
61523.3
64643.9
147840
145579
144194
143503
143889
145447
147615
185093
186854
188895
190823
192375
193784
194959
195527
198544
201447
204116
206350
208189
209763
185284
186784
188257
189891
191169
192284
193332
143202
142070
141996
142322
142693
143163
143696
66173.5
62720.2
61333.7
60672.9
60212.5
59972.5
60018.7
71111.1
67011
63982.2
61829.6
61080.7
62018.8
64926.3
146319
145036
143878
143394
143901
145443
147619
185129
186781
188689
190600
192214
193669
195100
194832
198179
201491
204430
206819
208724
210237
184965
186407
187952
189597
191041
192227
193226
141809
141733
142078
142335
142621
143118
143660
64537.7
62470.4
61312.6
60650.3
60175.7
59989.2
60054.2
70994.6
67539.1
64828.5
62869.9
62346.3
63510.3
65784.4
145759
144987
144110
143812
144433
145991
148080
183678
186008
188299
190348
192113
193740
195345
192800
197480
201589
204726
207168
209108
210560
183693
185609
187530
189368
190939
192175
193123
141311
141677
141990
142222
142562
143052
143590
64728.1
62873.5
61459
60588.9
60118.4
60057
60143.9
68651.4
68143.3
65874
64193.8
63864
65072
66905.2
145991
145556
144815
144536
145294
147033
149050
181067
185305
188127
190344
192195
193993
195671
189967
197110
201746
205043
207483
209366
210768
181542
184887
187218
189227
190910
192191
193122
141615
141924
142081
142252
142601
143127
143634
65145.4
63505.5
61976.3
60871.4
60340.7
60331.4
60474
100485
102980
102376
100353
97313.4
94358.1
91863.3
170886
171624
171099
168845
165643
161954
158383
188197
187443
186204
184842
184129
184084
184523
198135
196919
194677
192568
191562
191846
193143
187870
187077
185781
184345
183475
183441
184027
170544
171554
171176
168754
164676
160165
155734
99847.9
102619
102497
100634
97624.5
93782.7
89032.8
97822.4
98718.2
98945.8
97638.4
94520.7
92339.4
90053.9
169030
168330
167291
165299
162503
159361
156201
187122
185998
184814
183746
183224
183482
184161
198150
196402
193882
191800
190919
191424
193022
186661
185466
184238
183086
182507
182741
183590
168558
168073
167202
164550
160759
156897
152953
97275.9
98351
98613.9
97310.1
94696.1
90878
85231.6
96338.8
95634.1
94801
93283.2
90880.6
89159.6
86077.8
168375
165812
163387
160956
158499
156560
153921
185731
184468
183280
182495
182304
182925
183894
197750
195705
192990
190952
190125
190777
192755
185129
183845
182511
181579
181465
182148
183396
168144
165783
162630
159009
155483
152287
149057
96152.8
95473.7
94282.8
92544.5
90038.5
85942.7
79196.8
93527.5
91820.6
90218.3
88577.5
86918.3
85019.2
80519.2
165801
161951
158661
156336
154678
153988
151396
183699
182639
181635
181295
181810
182893
183878
196770
194852
192031
189733
188835
189946
192582
183119
181979
180708
180198
180736
182048
183585
165898
162073
157598
153921
150742
148055
145566
93709.2
91883.3
89675.9
87335.6
84318
80038.4
73293.8
88974.7
87424.4
85743.6
84226.2
82811.3
80791.2
76707.1
160831
157045
154597
152765
151733
150828
148429
180948
180331
179875
180135
181293
182718
183911
195522
193512
190357
187673
186881
188939
191989
180303
179395
178571
178694
179981
181911
183638
160994
157358
153254
149955
147146
144904
143009
89326.6
87687
85633.9
83018.7
79756.7
75250.1
69591.6
83478.4
83118.8
81791.6
80488.6
78658.9
77181.8
75345.8
154880
152635
151223
149875
148506
147355
146389
177796
177243
177377
178305
179830
180876
181905
193045
190857
187368
184856
184570
186115
188800
176902
175913
175602
176447
178415
180451
182131
154419
152351
149580
147305
144799
143004
141507
83745.1
83439.3
82043.5
79852.5
76587.4
72760.5
68369.7
77351.9
78449.5
77440.1
76414.8
73999.5
73187.8
73824.2
148328
148422
146641
145890
144331
144391
145510
174051
173596
174282
175742
176150
174976
175374
189843
187213
183333
180548
179168
178668
180801
172953
171980
172211
173632
175291
175598
176418
147413
147014
144867
143683
142523
142350
141194
77196.7
78353.4
77357.8
75828.5
73326
70814.7
67218.2
57371.5
57199.3
57233.2
56918.9
57221.8
57386.3
57115.5
128125
127700
127102
126725
125642
125297
125933
159610
159191
158327
156686
153333
148988
145147
170149
168191
165135
161459
156976
151544
145345
157842
157452
156842
155579
152989
149176
145111
126809
126102
125384
125004
125116
125288
125526
56277.4
56096.1
56184.1
55904.3
56155.2
56282.3
57001.8
48730.5
48613.7
48669.8
48828.3
49075.6
49128.3
49106.2
111866
111983
112485
112407
112086
111639
111554
140912
140763
140687
140518
140016
139662
139389
149659
149150
148437
147764
147234
146814
146091
138988
138823
138705
138631
138351
138007
137781
108446
108418
108759
108925
108606
108480
108395
46824.9
46627
46600.2
46740.5
47107
47350.1
47568.1
43829.8
43957.2
44061.7
44054.9
43965.9
43871.3
43796.4
101164
101441
101551
101486
101543
101335
101059
129380
129515
129971
130574
130970
131270
131390
137455
137433
137640
138121
138824
139542
139688
126474
126498
126757
127371
128045
128529
128737
96581.3
96876.7
97380.1
97649.1
97360.6
97110.3
97009.6
41675.1
41783
41890.5
41874
41773.9
41667.1
41580.5
40572.2
40557
40545.8
40563.4
40569
40518.3
40484.5
92600
92718.6
92879.1
92920.1
92896.3
92807.7
92706.3
121498
121500
121639
121867
122014
122102
122068
129921
129914
130010
130206
130430
130644
130658
118925
118906
118980
119227
119472
119633
119692
89291.4
89383.9
89533.8
89642.3
89639.2
89623.2
89662.3
38863.2
38942.4
38981.5
38956.4
38877.3
38859.3
38914.4
39454.1
39457
39457.5
39455.7
39449.1
39453.2
39454.1
88527.9
88493.5
88434.8
88375.2
88345
88354.3
88378.4
115836
115754
115641
115568
115505
115437
115353
124537
124366
124153
123970
123812
123679
123465
114857
114773
114659
114570
114497
114463
114440
87155.9
87158.6
87156.4
87135.8
87111.9
87116.9
87139.4
38274.5
38242.7
38248.8
38279.1
38330.9
38348.2
38316.1
40151.4
40152.8
40156.5
40163.2
40166.6
40168.7
40165.7
87774.3
87770.5
87775.3
87790.7
87826
87875.3
87897.2
111869
111808
111769
111766
111753
111772
111781
119869
119613
119344
119127
118989
118946
118651
112270
112220
112156
112115
112110
112123
112095
87950
87989.1
88003.2
88032.1
88036.3
88034.9
88049.7
39690.1
39604.7
39597.1
39678
39783.2
39789.3
39713
49024.3
49023.1
49012.9
49001.6
48995.7
48987.3
48991.3
87008.1
87034.7
87077.9
87119
87151.4
87170
87178.3
106832
106820
106891
106982
107022
107057
107075
113678
113492
113394
113308
113242
113365
113065
107412
107401
107455
107562
107660
107735
107705
87519.1
87523
87567.8
87648.6
87705
87727.5
87718.2
49330.5
49352.1
49354.6
49333.6
49303.2
49296.7
49315.7
89018.5
94250.1
98145.7
101180
103479
105643
107943
156562
160839
164770
168605
172382
176176
178708
183194
182720
182787
183607
185216
187018
187928
191473
189935
189643
190580
192685
195227
196856
182025
181154
180785
181328
182833
184497
185738
152748
156340
160405
164856
168624
170494
170706
87732.2
90656.3
94058.9
97820.7
100974
101907
98949.5
84794.3
91012.2
95055
98121.7
100752
102104
103130
153961
158087
161716
165277
168728
171736
173731
182960
182243
182080
182675
184013
185457
186390
191572
189635
188931
189771
191907
194590
196548
181628
180463
179846
180197
181626
183500
184915
150635
153716
157096
160714
164154
167204
169189
86223.3
88542.6
91111.1
94370.4
96682.4
97335
96752.9
77931.7
85167.3
89878.9
92956.7
95483.1
96195
96039.8
149681
153514
156850
159803
162766
165160
166219
182716
181576
180986
181141
182066
183063
183811
191591
189154
188112
188812
190988
193706
195759
181519
180067
179103
179083
180194
181943
183463
148131
150647
152926
155724
159090
163232
166805
82415.2
85221.3
87122.6
89749.1
91909.5
93766.2
95288
71161.8
78462.3
84028.8
87195.9
88960.1
89479.2
89221.3
145664
148933
151946
154271
156189
157795
158543
182791
181252
179862
179214
179473
180082
180617
191526
188387
186830
187398
189643
192615
194785
181703
180134
178661
177989
178469
179664
180903
145574
147974
149217
151057
153671
157673
161965
76449.2
81043.3
82799.1
84696
86894.4
89486.5
91955.6
67370.4
73480.7
78859.9
81943.8
83490
84168.4
84112.8
142963
145677
148439
150144
151183
152049
152529
182911
180866
178689
177049
176529
176910
177436
191035
187887
185540
185282
187296
190877
193650
181974
180156
178158
176526
176140
176809
177918
142600
145040
146215
147421
149359
152462
156006
71628.7
76244.1
78384.5
80204.5
82410
84863.7
86709.4
66488.8
71484.7
74728.5
77062.6
78817.5
80225.9
81424.6
142010
144186
146453
147365
147711
147974
148513
181605
179517
177071
174706
173512
173648
174000
187814
184601
182665
182507
184624
188570
191413
180501
178938
177010
174671
173411
173502
174482
140650
142318
143513
144797
146157
148060
149439
69356.1
72053.3
74106.4
76438.2
78452.4
80211.5
80773.4
66587.1
70664.4
70737.1
72284.5
74268.2
76034.7
78403.7
141370
143355
143598
143698
143832
143547
144457
175618
174640
174135
172180
170495
170246
170388
179714
177037
177240
178649
181445
185564
188460
174447
173481
173798
172467
170531
169946
170687
140570
139922
140140
141792
142397
143473
142880
67968.6
68320.8
69689.6
72452.4
74093.6
75274.2
74518
56123.7
55895.6
56126.6
56228.7
56337.2
57367.6
57738.7
124262
124687
124954
125226
125603
125994
126263
143363
147713
151442
153983
155511
156530
157270
143627
149900
155425
160012
163794
167022
169180
144000
147202
151170
154173
155651
156258
156648
122981
122416
122324
122762
123331
124090
124646
54369.6
55135.4
55399.7
55273.1
55489.7
55268.9
55324.2
46750.9
46323.6
46029.6
45862.3
45642.3
45482.7
45218.8
106154
105912
105857
105862
105828
105784
105725
135578
135785
135835
135919
136106
136363
136593
143869
144606
145028
145588
146309
147048
147593
137301
137384
137957
138493
138815
139065
139297
110096
110051
110324
110269
109947
110060
110482
48667.2
48534
48435.4
48099
47885.8
47865.9
48006.4
40269.3
40219.8
40183
40194.3
40260.3
40276.6
40308
94391.8
94232.4
93982
93747.7
93545.1
93365.5
93247.2
125924
125752
125283
124707
124185
123876
123797
137424
137344
136689
136047
135607
135389
135359
129881
129751
129682
129210
128517
128124
128026
101123
101454
101961
101877
101438
100987
100694
44299.6
44313.7
44341.5
44340.5
44202.5
44000.6
43863.4
38312.3
38395.3
38473.8
38505.9
38505.9
38506
38508.4
88686.2
88608.5
88529.2
88420.1
88301.8
88212.9
88170.3
118310
118319
118147
117916
117701
117561
117476
129138
129099
128805
128512
128299
128189
128175
120810
120714
120545
120210
119873
119711
119707
92158.3
92288.2
92381
92281.3
92046.3
91804
91621.8
40531
40571.6
40613.9
40601.3
40538.9
40490
40449.7
38043.7
37996.4
37969.1
37943.5
37923.1
37912.2
37908.1
86946.2
86969.3
86985.9
86991.8
86990
86988
86992.5
114074
114257
114297
114344
114374
114420
114466
122743
122871
122905
122979
123119
123311
123479
114346
114275
114324
114294
114290
114439
114578
87773.3
87737
87691.5
87662.4
87665.1
87680.8
87698.3
39308.9
39301.2
39294
39283.2
39279.5
39270.5
39262.1
39553.8
39430.7
39331.2
39265.4
39224.5
39201.9
39192.5
87820.7
87832.8
87841.6
87836.8
87826
87820.2
87815.2
111734
111908
111906
111984
112024
112079
112136
118076
118338
118395
118545
118763
119022
119273
110896
110858
111041
111102
111151
111234
111268
87359
87402.1
87442.9
87458.1
87456.7
87434.4
87422.6
40065.1
40067.3
40066.7
40063.9
40058.5
40053.1
40050.9
49369.3
49395.4
49411.1
49416.6
49421.1
49423.8
49424.1
87387.4
87332.4
87279.1
87229.9
87189.8
87164.8
87153.5
107168
107219
107120
107121
107087
107080
107094
112506
112819
112762
112879
112984
113085
113280
106664
106593
106666
106593
106520
106497
106465
86880.8
86886.5
86880.4
86851.4
86808.7
86766.9
86741.4
49052.7
49042.5
49024
49019.6
49019.2
49022
49026.3
)
;

boundaryField
{
    fuel
    {
        type            zeroGradient;
    }
    primary_air
    {
        type            zeroGradient;
    }
    Secondary_air_RHS
    {
        type            zeroGradient;
    }
    Secondary_air_LHS
    {
        type            zeroGradient;
    }
    outlet
    {
        type            totalPressure;
        rho             rho;
        psi             none;
        gamma           1;
        p0              uniform 100000;
        value           nonuniform List<scalar> 
98
(
44837.2
76112.1
100000
100000
100000
75495.1
44913.2
44957.2
76076.7
100000
100000
100000
75565.1
44885.6
44923.2
76012.9
100000
100000
100000
75570
44888.4
44913
75956.4
100000
100000
100000
75440.6
44874.7
44892.8
75875.3
100000
100000
100000
75286.7
44874.9
44880.1
75839.8
100000
100000
100000
75196
44873.1
44897.1
75813.4
100000
100000
100000
75151.9
44898
44949.6
75529.3
100000
100000
100000
75878.9
44883.5
44922.4
75662.5
100000
100000
100000
76050.8
45050.3
44935
75897.8
100000
100000
100000
76149.1
45033.4
44938.5
75905.1
100000
100000
100000
76172.5
45044.4
44901.2
75972.1
100000
100000
100000
76212
44878.4
44931.5
75859.7
100000
100000
100000
76240.1
44884.5
44938.8
75855.3
100000
100000
100000
76427.5
45098.3
)
;
    }
    stove_body
    {
        type            zeroGradient;
    }
    frontAndBack
    {
        type            empty;
    }
}


// ************************************************************************* //
