/*--------------------------------*- C++ -*----------------------------------*\
  =========                 |
  \\      /  F ield         | OpenFOAM: The Open Source CFD Toolbox
   \\    /   O peration     | Website:  https://openfoam.org
    \\  /    A nd           | Version:  6
     \\/     M anipulation  |
\*---------------------------------------------------------------------------*/
FoamFile
{
    version     2.0;
    format      ascii;
    class       surfaceScalarField;
    location    "0.01";
    object      phi;
}
// * * * * * * * * * * * * * * * * * * * * * * * * * * * * * * * * * * * * * //

dimensions      [1 0 -1 0 0 0 0];

internalField   nonuniform List<scalar> 
10143
(
-5.50461e-08
-4.62854e-05
4.73456e-05
-2.00389e-07
-4.57007e-05
4.75279e-05
9.30118e-08
-4.58553e-05
4.72814e-05
2.36585e-07
-4.55832e-05
4.71432e-05
3.71665e-08
-4.52259e-05
4.71752e-05
-6.38972e-08
-4.53854e-05
4.71639e-05
-4.59283e-05
4.67486e-05
-2.98476e-07
-2.20926e-05
-1.48154e-05
4.03902e-07
-2.18328e-05
-1.5875e-05
-2.35322e-07
-2.18225e-05
-1.4601e-05
-2.44538e-07
-2.17417e-05
-1.50407e-05
1.44049e-07
-2.1638e-05
-1.5076e-05
-3.71407e-07
-2.17556e-05
-1.41523e-05
-2.21709e-05
-1.50104e-05
3.34799e-07
-8.17562e-06
2.33632e-06
5.80069e-07
-8.24431e-06
2.98993e-06
-1.87552e-07
-8.68015e-06
4.72686e-06
-4.60598e-07
-8.5889e-06
4.17037e-06
4.74174e-08
-8.44424e-06
3.2378e-06
-3.32339e-07
-8.57891e-06
3.97558e-06
-7.98394e-06
2.05423e-06
-4.89393e-08
8.17605e-06
2.75533e-06
1.16721e-07
8.15741e-06
2.44819e-06
-1.99375e-07
8.50974e-06
2.10927e-06
-6.85801e-07
8.57527e-06
2.3186e-06
-8.06427e-07
8.4015e-06
2.27023e-06
-5.36808e-07
8.4802e-06
1.64859e-06
8.02788e-06
2.49881e-06
-1.00265e-07
2.24624e-05
2.37401e-06
-1.31378e-07
2.25216e-05
2.19968e-06
-1.59018e-07
2.21121e-05
3.34352e-06
-2.54003e-07
2.17885e-05
3.86489e-06
9.75207e-08
2.21134e-05
2.84778e-06
-1.71622e-07
2.21152e-05
3.50359e-06
2.24725e-05
1.91379e-06
2.58032e-07
4.6449e-05
-1.51436e-05
6.86032e-07
4.6261e-05
-1.51668e-05
-1.09616e-07
4.60354e-05
-1.41629e-05
-1.61094e-07
4.56171e-05
-1.49322e-05
5.59326e-07
4.56144e-05
-1.53208e-05
-2.47425e-07
4.58744e-05
-1.38464e-05
4.63277e-05
-1.49495e-05
1.36781e-07
4.71038e-05
4.81985e-08
4.73105e-05
1.13155e-07
4.73974e-05
1.33852e-07
4.728e-05
2.00033e-08
4.73027e-05
8.20801e-09
4.74296e-05
4.709e-05
-4.06651e-08
-1.55982e-05
6.89281e-05
7.09925e-10
-1.65152e-05
7.05262e-05
1.80417e-07
-1.62966e-05
7.0195e-05
3.04337e-07
-1.62278e-05
6.98066e-05
-4.00027e-08
-1.53033e-05
6.89818e-05
-2.05851e-07
-1.55351e-05
6.88999e-05
-1.60196e-05
6.82599e-05
-9.00922e-07
-5.1945e-06
-2.69264e-05
-1.43285e-07
-7.20272e-06
-2.85906e-05
-1.41905e-07
-6.75329e-06
-2.68638e-05
4.54716e-07
-6.81468e-06
-2.78911e-05
7.83136e-07
-5.77223e-06
-2.78714e-05
3.10673e-07
-5.49934e-06
-2.65704e-05
-5.47553e-06
-2.79504e-05
6.57709e-07
-1.82391e-06
6.05585e-07
3.91025e-07
-1.59207e-06
1.31808e-07
-1.78971e-07
-2.62508e-06
3.61391e-06
-3.8679e-08
-2.76667e-06
2.37917e-06
4.49581e-07
-2.47249e-06
1.76955e-06
-7.37313e-08
-1.96549e-06
3.56457e-06
-1.56946e-06
3.60155e-07
4.2795e-08
1.65728e-06
3.37715e-06
5.14234e-07
1.55972e-06
2.87339e-06
-1.88562e-07
2.15476e-06
2.05681e-06
-1.07868e-06
2.33158e-06
2.15267e-06
-1.31118e-06
2.41326e-06
1.65609e-06
-7.89989e-07
2.11138e-06
1.05302e-06
1.5373e-06
2.71931e-06
-1.5185e-07
5.73614e-06
7.24261e-07
-5.14205e-07
6.06512e-06
2.41635e-07
-9.979e-08
5.71978e-06
1.65564e-06
1.26158e-07
6.05276e-06
2.27446e-06
4.96891e-07
6.55184e-06
6.26888e-07
1.69868e-07
6.3052e-06
1.91591e-06
5.80865e-06
4.59728e-08
-2.03672e-07
1.68235e-05
-2.86222e-05
2.39246e-07
1.58023e-05
-2.79091e-05
-2.68915e-07
1.65668e-05
-2.73313e-05
2.95806e-07
1.62304e-05
-2.87211e-05
1.1321e-06
1.6302e-05
-2.86789e-05
3.56989e-07
1.65358e-05
-2.6028e-05
1.68016e-05
-2.81516e-05
3.30384e-07
6.89643e-05
2.12206e-07
6.94671e-05
3.12752e-07
6.99006e-05
-1.2824e-09
6.94526e-05
-1.25482e-07
6.9798e-05
-1.28155e-07
7.00455e-05
6.92163e-05
-2.8114e-07
6.56396e-06
6.78818e-05
1.06502e-07
5.46681e-06
6.93739e-05
4.94871e-07
5.7547e-06
6.88325e-05
8.63073e-07
5.9916e-06
6.82228e-05
4.70829e-07
6.24477e-06
6.7752e-05
-1.32296e-08
6.02001e-06
6.80254e-05
6.34012e-06
6.71924e-05
-8.6323e-07
-2.97406e-06
-1.96558e-05
-3.98631e-08
-5.63887e-06
-2.12889e-05
1.82109e-07
-5.03074e-06
-1.93783e-05
6.83967e-07
-5.25524e-06
-2.01012e-05
5.05609e-07
-4.39721e-06
-2.04272e-05
3.5252e-07
-4.32971e-06
-1.95568e-05
-3.52836e-06
-2.08816e-05
7.49928e-07
-9.99344e-07
-1.30705e-07
4.04591e-07
-7.35641e-07
-2.30369e-06
-1.15166e-07
-1.08606e-06
2.31243e-06
6.79003e-09
-1.806e-06
9.24023e-07
2.99571e-07
-1.07345e-06
2.15827e-07
-4.07624e-08
4.28154e-07
1.25429e-06
-1.13524e-07
-1.05442e-06
-7.25069e-08
4.83544e-07
5.88923e-06
4.53903e-07
-1.15358e-07
5.59228e-06
-2.68387e-07
1.31252e-06
4.2248e-06
-1.18304e-06
1.42755e-06
3.67164e-06
-1.30813e-06
1.19146e-06
3.35265e-06
-6.29668e-07
4.05068e-07
4.23993e-06
1.1829e-07
5.76453e-06
-1.41148e-07
3.82692e-06
-4.40791e-07
-6.67966e-07
4.68851e-06
-2.11421e-06
1.59347e-07
3.24208e-06
9.61448e-07
1.79832e-08
5.67657e-06
3.09794e-07
2.7025e-07
3.49333e-06
9.51877e-08
3.58124e-07
3.17099e-06
1.05809e-06
3.61696e-06
-1.08963e-06
-3.26062e-07
-5.58411e-06
-2.19485e-05
3.41961e-07
-5.34729e-06
-2.15862e-05
-4.25998e-07
-5.97227e-06
-2.09531e-05
6.25787e-07
-5.7148e-06
-2.15166e-05
5.82418e-07
-6.35671e-06
-2.22545e-05
8.61018e-08
-5.98984e-06
-1.98503e-05
-5.76206e-06
-2.17597e-05
3.27286e-07
6.85369e-05
-2.8706e-08
6.96178e-05
-1.60567e-08
6.90199e-05
-1.4589e-07
6.90396e-05
-1.63006e-07
6.83927e-05
-2.1741e-07
6.89957e-05
6.88231e-05
-4.48994e-07
1.25124e-05
5.53314e-05
2.36274e-07
1.03471e-05
5.66744e-05
5.84737e-07
1.04238e-05
5.6273e-05
9.36238e-07
1.0749e-05
5.53997e-05
7.7321e-07
1.15759e-05
5.49833e-05
4.53322e-07
1.14751e-05
5.58007e-05
1.22926e-05
5.4975e-05
-8.90926e-09
-3.14381e-07
-1.16132e-05
-7.26954e-08
-2.2778e-06
-1.33258e-05
2.02381e-07
-2.40986e-06
-1.16354e-05
1.95586e-07
-1.9079e-06
-1.22633e-05
2.00967e-09
-1.52931e-06
-1.19079e-05
6.62724e-08
-1.97937e-06
-1.08584e-05
-8.72053e-07
-1.23228e-05
7.7424e-07
-1.18719e-06
1.83925e-06
4.52549e-07
-1.64493e-06
-7.68757e-07
-6.48149e-08
-4.31525e-07
2.71036e-06
2.33098e-08
-9.06812e-07
1.65726e-06
1.08904e-07
-1.25223e-06
1.64869e-06
-8.11426e-08
-2.26161e-07
1.46117e-06
-6.99304e-07
5.78657e-07
-4.35853e-08
9.75474e-07
7.67128e-06
3.72476e-07
9.1056e-07
6.44868e-06
-3.76788e-07
3.18008e-06
5.19332e-06
-1.22909e-06
2.9561e-06
4.49622e-06
-1.11715e-06
7.22017e-07
5.11155e-06
-5.19594e-07
6.28638e-08
7.17962e-06
6.27846e-07
7.81307e-06
-9.04772e-08
1.28931e-06
1.21483e-06
-6.59702e-07
1.50308e-06
-3.35588e-07
2.301e-07
1.32316e-06
3.79183e-06
1.75439e-07
3.1322e-06
2.03226e-06
8.49356e-08
9.17668e-07
1.77699e-06
3.49971e-07
1.10167e-07
2.4891e-06
1.06254e-06
6.77919e-07
2.13464e-08
-1.17861e-05
-1.33947e-05
3.37754e-07
-1.10726e-05
-1.40142e-05
-3.83882e-07
-1.15945e-05
-1.22045e-05
9.39941e-07
-1.18061e-05
-1.23497e-05
1.26397e-07
-1.15863e-05
-1.40116e-05
-3.03563e-07
-1.15697e-05
-1.2848e-05
-1.19029e-05
-1.3643e-05
7.64856e-09
5.66788e-05
-1.39378e-07
5.78855e-05
-3.15643e-07
5.65848e-05
-2.84586e-07
5.64749e-05
-1.11779e-07
5.53247e-05
-6.14777e-08
5.6345e-05
5.68167e-05
-5.04497e-07
1.42548e-05
3.76288e-05
4.07698e-07
1.18151e-05
3.95103e-05
4.15045e-07
1.20091e-05
3.97906e-05
9.33212e-07
1.23151e-05
3.80317e-05
9.63522e-07
1.35981e-05
3.68618e-05
6.56331e-07
1.36264e-05
3.81343e-05
1.42463e-05
3.74969e-05
6.39466e-07
8.20588e-09
-3.51743e-06
-2.3194e-07
-8.39718e-07
-5.19251e-06
3.45091e-07
-1.286e-06
-4.23298e-06
5.51859e-09
-7.99585e-07
-4.26077e-06
-3.3293e-07
5.43695e-08
-3.77589e-06
-2.64207e-07
2.43264e-09
-3.09669e-06
-1.1554e-08
-3.86795e-06
8.32771e-07
-1.78536e-06
4.59735e-06
3.36849e-07
-1.32305e-06
1.97698e-06
7.38626e-08
-1.02674e-06
4.44829e-06
1.05606e-07
-9.66648e-07
3.51921e-06
-1.16417e-07
-5.3125e-07
4.13968e-06
-4.22924e-09
-1.42051e-06
4.51934e-06
-1.21528e-06
3.56353e-06
-2.04923e-07
1.26619e-06
8.69215e-06
2.42637e-07
1.02109e-06
7.47338e-06
-4.7785e-07
1.97222e-06
6.72256e-06
-1.09163e-06
1.7155e-06
6.256e-06
-7.11356e-07
8.69981e-07
7.16326e-06
-5.17912e-07
1.12927e-06
8.25566e-06
1.32486e-06
8.61594e-06
-3.50418e-09
3.0367e-07
3.98824e-06
-5.42322e-07
2.0959e-07
2.74398e-06
1.92998e-07
4.66748e-07
6.35389e-06
2.72317e-07
4.69895e-07
4.95058e-06
-1.05605e-07
1.18359e-06
3.54936e-06
2.21984e-07
3.76509e-07
4.63443e-06
4.25903e-07
3.59875e-06
2.89363e-07
-1.39329e-05
-4.88238e-06
1.2982e-07
-1.3024e-05
-6.24955e-06
3.72766e-08
-1.32077e-05
-4.06965e-06
7.53689e-07
-1.34701e-05
-4.81852e-06
-2.42327e-07
-1.26772e-05
-4.52007e-06
-3.94969e-07
-1.30516e-05
-4.92095e-06
-1.39649e-05
-5.06804e-06
4.92097e-10
3.89449e-05
-3.45947e-07
4.09719e-05
-2.83281e-07
3.8983e-05
-5.69743e-07
3.8904e-05
1.11942e-07
3.74596e-05
2.74155e-08
3.91098e-05
3.91045e-05
-4.44273e-07
1.1664e-05
2.16819e-05
7.0151e-07
1.0232e-05
2.31443e-05
1.17728e-07
1.21997e-05
2.33125e-05
6.51949e-07
1.00281e-05
2.23878e-05
8.42924e-07
1.00749e-05
2.14833e-05
8.15816e-07
1.09591e-05
2.20847e-05
1.21274e-05
2.15033e-05
6.86019e-07
-1.16456e-06
3.43079e-06
-5.92448e-07
-8.20969e-07
1.80721e-06
6.51881e-07
-1.54327e-06
2.70021e-06
-2.53429e-08
-9.50002e-07
2.13261e-06
-7.43488e-07
-6.72059e-07
2.37176e-06
-3.63227e-07
-1.14939e-06
3.18718e-06
-5.68761e-07
3.09786e-06
9.48283e-07
-3.95695e-06
8.28511e-06
1.02598e-07
-2.46347e-06
6.25705e-06
1.55222e-07
-3.24386e-06
7.84584e-06
1.80097e-07
-2.87903e-06
7.19884e-06
-1.9623e-07
-1.59336e-06
7.14845e-06
-4.13208e-08
-2.91793e-06
7.90201e-06
-2.62241e-06
7.37754e-06
-4.7474e-07
3.12857e-06
5.92597e-06
1.62062e-07
1.73483e-06
6.44123e-06
-5.27798e-07
2.18877e-06
5.80098e-06
-9.99121e-07
1.86986e-06
5.7972e-06
-6.02544e-07
2.40543e-06
6.59353e-06
-6.35148e-07
3.38766e-06
5.76393e-06
2.91542e-06
6.28958e-06
2.64419e-07
1.05372e-06
7.61607e-06
-4.95563e-07
1.14062e-06
5.84795e-06
1.73166e-07
1.15104e-06
8.45847e-06
6.00577e-08
1.216e-06
7.42632e-06
-1.5613e-07
9.85001e-07
6.95636e-06
9.80793e-08
1.53008e-06
7.96189e-06
1.07357e-06
7.33769e-06
1.82256e-07
-1.17034e-05
2.47307e-06
9.37209e-08
-1.17024e-05
1.02296e-06
3.973e-07
-1.11042e-05
2.43383e-06
9.02138e-07
-1.16484e-05
1.92573e-06
-5.7073e-07
-8.23561e-06
1.20814e-06
-1.82223e-07
-1.17402e-05
2.50604e-06
-1.20164e-05
2.58516e-06
1.32037e-07
2.24312e-05
-4.51471e-07
2.48673e-05
-2.42558e-07
2.25923e-05
-7.86084e-07
2.27167e-05
2.72043e-07
2.30436e-05
3.8334e-08
2.25516e-05
2.24755e-05
-5.82299e-07
1.35528e-05
9.05789e-07
1.31824e-05
2.2016e-09
1.55317e-05
7.1314e-07
1.31179e-05
8.96207e-07
1.26811e-05
1.05071e-06
1.32635e-05
1.38684e-05
6.49982e-07
1.74315e-06
-6.36456e-07
1.70543e-06
1.20844e-06
1.46558e-06
2.53119e-07
1.76683e-06
-8.56875e-07
1.78314e-06
-1.33666e-07
1.2035e-06
2.17154e-06
1.23139e-06
1.63907e-07
-5.24069e-08
5.51251e-07
3.74465e-07
2.18323e-07
3.61169e-07
2.60188e-07
4.59173e-08
5.01704e-07
-8.70724e-08
6.17475e-07
7.31205e-07
-4.69941e-07
-2.52168e-07
9.56709e-08
-3.94388e-07
-6.16675e-07
-4.29617e-08
-1.03226e-06
-3.05625e-07
-7.75924e-07
2.98953e-08
-7.91441e-07
-4.25918e-07
-6.20732e-07
4.58332e-07
-1.74184e-06
-6.84253e-07
-2.0693e-06
2.77384e-07
-1.17174e-06
2.10361e-07
-1.5031e-06
1.33898e-07
-1.54886e-06
1.05883e-07
-1.0187e-06
-1.87208e-06
-3.29704e-07
-1.35459e-05
3.5206e-07
-1.71246e-05
5.90394e-07
-1.35763e-05
7.34855e-07
-1.45127e-05
-7.90269e-07
-1.354e-05
6.2102e-08
-1.40226e-05
-1.38805e-05
1.81492e-07
-7.34314e-07
-3.7903e-07
-8.82791e-07
2.47633e-07
1.04292e-07
-0.00423919
0.00248409
0.00176773
-0.00573156
0.00250884
-0.000983774
-0.00578653
0.00248081
-0.00231803
-0.00429285
0.0030882
-0.00450037
-0.00214978
0.00360332
-0.00566191
-0.000104307
0.00400543
-0.00591801
0.00426055
-0.00416604
-0.00492581
0.00472547
0.00276835
-0.0056151
0.00485717
-0.001612
-0.00540942
0.00506881
-0.00278386
-0.00425918
0.00505021
-0.00311959
-0.00171221
0.00517327
-0.00409017
0.00108924
0.00493352
-0.00362849
0.0051184
0.000373736
-0.00275203
0.00280711
0.00501878
-0.00257136
0.00240162
0.00249267
-0.00142258
0.00219546
0.00190221
0.000123744
0.00183059
0.00181521
0.00176024
0.00203169
0.00162548
0.00224446
0.00247129
0.00209909
0.00311069
0.00442458
0.000532375
-0.00314279
0.00562545
0.000756341
-0.00226817
0.00461344
0.000549784
-0.00174455
0.00424261
-0.000356949
-0.00138756
0.00415939
-0.000660836
-0.00183569
0.00422941
-0.000415931
-0.00232114
0.00463101
-0.00289266
0.00569637
-0.00273923
-0.00480186
0.00463588
-0.0026569
-0.00459935
0.00242168
-0.000482142
-0.0053373
0.00156684
0.0015507
-0.00506509
0.00176903
0.00300352
-0.00497682
0.00179489
0.00314353
-0.00475229
0.0024004
-0.00456795
0.00505883
-0.00435551
-0.00252383
0.00210851
-0.00292616
-0.00265764
-0.00338228
8.99441e-05
-0.00318681
-0.00521183
0.00284334
-0.00327758
-0.00458003
0.00489477
-0.00271998
-0.00435224
0.00490474
-0.00266954
-0.00216139
-0.00243521
0.00277559
-0.00287238
0.000354904
-0.000908914
-0.00456858
0.001527
-0.0055758
0.00341761
-0.00514473
0.00435367
-0.00365903
0.00374624
-0.00208817
0.00128613
-0.00343189
0.0020482
0.00318052
-0.00501453
0.0017262
-0.00109577
-0.00536831
0.00127859
-0.00318256
-0.00464038
0.00133158
-0.00652658
-0.00340864
0.00198244
-0.00885439
-0.00228242
0.00294906
-0.00996539
0.00253587
-0.00891777
-0.00370272
0.00348983
0.00512048
-0.00383257
0.00306793
-0.00274935
-0.00516983
0.00320724
-0.003466
-0.00701431
0.00318865
-0.00326762
-0.00649716
0.003213
-0.00586597
-0.00309737
0.00376745
-0.00764594
0.00424147
-0.00421514
-0.00136569
0.00192748
0.00829681
-0.00130596
0.00108352
0.00462171
-0.000765472
0.000877197
0.00382601
-0.000239068
0.00060343
0.00392409
6.15655e-06
0.000817874
0.00379733
0.000435061
0.00125825
0.00428269
0.0020344
0.00726325
0.00143742
-0.00209928
0.00830098
0.00136501
-0.00105376
0.00683847
0.000671063
-0.000372578
0.00615095
-0.000592335
-2.12099e-06
0.00600488
-0.00130535
-0.000430549
0.00614018
-0.00137477
-0.00106872
0.00702551
-0.00221755
0.00859062
-0.0015997
-0.00318355
0.00750605
-0.00159156
-0.00281465
0.00426929
-0.000331483
-0.00353579
0.00351943
0.00122326
-0.00331243
0.00354953
0.00205282
-0.00294349
0.00356034
0.00198104
-0.00312161
0.00461506
-0.00317298
0.00823927
-0.000664162
-0.00310925
0.00268919
0.00192194
-0.00292537
-0.0059072
0.00268556
-0.00217834
-0.00754021
0.00222293
-0.00170165
-0.00587032
0.00231532
-0.00162028
-0.00583875
0.00322406
-0.00206703
-0.00410987
-0.00218297
0.00498751
0.00077493
-0.00345275
0.00245965
-0.00909067
0.00361811
-0.00887433
0.00446314
-0.00764259
0.00412637
-0.00491052
0.00286291
-0.00291449
0.00193489
-0.0014671
0.00136264
0.00330392
-0.00179224
0.000580666
-0.00136118
-0.00140802
-1.9383e-05
-0.00356946
-0.000673307
0.000339968
-0.00757216
-0.000376738
0.000806266
-0.00996933
-0.000614194
0.00155421
-0.011314
0.00111409
-0.0106647
-0.00296992
0.00371987
0.00597122
-0.00447097
0.00276
-0.00343288
-0.00725987
0.00224253
-0.00312136
-0.00850622
0.00202106
-0.00375617
-0.00759716
0.00261062
-0.00829824
-0.00546519
0.00356574
-0.0112323
0.00462192
-0.0124672
-0.000194777
0.00197522
0.0106866
0.000576941
0.00109291
0.00573798
0.000445976
0.000649009
0.00561698
-0.000299357
0.000541781
0.00613291
-0.0012439
0.000891744
0.00644854
-0.00132577
0.0008211
0.00726787
0.0010586
0.00995139
0.00132281
-0.00148116
0.0103941
0.00143656
-0.00100011
0.00876886
0.0006452
-0.00043169
0.00799307
-0.000546067
-6.41982e-05
0.00782292
-0.00110445
-0.000704483
0.00822634
-0.00103215
-0.00153413
0.00925261
-0.00239963
0.0109347
-0.000251631
-0.00345447
0.009969
-0.000186245
-0.0025886
0.0058559
-0.000448971
-0.00193748
0.00525903
-0.000289246
-0.0022804
0.00560581
0.00013933
-0.00251394
0.00499893
0.000782953
-0.00300246
0.0056232
-0.00326914
0.0102304
0.00299044
-0.00234014
-0.00126837
0.0054049
-0.00260581
-0.00819383
0.00581557
-0.00137139
-0.00863636
0.00443764
-0.000855226
-0.0061096
0.00238356
-0.000876014
-0.00554824
0.0020492
-0.00100585
-0.00565111
-0.00171897
0.00560547
0.00247924
-0.0081274
0.00169751
-0.0108861
0.00197107
-0.0104938
0.00265598
-0.00914348
0.00245258
-0.00554493
0.00173022
-0.00322008
0.00193303
-6.58415e-05
0.000504614
0.00291557
-0.000315962
6.19023e-06
-0.001165
0.000412599
-0.000203842
-0.00409042
0.00157628
0.000730459
-0.00939379
0.00143601
0.000963586
-0.0107769
0.00081351
0.00101652
-0.0117734
0.00121492
-0.0110677
-0.00195729
0.00328107
0.00545799
-0.00456911
0.00201848
-0.00296593
-0.00596938
0.00155375
-0.00354099
-0.0052286
0.00166643
-0.00530226
-0.00473947
0.00166179
-0.00933112
-0.00354305
0.00119959
-0.0125674
0.00251818
-0.0172073
0.00119887
0.00215182
0.0108338
0.0018013
0.00109662
0.00613227
0.00160626
0.000647054
0.00667844
0.000391858
0.000820688
0.00815069
-0.00102158
0.000842673
0.00870569
-0.00211763
-3.25634e-05
0.00974567
-0.000318423
0.0109569
0.000971293
-0.00040851
0.0117734
0.000982278
-0.000820856
0.0105894
0.000506374
-0.000824194
0.00991147
-0.000144263
-0.000499254
0.0098055
-0.000355641
-0.000893437
0.0100802
-0.000490266
-0.00162121
0.0108429
-0.00232536
0.0121583
0.00191128
-0.00343267
0.0113683
0.00123708
-0.00266508
0.00844585
-0.000565279
-0.0011104
0.00731652
-0.00148827
-0.0011827
0.00717961
-0.00164294
-0.00169852
0.00592435
-0.00125628
-0.00228484
0.0059405
-0.00332237
0.0101192
0.00551511
-0.000832054
-0.00872404
0.00702508
-0.00147632
-0.0104121
0.00748286
-0.000624994
-0.00940408
0.00689424
4.5448e-05
-0.00680186
0.00395295
0.000114664
-0.00457138
0.000909556
0.000224243
-0.00521215
-0.000812566
0.00419446
0.000845675
-0.0098095
-0.000519127
-0.0110172
-0.000836468
-0.0107988
-0.000134707
-0.00979998
0.000560037
-0.00610114
0.00049215
-0.00297024
0.00164729
0.000373847
0.000684058
0.00183212
0.000226627
0.000401432
-0.00150607
0.00177395
0.000894462
-0.0064866
0.00286158
0.000479157
-0.0109953
0.00247357
0.000749189
-0.0111613
0.00123181
0.0010637
-0.0116163
0.00115212
-0.0109542
0.000149853
0.00299303
0.00293764
-0.00148249
0.00172403
-0.00277033
-0.000917734
0.00159749
-0.00481458
-0.000906287
0.000568002
-0.00542074
-0.00186083
-0.000370024
-0.00742584
-0.00127051
-0.0010673
-0.0113293
8.81985e-05
-0.0175763
0.00250959
0.00206891
0.00929891
0.00301277
0.000792522
0.00653179
0.00313965
0.000674246
0.00740348
0.001545
0.000769284
0.00945967
-0.000220854
0.000618389
0.00945688
-0.00156471
-5.75306e-05
0.010048
-0.00102048
0.0104803
0.00137273
-0.000178856
0.0124829
0.000629652
8.40849e-05
0.0119284
0.000308329
-0.000664822
0.0115462
0.000439716
-0.00103514
0.0114481
0.000328342
-0.00068193
0.0113816
-0.000438471
-0.000492871
0.0118748
-0.00205523
0.0124997
0.00202716
-0.00188356
0.0111537
0.00164023
-0.000637422
0.00951939
-0.00059689
-0.000295027
0.00914213
-0.00251184
-0.00118102
0.00920069
-0.00321308
-0.00154954
0.00740753
-0.00293386
-0.00152312
0.00656831
-0.00324021
0.00831152
0.00451331
-0.000686355
-0.0142162
0.00638012
-0.000685111
-0.0121081
0.00650139
-0.000402016
-0.00937913
0.00512291
-4.21522e-05
-0.00654099
0.00333128
-0.000100192
-0.00428744
-0.000211471
0.000462594
-0.00377838
-0.000567087
0.00114567
-0.00121168
-0.00931923
-0.00247259
-0.0104833
-0.00302268
-0.0107043
-0.00233215
-0.0106075
-0.000415833
-0.0080977
-0.000248699
-0.00275247
0.000792862
0.000188719
0.00140681
0.000178784
0.000222483
0.00106312
-0.00264196
0.00200552
0.000785568
-0.00892992
0.00320849
-0.00113929
-0.0111531
0.00322548
-0.00045012
-0.010767
0.00202017
0.000342554
-0.0107878
0.00111887
-0.0100555
0.000990154
0.0023804
0.000683587
0.000815697
0.00115429
-0.0027723
0.0013026
0.0003581
-0.00485878
-0.000287152
-0.000748173
-0.00435933
-0.00123663
-0.00143487
-0.00568239
-5.5712e-05
-0.00248011
-0.0100405
-0.000770743
-0.0160108
0.00323052
0.000544881
0.00767654
0.00427875
-0.000289127
0.00671098
0.00450593
-0.00036794
0.00779716
0.00316385
-0.000150393
0.0100855
0.00120116
-4.68046e-05
0.00993012
-0.000710058
-0.000453445
0.00979391
-0.000941855
0.0096913
0.00114087
-0.000149491
0.0118211
0.000486533
0.000399133
0.0117299
-0.000145134
-4.84797e-06
0.0117583
0.000381205
-0.000792925
0.0115068
0.000542639
-0.000553049
0.0116372
-0.000286992
5.5341e-05
0.0119973
-0.00114347
0.0121481
0.00166891
0.000408457
0.00882537
0.000663592
0.00125229
0.0096014
-0.00165475
0.00133359
0.0100801
-0.00397847
0.000357557
0.0103073
-0.00467559
-0.0010051
0.0084511
-0.00344202
-0.00147388
0.00662535
-0.00282719
0.00631413
0.00250892
-0.00138137
-0.0151106
0.00399254
-0.000659653
-0.0118999
0.0038827
-0.00041105
-0.00774021
0.00155345
0.000709422
-0.004724
0.000477167
0.000116103
-0.00439137
-0.000246735
-0.000663126
-0.00394085
-0.00103496
-0.00103487
-0.0019586
-0.00880448
-0.00302508
-0.0101249
-0.00393587
-0.0102799
-0.00349987
-0.0103815
-0.00174111
-0.00971333
-0.000785801
-0.00436453
-0.0010575
-0.00140003
0.00172833
-0.000161725
-0.00122762
0.00106413
-0.003907
0.00208916
-0.000121079
-0.0121001
0.00346302
-0.00155715
-0.0109306
0.00372453
-0.00116497
-0.00988184
0.00293941
-0.00075562
-0.00930381
0.000324405
-0.00740992
0.000258424
0.00209593
-3.66779e-05
-0.000440217
0.00133254
-0.00243988
-0.000896139
-0.000177251
-0.00442038
-0.00236509
-0.000980848
-0.0036576
-0.0024623
-0.00184026
-0.00506329
-0.000126816
-0.00319804
-0.0101227
-0.00194606
-0.0141181
0.00257734
-0.000764872
0.00774515
0.00384983
-0.00119237
0.00780512
0.00362822
-0.000586139
0.00834178
0.00251505
-0.000109717
0.0101787
0.000840942
2.99061e-05
0.00959767
-0.000422452
0.000350521
0.00737579
0.0003289
0.00684375
0.00112258
-0.00166137
0.0113916
0.000896705
-0.000975652
0.0115958
7.60771e-05
-0.000223769
0.0121447
-0.000143759
-0.00106905
0.0126789
0.000245687
-0.00116544
0.0123709
0.000222567
0.000242991
0.0119558
0.000422995
0.0120439
0.00359895
0.00275916
0.00064278
0.000473908
0.0031461
0.00845042
-0.00140449
0.00284467
0.00882451
-0.003358
0.00185483
0.0092083
-0.00427442
0.000429162
0.00772048
-0.00293789
-0.00109826
0.00646377
-0.00224539
0.00596987
0.00136546
-0.000675473
-0.0132926
0.00263062
0.00042273
-0.0107312
0.00224799
0.000869844
-0.00564671
0.000748888
0.00168828
-0.00324981
-0.000571037
0.00124172
-0.00407021
-0.000199284
-0.000859756
-0.00464505
-0.00173122
-0.00180302
-0.00318837
-0.00636975
-0.00451444
-0.00845936
-0.00463158
-0.00933728
-0.00354587
-0.00984914
-0.00155921
-0.0105276
0.00116136
-0.00780127
-0.00162731
-0.00156497
0.000952966
0.00158945
-0.000868009
0.00320342
0.00197072
-0.0105009
0.00398015
0.00296242
0.00129594
-0.0130842
0.0119686
0.00355679
0.00189376
-0.0124563
0.00992826
0.00365402
0.00177835
-0.010199
0.00831865
0.00269537
0.00107625
-0.0077926
0.00760264
0.00212697
-0.00442286
0.00501225
-0.0017954
0.0012516
0.00286425
-0.00142675
-0.00118728
0.000472456
-0.00154177
0.00248608
-0.00324635
-6.1258e-05
-0.00223269
0.00545155
-0.00355935
-0.000475876
-0.00158548
0.0041915
-0.00242944
-0.00184757
-0.00250471
0.004966
-0.000497499
-0.00285707
-0.00899755
0.0109612
-0.000348776
-0.0113578
0.0131855
0.000950969
-0.000428136
0.00812079
-0.00752073
0.00126592
-0.000712767
0.00822548
-0.00738218
0.000267281
-0.000633322
0.00927628
-0.00773849
-0.00118662
-0.00031667
0.0105739
-0.00934564
-0.00409419
0.000265637
0.00943897
-0.00885089
-0.00440901
0.000915224
0.00310246
-0.00670392
0.000988916
-0.00292042
-0.00291672
0.000710956
-0.00155608
0.0115571
-0.0112054
0.000473084
-0.00116437
0.0123192
-0.0117377
0.000107473
-0.000867562
0.0123648
-0.0117586
-9.4521e-05
-0.000240246
0.0121894
-0.012127
-0.000324189
0.000228092
0.0118475
-0.0116158
-0.0003794
0.000276586
0.011872
-0.0112391
0.000252965
0.0117038
-0.0113596
0.00355928
-0.00135797
-0.00693185
0.00342051
0.00526605
0.00196923
0.000196629
-0.00496034
0.00231117
0.00235785
0.00832506
-0.00862397
-0.000829625
0.00174221
0.00990268
-0.0088326
-0.00170867
3.19422e-05
0.00812888
-0.00703228
-0.00143243
-0.000793203
0.00673361
-0.00591963
-0.00195594
0.0063521
-0.00553999
-0.00105222
-0.0028352
-0.009774
0.0122453
-4.38864e-05
-0.00152494
-0.00765895
0.0101127
6.11967e-05
-0.0012799
-0.00196395
0.00532607
5.88948e-05
-0.000887296
-0.000700526
0.00321245
-0.000224275
-0.000936465
-0.00298375
0.00415802
0.000114216
-0.00161573
-0.00501777
0.00543118
-0.00183308
-0.000140375
2.18027e-05
-0.00315561
-0.00368524
0.0040226
-0.00465484
-0.00674043
0.00667505
-0.00532743
-0.00825574
0.00758149
-0.00497458
-0.00967157
0.00839631
-0.0039719
-0.0116465
0.00963802
-0.00199954
-0.0135941
0.00989325
-0.0047502
0.000892904
-5.63446e-06
0.000528673
0.00105228
0.0026993
-0.000408889
-0.0129029
0.00366195
-0.000843904
-0.0132222
0.00420373
-0.000802884
-0.0121434
0.00351769
0.00011326
-0.00964181
0.00158877
0.000855031
-0.00677998
0.000985653
-0.0038357
-0.000740548
0.00155615
0.00248091
-0.00136127
0.000229276
-0.00169827
-0.00338809
-0.000952803
-0.000333871
-0.00560946
-0.00151235
0.00111464
-0.00322431
-0.00228289
-0.00256311
-0.000166281
-0.00121948
-0.00997973
0.00036089
-0.0109656
0.000571731
2.79079e-05
0.00892128
0.000483074
-0.000385136
0.00886947
-0.00141212
-0.00022428
0.0103634
-0.00439955
0.000770682
0.0111641
-0.00658069
0.0012901
0.00802177
-0.00379847
0.00140423
-0.00219604
0.000857431
-0.00705229
0.000513748
-0.00102552
0.0121144
-2.80416e-05
-0.000948942
0.0134503
-0.000513001
-0.00113063
0.0138544
-0.000213744
-0.00116111
0.0138746
-0.000225259
-0.000135722
0.0133092
-0.000327618
0.000354643
0.0129805
0.000220967
0.0120268
0.00199806
-0.00157912
-0.00808317
0.00471417
0.000156363
-0.00339084
0.00359913
0.00167732
0.00672827
0.000874497
0.000750559
0.0107668
-0.000767541
3.66223e-05
0.009573
-0.000528089
-0.0011841
0.00809559
-0.00217883
0.00833001
-0.00154306
-0.00124675
-0.00859968
-0.000928209
-0.0008854
-0.00720865
0.000975665
0.00019169
-0.00240418
0.00091984
0.000831972
-0.000821022
-0.000966187
0.00137542
-0.00249055
-0.000471755
-0.00100715
-0.00566955
-0.00272348
9.76094e-06
-0.00205328
-0.00284736
-0.00426073
-0.00543529
-0.00525305
-0.00709639
-0.0054452
-0.00868221
-0.00462437
-0.0110743
-0.00429455
-0.0148587
-0.0113846
0.00139648
0.00130494
-0.00166587
0.00300383
-0.000866042
-0.0135413
0.00467669
-0.0012589
-0.0135927
0.00433242
-0.000379402
-0.0114019
0.00182921
0.000973283
-0.00816967
-0.000173873
0.000815198
-0.00564361
0.00034164
-0.00435423
-0.00145956
0.00237536
0.00282237
-0.00281571
0.00137331
-0.0027877
-0.00366537
0.000208899
-0.00116435
-0.00205163
-4.91813e-05
-0.00101686
0.00215084
0.000150759
-0.00596998
0.00200931
0.00149043
-0.0106163
0.00235338
-0.0110793
-0.00059325
0.00134035
0.0104731
-0.00115262
0.000527376
0.0102556
-0.00360765
0.00114698
0.0118288
-0.00582723
0.00171535
0.0115406
-0.00506672
0.00162603
0.00593146
-0.00262709
0.000749771
-0.00367877
0.00132529
-0.00856956
0.00137266
-0.000819227
0.0129603
-0.000578329
0.00101618
0.0149541
-0.00114532
-0.000128199
0.0157804
-0.000249482
-0.0014212
0.0162084
0.000182703
-0.00110358
0.0157175
-0.0010034
3.70567e-05
0.0150058
-0.000437303
0.012967
0.000659834
-0.00355145
-0.00591404
0.00146146
-0.00243442
-0.00060141
0.00339525
-0.0017809
0.00658538
0.00280492
-0.00199991
0.0120322
0.00137772
-0.00227116
0.0121769
0.000438726
-0.00160999
0.0107479
-0.002219
0.0106348
-0.00530448
-0.000149308
-0.00675481
-0.00735179
6.90875e-05
-0.00770991
-0.00496298
0.000721074
-0.00724631
-0.00113759
0.00153258
-0.00808764
-0.000626565
0.00195563
-0.00723706
-0.00102386
-0.00114735
-0.00573593
-0.00235666
-0.000705187
-0.0010703
-0.00192752
-0.00288176
-0.00355438
-0.00381447
-0.00544697
-0.00322562
-0.00774623
-0.00213064
-0.0101988
-0.00287355
-0.0151926
-0.0165998
0.00432866
0.00252175
-0.00800598
0.00440512
0.00183869
-0.0153621
0.00535818
-0.00111038
-0.0133725
0.00336061
-0.000354084
-0.00901832
0.000894399
2.02625e-05
-0.00570614
-4.43184e-05
-0.000692514
-0.00401874
-0.00106654
-0.00335663
-0.0012235
0.00113703
0.00553442
-6.14565e-05
0.00113433
-0.00327124
0.00136816
0.000956834
-0.00469208
0.00802545
0.00112652
-0.0090796
0.0107926
0.00230004
-0.0110246
0.00737167
0.00313628
-0.0110983
0.00459429
-0.0094819
-0.00115868
0.001245
0.0114712
-0.00303825
0.00132814
0.0119313
-0.0053285
0.00192044
0.0131611
-0.00459402
0.00109459
0.010865
-0.0014883
-0.000131792
0.00539487
-0.000459104
-0.00229549
0.00080407
0.00124343
-0.00561354
0.00191331
-0.000575618
0.0129975
-0.000469714
0.0033472
0.0154059
-0.00120295
0.0020426
0.0164269
-0.000364746
-0.000109848
0.0166092
-0.000353495
-0.000970269
0.0166151
-0.00244076
-0.000956596
0.0159121
-0.00122956
0.0132217
-0.000991684
-0.00422611
-0.00114407
-0.000623685
-0.00198677
0.00446793
0.00153384
-0.00148548
0.00805666
0.00253249
-0.00125339
0.0122552
0.00227945
-0.00120559
0.0127083
0.000831179
-0.000188941
0.0114736
-0.00066434
0.0109258
-0.00964715
0.00115995
-0.0024949
-0.0135058
0.00146734
-0.00727358
-0.0135393
0.00224666
-0.0109259
-0.0088169
0.00263919
-0.0167635
-0.00326217
0.00285385
-0.0169556
-0.0031421
-0.000100083
-0.00623202
-0.00204617
-0.00242013
-0.00134351
0.000601935
-0.00297733
-0.000421444
-0.00315832
-0.00299937
-0.00155644
-0.00672491
0.00159173
-0.0105205
0.00125895
-0.0149984
-0.0173735
0.00815823
-7.16267e-05
-0.0160785
0.00646953
0.00258192
-0.0162002
0.00425192
-0.000981324
-0.010015
0.00267059
-0.00197924
-0.00530852
0.00252168
-0.00242485
-0.00303611
0.0017122
-0.00235065
-0.000811265
-0.0025422
0.000921535
-0.000474187
-0.00211599
0.00804474
0.00586437
-0.00246441
-0.00443139
0.0145522
-0.000369314
-0.0139865
0.0194798
0.00118263
-0.0170918
0.0189918
0.000773704
-0.0137404
0.0143334
0.00176442
-0.0105751
0.00542947
-0.00316781
-0.00209938
0.00150087
0.00995647
-0.00437807
0.00048284
0.0112978
-0.00369411
0.000242401
0.0118467
-0.00116769
-0.000773124
0.0103648
-0.000355073
-0.00250375
0.00791861
0.000457771
-0.00316704
0.00494485
0.000304109
-1.7112e-06
0.00156794
0.00027141
0.0128466
-0.000141379
0.002844
0.0148966
-0.000788116
0.00243534
0.0149282
-4.28562e-05
0.000545825
0.0145432
-0.000823405
-0.000715805
0.0156396
-0.00232055
-0.00160409
0.0159372
-0.00230267
0.0136792
-0.00132708
-0.00314016
0.00367593
-0.000413524
-0.00111666
0.0075853
0.000244001
0.000879558