/*--------------------------------*- C++ -*----------------------------------*\
  =========                 |
  \\      /  F ield         | OpenFOAM: The Open Source CFD Toolbox
   \\    /   O peration     | Website:  https://openfoam.org
    \\  /    A nd           | Version:  6
     \\/     M anipulation  |
\*---------------------------------------------------------------------------*/
FoamFile
{
    version     2.0;
    format      ascii;
    class       volScalarField;
    location    "0.01";
    object      T;
}
// * * * * * * * * * * * * * * * * * * * * * * * * * * * * * * * * * * * * * //

dimensions      [0 0 0 1 0 0 0];

internalField   nonuniform List<scalar> 
3773
(
288.321
287.299
287.359
287.336
287.224
287.401
288.488
289.44
288.933
289.179
288.976
288.814
289.058
289.446
307.808
309.292
309.345
309.307
309.287
309.341
307.819
313.462
313.693
313.717
313.696
313.696
313.755
313.486
307.857
308.021
309.389
309.343
309.328
309.352
307.871
289.613
289.858
289.344
288.979
288.944
289.282
289.589
288.655
288.335
287.801
287.467
287.494
287.64
288.723
265.235
261.709
261.448
261.856
261.871
262.611
266.31
271.674
275.984
276.3
275.957
275.635
276.181
272.678
313.993
312.098
312.363
312.547
312.631
312.086
314.095
325.211
325.407
325.626
325.66
325.665
325.451
325.702
314.366
314.333
312.73
312.696
312.787
312.542
314.445
272.455
272.727
276.234
275.522
275.953
276.604
272.607
267.698
264.537
264.563
264.269
263.473
263.81
267.891
236.53
232.897
232.085
232.324
233.499
234.651
237.136
261.606
268.579
268.516
266.936
264.983
265.806
261.721
314.579
312.293
313.102
314.342
313.696
311.674
314.159
326.36
325.505
326.051
326.65
326.683
325.403
326.231
314.431
312.768
312.597
313.356
314.073
312.6
314.227
262.146
264.971
266.401
263.725
266.492
266.798
262.11
238.479
235.53
235.094
235.277
234.082
235.121
238.405
221.535
221.588
220.767
220.739
220.597
220.882
221.683
259.497
268.853
268.803
267.5
263.254
263.557
259.463
314.167
312.478
312.44
313.129
313.582
311.407
313.931
326.412
325.898
326.074
326.557
326.291
325.696
326.285
314.114
311.212
313.914
315.302
313.862
311.722
313.905
259.747
263.693
264.211
261.84
265.021
265.07
259.754
222.181
221.181
221.251
219.661
220.947
221.646
222.213
216.963
218.614
218.315
217.987
217.028
216.758
216.926
259.309
266.955
266.592
266.209
263.762
263.78
259.346
314.331
311.977
311.773
312.596
312.079
310.539
314.27
326.48
325.831
326.107
326.107
325.852
325.699
326.464
314.21
311.283
312.914
313.878
313.365
311.409
314.241
259.545
264.292
263.948
263.719
264.407
264.685
259.558
217.047
217.073
217.253
215.957
217.669
217.26
217.055
216.412
217.708
216.81
217.664
216.994
216.477
216.331
262.422
268.015
267.98
268.764
267.648
267.618
261.923
315.296
311.758
312.139
311.489
311.208
310.906
314.854
326.732
325.909
325.744
325.909
325.492
326.268
326.698
314.983
312.019
311.743
311.915
311.789
312.379
314.95
262.487
267.634
267.665
268.268
269.219
266.85
262.242
216.429
216.117
216.766
215.539
217.827
216.693
216.376
213.393
211.928
212.543
213.767
213.512
213.433
213.437
262.876
264.696
262.21
263.66
263.883
264.32
262.797
313.125
313.334
311.861
312.418
311.523
312.745
311.981
331.385
332.571
332.329
332.325
332.856
331.296
332.91
313.074
317.389
312.882
311.829
318.542
313.206
312.078
263.222
254.891
264.168
263.36
257.597
264.088
263.021
213.634
212.393
213.521
212.791
212.091
213.545
213.535
325.897
326.829
329.076
332.001
333.952
333.166
325.626
321.566
323.177
325.075
325.572
323.316
319.564
315.675
309.425
318.161
320.009
321.275
319.203
315.746
307.224
310.241
320.576
326.094
330.586
325.573
320.67
310.554
309.809
317.771
321.435
323.595
322.408
321.197
313.876
317.589
321.102
325.964
328.532
327.261
326.06
325.852
320.682
326.266
331.355
331.594
330.374
330.191
329.972
326.145
327.876
331.117
335.812
339.218
340.938
340.753
319.164
319.237
324.332
323.013
318.061
316.067
315.578
305.967
314.017
318.651
321.198
318.059
312.533
304.772
310.501
321.395
332.046
341.465
331.318
321.479
310.727
307.662
314.899
320.321
323.683
320.368
316.937
310.477
314.777
314.883
322.507
327.376
325.817
317.594
322.703
319.951
331.443
336.374
335.93
332.597
330.578
329.765
325.143
327.672
329.495
334.97
338.362
341.569
342.574
313.415
319.958
321.566
317.405
316.95
318.907
320.109
298.013
306.14
316.166
320.021
316.401
306.195
297.452
311.097
323.042
334.95
344.233
334.403
321.366
311.083
300.091
310.704
318.379
321.857
316.958
306.059
301.637
305.829
309.146
316.623
322.507
325.172
316.083
316.111
333.267
339.015
340.312
339.127
333.681
330.485
327.594
318.347
327.425
329.27
337.575
338.995
340.761
342.46
298.676
323.848
320.373
321.302
326.909
329.723
336.025
291.162
303.56
314.541
319.906
316
303.296
298.369
314.533
323.29
335.751
343.385
334.966
322.066
314.202
293.435
302.11
317.107
320.057
315.518
302.678
292.555
309.48
314.675
319.274
321.318
324.842
325.845
297.213
339.829
340.583
341.049
339.616
333.993
330.441
314.091
308.218
327.483
333.814
340.72
340.157
340.338
342.242
296.099
325.274
324.38
327.498
330.149
330.165
338.681
290.935
303.117
315.091
320.1
316.217
301.259
296.983
315.886
324.931
336.22
341.46
335.98
324.771
316.588
295.649
301.767
317.039
320.152
315.288
301.664
292.497
331.73
329.138
328.285
327.146
326.267
327.919
299.757
341.057
341.719
341.949
341.344
337.924
330.981
309.816
308.782
329.905
339.642
341.096
340.277
340.615
342.157
313.145
330.224
331.549
331.133
328.892
326.992
337.913
296.935
306.643
316.316
320.357
318.171
303.684
300.098
320.08
329.942
338.495
342.508
338.952
330.456
320.713
296.878
302.308
317.518
320.339
316.467
305.97
301.105
337.705
332.228
332.072
332.097
332.039
331.444
323.192
341.479
341.801
341.891
341.875
342.444
332.991
321.753
324.487
337.366
344.808
342.439
341.769
341.651
342.87
326.735
332.76
333.118
331.157
328.68
327.659
338.912
311.565
319.235
319.835
321.754
320.81
309.858
304.319
327.483
335.447
343.356
343.659
340.241
337.925
331.563
302.715
304.734
320.311
322.004
318.63
317.252
312.663
337.542
330.619
331.017
331.342
333.357
333.655
330.221
342.188
342.601
342.341
342.24
343.18
340.459
330.945
331.316
342.187
344.515
347.37
347.647
347.001
346.482
333.137
336.679
338.354
338.145
336.059
339.707
347.26
321.48
323.667
325.308
328.996
324.126
320.543
326.6
334.758
339.146
347.387
350.084
346.697
343.078
338.997
333.582
322.278
322.672
327.174
324.083
322.804
323.199
346.234
339.22
336.043
336.908
339.357
339.556
334.56
344.934
346.358
346.733
346.681
347.044
347.077
333.821
329.275
341.64
344.235
346.808
347.438
347.211
347.314
331.94
337.984
337.284
334.712
335.02
343.706
348.376
323.592
327.878
329.785
330.486
325.887
329.487
338.568
338.25
341.551
347.766
350.23
347.803
345.103
341.635
343.597
332.929
326.088
328.639
328.104
327.608
324.837
346.761
342.191
333.499
334.655
339.512
340.938
333.745
345.184
345.805
346.025
346.06
347.077
348.608
344.746
326.89
341.344
345.944
347.844
347.82
347.778
348.3
331.23
338.876
338.787
336.236
339.474
345.838
349.411
325.091
330.875
333.082
330.829
329.175
340.338
348.112
339.741
344.1
348.293
348.659
347.03
347.271
342.802
347.691
343.18
329.772
330.301
332.856
331.073
325.401
347.219
344.871
342.176
341.762
343.523
342.581
333.903
345.515
345.848
346.554
347.287
348.415
350.639
351.259
331.647
345.629
348.341
348.789
348.921
349.377
349.654
326.373
340.599
342.414
342.97
344.304
346.471
349.428
325.06
332.928
333.747
332.156
334.232
345.883
349.363
339.87
344.042
348.048
348.901
347.795
347.147
342.534
347.811
344.599
334.76
332.605
334.162
332.273
325.504
347.872
347.304
347.532
347.744
346.085
341.421
332.42
346.935
347.372
349.101
349.71
350.634
347.592
347.838
342.488
349.998
350.383
350.247
349.856
349.866
349.919
324.518
340.177
343.1
344.998
346.24
347.247
349.236
325.66
332.878
333.48
332.707
338.086
346.592
349.331
338.499
343.69
348.806
350.833
349.17
346.305
340.598
347.716
344.114
337.398
333.107
333.702
332.566
326.292
348.427
347.695
347.299
347.497
345.694
339.715
331.574
347.285
347.796
349.942
351.322
351.839
348.836
348.804
337.8
344.679
351.012
351.455
350.985
350.4
349.667
324.975
343.247
345.801
348.132
348.301
349.161
349.949
328.338
332.711
332.723
331.879
337.704
346.429
349.139
336.15
342.541
349.255
350.234
348.462
343.653
337.892
346.023
342.135
335.214
332.446
334.18
333.877
330.767
348.636
346.953
345.409
348.571
351.13
344.135
335.499
347.175
347.572
349.702
351.502
352.318
351.048
352.735
339.61
345.003
356.429
353.638
350.975
351.409
352
339.547
344.045
349.508
351.974
349.57
350.214
350.854
343.983
347.021
346.524
341.644
340.832
344.438
347.823
337.908
343.269
349.033
349.898
348.204
343.975
339.043
344.471
343.848
346.901
350.779
353.347
350.691
339.614
348.985
347.817
349.182
352.264
354.276
350.98
348.634
350.24
350.127
351.092
351.727
346.524
351.01
357.257
334.725
338.811
344.426
345.591
345.367
345.146
345.45
331.127
332.886
334.8
332.326
330.756
332.398
343.056
316.987
320.441
321.521
323.271
321.891
310.816
309.118
327.321
335.248
344.949
343.645
341.647
339.956
332.646
310.25
307.619
320.311
323.064
320.209
318.826
316.447
342.662
333.005
331.325
330.963
333.239
333.343
332.643
344.567
345.124
344.857
344.739
344.965
347.244
337.481
334.373
338.519
344.364
345.824
345.627
345.383
345.646
331.84
333.905
336.554
333.59
331.891
333.701
343.863
317.266
320.576
321.64
323.903
322.161
311.097
309.823
327.495
335.526
345.181
343.825
342.001
340.22
333.16
312.281
308.231
320.45
323.044
320.332
319.327
316.712
343.532
334.293
332.273
332.121
334.365
335.351
333.953
344.622
345.315
345.102
344.941
345.43
347.56
337.855
334.044
338.214
344.27
346.259
346.097
345.801
345.706
331.911
334.168
336.918
334.197
332.334
334.242
344.459
317.539
320.922
322.075
324.088
322.417
311.507
310.576
327.738
335.649
345.485
344.249
342.361
340.501
333.474
314.715
309.5
320.623
323.096
320.844
319.554
317.233
344.268
334.93
332.648
332.559
334.957
336.297
334.355
344.674
345.51
345.302
345.17
345.805
347.891
337.979
333.695
338.484
344.227
346.47
346.315
345.953
345.943
332.539
334.105
337.062
334.855
332.818
335.268
344.782
317.84
321.359
322.491
324.534
322.583
311.846
311.442
328.35
335.797
345.559
344.539
342.705
340.59
334.054
319.062
310.702
320.736
323.324
321.265
320.135
317.783
344.758
335.936
333.44
333.329
335.699
337.631
334.679
344.748
345.538
345.372
345.291
346.199
347.908
338.445
333.506
339.614
344.374
347.1
346.893
346.184
346.056
332.915
335.399
337.071
335.659
333.411
335.786
345.542
318.074
321.516
322.871
324.885
322.808
312.307
312.45
328.681
336.265
345.616
345.08
343.069
340.806
334.373
325.634
313.055
320.967
324.021
321.734
320.497
318.241
345.313
336.62
333.841
333.942
336.49
338.42
334.981
344.982
345.617
345.78
345.924
346.712
347.652
338.593
333.645
341.214
344.566
347.412
347.374
346.507
346.232
332.443
336.026
337.199
336.7
334.714
336.718
345.833
318.189
321.634
323.91
325.15
322.982
312.801
313.683
329.345
336.534
345.681
345.387
343.417
340.932
335.168
330.655
314.433
321.111
324.51
322.714
321.253
318.717
345.831
337.475
334.993
335.471
337.592
339.488
334.817
345.086
345.962
346.112
346.33
347.035
347.28
337.962
333.514
341.996
344.553
347.514
347.559
346.821
346.338
331.496
336.456
337.908
337.447
335.32
337.362
346.561
318.261
321.941
324.217
325.888
323.498
313.352
314.605
329.813
337.087
345.922
345.99
343.75
341.277
335.642
333.025
316.582
321.531
325.549
323.128
321.463
319.029
346.264
338.175
335.49
336.155
338.452
339.976
333.48
345.059
346.25
346.481
346.573
347.127
347.21
336.359
337.729
356.02
341.086
328.102
324.909
322.07
320.947
344.004
350.895
359.639
353.772
351.999
347.643
346.371
359.191
354.763
355.462
354.311
352.039
348.441
347.963
338.179
344.05
349.069
350.094
348.602
344.538
339.417
345.022
348.867
353.383
354.438
355.513
354.741
352.384
343.895
345.764
346.55
348.202
352.154
350.869
348.701
319.562
322.398
327.25
331.011
342.173
352.931
326.107
362.177
345.095
341.623
336.842
332.137
330.909
330.521
350.408
358.381
354.728
351.945
350.085
346.552
345.488
358.801
354.75
355.587
354.045
352.86
351.749
348.785
338.445
344.607
349.152
350.365
349.025
345.151
339.784
346.627
352.215
353.318
354.552
355.639
355.757
355.446
343.602
346.858
347.938
350.202
353.24
354.016
348.203
328.657
331.863
335.141
339.087
353.963
344.076
330.529
361.694
346.423
345.367
339.727
338.324
338.324
342.155
355.691
359.734
354.598
351.545
350.181
348.114
348.176
355.924
355.642
355.374
353.435
352.57
352.117
349.503
338.981
345.826
349.345
350.828
349.605
346.598
340.451
348.042
352.562
353.423
354.754
355.72
355.779
355.277
348.564
350.65
353.126
354.323
357.302
354.956
351.598
344.227
345.213
350.421
353.624
354.947
345.693
341.288
356.6
350.632
351.327
348.138
347.85
349.007
351.094
360.743
361.244
354.659
352.992
351.954
352.132
353.548
354.73
355.434
354.332
353.197
352.396
352.115
351.264
339.819
346.836
349.54
351.502
349.99
347.681
341.315
350.886
352.809
353.53
354.651
355.268
355.964
354.456
354.238
354.905
355.948
355.944
358.381
357.69
355.425
351.727
352.739
356.363
357.283
356.886
350.841
349.981
352.355
351.973
352.657
350.485
350.399
350.739
351.191
360.648
358.936
355.638
354.191
353.41
353.144
354.733
353.248
354.169
354.103
353.339
352.68
352.414
351.591
341.873
348.113
349.947
352.202
350.291
349.011
343.161
352.232
353.221
353.87
355.009
355.552
356.484
354.665
355.131
355.457
356.287
357.459
358.698
358.661
356.373
352.844
354.165
358.005
359.988
359.387
353.347
351.459
352.468
352.982
354.455
352.061
351.351
350.426
350.55
358.08
357.736
356.489
355.014
354.252
354.018
354.213
352.853
354.041
354.103
353.54
352.61
352.157
350.074
343.149
349.42
350.326
352.335
350.58
349.888
344.663
351.472
353.314
353.936
355.207
356.107
356.373
354.419
355.305
356.411
357.67
359.019
359.256
360.582
358.773
353.226
355.569
357.052
359.891
360.038
357.39
355.542
352.438
355.913
353.507
351.565
349.19
347.66
347.403
356.924
357.873
357.596
355.078
353.766
352.578
352.244
352.409
355.257
354.738
353.426
352.466
352.059
350.386
345.274
350.104
350.423
352.101
350.546
350.268
346.345
350.734
353.051
353.727
355.273
356.587
355.405
352.732
353.569
354.215
356.344
359.636
359.946
359.714
358.348
351.133
352.25
353.712
358.519
358.69
357.015
351.856
320.494
319.617
318.49
318.579
324.183
333.929
341.373
343.047
342.694
342.209
341.635
341.809
345.35
348.394
348.317
356.842
359.2
358.18
357.636
357.524
357.866
342.598
353.116
357.427
357.417
357.166
356.661
355.448
357.327
358.45
358.513
358.071
357.794
357.759
358.004
345.116
343.785
342.961
342.374
342.657
345.455
346.675
322.985
320.983
320.219
320.965
326.93
337.904
342.533
330.497
329.744
328.792
329.023
331.275
336.331
342.279
344.496
344.104
343.771
343.157
343.514
345.68
348.226
348.795
352.358
358.029
357.429
356.744
356.762
357.328
342.09
347.431
353.199
355.005
355.032
354.624
353.691
355.749
357.083
357.083
356.815
356.716
356.852
357.121
346.748
345.306
344.455
344.433
345.559
346.903
349.164
329.858
327.753
327.773
328.037
333.486
338.811
344.066
343.036
342.633
342.178
341.877
341.6
341.635
342.445
347.849
347.397
347.501
346.819
346.678
347.278
348.962
348.734
349.198
352.191
356.334
355.867
355.452
355.724
341.505
343.501
348.192
350.441
351.596
351.494
351.289
355.439
356.764
357.734
357.634
357.198
357.186
357.24
351.251
350.552
350.53
350.328
350.476
351.167
352.933
342.072
339.741
339.585
339.075
339.554
336.887
339.509
351.81
351.729
351.338
351.155
351.681
351.74
343.764
353.503
353.274
352.771
352.473
352.208
351.578
352.042
349.544
348.819
348.976
349.879
352.131
354.589
355.477
341.835
342.414
343.793
344.474
346.405
347.379
347.768
354.303
354.8
355.459
356.086
358.203
357.699
357.72
355.775
355.026
354.845
354.622
354.596
354.491
355.86
352.223
351.618
349.881
348.921
349.051
345.212
340.9
351.184
351.09
351.084
351.336
352.004
353.377
350.674
354.869
354.49
354.127
353.988
353.633
353.762
353.967
350.99
350.083
349.349
348.692
348.731
349.028
350.827
342.839
342.846
342.92
343.156
343.193
343.385
343.775
352.901
352.507
352.164
352.352
353.248
355.312
355.857
356.897
356.579
357.323
357.222
356.146
354.643
355.406
352.875
352.342
351.792
350.213
348.401
350.019
344.393
351.373
351.548
351.552
351.79
352.142
353.44
352.288
354.47
354.345
353.922
353.63
353.35
353.127
352.913
350.015
349.759
349.498
348.755
348.326
347.477
347.634
343.325
342.933
342.181
341.767
340.953
340.087
338.353
351.544
350.599
349.607
349.043
348.446
348.442
349.526
355.724
355.637
355.349
354.968
354.581
353.428
352.982
351.866
351.547
350.051
349.372
348.894
349.006
350.078
348.123
348.698
348.791
349.352
350.382
352.794
353.983
352.33
352.498
352.452
352.472
352.561
352.891
352.77
349.952
349.33
348.809
348.119
347.319
346.436
344.019
345.346
344.19
343.498
342.028
340.967
338.548
335.741
351.946
350.974
349.552
348.75
347.282
346.361
343.698
355.003
352.297
351.061
349.621
349.191
349.004
349.282
348.868
347.94
347.208
347.303
347.416
347.397
349.615
347.032
341.389
331.844
324.55
324.211
326.107
331.786
348.053
346.483
344.171
341.33
341.201
341.714
343.144
357.745
357.497
357.593
358.142
359.353
359.792
359.852
353.878
354.859
355.557
355.766
355.405
351.115
341.295
358.302
357.652
357.509
357.916
358.144
352.996
345.273
347.535
343.291
340.107
340.356
341.02
341.382
341.749
340.852
332.387
321.348
317.49
318.213
319.71
319.686
348.203
344.996
337.785
336.222
336.045
339.88
345.086
348.386
347.324
344.976
344.005
344.023
345.006
347.083
356.418
356.477
356.981
357.612
358.638
359.714
360.003
351.608
351.778
351.929
351.213
350.123
345.887
340.802
356.767
356.159
356.177
356.672
355.77
347.732
345.984
346.84
343.077
341.94
341.626
341.579
341.819
342.526
341.451
335.52
331.333
328.569
328.724
328.875
329.078
346.129
348.031
350.904
349.678
349.753
351.411
355.337
353.858
352.465
351.671
351.881
351.879
352.836
353.199
356.795
357.378
357.761
358.181
359.017
359.569
358.147
349.275
348.882
348.455
347.28
346.709
343.372
340.382
356.03
355.983
355.657
351.157
348.063
346.696
346.475
350.045
348.727
347.093
347.189
347.685
347.83
348.268
341.101
342.608
342.849
343.863
344.658
345.049
344.948
350.102
358.475
359.29
357.017
355.31
355.206
356.871
359.221
358.448
358.435
358.131
358.024
358.337
358.475
357.686
357.964
358.654
358.899
358.499
356.401
355.003
344.983
344.417
344.228
344.018
342.927
341.129
340.343
355.365
350.985
348.036
346.847
347.181
347.301
348.565
354.45
353.834
353.883
354.126
354.193
354.233
354.356
345.208
354.633
354.077
353.417
352.975
353.176
353.034
354.545
358.741
356.752
355.666
353.942
355.615
357.3
359.766
357.709
357.687
357.789
358.313
358.893
359.978
355.343
354.93
354.466
353.682
352.739
352.395
352.402
341.583
341.392
341.914
342.014
341.711
341.551
341.494
348.149
346.918
347.047
347.346
348.59
349.743
350.778
356.036
354.596
353.71
354.245
354.514
354.806
354.994
353.799
356.141
354.17
353.433
353.175
352.964
353.114
356.021
358.641
355.212
351.978
350.813
352.404
352.222
356.006
355.267
354.523
354.446
355.159
356.31
357.229
349.243
349.036
349.536
349.817
350.273
350.837
351.141
337.601
339.07
339.854
340.759
341.102
341.738
342.338
346.847
347.016
348.25
348.831
349.664
350.07
350.909
353.023
353.286
352.999
353.742
354.017
354.538
354.901
357.999
356.602
354.731
353.923
353.543
353.079
352.913
354.638
356.664
353.141
349.885
348.746
349.846
351.561
352.969
352.982
352.077
351.907
352.462
353.743
354.684
344.719
346.765
347.782
349.069
350.013
351.035
351.731
334.685
337.868
339.848
340.816
342.356
343.074
344.323
344.352
346.638
347.384
348.183
349.041
349.456
350.286
352.093
352.322
352.261
352.169
352.32
352.532
352.754
358.89
356.514
354.081
352.788
351.828
351.463
351.385
365.465
363.13
363.292
360.366
358.765
355.034
351.229
363.92
359.339
359.465
358.112
355.059
354.047
350.805
362.189
360.399
360.036
359.675
358.855
358.197
357.834
358.266
357.577
355.696
354.113
353.323
353.064
353.319
362.238
360.466
360.333
359.579
359.016
358.834
358.568
363.247
359.211
359.927
357.521
355.37
353.475
349.445
363.95
362.625
363.531
359.48
357.795
354.241
346.178
363.637
358.91
359.037
357.099
358.007
355.92
351.967
363.597
353.541
350.714
350.809
351.62
350.573
350.088
361.824
358.921
356.984
356.293
355.957
356.073
356.417
357.346
355.598
353.174
351.543
350.765
350.632
351.091
361.822
359.188
357.577
357.018
356.751
356.645
356.861
363.205
353.913
351.846
351.36
351.138
349.632
348.31
363.081
360.171
359.555
356.021
354.883
349.478
346.098
357.822
354.923
355.299
353.309
357.95
353.439
345.879
351.385
346.146
347.237
349.948
353.783
354.096
354.343
359.661
357.569
355.88
354.815
355.042
355.559
356.595
356.954
354.908
352.404
350.404
349.464
349.075
349.043
358.685
357.277
355.955
355.232
355.074
355.185
355.606
350.627
346.93
347.762
349.813
352.431
352.307
351.471
356.529
353.004
352.534
350.349
350.039
346.391
340.194
355.057
349.86
351.572
347.031
355.331
349.41
339.575
344.502
343.289
347.823
357.647
359.682
360.135
360.844
355.306
354.48
353.582
354.505
355.537
356.739
357.68
356.094
354.025
350.679
348.893
347.374
346.441
346.129
355.592
354.453
353.715
354.324
354.868
355.322
355.861
347.592
342.923
347.723
354.416
357.201
357.036
356.353
354.985
348.731
349.671
345.8
345.861
339.929
338.018
350.777
343.375
345.184
341.365
351.467
339.63
331.755
340.286
342.851
356.264
362.424
361.718
360.789
360.761
353.758
352.774
353.478
355.887
357.626
357.593
355.992
354.945
350.171
346.712
345.037
343.599
342.96
342.748
353.986
352.425
352.72
353.988
355.363
355.466
353.202
342.425
340.93
350.406
359.45
358.793
358.418
356.656
352.94
346.258
345.012
342.159
343.16
333.301
334.49
346.1
337.478
340.258
337.208
345.909
335.989
327.877
335.044
343.335
361.754
362.412
360.405
358.502
357.582
350.19
351.048
352.495
354.201
354.786
351.771
349.514
352.385
348.93
345.759
343.676
341.069
338.657
337.746
350.683
350.84
351.544
352.08
351.313
348.859
346.14
340.304
336.764
355.361
360.345
358.848
355.78
353.718
346.924
341.631
343.242
339.989
340.121
329.633
335.32
338.71
332.728
337.742
333.219
340.915
331.845
327.203
332.38
344.188
361.85
359.998
357.06
354.998
354.701
347.783
347.313
349.26
349.251
346.402
342.694
342.774
350.06
342.026
338.793
335.939
332.349
330.691
330.623
349.379
346.739
348.14
347.653
345.273
342.085
342.202
339.483
333.975
357.367
360.289
356.692
355.34
352.817
341.437
334.689
338.33
334.933
335.979
327.052
333.313
330.786
323.297
331.213
329.821
333.024
327.282
315.601
325.422
336.063
343.482
353.644
344.997
336.305
331.527
337.556
338.665
339.751
344.179
340.634
338.241
334.12
330.443
333.61
334.969
334.054
331.603
329.856
325.226
337.927
338.109
334.999
336.221
334.453
333.373
330.931
326.283
329.861
334.145
329.147
332.443
332.667
335.056
332.159
326.387
329.888
329.777
330.21
324.328
322.279
305.284
304.666
306.676
301.692
312.992
306.036
306.102
316.104
330.708
337.311
328.971
331.37
326.05
317.712
332.84
330.561
329.582
330.514
325.646
329.723
332.547
324.228
325.479
325.911
326.93
325.878
326.042
324.375
333.988
333.608
330.799
329.422
326.699
329.083
330.063
313.294
314.354
320.645
332.556
322.705
320.843
320.936
304.332
303.696
301.229
299.74
303.845
305.219
305.239
292.933
292.984
292.596
293.764
293.387
293.088
293.664
311.144
312.721
312.581
313.982
313.527
311.777
312.789
330.857
330.012
328.597
327.934
323.669
326.399
330.195
317.048
318.55
318.693
320.633
320.243
321.264
320.994
325.383
325.284
326.303
325.705
324.296
324.473
326.347
310.318
310.27
310.405
314.025
314.584
310.385
309.854
290.023
290.267
289.378
289.503
289.708
290.756
289.954
285.615
285.564
285.461
286.151
285.599
286.169
285.931
308.707
307.985
306.484
305.894
306.177
305.64
306.003
325.167
326.244
325.984
324.7
320.335
324.332
326.122
312.128
313.475
314.188
315.434
315.215
315.525
314.997
319.63
319.557
320.744
320.923
318.485
319.432
317.377
305.622
305.27
305.549
305.602
306.1
307.623
305.304
280.121
279.761
279.683
281.773
281.542
281.404
279.757
281.004
280.922
280.991
281.203
281.004
281.117
281.161
303.668
303.435
303.382
303.585
303.76
303.66
303.777
321.429
320.054
319.639
317.235
313.865
319.676
323.46
306.782
307.587
308.673
309.677
309.666
309.452
309.323
317.309
317.877
319.189
318.847
316.596
315.049
314.029
303.437
301.266
301.457
303.115
303.864
303.916
301.678
278.378
277.824
277.753
277.854
277.928
278.002
277.991
280.484
280.396
280.574
280.698
280.419
280.696
280.441
302.857
302.656
302.676
302.768
302.936
302.882
303.074
320.755
319.13
318.369
316.148
313.26
319.336
323.727
304.288
304.975
306.187
307.282
307.444
307.261
307.493
317.091
318.225
319.464
318.576
317.235
314.909
314.491
302.974
302.027
302.185
302.856
303.278
303.335
302.284
279.199
278.723
278.452
278.705
279.431
279.38
278.751
292.643
292.627
292.643
292.157
292.627
292.158
292.551
305.033
304.958
305.112
305.1
305.197
305.075
305.137
313.225
311.191
309.856
308.648
306.474
312.397
317.33
289.147
289.419
290.752
292.275
292.9
292.616
293.633
310.515
311.012
312.021
311.244
310.897
307.646
306.915
305.257
305.222
305.356
305.33
305.414
305.45
305.369
292.172
292.169
292.645
292.161
292.155
292.155
292.161
348.76
354.436
359.627
362.918
364.758
367.01
367.041
351.208
354.363
356.671
358.812
360.165
361.683
361.601
358.17
358.326
358.712
359.214
359.555
360.144
360.238
354.409
353.497
353.609
354.202
355.146
356.85
358.453
358.015
357.924
358.212
358.691
359.011
360.574
362.037
349.339
352.115
353.396
356.405
357.707
357.934
363.127
348.79
354.59
356.739
359.686
362.435
361.306
363.92
347.89
352.476
358.561
360.284
364.238
365.503
363.917
351.593
353.015
355.573
356.249
356.86
355.873
354.879
357.613
357.532
357.762
357.779
357.922
358.004
358.003
352.837
351.576
351.375
351.87
353.033
354.833
357.173
357.23
356.938
356.835
356.793
357.47
357.869
357.975
350.235
351.91
352.691
352.841
352.532
352.624
353.973
351.64
356.087
357.672
356.566
358.434
357.346
359.606
342.305
343.929
350.651
354.295
355.755
357.803
353.505
350.624
351.237
352.037
352.191
352.217
348.15
347.164
355.879
355.764
355.92
356.317
355.896
355.234
355.335
350.683
350.442
350.473
350.936
352.087
354.279
356.007
357.185
356.906
356.56
356.035
355.551
355.545
355.766
355.342
356.117
356.089
353.175
351.13
348.366
349.665
341.393
355.416
356.792
352.833
353.968
352.15
356.653
339.775
339.964
345.6
349.351
349.094
350.239
344.137
353.188
351.793
350.618
350.404
350.096
342.65
341.964
355.335
354.319
353.792
353.434
353.671
352.33
351.91
347.822
347.51
347.666
348.348
349.622
352.703
355.115
357.623
357.04
355.686
354.674
354.078
353.529
353.451
357.413
358.991
359.106
358.606
353.024
346.548
346.248
336.103
350.017
354.404
347.003
349.915
347.815
354.009
338.387
332.73
339.775
343.395
341.052
341.724
341.13
353.909
353.98
349.863
345.539
348.868
337.017
338.801
354.539
354.932
353.607
352.646
351.973
349.079
350.885
344.697
345.163
346.531
347.259
348.747
350.174
353.768
356.434
357.297
356.728
355.033
353.973
351.488
351.101
355.138
357.976
359.784
359.298
357.396
344.04
340.891
326.479
342.752
352.013
341.534
344.14
340.608
350.666
340.052
330.95
337.144
338.835
336.964
339.262
339.202
353.284
352.908
350.742
343.099
347.065
334.642
333.132
347.554
349.438
350.238
349.06
350.372
347.671
348.321
338.434
339.275
342.789
344.847
347.866
349.659
351.5
350.159
353.368
354.632
353.002
352.661
349.408
348.429
353.85
354.95
356.536
358.417
360.518
343.066
336.488
324.351
335.235
346.54
337.457
340.101
337.456
344.269
340.277
327.948
329.838
335.193
333.934
338.004
339.009
353.502
351.865
347.764
341.132
341.598
330.462
331.825
341.577
342.05
345.89
346.12
346.336
344.005
347.079
330.921
330.645
332.595
335.796
340.206
343.67
349.655
342.124
342.323
346.571
349.054
349.039
346.437
347.179
351.5
352.438
354.289
357.941
360.554
340.76
332.948
321.398
329.839
341.28
334.458
337.394
331.95
335.018
328.248
325.502
323.98
326.17
323.488
331.265
336.096
336.978
331.38
330.603
332.359
327.14
323.867
328.024
326.717
335.315
336.852
335.659
333.854
333.117
334.979
323.355
330.384
333.457
335.399
336.017
335.8
332.182
337.88
338.661
340.692
344.09
340.881
339.873
337.505
330.329
339.514
343.595
355.158
345.717
334.046
326.733
313.194
323.455
328.816
331.642
330.391
328.412
328.838
304.73
302.586
301.823
302.585
303.791
294.364
296.091
318.677
316.489
315.972
315.833
315.527
316.638
313.471
326.157
329.615
328.573
327.865
328.962
329.994
330.43
323.901
326.537
326.147
326.426
326.564
326.211
325.917
333.475
330.402
328.745
328.899
330.884
333.228
333.709
318.791
330.493
338.44
339.331
335.48
323.674
317.483
306.467
300.62
313.244
301.768
304.016
298.265
303.942
286.855
287.555
287.659
287.091
287.403
286.691
287.749
314.618
310.333
309.773
309.146
308.325
308.23
308.618
322.658
325.668
323.285
323.06
323.192
323.616
326.746
321.506
321.961
320.14
318.578
317.132
316.418
316.767
330.64
328.068
326.382
328.149
329.298
330.319
331.156
313.46
311.749
313.749
312.462
312.195
311.911
311.42
294.452
293.286
293.114
293.682
292.683
292.821
292.861
279.629
279.494
279.432
279.726
278.618
279.761
280.213
305.71
307.149
307.165
306.555
305.722
303.518
303.397
314.591
317.951
318.702
318.358
318.384
318.527
319.393
317.468
317.936
316.745
315.393
313.792
311.351
311.803
326.878
325.471
323.873
326.488
325.627
326.028
325.062
308.365
305.591
306.769
307.033
307.833
308.233
308.361
286.843
286.933
286.211
286.77
285.871
285.628
285.612
277.138
277.096
277.077
277.248
277.29
277.293
277.38
303.152
302.378
302.296
302.178
302.01
301.936
301.948
313.752
317.07
317.592
317.211
317.031
316.884
316.596
311.853
312.162
311.563
310.684
309.791
307.167
307.505
322.807
320.329
318.297
322.56
322.123
321.986
322.102
304.409
303.157
304.092
303.969
303.855
303.925
303.548
281.205
280.923
280.948
281
280.895
280.873
280.931
278.851
278.19
278.007
278.067
278.037
278.018
278.062
302.956
302.717
302.655
302.569
302.501
302.435
302.439
314.642
317.449
318.039
317.559
317.234
316.885
316.25
309.542
309.617
309.05
308.337
307.646
305.052
305.224
322.395
319.823
317.67
322.386
322.355
322.014
321.727
303.027
302.594
303.211
303.14
303.092
303.184