/*--------------------------------*- C++ -*----------------------------------*\
  =========                 |
  \\      /  F ield         | OpenFOAM: The Open Source CFD Toolbox
   \\    /   O peration     | Website:  https://openfoam.org
    \\  /    A nd           | Version:  6
     \\/     M anipulation  |
\*---------------------------------------------------------------------------*/
FoamFile
{
    version     2.0;
    format      ascii;
    class       volVectorField;
    location    "0.01";
    object      U;
}
// * * * * * * * * * * * * * * * * * * * * * * * * * * * * * * * * * * * * * //

dimensions      [0 1 -1 0 0 0 0];

internalField   nonuniform List<vector> 
3773
(
(40.6346 -0.027291 0.491765)
(40.4655 -0.00907269 0.488501)
(40.5142 0.00206498 0.484108)
(40.4955 0.0104039 0.483355)
(40.4464 0.00245145 0.487539)
(40.4779 -0.000529802 0.498154)
(40.6258 0.0234438 0.50229)
(10.6898 0.0188556 -0.0781847)
(10.6348 -0.04629 -0.0795639)
(10.6702 -0.0267108 -0.0654023)
(10.6518 0.00960066 -0.0659481)
(10.6298 0.0160862 -0.0619215)
(10.6478 0.0278973 -0.0442919)
(10.6802 -0.0169979 -0.038829)
(4.30959 0.0338016 0.031983)
(4.29927 -0.00401492 0.0394442)
(4.30224 -0.0234121 0.0505066)
(4.30338 0.00440025 0.0483533)
(4.30351 0.0108582 0.0471574)
(4.30011 0.00577813 0.0567792)
(4.30899 -0.0144338 0.0469271)
(-7.43711e-05 0.00586338 0.0489975)
(-7.30765e-05 0.0104071 0.0501385)
(-8.23053e-05 0.011153 0.048176)
(-8.60378e-05 -0.0106241 0.0474003)
(-7.81657e-05 -0.0233479 0.0452675)
(-6.99511e-05 -0.0224421 0.0397093)
(-6.16152e-05 -0.0151791 0.0423431)
(-4.31059 0.025445 0.0347168)
(-4.30218 -0.0146682 0.036549)
(-4.30528 -0.0270949 0.0416659)
(-4.30509 0.0055204 0.0443025)
(-4.30445 0.0111358 0.0428416)
(-4.30339 0.00575332 0.051446)
(-4.30966 -0.0121304 0.0418099)
(-10.6856 0.0217089 -0.0865999)
(-10.6713 -0.0393266 -0.0792353)
(-10.6658 -0.0193957 -0.0631819)
(-10.6422 0.0117497 -0.0663086)
(-10.6292 0.0217648 -0.0638793)
(-10.6566 0.0390711 -0.0440185)
(-10.684 -0.0123212 -0.0394518)
(-40.6245 -0.0150874 0.496029)
(-40.4838 0.00258931 0.491126)
(-40.5321 0.00691113 0.497409)
(-40.497 0.0101036 0.49891)
(-40.4653 0.00128211 0.492506)
(-40.5056 0.00171985 0.505476)
(-40.6291 0.0224063 0.513533)
(34.6958 -0.0400178 0.974138)
(33.9159 0.00816517 0.978934)
(33.8727 0.0142291 0.978542)
(33.9274 0.00940441 0.973898)
(33.9432 -0.00163336 0.959056)
(34.0611 -0.0124384 0.950419)
(34.8457 0.0309345 0.954314)
(8.79756 0.000934165 -0.236896)
(8.9079 -0.0574303 -0.238868)
(8.92444 -0.0343149 -0.219231)
(8.90955 0.0154617 -0.22462)
(8.89519 0.0346187 -0.226584)
(8.91519 0.047618 -0.20437)
(8.82782 0.00236759 -0.204682)
(3.78421 0.0425827 -0.0147601)
(3.7706 -0.00318167 -0.00826041)
(3.77957 -0.0290382 0.0176457)
(3.77619 0.00613369 0.0121343)
(3.77423 0.023782 0.00810317)
(3.7827 0.0160216 0.0255812)
(3.7839 -0.018717 0.00521255)
(-6.59328e-05 0.00829068 0.0252281)
(-6.52329e-05 0.0152317 0.0240072)
(-7.18373e-05 0.0157134 0.0198355)
(-7.51538e-05 -0.0135474 0.0199972)
(-6.8421e-05 -0.0316161 0.0161345)
(-6.14981e-05 -0.0278837 0.00746409)
(-5.63368e-05 -0.0173256 0.014532)
(-3.78803 0.0316325 -0.0148398)
(-3.77509 -0.0200717 -0.0127834)
(-3.77901 -0.0333592 0.0010291)
(-3.77755 0.00875416 0.00562472)
(-3.77462 0.023478 -0.000496402)
(-3.78004 0.0155259 0.0145516)
(-3.78792 -0.0157957 -0.00195007)
(-8.8206 0.0126047 -0.252272)
(-8.79755 -0.0474834 -0.235359)
(-8.9193 -0.0320371 -0.225667)
(-8.89228 0.0116957 -0.236536)
(-8.90405 0.0362505 -0.227873)
(-8.92821 0.0560983 -0.198621)
(-8.82502 0.00367958 -0.204987)
(-35.0505 -0.0230142 0.962077)
(-34.442 0.0201985 0.962264)
(-34.3604 0.01907 0.968919)
(-34.2691 0.00947795 0.951463)
(-34.1607 -0.00577541 0.967272)
(-34.2152 -0.0143742 0.961828)
(-35.0847 0.0260605 0.962496)
(29.1538 -0.0700892 1.36239)
(28.4038 0.00827978 1.3432)
(28.2696 0.0264666 1.32058)
(28.3093 0.027136 1.31441)
(28.5138 0.0166704 1.31497)
(28.7018 -0.00152091 1.33357)
(29.2545 0.061071 1.3547)
(8.46283 -0.0140348 -0.121836)
(8.64826 -0.0457538 -0.146801)
(8.6461 -0.0243606 -0.135604)
(8.59542 0.0136201 -0.139808)
(8.53482 0.0353065 -0.135467)
(8.5625 0.0423217 -0.126297)
(8.46693 0.0129194 -0.135518)
(3.76039 0.0410914 0.0128384)
(3.72228 -0.000716052 0.00128149)
(3.73439 -0.0267261 0.0281447)
(3.74822 0.00279253 0.0186032)
(3.74002 0.0259134 0.0126748)
(3.71593 0.018333 0.0220429)
(3.75595 -0.0222671 0.00167625)
(-6.71466e-05 0.00901893 0.0342861)
(-7.00782e-05 0.0126733 0.0310058)
(-7.22578e-05 0.0128549 0.0233367)
(-7.38039e-05 -0.0138892 0.0219592)
(-6.73452e-05 -0.0334417 0.0190483)
(-6.00748e-05 -0.0258967 0.0193255)
(-5.97415e-05 -0.0164032 0.0287329)
(-3.75945 0.0308704 0.00809513)
(-3.7273 -0.0202334 0.000206238)
(-3.72676 -0.0322275 0.0157801)
(-3.7362 0.00699102 0.0152463)
(-3.74427 0.0239713 0.00678016)
(-3.72776 0.0170576 0.0134056)
(-3.75688 -0.0179992 -0.000361852)
(-8.4803 -0.00209543 -0.132159)
(-8.53652 -0.0378857 -0.135963)
(-8.58125 -0.0277779 -0.132618)
(-8.49517 0.00474529 -0.130735)
(-8.58349 0.0355688 -0.147175)
(-8.59488 0.0450349 -0.125579)
(-8.47955 0.00846547 -0.140225)
(-29.4688 -0.0482944 1.38681)
(-28.8741 0.0173865 1.36634)
(-28.7636 0.0080972 1.3504)
(-28.7953 -0.00101755 1.36143)
(-28.5937 -0.0122449 1.33105)
(-28.7609 -0.0213859 1.35655)
(-29.4594 0.04535 1.39007)
(26.4179 -0.0870764 1.04417)
(26.2287 0.00777283 1.04206)
(26.1145 0.0270245 1.0302)
(26.1153 0.0312405 1.0208)
(26.111 0.0248831 1.02753)
(26.1641 0.00901452 1.04344)
(26.4486 0.0804842 1.05044)
(8.37999 -0.011998 -0.105092)
(8.64612 -0.0339562 -0.132196)
(8.64367 -0.0241008 -0.117541)
(8.60202 0.0044228 -0.122931)
(8.46575 0.029176 -0.114073)
(8.47607 0.0364164 -0.109788)
(8.37923 0.0130172 -0.117777)
(3.75428 0.037518 0.013633)
(3.72208 0.00169647 -0.00340897)
(3.72181 -0.0235609 0.0252417)
(3.72992 3.48944e-05 0.0172513)
(3.73524 0.0266899 0.0137478)
(3.7093 0.0160864 0.0140208)
(3.75148 -0.0244407 0.00282588)
(-7.08032e-05 0.0105815 0.0449422)
(-7.20718e-05 0.0120742 0.040141)
(-7.23951e-05 0.00971779 0.0324637)
(-7.47321e-05 -0.0148603 0.0277985)
(-7.28055e-05 -0.0320146 0.0285824)
(-6.16597e-05 -0.0237418 0.0377894)
(-6.66632e-05 -0.0157423 0.0440747)
(-3.75377 0.0283356 0.00807705)
(-3.70699 -0.0171748 -0.00223508)
(-3.73924 -0.0283347 0.0218374)
(-3.75577 0.00550835 0.0130646)
(-3.7387 0.0258899 0.011305)
(-3.71333 0.0168593 0.0156954)
(-3.75127 -0.020584 0.00151235)
(-8.38862 -0.00571598 -0.115569)
(-8.4806 -0.0306687 -0.120849)
(-8.49724 -0.0245294 -0.115557)
(-8.41997 0.00267509 -0.120426)
(-8.52286 0.0367796 -0.128693)
(-8.52512 0.0376276 -0.117703)
(-8.389 0.00636011 -0.123481)
(-26.5316 -0.0688466 1.07969)
(-26.2237 0.00934269 1.07998)
(-26.2112 0.00224671 1.05756)
(-26.0124 -0.0121887 1.03708)
(-26.1619 -0.0158723 1.04213)
(-26.2576 -0.0169414 1.06033)
(-26.5364 0.063991 1.0862)
(25.6082 -0.087488 0.705674)
(25.6453 0.00839069 0.739642)
(25.6035 0.0264117 0.725763)
(25.5643 0.0279089 0.708086)
(25.4473 0.0292232 0.687935)
(25.4192 0.013433 0.706552)
(25.6076 0.085923 0.705146)
(8.36907 -0.00595023 -0.0461023)
(8.58123 -0.0268171 -0.0587032)
(8.56873 -0.0219317 -0.0517261)
(8.55644 -0.000365275 -0.0505697)
(8.47802 0.0268367 -0.0511049)
(8.47898 0.0325219 -0.0462641)
(8.37042 0.00818806 -0.0547875)
(3.7561 0.0335903 0.0264083)
(3.71599 0.00310373 0.00848774)
(3.71342 -0.0198153 0.0323983)
(3.72324 -0.00136559 0.0244773)
(3.7171 0.0271876 0.0260814)
(3.69876 0.0135136 0.0251245)
(3.7554 -0.0250759 0.0181803)
(-6.73527e-05 0.00904999 0.0541954)
(-6.61826e-05 0.00937406 0.0454782)
(-6.64649e-05 0.00643269 0.0390261)
(-7.13226e-05 -0.014521 0.0348681)
(-8.27308e-05 -0.0267618 0.0399568)
(-7.14678e-05 -0.020447 0.049595)
(-7.58342e-05 -0.0137629 0.0524293)
(-3.75477 0.0257542 0.0215324)
(-3.70776 -0.0137132 0.0125928)
(-3.7271 -0.0260568 0.0392299)
(-3.73862 0.0035133 0.0282973)
(-3.73253 0.0265176 0.0221124)
(-3.70925 0.0137863 0.0275816)
(-3.75515 -0.0232318 0.0166953)
(-8.37698 -0.00381367 -0.0585648)
(-8.49548 -0.0251335 -0.0714383)
(-8.4842 -0.0213909 -0.050457)
(-8.47679 0.0021832 -0.0595905)
(-8.49861 0.032782 -0.0591571)
(-8.50819 0.0332451 -0.0580152)
(-8.37744 0.0022201 -0.0605082)
(-25.6296 -0.0734695 0.726556)
(-25.4653 0.00633254 0.739682)
(-25.4819 0.00070673 0.721762)
(-25.3293 -0.017454 0.712831)
(-25.5268 -0.0191336 0.699736)
(-25.4825 -0.0104476 0.721837)
(-25.6309 0.072199 0.73343)
(25.4983 -0.0781913 0.380058)
(25.4884 0.0165241 0.416519)
(25.3851 0.0231075 0.427297)
(25.4839 0.0178285 0.397261)
(25.4054 0.0227919 0.3727)
(25.3459 0.0154596 0.38574)
(25.4891 0.0857503 0.377478)
(8.46795 -0.00151726 0.00409002)
(8.61441 -0.0258631 0.00420329)
(8.61265 -0.0174397 0.0226466)
(8.63796 -0.000363372 0.0213264)
(8.60212 0.0195763 0.0222603)
(8.60149 0.0284972 0.0251743)
(8.45207 0.00251289 0.0172183)
(3.76736 0.0296313 0.0582496)
(3.71328 0.0045565 0.0417598)
(3.71761 -0.0165662 0.0593806)
(3.70989 -0.00226225 0.0551128)
(3.70658 0.0261522 0.0584379)
(3.70298 0.0114561 0.0589447)
(3.76211 -0.0268479 0.0528074)
(-6.73419e-05 0.00559705 0.0569299)
(-6.95442e-05 0.00484398 0.053419)
(-7.1241e-05 0.00483857 0.047025)
(-7.56283e-05 -0.0136391 0.0448185)
(-8.65101e-05 -0.0250523 0.0493921)
(-7.59654e-05 -0.0199228 0.0504285)
(-8.33271e-05 -0.0120594 0.0561013)
(-3.76375 0.0238166 0.0522878)
(-3.71642 -0.00924118 0.0403027)
(-3.71303 -0.0221277 0.0666696)
(-3.7151 -0.00149603 0.0606219)
(-3.71361 0.0237749 0.0543156)
(-3.72064 0.0114461 0.0586354)
(-3.76337 -0.0249182 0.0535743)
(-8.47026 -0.00323121 -0.00468794)
(-8.60193 -0.0200479 -0.0080949)
(-8.60273 -0.0158543 0.0167494)
(-8.62205 0.00299898 0.0171582)
(-8.65278 0.0352405 0.0136887)
(-8.57674 0.0290139 0.0159459)
(-8.46239 -0.00192459 0.00717785)
(-25.5055 -0.0691459 0.395724)
(-25.3036 0.00770738 0.430456)
(-25.3799 -0.0031456 0.395468)
(-25.2364 -0.0187045 0.399557)
(-25.5029 -0.0194079 0.391722)
(-25.3716 -0.00889663 0.397582)
(-25.4992 0.0739979 0.395309)
(24.9768 -0.0805587 0.284493)
(24.8049 0.0212987 0.303669)
(24.8784 0.0222874 0.302267)
(25.0203 0.0153353 0.299727)
(24.9901 0.0240616 0.28723)
(24.9821 0.0208811 0.296319)
(24.982 0.0899818 0.285501)
(8.44887 -0.00307229 0.00427627)
(8.50743 -0.0228162 0.0111551)
(8.42735 -0.0121043 0.0319999)
(8.47406 0.0030401 0.0272957)
(8.48126 0.0237237 0.0271551)
(8.49528 0.0330492 0.0355461)
(8.4465 0.0030773 0.0266732)
(3.72952 0.0316333 0.0222284)
(3.73204 0.00503327 0.00777145)
(3.71445 -0.0158369 0.0210244)
(3.7211 -0.00133833 0.0208476)
(3.71045 0.0342629 0.0209877)
(3.725 0.014911 0.0230398)
(3.7159 -0.0336877 0.019278)
(-6.98834e-05 0.00736509 -0.00232053)
(-7.56967e-05 0.00405736 -0.00156413)
(-7.88134e-05 0.00374632 -0.00645001)
(-7.84843e-05 -0.0150329 -0.00754419)
(-9.16492e-05 -0.0292315 -0.00496285)
(-7.95802e-05 -0.0218079 -0.00770137)
(-8.71987e-05 -0.0144532 -0.00289195)
(-3.72902 0.0245466 0.0150717)
(-3.78042 -0.0102526 0.0001745)
(-3.72671 -0.0216558 0.0217004)
(-3.7142 -0.00204782 0.0185475)
(-3.79417 0.0323204 0.0181591)
(-3.73061 0.0173496 0.0235884)
(-3.71717 -0.0308176 0.0210982)
(-8.46012 -0.00469683 0.00105806)
(-8.1923 -0.0197692 0.0231303)
(-8.49047 -0.012071 0.0252999)
(-8.46449 0.00114698 0.0280652)
(-8.27931 0.0339523 0.0283337)
(-8.48792 0.029076 0.0262802)
(-8.45369 -0.00240886 0.015746)
(-25.0057 -0.0679409 0.296011)
(-24.8609 0.00289692 0.321958)
(-24.9931 -0.0116287 0.297413)
(-24.9078 -0.0194199 0.29847)
(-24.822 -0.0233836 0.306241)
(-24.9964 -0.0106152 0.294038)
(-24.9942 0.0808436 0.291901)
(37.5246 -20.0022 -4.98003)
(37.6686 -25.4376 -20.6324)
(37.9118 -30.6641 -26.2224)
(38.1903 -23.7563 -37.0807)
(38.3349 -18.8664 -40.7056)
(38.1858 -9.71124 -38.9966)
(37.3239 9.64604 -16.9474)
(10.0662 -15.5761 -9.41585)
(10.1264 -10.0358 -18.4065)
(10.1884 -11.2243 -20.6944)
(10.1736 -9.6082 -23.4614)
(10.0735 -7.74745 -25.776)
(9.95307 -4.04789 -23.6156)
(9.83571 13.4206 -14.2133)
(3.55946 -8.76665 1.09565)
(3.66422 -4.28955 -7.6884)
(3.68637 -2.81922 -9.90259)
(3.6939 -0.759785 -10.8906)
(3.66247 0.921135 -11.0612)
(3.61974 2.63963 -8.72849)
(3.51692 9.3049 0.102592)
(-0.00470702 -2.83505 3.51727)
(-0.00469172 0.707412 1.50811)
(-0.00387817 1.18644 1.23285)
(-0.00446279 0.0813227 1.46486)
(-0.00517771 -0.942663 1.14368)
(-0.00603431 -0.450835 1.49167)
(-0.00731555 2.95373 3.63707)
(-3.57438 -9.81024 0.296495)
(-3.66269 -3.49585 -8.31054)
(-3.70011 -2.34359 -10.8807)
(-3.72648 0.424047 -10.5243)
(-3.7165 3.41333 -10.6575)
(-3.70251 5.00799 -8.43366)
(-3.61626 9.70597 0.832285)
(-9.95831 -16.3442 -13.1284)
(-10.0407 -4.5846 -22.9516)
(-10.1825 -2.9691 -27.9556)
(-10.2615 2.82469 -25.4202)
(-10.2371 7.28744 -24.5622)
(-10.2099 9.60306 -22.4083)
(-10.2063 16.8017 -10.949)
(-36.9558 -18.733 -16.1161)
(-37.5437 -4.52965 -38.2214)
(-38.0565 3.9855 -43.5317)
(-38.0894 9.60836 -39.8603)
(-37.9293 21.0327 -33.3548)
(-38.004 18.9686 -27.1296)
(-37.9914 19.5485 -8.68236)
(37.6997 -18.7529 14.9651)
(37.9803 -21.667 -12.8235)
(38.3561 -30.334 -26.9015)
(38.8594 -23.1079 -49.9073)
(39.0665 -21.7122 -63.9492)
(39.2184 -17.4204 -69.4812)
(39.1646 -0.620679 -59.1154)
(10.0516 -15.3478 11.5091)
(10.0525 -4.68337 -5.67689)
(10.2188 -9.63346 -10.4124)
(10.1544 -12.0388 -9.88857)
(9.97616 -16.9569 -14.5366)
(9.89684 -13.6535 -14.3608)
(9.87548 9.3111 1.77996)
(3.54744 -8.06982 11.9905)
(3.64363 -1.15029 8.12287)
(3.69869 -1.62283 6.9671)
(3.72741 -0.594384 7.3011)
(3.68437 -0.392433 6.78739)
(3.60835 -1.20039 7.72952)
(3.50304 8.22912 10.9375)
(-0.00530738 -1.35406 13.8957)
(-0.00615882 2.13998 12.3675)
(-0.00599263 2.01113 11.557)
(-0.00379496 -0.014364 11.7496)
(-0.0046167 -1.86598 11.6184)
(-0.00852672 -1.99039 12.5209)
(-0.012508 1.39082 14.2545)
(-3.5729 -9.0885 10.2427)
(-3.66235 -1.02558 7.88515)
(-3.72215 -1.50129 5.70229)
(-3.76018 0.401157 6.0585)
(-3.72149 2.67488 6.353)
(-3.68228 2.04511 7.76076)
(-3.60821 9.28211 11.6995)
(-9.89638 -15.6082 7.54345)
(-9.90266 6.87541 -14.4499)
(-10.1247 6.87565 -21.5129)
(-10.2807 3.68041 -17.8792)
(-10.2456 4.90675 -16.8358)
(-9.98899 1.53754 -7.90927)
(-10.167 17.6191 10.8956)
(-36.8433 -12.1403 3.38566)
(-38.1371 14.894 -53.5694)
(-38.6765 19.087 -60.9438)
(-38.6308 18.9261 -55.1271)
(-38.3285 24.1864 -37.9782)
(-38.2189 14.8367 -23.3536)
(-38.0934 17.6644 9.90578)
(37.7712 -14.021 24.5492)
(38.0697 -6.04771 -11.7829)
(38.2285 -13.1222 -28.0604)
(38.9428 -3.63416 -56.8849)
(39.1995 1.01248 -77.9584)
(39.5166 -3.7515 -87.5566)
(39.5416 2.14022 -82.503)
(9.92938 -12.1131 19.7851)
(10.1173 -3.49696 -10.4825)
(10.1629 -14.5495 -10.6863)
(10.042 -16.9776 -9.37811)
(10.0126 -18.8348 -18.8709)
(10.0269 -13.0933 -26.6771)
(10.0576 -1.55464 -21.6017)
(3.47776 -5.7456 22.8583)
(3.57526 1.17469 13.4855)
(3.69487 0.698489 12.3324)
(3.74013 0.227125 13.0836)
(3.69431 -1.22845 13.099)
(3.56404 -3.24677 13.6218)
(3.44896 4.58316 21.4017)
(-0.00447743 -0.459875 19.6092)
(-0.00492382 2.37288 17.088)
(-0.0065573 2.05536 16.2389)
(-0.00368614 0.0229085 16.3485)
(-0.000621492 -1.6281 16.3096)
(-0.00116373 -1.99909 17.7761)
(-0.00402777 0.660565 20.4655)
(-3.49254 -7.05055 21.6458)
(-3.62751 1.06302 12.1882)
(-3.72381 -0.519149 11.9528)
(-3.76419 -0.563629 12.5037)
(-3.70453 0.000228671 12.1596)
(-3.57741 -0.491183 14.0202)
(-3.52454 7.02746 22.994)
(-9.62447 -5.68017 11.4789)
(-9.74366 10.3374 -19.0429)
(-9.96001 14.7277 -24.889)
(-10.185 10.1806 -18.5455)
(-10.2898 8.71861 -19.0132)
(-9.99831 -1.15571 -15.1249)
(-10.0101 14.0517 20.4386)
(-38.352 8.79257 -47.3662)
(-39.0561 9.38459 -79.7733)
(-39.2911 11.1817 -78.8526)
(-39.2859 9.43947 -68.5474)
(-38.7483 17.1317 -42.8791)
(-38.3101 7.67708 -25.3749)
(-38.003 13.5102 15.7092)
(37.0002 -6.9785 28.1642)
(38.0781 2.97116 -5.99239)
(38.2407 -6.7757 -24.5964)
(39.1883 6.49377 -60.3462)
(39.2874 12.5369 -80.128)
(39.3869 7.64811 -92.6062)
(39.6194 9.00381 -88.214)
(9.47795 -5.9655 21.3223)
(10.2643 -5.16501 -8.88744)
(10.1707 -14.2638 -7.84201)
(10.2113 -12.6849 -12.8402)
(10.3877 -10.9217 -32.2741)
(10.4335 -8.80011 -44.0793)
(10.5867 -0.319797 -57.6148)
(3.40199 -1.64819 25.0111)
(3.55325 2.5241 13.5349)
(3.6897 2.51954 14.8666)
(3.76407 2.28864 17.1039)
(3.72589 -1.10208 17.8241)
(3.5766 -3.10179 18.8936)
(3.50503 0.797933 21.8848)
(-0.00703511 -0.00274678 23.9858)
(-0.00746781 1.7712 21.0964)
(-0.0079901 1.5138 19.7608)
(-0.00146277 0.309242 19.4988)
(0.0069033 -0.789212 20.2048)
(0.0136213 -1.07881 21.6627)
(0.0177313 0.289394 24.8471)
(-3.41765 -1.68232 25.4066)
(-3.53772 3.32684 17.5664)
(-3.72423 0.566371 15.4983)
(-3.75906 -2.08439 16.1616)
(-3.69904 -1.91096 13.3594)
(-3.54402 -3.01626 13.8625)
(-3.41523 2.50644 24.8114)
(-9.75907 2.46968 -8.95653)
(-9.93354 12.9886 -24.2256)
(-10.0656 16.1938 -25.3022)
(-10.1694 15.7938 -17.3456)
(-10.3098 14.3412 -14.0123)
(-10.3301 2.0137 -16.2693)
(-9.42734 6.69759 21.3197)
(-39.1871 2.70356 -77.7745)
(-39.4324 -1.2886 -88.3024)
(-39.522 -4.5005 -82.7424)
(-39.4826 -7.76247 -73.0208)
(-38.9078 6.9404 -41.5493)
(-38.342 1.60634 -21.0873)
(-36.5156 5.77322 19.7065)
(35.7953 -2.10566 20.7715)
(38.0747 4.96712 -6.85301)
(38.7938 -3.57638 -35.4268)
(39.488 15.3537 -86.0054)
(39.3721 16.2088 -91.4511)
(39.3847 11.9472 -99.3893)
(39.694 10.9811 -92.8487)
(9.40285 0.835981 12.6168)
(10.3329 -2.68552 -8.54997)
(10.3047 -4.25605 -13.385)
(10.4184 -2.36594 -21.1793)
(10.5219 -3.40094 -31.0265)
(10.5028 -5.54394 -42.1912)
(10.7527 7.17157 -62.0022)
(3.40134 1.26052 21.8681)
(3.55122 3.82836 13.9556)
(3.70189 5.06662 15.7618)
(3.78345 4.27624 19.482)
(3.75155 0.47516 19.5102)
(3.57724 -2.12101 21.184)
(3.50736 -0.425748 23.1265)
(-0.0172034 0.838495 24.6117)
(-0.0148183 1.62441 23.07)
(-0.0090629 1.13851 22.9922)
(0.00226531 0.684021 23.6456)
(0.0134781 0.148168 23.088)
(0.0241555 -0.451035 23.3857)
(0.0304213 -0.268227 25.1011)
(-3.46983 -0.180183 22.1107)
(-3.5588 3.73714 18.5061)
(-3.74667 1.20397 17.3854)
(-3.77662 -3.06002 17.5009)
(-3.70559 -4.59883 14.681)
(-3.53358 -4.54311 13.7432)
(-3.41296 -1.84603 20.1584)
(-10.4548 2.86995 -49.275)
(-10.4189 12.0388 -42.5472)
(-10.4313 13.4112 -34.9457)
(-10.4171 14.4746 -24.8657)
(-10.3815 10.1839 -12.4762)
(-10.4176 6.04054 -13.4375)
(-9.51875 -3.71589 6.53386)
(-39.4682 -7.28061 -82.2419)
(-39.4082 -12.0704 -89.3213)
(-39.3914 -18.3503 -89.6716)
(-39.5306 -18.5797 -83.7693)
(-39.2767 -0.317169 -50.8467)
(-38.4793 1.09105 -20.3723)
(-36.034 -2.59082 10.876)
(35.861 1.3159 8.88828)
(38.296 3.03118 -12.5054)
(39.3117 -2.5847 -67.9562)
(39.3601 16.4913 -96.0926)
(39.4953 17.9706 -95.3494)
(39.5149 17.2162 -99.1872)
(39.7413 15.4194 -93.4752)
(9.94025 2.96904 3.55703)
(10.4786 -0.0497385 -9.20366)
(10.5343 1.03095 -19.2128)
(10.5413 0.00916395 -18.2777)
(10.5006 -0.905855 -21.678)
(10.4044 -5.65398 -32.8482)
(10.7773 12.0891 -59.2776)
(3.47417 3.17365 17.7143)
(3.59445 5.06341 14.8395)
(3.72074 7.04145 16.6865)
(3.77999 7.13116 22.2953)
(3.76585 3.46091 22.4828)
(3.60263 -0.684767 21.8649)
(3.55098 -0.773388 21.8665)
(-0.0129565 1.00037 26.7232)
(-0.00925568 1.22148 26.7835)
(-0.00286307 0.580192 26.3193)
(0.00284751 0.327151 26.3063)
(0.00750072 0.398026 26.1275)
(0.0178039 -0.0285136 26.6831)
(0.0260845 -0.519305 26.5374)
(-3.50787 0.951404 20.7808)
(-3.57421 2.8331 20.7868)
(-3.7547 -0.331203 22.4231)
(-3.77914 -5.59763 21.9894)
(-3.7349 -7.15652 16.8238)
(-3.59008 -5.59465 14.3727)
(-3.52506 -2.9753 14.173)
(-10.7148 0.0312628 -53.7212)
(-10.5919 8.08938 -43.169)
(-10.6089 6.62595 -33.0799)
(-10.6057 8.38384 -24.1995)
(-10.5703 2.8836 -18.8385)
(-10.5292 3.44437 -13.7335)
(-10.2609 -1.81997 -3.53941)
(-39.6057 -11.389 -83.0003)
(-39.4998 -16.6199 -93.8922)
(-39.5064 -22.6125 -94.5874)
(-39.3846 -19.5672 -91.4047)
(-39.5385 -14.5345 -83.2922)
(-38.6156 1.87688 -26.898)
(-37.3672 -5.50888 -0.606842)
(37.6398 -1.81048 0.850321)
(39.0034 -17.1215 -32.5797)
(39.6251 5.2878 -95.8133)
(39.2563 14.0752 -99.9569)
(39.4519 21.628 -95.2061)
(39.4005 19.4898 -92.1446)
(39.6186 19.7093 -80.6204)
(10.369 -0.870634 -1.56729)
(10.5676 -2.58574 -13.6456)
(10.6091 -2.90735 -21.3666)
(10.5349 -2.76216 -19.0268)
(10.4772 -5.06888 -19.7728)
(10.4039 -8.0645 -31.3045)
(10.751 11.6016 -50.5209)
(3.65502 2.3152 17.551)
(3.76481 3.95166 15.8158)
(3.78513 6.15705 17.275)
(3.80427 6.49155 22.3972)
(3.79108 2.88163 22.3117)
(3.66138 -0.484746 20.172)
(3.59787 -0.169408 16.55)
(0.0121159 1.03841 26.3513)
(0.00596475 1.55058 26.7979)
(0.00916434 0.953084 28.153)
(0.00603261 -0.387483 27.752)
(-0.0006141 0.178344 28.0085)
(0.000215725 0.468214 27.4541)
(0.00911033 0.0108309 27.0623)
(-3.56416 2.49757 11.1805)
(-3.60431 3.13424 14.1695)
(-3.78338 -0.115167 21.5629)
(-3.7912 -5.42096 21.8138)
(-3.76205 -6.96646 17.1253)
(-3.72391 -4.45257 14.3575)
(-3.66436 -1.88393 13.4283)
(-10.7151 -5.3981 -50.9093)
(-10.5216 5.5886 -38.8258)
(-10.5566 6.09098 -23.5669)
(-10.5613 2.36594 -16.2651)
(-10.5966 1.47131 -21.0897)
(-10.5665 1.64895 -20.7744)
(-10.4617 2.78701 -9.24061)
(-39.5452 -16.805 -72.5932)
(-39.5038 -25.0493 -87.7185)
(-39.4743 -26.4891 -92.1746)
(-39.3207 -20.9771 -92.8032)
(-39.4185 -19.3945 -93.9675)
(-39.2427 10.3475 -56.6054)
(-38.3232 4.79074 -12.5145)
(38.4474 -14.8991 14.0909)
(39.4187 4.95252 -70.4128)
(39.7134 18.9231 -100.308)
(40.053 20.1762 -90.4371)
(40.0615 24.3745 -76.5405)
(40.0295 19.8058 -62.6939)
(40.1847 15.8236 -40.0339)
(10.5839 -8.16042 5.47585)
(10.7055 -5.83609 -8.61705)
(10.7323 -5.74591 -12.1644)
(10.7062 -7.40348 -17.3739)
(10.635 -7.33856 -18.5686)
(10.7894 -6.76764 -37.1894)
(10.9117 12.0869 -45.1525)
(3.77942 0.473922 16.2891)
(3.81244 1.72073 16.7489)
(3.82685 1.73912 18.5243)
(3.8676 0.236691 21.4737)
(3.79327 -3.94846 18.0677)
(3.73775 -8.57243 6.79982)
(3.79512 -4.18697 -11.6348)
(0.0231358 1.02218 24.6038)
(0.0176198 1.32666 26.7255)
(0.00905068 0.449838 27.0937)
(-0.001705 -0.0898128 27.0565)
(-0.0192952 -0.379228 25.6575)
(-0.0315281 -0.545133 25.1258)
(-0.0284047 -0.381923 23.8148)
(-3.8981 0.198882 -11.1389)
(-3.77745 10.3935 8.21402)
(-3.79547 6.73125 18.8189)
(-3.8429 -0.150458 19.7786)
(-3.80415 -2.86728 15.9914)
(-3.78695 -2.85496 12.6394)
(-3.78093 -0.331889 11.7246)
(-11.0084 -13.0906 -38.6901)
(-10.7926 -4.09652 -35.643)
(-10.6513 0.185664 -19.4777)
(-10.6799 0.508113 -13.6619)
(-10.7341 -0.0399614 -15.2316)
(-10.7312 0.78138 -14.1383)
(-10.5656 7.96672 -0.98403)
(-39.997 -15.222 -32.6845)
(-39.9705 -24.7617 -55.0258)
(-39.7836 -30.4953 -63.7908)
(-39.8629 -31.1915 -72.2141)
(-39.8461 -26.5962 -85.4675)
(-40.2444 -22.6551 -92.1965)
(-38.5353 8.01058 -6.7694)
(38.2854 -14.2308 10.7628)
(39.4464 17.2686 -105.331)
(39.5908 17.5516 -106.088)
(39.9098 22.2543 -97.8726)
(40.0761 25.5939 -82.157)
(40.3559 15.6461 -64.7725)
(40.2913 13.5424 -37.0281)
(10.5499 -6.93292 8.61764)
(10.7677 -2.15842 -4.10844)
(10.7149 -5.36212 0.93568)
(10.6304 -12.1292 7.39373)
(10.6459 -16.1308 -3.01018)
(10.9234 -0.275847 -34.4612)
(11.0114 11.6804 -41.4829)
(3.79512 -0.225472 18.2474)
(3.8569 1.10466 19.2892)
(3.88753 0.426195 22.1612)
(3.89446 -3.87009 24.4077)
(3.82355 -11.7581 21.4977)
(3.84289 -9.94576 1.87358)
(3.92122 0.058601 -11.8941)
(0.00802725 0.662992 25.8702)
(0.000745422 0.640948 28.1228)
(0.00473705 -0.157035 29.188)
(-0.000236259 -0.693699 29.0998)
(-0.0145947 -0.447234 28.0642)
(-0.0326988 -0.695295 27.3892)
(-0.0401239 -0.502141 25.8289)
(-4.01487 -3.52763 -21.3145)
(-3.91034 5.12399 -9.75657)
(-3.83692 11.6624 16.4859)
(-3.87056 2.83496 23.9396)
(-3.85835 -1.54383 20.0503)
(-3.84481 -1.68189 16.6714)
(-3.8066 1.09492 15.1965)
(-11.0144 -13.8893 -36.6143)
(-10.8917 -11.2382 -26.6244)
(-10.6264 5.44148 -1.51873)
(-10.6614 4.72198 6.91268)
(-10.7798 -0.27624 -0.884343)
(-10.7508 -2.16989 -12.5702)
(-10.5169 5.23722 1.34)
(-40.1379 -13.5345 -30.9008)
(-40.2341 -20.6147 -54.8264)
(-40.0724 -30.6512 -65.8319)
(-40.0378 -32.396 -74.0895)
(-39.8402 -28.8218 -90.1845)
(-40.1739 -24.6852 -108.283)
(-39.5081 -17.8181 -53.369)
(37.8236 -10.7454 7.41193)
(39.5296 19.9646 -104.408)
(39.6172 22.821 -107.895)
(40.1322 27.0031 -98.3516)
(40.2458 20.5296 -75.2331)
(40.3873 3.86766 -48.4233)
(40.4503 6.79802 -33.6473)
(10.4616 -8.45764 9.55617)
(10.7272 -4.18215 -4.55061)
(10.7251 -7.56358 0.838396)
(10.6491 -10.1191 4.90631)
(10.7686 -6.93637 -12.5079)
(10.956 13.53 -38.2509)
(11.0498 15.6689 -41.3582)
(3.79014 -2.34558 21.8878)
(3.8562 -1.09205 21.8843)
(3.89362 -1.73141 26.4679)
(3.86461 -8.52045 28.7822)
(3.84129 -14.698 16.1887)
(3.95307 -5.99914 -14.598)
(4.00753 6.06869 -24.0801)
(-0.0033985 0.759368 28.5457)
(-0.0188454 -0.0406282 32.1143)
(-0.0101351 -0.688212 32.7932)
(-0.00700087 -0.706189 33.6913)
(-0.0163229 -1.00362 31.7426)
(-0.0311735 -0.192033 31.4805)
(-0.0509878 -0.347163 29.41)
(-4.05484 -11.3312 -20.9594)
(-4.01518 0.832129 -10.665)
(-3.85392 9.76498 14.7422)
(-3.85666 6.61859 27.6988)
(-3.9093 1.29871 25.6525)
(-3.90795 0.169505 20.6898)
(-3.83847 2.61939 21.9509)
(-11.0119 -21.3756 -26.2231)
(-10.9152 -21.7722 -21.811)
(-10.8401 -10.2425 -7.48109)
(-10.849 -4.98602 -3.17058)
(-10.9346 -2.79606 -8.22963)
(-10.8662 -0.33479 -21.9909)
(-10.5477 0.110647 -1.28048)
(-40.2592 -11.5124 -16.3179)
(-40.2852 -14.0289 -29.5675)
(-40.3419 -24.3898 -45.3653)
(-40.3082 -22.5622 -63.5012)
(-40.248 -16.9871 -89.1534)
(-40.3204 0.604579 -127.217)
(-40.1366 -32.1536 -130.299)
(38.1669 27.8084 -16.7648)
(39.7703 21.6216 -106.355)
(39.379 27.3752 -108.33)
(40.1438 30.4187 -83.1932)
(40.2239 13.7928 -47.6613)
(40.3671 0.433075 -31.1725)
(40.6137 7.28803 -29.5847)
(10.3156 -7.3335 14.4049)
(10.7212 -2.75058 -9.59666)
(10.8159 1.12969 -6.79085)
(10.8293 7.66723 -8.51094)
(10.836 22.7412 -24.16)
(10.8301 27.9246 -31.1319)
(10.9341 24.3609 -31.3394)
(3.80392 -3.06703 27.3953)
(3.87045 -1.76204 27.0098)
(3.88423 -6.12416 30.974)
(3.84452 -10.7231 27.0743)
(3.86534 -10.5167 10.7974)
(3.98147 -0.841375 -6.27855)
(3.9799 15.9327 -19.537)
(-0.00175174 0.0697081 29.7458)
(-0.022715 1.63979 35.2861)
(-0.0292407 -0.749929 37.8103)
(-0.0288922 -1.19208 38.4641)
(-0.0225921 -1.47189 37.8125)
(-0.0258851 -2.22351 36.6088)
(-0.0507201 -0.353895 30.4205)
(-4.05633 -19.2912 -7.6774)
(-4.03572 -0.163942 7.59518)
(-3.92248 4.51539 15.5353)
(-3.88653 5.69822 27.6371)
(-3.92161 3.13047 30.5809)
(-3.92751 1.18001 27.9962)
(-3.83142 2.38284 27.1601)
(-11.029 -27.2477 -10.4973)
(-10.9717 -30.2567 -24.2067)
(-10.9316 -34.2949 -36.1318)
(-10.9336 -27.9017 -50.1697)
(-11.0129 -18.837 -45.0652)
(-10.9191 -0.675875 -24.0589)
(-10.5365 -4.58343 -6.89856)
(-40.4274 -9.82065 2.1701)
(-40.4276 -13.5211 -9.06405)
(-40.4392 -23.2038 -29.3308)
(-40.4115 -15.2888 -57.0603)
(-40.6419 -12.5235 -85.3013)
(-40.3459 32.98 -138.545)
(-40.0936 2.78582 -151.855)
(39.5618 109.213 -121.081)
(39.6524 20.3801 -138.11)
(40.2083 25.6882 -111.078)
(40.5803 25.8531 -62.6283)
(40.3032 21.0765 -36.1502)
(40.4027 10.5579 -21.6145)
(40.5708 19.7531 -5.02932)
(10.3458 -1.43338 22.2895)
(10.7642 -2.19805 -15.2801)
(10.9173 27.5671 -28.5526)
(10.8355 43.6076 -49.66)
(10.7326 48.8807 -44.5941)
(10.762 43.6397 -38.4654)
(10.9004 35.271 -20.0745)
(3.83554 -3.06491 27.3882)
(3.91547 -5.55566 30.1596)
(3.90524 -7.15433 31.0536)
(3.86159 -6.72166 23.9991)
(3.91201 -2.65617 15.1641)
(3.99067 -3.34461 12.868)
(3.97541 22.9268 -2.83977)
(-0.0148541 1.01134 31.0392)
(-0.0273344 1.95245 36.1935)
(-0.0346086 -0.45942 37.7981)
(-0.0203207 -0.989172 38.1114)
(0.00497088 -0.995413 39.3196)
(0.00873847 -2.75519 38.4415)
(-0.017273 -1.57328 33.3038)
(-4.10217 -20.5417 6.14909)
(-4.09486 1.24583 15.4977)
(-4.03505 2.39095 21.0779)
(-3.95289 3.69138 28.5775)
(-3.8998 2.91611 29.5914)
(-3.87745 4.65448 28.0805)
(-3.79068 3.72375 26.5471)
(-11.1095 -27.8434 -3.10732)
(-11.1061 -29.525 -29.8511)
(-11.0996 -36.6589 -45.6874)
(-11.0252 -30.8444 -69.3876)
(-10.9715 -34.1526 -78.6917)
(-10.8036 -19.5766 -23.6565)
(-10.4408 0.260491 -8.28623)
(-40.5234 -16.0099 15.8703)
(-40.5534 -13.1501 0.0406772)
(-40.7427 -25.7077 -25.2699)
(-40.9 -20.7657 -60.8676)
(-41.1387 -14.7996 -101.509)
(-40.5268 46.3468 -129.718)
(-40.0691 31.9496 -138.208)
(38.9524 120.054 -152.183)
(39.8849 -67.4961 -166.747)
(41.1769 9.0513 -97.5267)
(41.0817 26.618 -58.9418)
(40.7601 21.6178 -37.2245)
(40.7037 -0.0927812 -12.2494)
(40.5309 16.6575 17.7643)
(10.3783 -7.54249 24.1082)
(10.997 18.8716 -37.5612)
(11.0038 58.9792 -77.1794)
(11.0122 51.7951 -72.2831)
(11.0133 53.9582 -55.6401)
(11.0217 42.9302 -39.8822)
(11.0239 31.7084 -8.32685)
(3.86613 -6.40699 24.5616)
(3.9335 -8.77786 25.9437)
(3.94461 -4.89195 28.6308)
(3.91986 -2.49966 28.512)
(3.99335 -2.31409 25.1991)
(4.06696 0.400502 14.5157)
(4.04903 21.5554 6.31931)
(-0.0414353 -1.24174 32.8341)
(-0.0421703 0.542026 35.8131)
(-0.0295972 -0.927062 37.9057)
(0.00886552 -0.527807 38.2595)
(0.0604459 0.399487 38.8222)
(0.0722879 -1.29346 38.3258)
(0.0417531 1.20178 36.1132)
(-4.13636 -17.1886 13.0839)
(-4.11938 -0.502561 23.5073)
(-4.04928 -4.27892 29.2084)
(-3.98083 -4.13921 31.2381)
(-3.87386 -0.678618 23.0834)
(-3.81123 11.142 20.6002)
(-3.78103 11.2825 25.3764)
(-11.1868 -22.2285 0.60296)
(-11.2049 -16.773 -21.4775)
(-11.2108 -21.1768 -28.3686)
(-11.2803 -13.2818 -70.8064)
(-11.1268 -19.9094 -96.234)
(-10.7446 -51.9938 -64.7771)
(-10.4123 11.7554 -16.3738)
(-40.4367 -12.2004 31.2566)
(-40.6414 5.67344 11.7697)
(-41.0709 -14.2738 -27.5777)
(-41.3794 -11.8934 -76.3781)
(-41.1975 24.8811 -128.722)
(-39.8774 68.6551 -126.116)
(-39.9332 38.0811 -114.081)
(38.5746 136.221 -164.775)
(38.8806 -113.178 -129.824)
(41.0837 -55.0357 -60.8077)
(41.006 -30.8886 -3.40304)
(40.4678 -38.5747 32.6713)
(40.473 -39.1593 36.099)
(40.7284 -45.0518 23.4736)
(10.7409 31.0063 -2.63145)
(10.5879 91.088 -80.1605)
(10.8175 76.425 -91.6107)
(11.2065 42.8827 -80.7852)
(11.1903 41.6586 -41.138)
(11.1773 25.8321 -17.9606)
(11.133 20.6707 24.512)
(3.99915 5.61594 -5.76871)
(4.01006 -1.06031 -16.8721)
(4.0082 8.00057 -11.9974)
(4.03672 17.7777 13.7225)
(4.07552 14.3186 28.2695)
(4.0939 11.9538 26.1961)
(4.06177 18.5376 37.0567)
(-0.0630055 -0.611597 43.4291)
(-0.0642024 -2.92432 37.8221)
(-0.053827 -4.35724 38.3623)
(-0.00460407 1.20206 39.7773)
(0.0957706 3.67055 40.4176)
(0.108221 3.25799 40.5896)
(0.0569088 1.49835 50.4839)