/*--------------------------------*- C++ -*----------------------------------*\
  =========                 |
  \\      /  F ield         | OpenFOAM: The Open Source CFD Toolbox
   \\    /   O peration     | Website:  https://openfoam.org
    \\  /    A nd           | Version:  6
     \\/     M anipulation  |
\*---------------------------------------------------------------------------*/
FoamFile
{
    version     2.0;
    format      ascii;
    class       volScalarField;
    location    "0.0075";
    object      O2;
}
// * * * * * * * * * * * * * * * * * * * * * * * * * * * * * * * * * * * * * //

dimensions      [0 0 0 0 0 0 0];

internalField   nonuniform List<scalar> 
3773
(
0
0
0
0
0
0
0
0
0
0
0
0
0
0
0
0
0
0
0
0
0
0
0
0
0
0
0
0
0
0
0
0
0
0
0
0
0
0
0
0
0
0
0
0
0
0
0
0
0
0
0
0
0
0
0
0
0
0
0
0
0
0
0
0
0
0
0
0
0
0
0
0
0
0
0
0
0
0
0
0
0
0
0
0
0
0
0
0
0
0
0
0
0
0
0
0
0
0
0
0
0
0
0
0
0
0
0
0
0
0
0
0
0
0
0
0
0
0
0
0
0
0
0
0
0
0
0
0
0
0
0
0
0
0
0
0
0
0
0
0
0
0
0
0
0
0
0
0
0
0
0
0
0
0
0
0
0
0
0
0
0
0
0
0
0
0
0
0
0
0
0
0
0
0
0
0
0
0
0
0
0
0
0
0
0
0
0
0
0
0
0
0
0
0
0
0
0
0
0
0
0
0
0
0
0
0
0
0
0
0
0
0
0
0
0
0
0
0
0
0
0
0
0
0
0
0
0
0
0
0
0
0
0
0
0
0
0
0
0
0
0
0
0
0
0
0
0
0
0
0
0
0
0
0
0
0
0
0
0
0
0
0
0
0
0
0
0
0
0
0
0
0
0
0
0
0
0
0
0
0
0
0
0
0
0
0
0
0
0
0
0
0
0
0
0
0
0
0
0
0
0
0
0
0
0
0
0
0
0
0
0
0
0
0
0
0
0
0
0
0
0
0
0
0
0
0
0
0
0
0
0
0
0
0
0
0
0
0
0
0
0
0
0
0.00152706
0.000528263
0.000490741
0.000498108
0.000647689
0.000760097
0.0017066
0.0030237
0.00123483
0.000843362
0.000737519
0.000927694
0.00144724
0.00338343
0.00624503
0.00537331
0.00497342
0.0048195
0.00507397
0.00558913
0.00636108
0.00861542
0.00849887
0.00898081
0.00928584
0.00894736
0.00854462
0.0086628
0.00597112
0.00488068
0.00435744
0.00418106
0.00439616
0.00492699
0.00592052
0.00249069
0.00105541
0.000728608
0.000642003
0.000713957
0.00103152
0.00242412
0.00147784
0.000677686
0.000598661
0.000476745
0.000452643
0.000495877
0.00139248
0.000990876
6.88331e-07
3.46669e-08
4.64022e-08
4.40147e-08
3.60754e-07
0.00105413
0.00225062
0.000130762
1.93265e-06
2.63252e-07
1.46639e-06
0.00014049
0.00218627
0.00361675
0.00258148
0.00206372
0.00194905
0.00206737
0.00253042
0.00362415
0.00444523
0.00414348
0.00422494
0.00403233
0.00420144
0.00413454
0.0044249
0.00387457
0.00265865
0.00188529
0.00185863
0.00202444
0.00282903
0.00377864
0.00203933
4.70717e-05
8.17455e-07
7.44454e-07
1.68311e-06
0.000109314
0.00215474
0.00100032
1.13659e-06
2.57412e-07
1.57215e-07
5.59776e-08
1.62941e-07
0.000913054
0.00032328
1.41298e-06
4.67065e-08
7.5438e-08
1.15301e-07
2.15119e-06
0.000378039
0.000875712
5.11864e-05
5.63366e-07
2.45374e-07
1.30133e-07
8.26285e-06
0.000935643
0.00168041
0.00108383
0.000789941
0.000736415
0.000833695
0.00113575
0.00174449
0.00219625
0.00189556
0.00175901
0.00180046
0.00170186
0.0020892
0.00240286
0.00186689
0.00100415
0.000828872
0.000769842
0.000879197
0.00107393
0.00189761
0.00111259
3.28588e-06
1.37488e-06
1.24635e-06
3.79865e-06
0.000105079
0.0010301
0.000585412
5.51577e-06
5.42525e-07
2.24269e-07
8.24789e-08
1.94864e-07
0.000355177
6.45776e-05
1.86576e-06
9.91536e-08
1.71648e-07
2.82996e-07
7.22373e-06
9.98465e-05
0.000300071
2.32812e-05
5.55654e-07
4.18691e-07
1.64514e-07
2.01415e-05
0.000378086
0.000489185
0.000374852
0.000290783
0.000279529
0.000311729
0.000449108
0.000549457
0.00109864
0.000999953
0.000800692
0.00101977
0.000778837
0.000934066
0.000994019
0.000865661
0.00051459
0.000322865
0.000299796
0.000340348
0.000456121
0.000688875
0.000460104
6.98149e-05
2.78023e-06
1.62648e-06
1.36337e-06
4.04515e-05
0.000378858
0.000167759
1.46063e-05
8.80894e-07
3.10097e-07
1.31121e-07
1.53027e-07
7.19873e-05
2.3598e-09
5.96775e-08
1.68811e-07
3.0188e-07
7.16559e-08
3.08633e-08
6.33822e-07
2.86704e-05
1.52476e-06
3.55342e-07
1.28893e-06
5.59433e-07
4.09649e-06
4.56342e-05
0.000130974
9.44911e-05
0.000101655
0.000106454
0.000113162
0.000127128
0.000154222
0.000472449
0.000463802
0.000403742
0.000563341
0.000415729
0.000410645
0.000409243
0.000216658
0.000159437
0.00011542
0.000110251
9.62346e-05
0.000133655
0.000160482
0.000133394
2.07017e-05
2.59554e-06
2.87428e-06
6.62265e-07
2.5589e-06
5.50421e-05
1.63599e-05
1.419e-06
2.33989e-07
4.04087e-07
1.81962e-07
5.49531e-08
3.57764e-09
4.60589e-09
9.60783e-08
2.07868e-07
4.14889e-07
1.32567e-07
1.24995e-08
0
2.47457e-07
1.02034e-07
8.18935e-07
2.93864e-06
7.77589e-07
6.46862e-08
7.92758e-07
3.48438e-05
2.90153e-05
3.43452e-05
4.29746e-05
4.08643e-05
3.822e-05
4.16872e-05
0.000220818
0.000194751
0.00021599
0.000265667
0.000233799
0.000219672
0.000193901
4.95569e-05
4.24933e-05
3.8128e-05
4.11256e-05
2.91251e-05
3.23469e-05
3.75853e-05
4.596e-06
4.34183e-07
6.09503e-07
2.99824e-06
1.01862e-06
1.45401e-07
1.16363e-06
0
1.39989e-08
8.58501e-08
5.10372e-07
2.24473e-07
9.68505e-08
4.20589e-09
0
1.23834e-07
2.02123e-07
2.50873e-07
1.30857e-07
2.79061e-08
0
6.55753e-08
3.33193e-07
9.38606e-07
1.89612e-06
7.49272e-07
7.95293e-08
0
2.15184e-05
1.24597e-05
1.45967e-05
1.69319e-05
1.30087e-05
9.31569e-06
1.71588e-05
0.000148767
0.00010055
7.01757e-05
8.56489e-05
7.58862e-05
9.78809e-05
0.000121365
2.09403e-05
9.86596e-06
1.18019e-05
1.49609e-05
1.11046e-05
1.21321e-05
2.05845e-05
0
5.20088e-08
4.8776e-07
1.52877e-06
7.59305e-07
2.96619e-07
1.86415e-07
0
1.62451e-08
6.44877e-08
1.6905e-07
1.46653e-07
1.10196e-07
0
0
2.02843e-09
5.69514e-09
1.60859e-09
1.84506e-11
1.42921e-12
0
0
6.41843e-08
1.61132e-07
1.01251e-07
1.57252e-08
4.40276e-12
0
0
2.45412e-06
2.28286e-06
3.30726e-06
9.96368e-07
3.73401e-07
0
0
2.0234e-05
1.73061e-05
2.35496e-05
1.95768e-05
2.15944e-05
0
0
3.72178e-07
5.51681e-07
2.23904e-06
2.14433e-06
1.9535e-06
0
0
6.47324e-12
7.5076e-10
9.80689e-08
1.77897e-07
6.27123e-08
0
0
2.5106e-13
1.64252e-11
5.73957e-10
7.65593e-09
2.47017e-09
0
6.94375e-11
3.31493e-09
1.36417e-08
4.13969e-09
6.69348e-11
8.8787e-13
7.02341e-14
1.0588e-09
2.22999e-08
6.26308e-08
6.0035e-08
2.98555e-09
4.3124e-12
6.97123e-13
1.70721e-11
4.79059e-07
5.34915e-07
6.48075e-07
1.69815e-07
2.82457e-08
2.36568e-13
4.94535e-11
4.60071e-06
5.23322e-06
5.41983e-06
4.38504e-06
4.72958e-06
5.55723e-11
4.50944e-13
3.88766e-08
9.03265e-08
5.44197e-07
5.05697e-07
3.67332e-07
6.45448e-11
1.07125e-12
9.28151e-12
1.45524e-09
6.133e-08
5.82962e-08
1.31875e-08
5.73912e-10
7.59676e-14
2.39772e-13
2.98464e-11
8.41172e-10
7.63108e-09
2.45747e-09
1.01603e-10
3.75561e-11
1.07219e-09
4.92607e-09
1.69346e-09
1.56551e-10
3.61719e-12
2.19744e-13
4.74634e-10
7.84063e-09
2.66189e-08
2.37529e-08
1.0709e-09
1.62876e-11
2.04713e-12
1.33689e-09
1.43683e-07
2.08282e-07
2.04043e-07
2.20984e-08
5.87948e-10
2.12277e-13
6.33129e-11
1.44646e-06
2.06046e-06
1.54005e-06
1.67469e-06
1.66224e-06
8.50902e-11
5.03987e-13
6.04231e-10
2.63293e-08
1.82421e-07
1.71858e-07
8.04545e-08
1.41766e-09
3.1919e-12
3.63489e-11
1.15121e-09
2.16714e-08
1.84879e-08
4.72988e-09
3.22078e-10
1.57719e-13
8.59901e-13
8.40489e-12
8.01121e-11
6.11895e-10
6.6737e-10
3.75971e-11
1.13e-11
4.93452e-10
1.44093e-09
2.83918e-10
4.28661e-11
4.35399e-12
5.43487e-13
2.1059e-10
3.95329e-09
8.04286e-09
4.28531e-09
8.27838e-10
4.99095e-11
6.12558e-12
2.21641e-09
3.95371e-08
4.54272e-08
3.13193e-08
1.08515e-08
4.15633e-09
9.45011e-13
1.37619e-10
2.80417e-07
7.33375e-07
6.67047e-07
5.52311e-07
3.32094e-07
1.23713e-10
1.60426e-12
3.35838e-09
2.26518e-08
3.45079e-08
4.8714e-08
2.51109e-08
1.61903e-09
9.80608e-12
7.31915e-11
1.08401e-09
4.26366e-09
5.64773e-09
2.44575e-09
2.12493e-10
5.85985e-13
1.25692e-12
7.27561e-12
2.70322e-11
1.45814e-10
2.28833e-10
1.22621e-11
5.97216e-12
1.49442e-10
1.21438e-10
1.97424e-11
4.50906e-12
1.27186e-12
6.20677e-13
1.19092e-10
7.75629e-10
1.26105e-09
9.01869e-10
3.70616e-10
5.16042e-11
9.03049e-12
1.14753e-09
6.66051e-09
1.0175e-08
7.07617e-09
6.01034e-09
2.70745e-09
2.61477e-12
9.28621e-11
3.69616e-08
1.53246e-07
2.47915e-07
1.19094e-07
4.97549e-08
6.42235e-11
2.8493e-12
1.79363e-09
8.45162e-09
7.76595e-09
6.55319e-09
2.68461e-09
6.06596e-10
1.18289e-11
3.31415e-11
1.74651e-10
8.93468e-10
7.12407e-10
3.22765e-10
7.50634e-11
1.79124e-12
2.79296e-12
9.99636e-12
2.99015e-11
1.18533e-11
1.41228e-11
5.54006e-12
3.78341e-12
1.27983e-11
4.31961e-12
3.59157e-12
2.28659e-12
1.11287e-12
8.73523e-13
3.17584e-11
6.83926e-11
2.13928e-11
6.93973e-11
6.93295e-11
2.83235e-11
7.461e-12
1.75235e-10
3.29302e-10
2.33069e-10
6.74579e-10
1.00771e-09
6.98732e-10
5.69717e-12
6.32716e-11
9.52139e-09
3.35325e-08
4.48452e-08
2.4447e-08
1.19993e-08
4.11928e-11
7.50803e-12
4.7147e-10
1.35768e-09
4.63574e-10
7.84411e-11
7.25244e-11
1.09409e-10
6.76082e-12
1.5844e-11
3.26564e-11
3.15799e-11
1.96253e-11
4.81245e-11
1.93033e-11
1.84072e-12
4.01329e-12
3.93029e-12
1.04054e-12
6.38129e-13
2.66513e-12
3.23512e-12
1.9786e-12
1.16356e-12
5.87529e-13
6.28192e-13
4.94742e-13
2.08389e-13
5.01559e-13
1.00526e-11
4.78277e-12
5.97662e-12
8.34385e-12
7.62484e-12
4.62971e-12
2.80607e-12
3.9121e-11
1.88918e-11
8.00201e-11
5.83732e-11
5.34741e-11
1.16463e-10
2.00612e-11
6.28741e-11
1.73014e-09
7.28876e-09
1.2933e-08
5.49303e-09
3.07389e-09
9.01068e-11
6.05215e-12
6.34683e-11
1.34046e-10
3.40896e-10
1.90334e-10
6.23884e-12
2.43141e-11
5.08576e-12
1.33066e-11
2.19329e-11
2.30139e-11
1.26233e-11
5.43227e-12
5.55277e-12
7.92515e-13
4.5378e-13
4.94064e-13
8.43095e-13
2.82345e-13
4.34142e-13
1.16644e-12
0
1.77251e-07
1.50272e-07
1.11023e-07
3.88118e-08
3.58295e-08
0
0
1.07435e-06
1.2846e-06
1.28939e-06
4.60261e-07
6.51025e-08
0
0
6.27434e-06
8.34619e-06
1.50336e-05
8.02474e-06
6.22441e-06
0
0
8.45154e-05
6.29055e-05
7.89777e-05
6.8161e-05
9.26831e-05
0
0
5.2864e-06
7.65944e-06
1.31679e-05
5.72876e-06
5.32456e-06
0
0
1.44149e-07
3.7362e-07
1.20578e-06
1.07914e-06
9.69247e-07
0
0
2.38559e-08
2.42862e-08
9.49996e-08
1.21943e-07
1.43725e-07
0
0
1.04994e-07
8.8896e-08
6.53845e-08
2.54927e-08
2.43561e-08
0
0
7.64023e-07
8.01934e-07
9.65811e-07
2.96563e-07
0
0
0
6.25712e-06
7.79329e-06
1.44344e-05
7.84401e-06
6.0752e-06
0
0
8.18608e-05
6.05168e-05
7.55506e-05
6.57051e-05
9.00345e-05
0
0
5.1332e-06
7.27496e-06
1.25468e-05
5.52485e-06
5.15559e-06
0
0
3.97617e-08
2.1896e-07
8.82127e-07
7.41103e-07
7.1182e-07
0
0
1.20575e-08
1.24556e-08
5.63596e-08
7.38285e-08
8.71816e-08
0
0
9.95252e-08
8.0025e-08
5.11619e-08
2.10462e-08
1.90521e-08
0
0
6.64432e-07
6.90908e-07
8.3403e-07
2.4603e-07
0
0
0
6.37095e-06
7.01496e-06
1.3304e-05
7.17203e-06
5.31491e-06
0
0
7.56112e-05
5.73834e-05
7.23939e-05
6.15242e-05
8.77655e-05
0
0
4.59633e-06
6.59676e-06
1.15956e-05
4.98944e-06
5.22248e-06
0
0
1.96065e-08
1.69339e-07
7.48944e-07
6.63542e-07
6.38556e-07
0
0
8.54441e-09
8.98609e-09
4.53858e-08
6.51335e-08
8.25832e-08
0
0
1.07055e-07
8.04019e-08
4.36074e-08
1.66072e-08
1.21466e-08
0
0
5.9209e-07
6.34354e-07
6.73647e-07
2.16569e-07
0
0
0
6.39207e-06
6.35608e-06
1.18162e-05
6.57049e-06
4.12819e-06
0
0
7.12929e-05
5.36887e-05
6.56306e-05
5.77283e-05
8.28261e-05
0
0
3.07706e-06
5.4375e-06
1.03243e-05
4.76808e-06
5.29677e-06
0
0
3.95434e-09
1.19977e-07
5.34875e-07
6.3304e-07
6.07801e-07
0
0
5.32822e-09
5.63403e-09
2.52667e-08
6.34219e-08
8.97845e-08
0
0
9.11612e-08
7.5201e-08
4.14561e-08
9.3177e-09
5.92121e-09
0
0
5.26799e-07
5.30902e-07
5.02981e-07
1.81149e-07
0
0
0
6.40206e-06
6.1532e-06
1.11898e-05
5.74975e-06
3.46606e-06
0
0
6.48179e-05
4.93074e-05
6.15131e-05
5.23461e-05
7.8398e-05
0
0
2.74628e-06
4.12962e-06
9.52245e-06
4.73379e-06
5.67096e-06
0
0
0
9.73937e-08
4.40856e-07
5.12309e-07
5.14081e-07
0
0
4.214e-09
4.2921e-09
2.03759e-08
5.89761e-08
7.93552e-08
0
0
4.10985e-08
3.39169e-08
1.7146e-08
6.52526e-09
0
0
0
4.94918e-07
4.91567e-07
4.18844e-07
1.50343e-07
0
0
0
6.32804e-06
5.81708e-06
9.93693e-06
5.13478e-06
3.60042e-06
0
0
5.65805e-05
4.44716e-05
5.63471e-05
4.95456e-05
7.59109e-05
0
0
2.63501e-06
2.95315e-06
8.05838e-06
4.63019e-06
6.02989e-06
0
0
0
5.50835e-08
3.28164e-07
4.7011e-07
4.74971e-07
0
0
2.25443e-09
2.0353e-09
1.00715e-08
2.77682e-08
3.58169e-08
0
0
1.63408e-08
1.68159e-08
8.54786e-09
1.64724e-09
0
0
0
3.56921e-07
3.68272e-07
2.84936e-07
8.49739e-08
0
0
0
5.8494e-06
5.13666e-06
8.99597e-06
4.73843e-06
3.33376e-06
0
0
5.24898e-05
4.18053e-05
5.31454e-05
4.53858e-05
7.02049e-05
0
0
2.18287e-06
2.60822e-06
7.3777e-06
4.525e-06
5.90986e-06
0
0
0
3.39908e-08
1.93255e-07
3.77326e-07
3.57205e-07
0
0
0
6.72389e-10
5.59635e-10
1.54698e-08
1.53446e-08
0
6.10444e-15
6.69474e-14
1.48609e-13
3.07274e-13
6.81902e-14
3.74184e-14
1.54857e-14
4.09265e-14
1.21702e-12
5.60769e-12
4.98358e-12
1.2363e-12
1.56148e-12
2.17481e-13
3.95742e-14
1.13047e-11
1.33298e-10
2.81358e-10
2.04524e-10
9.06215e-11
1.84766e-11
4.52959e-11
4.69893e-10
4.07505e-09
8.2577e-09
3.8748e-09
7.63942e-10
6.85881e-11
5.40549e-12
6.26247e-11
3.41835e-10
5.1452e-10
1.79924e-10
2.09714e-11
1.527e-15
4.055e-13
2.96013e-12
4.43717e-12
8.67856e-13
6.22995e-13
1.33221e-14
1.92218e-16
2.11508e-14
1.11064e-13
1.26363e-13
1.82123e-13
1.16609e-13
1.72841e-14
4.60713e-16
1.73567e-14
2.14754e-13
3.10453e-13
3.88483e-13
1.28566e-13
5.34035e-14
9.52295e-15
1.57446e-13
5.68147e-12
1.27092e-11
9.69242e-12
3.70776e-12
1.54971e-12
2.72313e-13
2.89748e-13
1.50308e-11
1.74967e-10
2.9894e-10
1.83782e-10
7.68782e-11
2.00708e-11
3.39572e-11
2.58272e-10
2.02892e-09
5.33891e-09
2.24902e-09
4.82671e-10
5.85705e-11
7.45587e-12
5.62009e-11
2.50896e-10
4.82757e-10
2.01857e-10
1.78324e-11
3.78249e-15
1.1486e-13
2.75985e-12
2.87243e-12
1.84476e-12
5.69439e-13
4.8569e-15
8.76896e-16
7.47494e-15
9.84873e-14
1.42479e-13
1.6214e-13
1.43412e-13
1.00772e-13
2.42958e-15
3.06627e-13
4.80082e-13
7.19732e-13
8.26599e-13
2.18277e-13
1.05408e-13
2.534e-14
3.35584e-12
5.76013e-12
1.05829e-11
1.25052e-11
4.21285e-12
1.70213e-12
7.0217e-13
2.71677e-12
1.37946e-11
1.913e-10
2.88344e-10
1.62886e-10
5.95221e-11
2.18387e-11
2.268e-11
1.32537e-10
1.21283e-09
2.78345e-09
1.51021e-09
2.68856e-10
4.45235e-11
1.42997e-11
5.66217e-11
2.44775e-10
3.89591e-10
2.28669e-10
2.31572e-11
3.73943e-13
2.60829e-13
2.77137e-12
3.42389e-12
2.08105e-12
1.0236e-12
1.06021e-13
4.96283e-15
1.93479e-14
1.77032e-13
2.77499e-13
2.6879e-13
2.13376e-13
1.3225e-13
4.71071e-14
4.72237e-13
6.25633e-13
7.53944e-13
7.71476e-13
2.26557e-13
1.54178e-13
1.35445e-13
2.8967e-12
5.46609e-12
8.50814e-12
9.95972e-12
3.94606e-12
2.07271e-12
1.50666e-12
2.62034e-12
1.00895e-11
1.30716e-10
1.67391e-10
1.02858e-10
3.9562e-11
1.89541e-11
1.38372e-11
8.18268e-11
8.83093e-10
1.64474e-09
1.01778e-09
1.6203e-10
3.57871e-11
1.47958e-11
3.70902e-11
1.50043e-10
2.31445e-10
1.60547e-10
2.39686e-11
4.93307e-12
1.06019e-12
2.16931e-12
3.43313e-12
2.37908e-12
1.00533e-12
2.65162e-13
3.45541e-14
1.1227e-13
1.88322e-13
2.81736e-13
3.18385e-13
2.7731e-13
1.7981e-13
1.05622e-13
4.35815e-13
4.89123e-13
5.06341e-13
3.87487e-13
1.45599e-13
1.07432e-13
1.04686e-13
1.01195e-12
1.92913e-12
3.81589e-12
4.14156e-12
1.89423e-12
1.05182e-12
1.05891e-12
1.88178e-12
5.28316e-12
4.01123e-11
4.87583e-11
2.79196e-11
1.02275e-11
1.07834e-11
1.2314e-11
5.38989e-11
4.68636e-10
7.21737e-10
4.56091e-10
7.57312e-11
3.03283e-11
7.98368e-12
8.4082e-12
3.92029e-11
6.23848e-11
6.71329e-11
1.17492e-11
5.43139e-12
8.08335e-13
7.12605e-13
1.33998e-12
1.21592e-12
7.57085e-13
3.06192e-13
6.15161e-14
1.03407e-13
1.15334e-13
1.77572e-13
2.04181e-13
2.09318e-13
1.64585e-13
1.28936e-13
1.78645e-13
2.2014e-13
2.2714e-13
1.55347e-13
7.13e-14
3.51382e-14
4.82638e-14
2.62026e-13
6.41438e-13
1.07857e-12
1.15531e-12
4.4647e-13
2.67643e-13
4.70115e-13
1.09141e-12
1.43757e-12
9.26311e-12
5.35177e-12
3.0207e-12
1.11671e-12
4.0226e-12
8.33796e-12
1.64859e-11
1.00803e-10
1.23171e-10
8.91569e-11
1.48101e-11
1.36202e-11
2.19345e-12
1.26779e-12
4.23663e-12
6.0404e-12
1.05528e-11
2.611e-12
2.06446e-12
2.83776e-13
2.44239e-13
4.95014e-13
4.77423e-13
3.58377e-13
2.19939e-13
6.26625e-14
5.17791e-14
3.39837e-14
5.19749e-14
8.36568e-14
9.41323e-14
1.03764e-13
9.63054e-14
2.17289e-14
5.47849e-14
6.36924e-14
4.38251e-14
2.07276e-14
1.08936e-14
1.11156e-14
2.72382e-14
5.97415e-14
1.9193e-13
2.99449e-13
1.32409e-13
3.82576e-14
7.73769e-14
3.05514e-13
1.83794e-13
8.31929e-13
3.25021e-13
9.56185e-14
2.34304e-14
7.77108e-13
2.27507e-12
2.09142e-12
9.92522e-12
8.5258e-12
7.70123e-12
1.44524e-12
2.64813e-12
2.41731e-13
4.88052e-14
1.46384e-13
3.33068e-13
8.57056e-13
1.7301e-13
2.88274e-13
4.67624e-14
4.13519e-14
7.82276e-14
1.25667e-13
1.35231e-13
7.96168e-14
3.76189e-14
1.15699e-14
1.28374e-14
1.58736e-14
1.89684e-14
2.55379e-14
3.81861e-14
4.1767e-14
7.33339e-16
4.15957e-16
4.25825e-16
4.2475e-16
4.26429e-16
4.1347e-16
3.35382e-16
1.37953e-14
1.51328e-15
1.75172e-15
1.55608e-16
1.43144e-16
1.20082e-16
9.58255e-17
6.47806e-12
2.3658e-12
1.96356e-13
1.71997e-15
1.78751e-15
1.91593e-15
2.27189e-15
3.18182e-11
8.10502e-13
1.52155e-13
3.42569e-14
1.94702e-14
1.42179e-14
1.41196e-14
1.06005e-15
9.44313e-16
9.438e-16
9.74914e-16
1.16497e-15
1.23581e-15
1.48773e-15
1.09376e-16
1.01406e-16
1.03295e-16
9.04092e-17
5.58517e-17
3.93798e-17
2.73437e-17
3.02582e-16
3.39133e-16
3.53294e-16
3.24321e-16
2.48452e-16
1.34755e-16
4.9708e-17
3.61189e-15
2.01582e-15
1.77758e-15
1.79994e-15
1.71091e-15
1.50581e-15
1.27545e-15
6.11257e-14
2.36995e-14
2.99395e-15
7.88297e-16
7.85305e-16
7.92193e-16
7.90519e-16
6.5801e-12
3.59532e-12
6.20818e-13
1.58934e-15
1.86946e-15
2.32227e-15
2.64233e-15
3.05754e-11
1.01342e-11
2.72311e-12
6.27776e-13
1.70344e-13
6.54012e-14
5.13732e-14
6.32963e-15
3.03403e-15
3.15624e-15
3.31985e-15
2.72804e-15
1.67929e-15
1.37078e-15
8.97968e-16
9.03011e-16
9.49584e-16
8.22623e-16
5.58791e-16
3.52378e-16
2.77589e-16
2.64985e-15
3.01457e-15
3.4368e-15
3.45521e-15
2.86482e-15
9.07448e-16
3.75525e-16
9.18133e-15
5.30868e-15
4.91909e-15
5.07202e-15
4.84328e-15
3.65574e-15
2.8711e-15
1.17218e-13
6.98786e-14
2.93229e-14
4.92367e-15
4.11669e-15
4.11975e-15
3.5558e-15
8.05672e-12
3.66082e-12
1.77532e-12
1.04538e-13
2.27055e-15
2.89345e-15
3.07358e-15
2.73797e-11
1.25936e-11
4.89282e-12
1.78557e-12
7.62099e-13
2.91207e-13
1.87487e-13
9.97689e-14
9.05434e-15
1.25147e-14
2.07656e-14
1.37363e-14
8.56878e-15
7.25433e-15
3.22118e-15
2.46479e-15
2.91096e-15
2.98951e-15
2.73393e-15
1.85378e-15
1.12189e-15
3.35088e-15
5.52818e-15
9.09156e-15
9.58614e-15
9.8317e-15
5.61567e-15
1.5891e-15
3.35184e-14
1.55086e-14
8.55508e-15
9.68513e-15
9.98736e-15
9.13572e-15
4.78273e-15
2.33201e-13
1.01471e-13
5.6052e-14
3.32038e-14
1.08005e-14
1.27362e-14
1.28099e-14
9.62673e-12
4.34633e-12
2.59857e-12
1.05357e-12
9.35037e-14
3.91198e-15
4.29277e-15
2.28642e-11
1.40871e-11
6.63372e-12
3.4729e-12
1.86755e-12
1.01449e-12
5.58841e-13
2.2127e-12
9.69639e-13
7.01555e-13
3.11145e-13
2.05923e-13
1.27453e-13
7.72602e-14
1.87301e-14
1.06192e-14
6.36995e-15
4.81832e-15
4.64907e-15
4.5598e-15
3.39748e-15
5.07529e-14
3.45518e-14
2.16819e-14
1.90073e-14
1.80983e-14
1.3084e-14
5.72874e-15
4.41097e-14
1.46963e-14
2.16135e-14
2.25489e-14
1.7801e-14
1.29565e-14
1.08302e-14
7.30391e-13
3.7306e-13
2.06961e-13
1.24656e-13
7.5269e-14
5.50754e-14
3.218e-14
8.65727e-12
5.51118e-12
2.65243e-12
1.69327e-12
9.41406e-13
2.75417e-13
4.09504e-14
1.57125e-11
1.11791e-11
6.10775e-12
3.93333e-12
2.90146e-12
1.92197e-12
1.23395e-12
2.90308e-12
1.61205e-12
1.05783e-12
6.31664e-13
3.28639e-13
2.21601e-13
1.43744e-13
2.39397e-14
1.8388e-14
1.57145e-14
1.24984e-14
1.07309e-14
8.39418e-15
6.15569e-15
8.06576e-14
6.50422e-14
5.13694e-14
3.87876e-14
2.9827e-14
1.8174e-14
1.03185e-14
3.61315e-14
3.7187e-14
4.6904e-14
4.11017e-14
2.74932e-14
2.62284e-14
1.39323e-14
5.11366e-13
4.0867e-13
3.35873e-13
2.32776e-13
1.90262e-13
1.64492e-13
1.07373e-13
3.88044e-12
3.54774e-12
2.5515e-12
1.6262e-12
8.55128e-13
6.31766e-13
3.71499e-13
1.01657e-11
7.79205e-12
4.9123e-12
3.2982e-12
2.3825e-12
1.68427e-12
1.3952e-12
1.2065e-12
1.02832e-12
6.58936e-13
3.93387e-13
2.85711e-13
1.7537e-13
1.28299e-13
4.88564e-14
3.26337e-14
2.62332e-14
2.17697e-14
1.71134e-14
1.24168e-14
9.81929e-15
7.98088e-14
6.42399e-14
5.56042e-14
4.17483e-14
3.01089e-14
1.92068e-14
1.03664e-14
1.7671e-14
2.02357e-14
1.65346e-14
1.31168e-14
1.04133e-14
9.69654e-15
1.10299e-14
1.44319e-13
1.40438e-13
1.29557e-13
1.14778e-13
9.16312e-14
7.59447e-14
6.94071e-14
8.12801e-13
7.96817e-13
7.41206e-13
6.67056e-13
4.94356e-13
4.12623e-13
3.65332e-13
2.12425e-12
2.04791e-12
1.67517e-12
1.3763e-12
1.0184e-12
8.05288e-13
7.8852e-13
3.00677e-13
2.81765e-13
2.36104e-13
1.97298e-13
1.23231e-13
8.9408e-14
7.86188e-14
3.29401e-14
2.83022e-14
1.99904e-14
1.64657e-14
1.44761e-14
1.15992e-14
7.36127e-15
4.03872e-14
3.56097e-14
3.07571e-14
2.26015e-14
1.87671e-14
9.86967e-15
4.39269e-15
1.08327e-16
2.86376e-16
7.12392e-16
1.02247e-15
1.96189e-15
2.19809e-15
2.09032e-15
8.48864e-17
1.42626e-16
2.06476e-16
3.6421e-16
8.04113e-16
3.75159e-15
6.45447e-15
5.66886e-17
6.84123e-17
8.78346e-17
1.06639e-16
1.56814e-16
4.04607e-16
2.00991e-15
1.77594e-15
1.05148e-15
6.89513e-16
7.25441e-16
8.95623e-16
1.40437e-14
1.47033e-11
4.33247e-16
4.08116e-16
4.07449e-16
3.88546e-16
3.63229e-16
1.51691e-13
2.73493e-12
1.25818e-16
1.61737e-16
1.7455e-16
1.80554e-16
1.82766e-16
1.08149e-15
1.5012e-14
3.986e-16
5.24317e-16
5.24231e-16
5.19402e-16
5.14987e-16
5.12889e-16
8.67437e-16
1.28949e-15
6.3223e-15
7.95317e-15
1.71607e-14
2.21444e-14
2.51809e-14
2.55501e-14
6.76054e-16
1.92583e-15
3.10319e-15
5.95927e-15
2.3582e-14
9.5024e-14
1.67324e-13
1.68451e-16
2.65954e-16
3.97817e-16
8.45948e-16
3.60622e-15
1.38749e-14
4.05277e-14
1.78685e-14
3.53158e-14
5.89794e-14
1.0821e-13
5.41206e-13
3.47598e-12
1.43866e-11
7.14213e-16
6.53363e-16
6.10222e-16
5.894e-16
5.10849e-16
1.02131e-12
3.17662e-12
1.34485e-15
1.29077e-15
1.28543e-15
1.25675e-15
1.18864e-15
8.92482e-15
4.38341e-14
1.17549e-15
1.30732e-15
1.50419e-15
1.59126e-15
1.62086e-15
1.67664e-15
3.02512e-15
1.06932e-14
2.44201e-14
3.61357e-14
1.13662e-13
1.62825e-13
1.99872e-13
2.46263e-13
4.7038e-15
1.16732e-14
1.28307e-14
6.6476e-14
4.89401e-13
1.38685e-12
1.77437e-12
1.11675e-15
1.5841e-15
3.76281e-15
2.45753e-14
1.36736e-13
4.45099e-13
9.40259e-13
7.37128e-14
1.31015e-13
2.01251e-13
6.12512e-13
1.82686e-12
5.16963e-12
1.30522e-11
1.67246e-15
1.67927e-15
1.38988e-15
8.7418e-16
3.55089e-13
2.21154e-12
4.02715e-12
8.63972e-15
7.94724e-15
7.27583e-15
6.61053e-15
1.48375e-14
4.21831e-14
8.24073e-14
2.09438e-15
4.06806e-15
4.95336e-15
5.28553e-15
5.60882e-15
6.56003e-15
9.81545e-15
3.54412e-14
1.21749e-13
1.68288e-13
2.40884e-13
2.95957e-13
3.41697e-13
3.87941e-13
2.97586e-14
9.90096e-14
2.50606e-13
4.14237e-13
7.87668e-13
1.17945e-12
1.43056e-12
3.45752e-14
6.3121e-14
1.17039e-13
2.18417e-13
4.01706e-13
6.76259e-13
1.06112e-12
1.59965e-13
2.58399e-13
5.38818e-13
1.15274e-12
2.39437e-12
5.11505e-12
9.23358e-12
3.88574e-15
3.65751e-15
2.54014e-15
2.17421e-13
1.41808e-12
2.77e-12
4.46728e-12
2.19653e-14
2.05897e-14
1.80318e-14
2.15368e-14
4.31631e-14
1.15521e-13
2.40178e-13
6.29946e-15
1.09565e-14
1.14222e-14
1.05438e-14
1.21711e-14
2.06897e-14
3.0968e-14
4.46471e-14
1.07781e-13
1.62396e-13
2.2186e-13
2.68153e-13
3.12077e-13
3.57511e-13
4.13232e-14
9.51039e-14
2.15858e-13
3.18799e-13
4.21504e-13
4.62692e-13
5.59791e-13
5.71485e-14
1.27748e-13
2.05647e-13
2.83855e-13
3.76994e-13
5.77851e-13
7.75041e-13
4.40559e-13
7.23036e-13
1.10993e-12
1.58765e-12
2.7085e-12
4.42991e-12
6.44921e-12
1.71765e-14
8.50307e-14
3.61591e-13
1.01265e-12
1.78734e-12
2.66063e-12
5.3868e-12
4.09325e-14
4.67814e-14
6.32069e-14
9.0153e-14
1.46575e-13
2.57905e-13
4.67988e-13
1.02526e-14
1.77166e-14
1.80193e-14
1.52362e-14
2.11155e-14
4.77197e-14
6.03123e-14
3.26367e-14
5.16741e-14
8.41055e-14
1.07192e-13
1.14409e-13
1.24559e-13
1.28949e-13
3.33044e-14
6.17474e-14
1.00001e-13
1.4324e-13
1.64002e-13
1.74711e-13
1.91841e-13
8.64118e-14
1.25675e-13
1.88633e-13
2.2817e-13
3.24074e-13
5.41335e-13
7.24199e-13
5.88331e-13
8.74965e-13
1.01885e-12
1.58547e-12
2.10418e-12
3.11816e-12
4.32307e-12
2.0422e-13
3.44292e-13
6.6115e-13
8.73389e-13
1.18175e-12
1.85361e-12
2.16323e-12
1.02257e-13
1.3334e-13
1.4449e-13
1.6143e-13
2.03659e-13
2.49199e-13
2.76674e-13
1.28737e-14
2.10886e-14
2.40786e-14
2.40699e-14
2.90586e-14
4.31292e-14
4.74101e-14
1.49818e-14
1.97559e-14
2.7752e-14
3.0395e-14
2.90779e-14
1.72988e-14
1.05487e-14
1.49523e-14
1.56513e-14
2.03156e-14
3.1167e-14
3.71593e-14
3.39346e-14
2.24082e-14
5.10613e-14
5.13993e-14
5.42551e-14
8.31069e-14
1.15361e-13
1.64019e-13
2.14853e-13
4.64242e-13
5.21706e-13
6.42959e-13
8.46598e-13
1.03667e-12
1.486e-12
1.69765e-12
2.25117e-13
2.52647e-13
2.95762e-13
3.37621e-13
3.45109e-13
3.23806e-13
2.53875e-13
4.79385e-14
4.57762e-14
4.90807e-14
5.20588e-14
5.44884e-14
5.3513e-14
4.66303e-14
8.52175e-15
8.68645e-15
1.05843e-14
1.13056e-14
1.18662e-14
1.07694e-14
1.01437e-14
1.93985e-20
1.69738e-20
6.98396e-20
2.95456e-19
2.31181e-18
4.50884e-18
1.96312e-17
3.51898e-20
5.05003e-20
1.03586e-19
2.86253e-19
8.78481e-19
4.93151e-18
1.28864e-17
2.76157e-16
3.01906e-16
2.30858e-16
9.95967e-17
6.5348e-17
5.47376e-17
5.17015e-17
1.73422e-15
1.43316e-15
1.3269e-15
1.31332e-15
1.32756e-15
1.38881e-15
1.61645e-15
6.07947e-16
5.56942e-16
5.40578e-16
5.12157e-16
4.42029e-16
4.28739e-16
4.38604e-16
9.52263e-19
1.07193e-17
1.31774e-17
3.2348e-17
5.64668e-17
7.07739e-17
1.11401e-16
1.44981e-19
1.04092e-18
5.61614e-18
4.07097e-17
8.75508e-17
1.28013e-16
1.97061e-16
1.91728e-20
1.52456e-20
1.55295e-19
1.0536e-18
4.51205e-18
2.10244e-17
8.5255e-17
2.7586e-20
5.56775e-20
1.77199e-19
4.95453e-19
5.66794e-18
3.88295e-17
8.2537e-17
3.84534e-16
4.2652e-16
3.78559e-16
1.91676e-16
1.1718e-16
9.23813e-17
1.18013e-16
2.39852e-15
2.72518e-15
3.66576e-15
4.96522e-15
6.26743e-15
7.81564e-15
1.25238e-14
8.27846e-16
8.65746e-16
8.69762e-16
8.56358e-16
7.95896e-16
7.60968e-16
8.38317e-16
4.59181e-18
4.10715e-17
6.95082e-17
2.0528e-16
5.69571e-16
8.3213e-16
1.19226e-15
2.99277e-19
3.04945e-18
1.3427e-17
8.71848e-17
1.68576e-16
2.68648e-16
4.98351e-16
1.61003e-20
1.98644e-20
2.44596e-19
1.41502e-18
1.24064e-17
4.39414e-17
4.22961e-16
2.21079e-20
8.33922e-20
2.36399e-19
7.88636e-19
1.20607e-17
1.61001e-16
5.99447e-16
5.13046e-16
7.02646e-16
5.69323e-16
2.45406e-16
1.28301e-16
3.57814e-16
1.38147e-15
3.19781e-15
4.27712e-15
7.92265e-15
1.33047e-14
2.0417e-14
2.7943e-14
3.93062e-14
1.07599e-15
1.22188e-15
1.57894e-15
1.81427e-15
1.92876e-15
1.9528e-15
1.70513e-15
7.45907e-18
7.11073e-17
2.37067e-16
1.04604e-15
4.20391e-15
7.19706e-15
8.63648e-15
3.46767e-19
3.34422e-18
3.01083e-17
1.34527e-16
3.47434e-16
5.02593e-16
9.60417e-16
1.95152e-20
2.05507e-20
5.41295e-19
2.64912e-18
1.69938e-17
5.63933e-17
1.02313e-15
1.9088e-20
1.12499e-19
4.20392e-19
1.36579e-18
2.63729e-17
4.44723e-16
1.94668e-15
7.21606e-16
1.06511e-15
8.67989e-16
3.35713e-16
5.48287e-16
6.10294e-15
2.38332e-14
4.72132e-15
9.65189e-15
2.00477e-14
3.83031e-14
5.39254e-14
7.3388e-14
1.06489e-13
1.59439e-15
1.85403e-15
2.65174e-15
3.17894e-15
3.49003e-15
3.76104e-15
3.33777e-15
9.2676e-18
1.2108e-16
7.49197e-16
3.60322e-15
1.57201e-14
2.23019e-14
2.18522e-14
4.00246e-19
4.07085e-18
3.80459e-17
1.46765e-16
4.41415e-16
6.0851e-16
1.34473e-15
1.88237e-20
2.70005e-20
7.86652e-19
2.96521e-18
2.49343e-17
6.92109e-17
1.59391e-15
6.5406e-20
2.46105e-19
7.87687e-19
1.47184e-18
8.09706e-17
7.8147e-16
1.25433e-14
1.0378e-15
1.8291e-15
8.92747e-16
2.05408e-15
9.04253e-15
2.26182e-14
3.90593e-14
7.68146e-15
1.98089e-14
3.89954e-14
7.81978e-14
1.10864e-13
1.82131e-13
2.70474e-13
2.03793e-15
3.13278e-15
4.18487e-15
4.23646e-15
6.62848e-15
9.70425e-15
7.13451e-15
1.00656e-17
1.46912e-16
1.92808e-15
1.08983e-14
3.16399e-14
5.98001e-14
4.23504e-14
4.2354e-19
4.17271e-18
4.717e-17
1.68732e-16
4.72816e-16
6.61351e-16
1.45621e-15
1.76553e-20
3.05093e-20
8.82752e-19
3.36831e-18
2.75794e-17
7.49322e-17
1.93709e-15
1.03231e-19
2.8746e-19
1.03132e-18
1.52951e-18
1.72552e-16
1.18339e-15
1.80391e-14
1.48177e-15
2.22542e-15
9.85925e-16
4.22301e-15
2.48963e-14
4.57704e-14
6.55767e-14
9.78338e-15
3.13278e-14
7.88017e-14
1.39754e-13
2.73805e-13
3.89405e-13
4.86401e-13
2.66298e-15
4.2073e-15
5.78593e-15
4.63522e-15
9.2893e-15
2.44269e-14
8.74269e-14
1.11306e-17
1.72684e-16
2.57444e-15
1.62085e-14
5.04183e-14
7.68872e-14
9.07808e-14
4.64122e-19
4.37019e-18
5.11997e-17
1.77209e-16
5.32589e-16
6.97344e-16
1.58859e-15
1.5917e-20
3.55246e-20
9.33992e-19
3.63503e-18
2.92979e-17
7.80142e-17
2.08851e-15
1.17814e-19
3.66308e-19
1.10076e-18
1.61805e-18
2.89534e-16
1.47441e-15
1.31509e-14
2.51678e-15
4.1463e-15
4.40607e-15
1.9897e-14
3.77381e-14
4.56955e-14
5.17673e-14
2.5935e-14
8.86984e-14
1.76986e-13
2.78337e-13
3.52062e-13
3.91226e-13
4.40757e-13
4.81635e-15
8.74741e-15
1.19365e-14
1.95809e-14
6.2674e-14
1.19905e-13
1.62042e-13
1.15297e-17
1.67584e-16
1.51889e-15
1.14833e-14
3.42221e-14
4.36407e-14
4.7339e-14
5.50846e-19
4.69528e-18
5.15694e-17
1.80815e-16
5.56997e-16
7.14932e-16
1.73428e-15
5.88266e-21
4.14435e-20
1.49029e-19
3.79497e-18
1.11924e-17
8.00104e-17
2.29096e-16
1.26405e-19
4.16672e-19
1.54401e-18
6.77225e-19
1.63129e-18
1.5731e-17
3.8848e-15
2.32411e-15
2.53741e-15
2.72279e-15
1.32987e-14
1.92861e-14
1.7938e-14
1.89695e-14
4.27139e-14
1.00415e-13
1.32986e-13
1.6107e-13
1.71905e-13
1.73473e-13
1.83856e-13
7.52496e-15
6.63282e-15
6.81137e-15
1.29929e-14
3.51473e-14
6.40898e-14
5.06771e-14
1.28991e-17
6.30992e-17
3.81321e-16
1.99847e-15
6.43375e-15
5.27978e-15
9.03758e-15
7.3899e-19
2.05517e-18
8.89557e-18
2.00033e-16
6.35374e-16
7.35866e-16
1.39007e-15
7.58909e-21
4.12705e-20
8.12139e-20
3.02388e-21
2.26234e-20
8.66662e-22
2.0886e-21
1.4441e-19
5.02011e-19
8.6635e-19
1.77805e-19
2.67039e-18
4.00537e-17
1.91287e-16
1.55466e-15
1.72338e-15
1.84897e-15
4.67777e-15
7.41935e-15
6.21824e-15
9.245e-15
3.76922e-14
7.4822e-14
7.69639e-14
8.32944e-14
9.33772e-14
9.38555e-14
9.12685e-14
5.1926e-15
4.38741e-15
4.56081e-15
6.31328e-15
1.49853e-14
2.62513e-14
2.55056e-14
2.1284e-19
1.20099e-18
3.76607e-18
1.5957e-17
5.37211e-17
6.01706e-17
1.82752e-18
8.32022e-21
1.85742e-20
6.62532e-20
3.17967e-19
1.14511e-18
1.0384e-18
4.40996e-20
4.6189e-22
1.03527e-21
8.46103e-22
2.30961e-22
3.07655e-22
2.35679e-22
1.52471e-22
1.92284e-20
2.94934e-20
2.54717e-20
3.04908e-20
5.5117e-20
4.08026e-20
6.76418e-20
7.73936e-16
1.07747e-15
1.27303e-15
2.56811e-15
4.05921e-15
3.19283e-15
5.20784e-15
3.3587e-14
6.43877e-14
6.36872e-14