/*--------------------------------*- C++ -*----------------------------------*\
  =========                 |
  \\      /  F ield         | OpenFOAM: The Open Source CFD Toolbox
   \\    /   O peration     | Website:  https://openfoam.org
    \\  /    A nd           | Version:  6
     \\/     M anipulation  |
\*---------------------------------------------------------------------------*/
FoamFile
{
    version     2.0;
    format      ascii;
    class       volScalarField;
    location    "0.0075";
    object      p;
}
// * * * * * * * * * * * * * * * * * * * * * * * * * * * * * * * * * * * * * //

dimensions      [1 -1 -2 0 0 0 0];

internalField   nonuniform List<scalar> 
3773
(
41768.1
41768
41767.8
41768.1
41768.3
41768.3
41768.6
100576
100576
100577
100577
100577
100577
100576
135701
135701
135702
135702
135702
135702
135702
147361
147360
147360
147360
147360
147360
147360
135702
135703
135703
135703
135703
135702
135702
100576
100576
100576
100576
100576
100576
100576
41769
41768.9
41768.6
41768.4
41768.6
41768.7
41768.7
41767
41766.9
41766.7
41767
41767.1
41767.2
41767.4
100577
100577
100577
100577
100577
100577
100577
135701
135701
135701
135702
135701
135701
135701
147359
147359
147359
147359
147358
147358
147358
135702
135702
135702
135702
135702
135702
135702
100577
100577
100577
100577
100577
100577
100577
41767.9
41767.7
41767.4
41767.3
41767.5
41767.5
41767.6
41765.1
41765
41764.7
41765
41765.3
41765.4
41765.6
100578
100578
100578
100578
100579
100578
100578
135700
135701
135701
135701
135701
135701
135701
147356
147356
147356
147356
147355
147355
147356
135701
135702
135702
135702
135702
135702
135701
100578
100578
100578
100578
100578
100578
100578
41766
41765.9
41765.6
41765.4
41765.6
41765.7
41765.8
41762.7
41762.6
41762.4
41762.6
41762.9
41763
41763.2
100579
100579
100579
100579
100580
100579
100579
135699
135700
135700
135700
135700
135700
135700
147353
147352
147352
147352
147352
147352
147352
135701
135701
135701
135701
135701
135701
135700
100578
100579
100579
100579
100579
100579
100579
41763.6
41763.5
41763.3
41763
41763.3
41763.4
41763.4
41760.3
41760.3
41760.1
41760.3
41760.5
41760.6
41760.8
100580
100580
100580
100580
100580
100580
100579
135698
135699
135699
135699
135699
135699
135699
147349
147349
147348
147348
147348
147348
147348
135699
135700
135700
135700
135700
135700
135699
100579
100579
100580
100580
100580
100579
100579
41761.2
41761.1
41760.9
41760.6
41760.9
41761
41760.9
41758.5
41758.5
41758.5
41758.6
41758.7
41758.8
41758.9
100580
100580
100580
100580
100580
100580
100579
135697
135698
135698
135698
135698
135698
135698
147346
147346
147346
147345
147345
147345
147346
135699
135699
135699
135699
135699
135699
135698
100579
100579
100580
100580
100580
100579
100579
41759.3
41759.3
41759.2
41759
41759.1
41759.2
41759.1
41757.6
41757.7
41757.6
41757.7
41757.8
41757.9
41758
100580
100580
100580
100580
100580
100580
100579
135697
135697
135698
135698
135698
135698
135697
147345
147344
147344
147344
147344
147344
147344
135698
135698
135699
135699
135699
135698
135698
100579
100579
100580
100580
100580
100579
100579
41758.4
41758.4
41758.3
41758.1
41758.2
41758.3
41758.1
62562.4
62674.2
62746.2
62637.6
62346.6
62076.3
62033
147373
147221
147363
147448
147111
146842
147005
196352
196219
196180
196150
196096
196083
196183
212284
212185
212129
212116
212129
212173
212245
196388
196230
196211
196241
196275
196340
196522
147380
147242
147598
147848
147729
147594
147818
62357
62431.9
62746.4
63028
63123.3
63081.6
62986
61639.3
61729.9
61889.2
61801.3
61558.1
61349.8
61327.4
146288
146173
146348
146359
146250
146038
146109
195983
195876
195853
195811
195819
195830
195911
212139
212085
212075
212083
212096
212147
212217
195891
195741
195732
195782
195847
195922
196101
146165
146037
146314
146479
146455
146265
146497
61466.4
61484
61797.4
62059.8
62107
61970.1
61935.4
61191
61241
61283
61199.5
61045.4
60898.3
60926.6
145851
145754
145866
145874
145739
145642
145727
195764
195730
195720
195726
195700
195736
195779
212060
212077
212120
212154
212161
212193
212216
195696
195630
195662
195756
195823
195895
195990
145673
145510
145705
145973
146046
145924
146126
60979.2
60927.9
61134.1
61357.5
61442.5
61444.8
61439.2
61137
61103.1
60944.5
60794.2
60768.5
60787.8
60936.4
145861
145736
145686
145569
145396
145508
145782
195737
195698
195692
195673
195634
195719
195798
212112
212146
212216
212255
212259
212265
212252
195863
195827
195856
195929
196014
196089
196127
145895
145620
145654
145912
146155
146239
146364
61067.2
60881.2
60860.5
61015.3
61206.4
61404.1
61434.7
61103.1
60950.6
60728.5
60630.6
60608.5
60723.7
60889.6
145777
145737
145564
145396
145349
145602
145831
195750
195716
195673
195624
195658
195773
195862
212233
212251
212288
212314
212321
212336
212317
196116
196094
196056
196034
196088
196177
196204
146264
146111
145981
145912
146127
146396
146462
61252.2
61085.2
60918.9
60955
61130.1
61382.8
61533.7
60910.7
60695.6
60535.8
60546.1
60510.2
60672.8
60780.4
145600
145524
145372
145330
145445
145757
145760
195716
195676
195617
195626
195753
195873
195902
212358
212337
212314
212333
212374
212414
212411
196255
196232
196122
196038
196061
196144
196198
146401
146363
146124
145935
145955
146119
146260
61342.8
61211.9
61062.4
61019.5
60968.8
61093.2
61293
60667.6
60494.5
60451.8
60589.7
60670.3
60860
60871.5
145417
145313
145269
145428
145665
145769
145781
195686
195662
195665
195754
196031
195914
195940
212460
212466
212454
212489
212516
212470
212481
196351
196334
196157
196116
196071
196057
196120
146495
146560
146285
145986
145759
145773
145907
61383.9
61375.8
61385.9
61169.7
60817.8
60782.2
60927.6
60381.4
60339.7
60386.3
60734.3
61349.9
61602.3
61479.5
145564
145463
145445
145653
146109
146438
146730
196084
196058
196070
196165
196294
196492
196711
213103
213031
212919
212872
212835
212830
212861
197278
197036
196738
196530
196338
196233
196209
147247
146910
146695
146192
145849
145794
145860
61703
61924.7
61955.8
61343.9
60805.8
60574.8
60578.8
60309.6
60214.5
60130.2
60184.2
60771.9
61439.3
61704.7
145569
145419
145299
145297
145760
146417
146851
196255
196217
196183
196215
196309
196546
196759
213286
213227
213107
213028
212920
212848
212845
197504
197245
196864
196548
196391
196274
196217
147642
147186
146534
145932
145768
145748
145785
61951.3
61911.7
61553.3
60929.2
60616.6
60430.6
60484.9
60387
60275.5
60147.6
60043.1
60403
61317.2
62053.2
145719
145572
145396
145191
145350
146165
146912
196384
196326
196258
196181
196176
196427
196681
213284
213194
213083
213010
212914
212849
212820
197527
197164
196738
196527
196459
196400
196379
147871
147151
146347
145876
145827
145882
145958
62143.4
61966.3
61470.7
60907.7
60489.8
60375.2
60545.8
60580.3
60470.1
60314.9
60226.9
60536.1
61472.1
62558.1
146006
145866
145705
145410
145336
146082
147308
196581
196508
196407
196231
196076
196289
196746
213236
213108
213040
213013
212951
212945
212962
197570
196938
196586
196562
196623
196651
196671
148400
147273
146364
145969
145913
146000
146149
62418.2
62123.7
61589.2
60915.2
60382.3
60405.5
60642.3
60696.3
60639.2
60530.6
60636.3
61207
62217
63172.2
146198
146119
146063
145866
145869
146617
148078
196769
196767
196763
196538
196269
196374
197021
213150
213063
213160
213202
213115
213004
213051
197682
196819
196574
196678
196819
196803
196791
149298
147793
146561
146005
145958
146073
146198
62774.3
62356.1
61817.7
61244.3
60497.1
60490.1
60721.1
60593
60671.8
60844.9
61426.7
62246.5
62926.6
63502.2
145948
146024
146243
146375
146636
147743
149445
196407
196571
196823
196875
196754
196870
197402
212796
212831
213090
213222
213146
212901
212775
197400
196670
196539
196632
196611
196372
196300
149403
148072
146787
145996
145785
145770
145845
62786.9
62208.4
61721.4
61847.7
61206
60676
60460
59971.1
61425.4
61949.6
61453.5
61748.6
62885.9
63702.2
144775
146142
146487
146600
146753
147773
149817
195908
196358
196526
196735
196897
196943
196848
212545
212857
212932
212849
212838
212618
212061
196389
196572
196640
196611
196495
196130
195920
147929
146693
146363
146595
146336
146268
145709
62255
61595.3
61483.4
61805.9
62488.3
62181.3
60495.1
60648.5
60545.9
60655.8
61044
61323
61208.9
61075.2
145524
145527
145544
145699
145882
145660
145953
195739
195751
195845
195852
196002
195964
196087
212558
212549
212543
212507
212493
212464
212482
196557
196486
196394
196202
196161
196073
196047
146668
146811
146739
146381
146006
145933
145944
61525.2
61675.7
62300.3
61953.4
61067
60849.2
60904.6
60639.5
60538.4
60661.4
61054.3
61387
61211.5
61093.5
145545
145555
145569
145738
145892
145629
145993
195747
195753
195803
195871
195989
195991
196123
212570
212545
212539
212525
212493
212468
212489
196582
196513
196398
196227
196119
196065
196041
146688
146802
146780
146430
146023
145946
145954
61530.9
61688.2
62403.9
62025.7
61070.9
60835.1
60896.3
60629
60538.6
60678.5
61051.1
61443.5
61181.8
61120.6
145563
145573
145579
145763
145886
145609
146040
195773
195766
195756
195884
195991
196024
196169
212606
212556
212540
212544
212498
212478
212513
196617
196532
196398
196246
196075
196066
196053
146706
146763
146795
146466
146021
145943
145961
61536.1
61700.3
62504.9
62102.9
61092.3
60824.9
60884.9
60615.5
60542.8
60712.3
61088.6
61527
61179.6
61154.4
145573
145589
145587
145767
145871
145608
146098
195802
195797
195751
195893
195998
196056
196215
212656
212584
212557
212564
212510
212496
212541
196658
196543
196408
196265
196065
196078
196068
146727
146725
146805
146492
146020
145942
145963
61546.3
61730.4
62632.6
62210.1
61143
60832.9
60869.6
60598
60540.4
60760.7
61177.2
61640.4
61256
61195.5
145577
145607
145593
145762
145874
145633
146151
195825
195825
195785
195902
196010
196081
196258
212705
212622
212586
212585
212534
212517
212569
196701
196560
196428
196290
196092
196094
196076
146752
146703
146818
146511
146027
145948
145960
61567.7
61774.5
62795.7
62336.3
61218
60860.1
60848.8
60577.7
60515
60777.8
61242.6
61723.7
61398.8
61240.6
145577
145622
145598
145764
145902
145694
146205
195843
195839
195820
195922
196031
196105
196302
212749
212664
212621
212609
212564
212545
212598
196748
196596
196458
196320
196124
196108
196082
146787
146699
146837
146520
146035
145954
145953
61591.7
61830.9
62890.8
62382.3
61265.6
60870.9
60823.3
60555.5
60478.8
60727.3
61193.6
61690.1
61500
61268.8
145575
145623
145597
145765
145937
145782
146267
195863
195860
195852
195952
196064
196148
196353
212788
212709
212658
212636
212596
212579
212630
196808
196648
196495
196353
196153
196118
196090
146834
146715
146839
146493
146031
145948
145943
61599.9
61875.7
62803.5
62256.3
61222.5
60835.8
60795.4
65853.4
64172.8
62832.6
61992.8
61200
61858.1
62622.3
151133
148461
146298
146545
146153
145990
146453
198371
197496
196602
195965
195966
196015
194056
211976
213108
213134
212923
212946
212783
210812
194659
196050
196398
196843
197590
197788
197045
145097
145307
146339
147489
149574
151304
150263
61088.9
61095.1
61277.4
62478.2
65033.7
67727.1
67497.3
66952.1
64849.4
62721.8
62043.9
61124
61143.3
61113.8
152338
149289
146521
146221
145869
145232
144935
198806
197743
196725
196021
195737
195597
193612
212127
213209
213295
213132
213095
212857
211029
194469
195879
196333
196971
197984
198232
197292
143966
144899
146051
147585
150751
152659
151127
59811.8
60480.2
61192
62748.1
65318.8
68525.3
68716.8
66858.4
65114
63056.8
62184.5
61118.6
60214.2
59694.7
152404
149684
147290
146534
145735
144600
143692
198839
197985
197001
196286
195794
195397
193719
212496
213379
213536
213427
213346
213020
211559
194542
195787
196390
197200
198284
198435
197462
143047
144568
146077
148018
151100
152751
151280
58794
59804.7
61061.5
62981.7
65434.2
68286.7
68200.5
66911.4
65282.4
63555.8
62357.4
60931.5
59693.1
59074
152462
150097
148119
147142
145600
144163
143083
198844
198234
197308
196547
195932
195378
194012
212934
213623
213812
213737
213619
213231
212079
194606
195747
196539
197477
198494
198585
197661
142483
144267
146238
148352
151119
152361
151301
58499.5
59484.1
60914.7
62981.9
65317.1
67573
67484.2
67291.6
65661.7
64048.7
62643.3
60974.1
59559.1
58967.7
152672
150617
148925
147538
145683
144064
143164
198920
198456
197605
196784
196064
195364
194277
213378
213855
214037
213994
213803
213389
212510
194673
195728
196717
197718
198636
198719
197913
142495
144335
146436
148544
151110
152311
151512
58531.2
59474.9
60964
63024.4
65156
67072.9
67548.6
67882.6
66231.4
64476.7
62919.5
61109.5
59522.6
58871
152833
151139
149621
147898
145891
144097
143214
199091
198673
197890
196996
196174
195338
194422
213768
213971
214145
214105
213874
213408
212807
194752
195759
196865
197895
198759
198830
198135
142605
144564
146587
148672
151222
152667
151860
58530.3
59494.8
61076.4
63138.9
65111
67012.9
67921.4
68228.1
66562.2
64755
63091
61217
59517.4
58845.4
153002
151451
150014
148204
146044
144137
143210
199372
198803
198056
197153
196253
195332
194533
214037
213986
214188
214116
213894
213359
212986
194808
195842
196989
198008
198907
198942
198404
142662
144661
146717
148877
151473
153090
152270
58504.3
59475.6
61199.6
63287.7
65162.4
67183.2
68371.2
62501.3
61689.6
61409.3
62196.7
65282
71238
79633.1
144955
144008
143782
143889
144404
146596
150622
189206
189701
190373
190303
189204
187233
185184
206022
206422
206282
205285
203370
200654
197577
196832
196417
195690
194726
193597
192359
191068
151316
151125
151125
151952
153677
156461
160345
67552.3
66567.2
66498.6
68238.1
71664.6
77036.6
84660.6
61066.9
60730.2
60493.2
61052.2
63304.1
68172.6
75911
143766
143307
142992
142974
143479
145050
148081
190701
190392
190631
190410
189154
187106
184832
207668
206742
206244
205205
203335
200724
197683
196702
196063
195212
194391
193479
192347
191107
149940
149715
150093
151202
152933
155384
158798
66010.5
64923.1
65293.7
67197.4
70468.8
75068.7
81390.5
59651.6
59635.6
59697.8
60066.7
61178.7
64011.2
69982.6
142791
142663
142451
142290
142300
142882
144649
191662
190917
190818
190419
189111
186958
184466
208918
207447
206419
205210
203332
200813
197816
196699
195892
194777
193986
193225
192247
191174
149232
148715
149213
150577
152349
154305
156757
65119.4
64022.5
64658.3
66699.8
69948.5
73803
77812
59133.2
59203.9
59354
59607.5
60113.7
61253.8
64632.6
142570
142389
142152
141862
141511
141346
141884
192290
191373
190826
190298
188995
186799
184210
209820
208195
206712
205214
203308
200727
197639
196522
195534
194387
193545
192794
192045
191355
149375
148658
149100
150454
152235
154054
155678
65352.7
64699.4
65317.2
67237
70268.9
73755.4
76423.2
58978.7
59036.5
59175.2
59405.4
59792.2
60375.8
61895.7
142707
142393
142058
141627
141093
140780
141059
192721
191749
190922
190092
188677
186624
184057
210520
208926
207190
205340
203103
200234
196796
196425
195323
194154
193213
192377
191419
190342
149848
149139
149369
150638
152345
154089
155477
66283.6
65974.8
66695.1
68498.8
71180.9
74213.5
76356.1
58871.2
58911.2
59025.8
59251.3
59649.4
60143.8
60816
142750
142379
141952
141478
140940
140613
140753
192957
192024
191111
190024
188455
186170
183218
211032
209592
207807
205682
203060
199378
194480
196605
195395
194105
192936
191700
189996
187833
150493
149877
149912
150902
152413
153852
154975
67238.5
67272.4
68105.6
69790.5
72070.9
74374.3
76058.7
58892.7
58911.6
59027.1
59248.9
59572.3
59942.9
59979.8
142709
142373
141930
141457
140931
140410
140031
193070
192211
191246
190082
188437
185895
181638
211334
210008
208237
206022
203129
198811
191333
196845
195556
194061
192763
191401
189159
184880
151078
150650
150660
151466
152834
153934
154053
68017.5
68317.7
69221.7
70769.1
72737.9
74488
75414.4
84764.7
79135.3
75332.7
73002.5
71472.4
70576.1
69483.5
164628
161680
159828
158670
157712
156827
155610
193781
195244
196679
198002
198903
199294
199355
198221
201160
204030
206446
208093
208959
209196
182668
184811
187171
189266
190735
191351
191389
147523
143884
142093
141682
141695
142084
143103
79879.9
70671.8
64394.5
60950.3
59914
60221.3
60890.8
81642.9
77235.1
74478.7
72410.4
70613.5
69268.7
68180.5
162526
160120
158774
158051
157195
155856
154464
193257
194882
196528
197853
198654
199053
199189
198206
201133
204045
206428
208025
209002
209903
182497
184853
187373
189474
190863
191567
192256
145415
142405
141118
141085
141382
141735
142391
74891.4
66746.6
61958.5
59766.2
59074.6
59163.3
59509.8
79173.7
76551
74546.2
72493.9
70509.8
69007.1
68003.5
160783
159139
158489
158384
157295
155455
154117
192917
194465
196417
197978
198657
198858
198973
198303
201303
204215
206551
208190
209354
210544
182545
185103
187720
189778
191027
191784
192689
142300
140624
140219
140485
140899
141286
141700
67878.3
62136.8
59628.9
58757.6
58482.9
58427.3
58491.2
78523.6
76821.5
74954.9
72937.4
70950.4
69378.8
68406.8
160577
159266
158229
157924
156996
155448
154193
192808
194140
195807
197364
198277
198615
198729
198152
201405
204420
206787
208535
209927
211214
182914
185483
188039
189984
191143
192019
193007
140316
139708
139872
140295
140748
141211
141567
63316.9
60071.9
59007
58654.8
58462.6
58330.6
58329.1
78405
77022.6
75191.6
73126.5
71077.8
69433.1
68566.9
160114
159457
158401
157484
156261
154969
154069
192044
193617
195350
196894
197967
198481
198616
197516
201192
204477
207087
209083
210635
211907
183422
185872
188202
190082
191396
192371
193299
140432
139915
140154
140699
141248
141664
141934
61802.7
60119.7
59304.4
58962.4
58709.4
58518.4
58440.9
78038.1
76903.9
75193.2
73044.6
70765.3
69094.2
68432.9
159363
158981
158270
157286
155819
154479
153662
190195
192678
194954
196720
197977
198596
198749
195718
200620
204618
207497
209716
211364
212518
183142
185846
188387
190308
191697
192677
193481
140756
140432
140642
141119
141612
141943
142132
61537.9
60584.6
59775.2
59274.8
58932.8
58712.9
58587
77687.1
76708.8
75028.4
72897.9
70614.7
68946.1
68568.3
158562
158595
158217
157274
155852
154425
153629
187824
192086
194815
196820
198155
198850
199133
193125
200324
204806
207896
210192
211870
212933
181771
185822
188564
190518
191872
192840
193574
140656
140788
141083
141434
141843
142122
142236
61423.3
60891.1
60269.2
59672.1
59240.4
59001.5
58754.2
102235
103748
103905
103565
100842
96287.9
91086.9
174914
175381
175325
174660
172968
170506
167786
193405
192927
192380
192100
192088
192298
192768
198265
197141
195622
194260
193563
194082
195854
187313
186117
183796
181678
180463
180459
181272
180821
176687
170224
164998
160514
156368
152172
109074
105788
102542
100218
97134.4
92971.8
87827.9
99199.2
100221
101118
100387
97178.3
92706.7
87517.7
173029
172655
173043
172487
170654
168313
165508
192700
192108
191671
191542
191631
191928
192390
197883
196792
195256
193871
193163
193803
195778
185205
184057
182295
180640
179551
179801
180843
174251
170502
165839
161755
157798
153772
149630
103226
101288
99566.4
97380.1
93680.6
89015.2
83118.5
97631.3
97435.7
97363.8
95897.2
92525.3
88395.2
83543
172440
171125
170701
170063
168200
166254
163379
191709
191079
190715
190777
191225
191752
192183
197384
196145
194457
193094
192527
193392
195597
182344
181545
180383
179247
178809
179385
180643
165321
162955
160057
156809
153239
149395
145575
95580.5
95288.9
94449.8
92066.1
88070.2
82923.9
76295.5
96057.5
94934.3
93576.2
91378
88198
84625.8
81050.3
171166
169353
168252
167465
165476
163831
161874
190397
189746
189536
189903
190752
191513
192063
196721
195130
193016
191569
191488
192891
195264
179069
178638
178028
177590
177899
179142
180780
157018
155744
153965
151488
148514
145269
142152
88577.3
88859.1
88309.6
86061.4
81840.4
76777.8
70259.7
93321.5
92249.5
90474.1
88168.9
85248.4
82249.4
79634.5
167913
166083
165045
164234
162726
161629
160212
188374
187840
187875
188498
189332
190003
190881
195730
193505
190782
189259
189690
191618
194326
175979
175624
175356
175664
176941
178962
181093
151046
150339
149357
147639
145330
143063
141388
83709.1
83550.2
82816.6
80482.5
76691
71825.9
66594.4
89500.2
89381.1
88056
86406.1
83551
81044.2
78742.3
163028
161927
161222
160836
159755
159467
158487
185274
184885
185191
185804
186536
187075
188264
193513
191295
188140
186471
186612
188255
191354
172990
172707
172593
173587
175816
178497
180838
147635
146906
146449
145813
144101
142418
141262
81219
79466.6
77996.4
76204.9
72673.8
68828.8
64677.8
84176.8
85208.1
84543.2
83916.3
80907.4
79012.1
77099.1
156948
156739
155991
156500
155881
156517
155344
181333
180959
181565
182082
182045
181490
181786
190573
188247
184969
182731
181736
181659
183913
169937
169855
169958
171573
173723
174892
176146
144672
143315
143486
144099
143051
141616
140052
78921.6
74859.1
73163.5
72167.9
68930.4
66017.1
62899.1
62814.6
62855.2
62908.4
62637.2
62874.1
62820
63213.7
136213
135934
135581
135592
135704
135133
133860
165714
165305
164428
162602
159740
156205
152265
173093
171262
168402
164855
160624
155795
150013
159503
159025
158176
157083
155200
152271
148690
129013
128502
127931
127661
127471
127051
126686
57065.1
57020
56759
56201.2
56335.6
56615
57092
50249.2
49916.1
50242
50543.4
50994.2
51500
51997.4
113885
113900
114039
114043
114187
114204
114643
143232
143148
142943
142718
142352
142000
141703
151299
150727
149963
149249
148684
148256
147678
139618
139420
139179
138998
138882
138778
138616
108170
108241
108382
108433
108473
108482
108532
46686.3
46940.7
47032.3
47142.7
47396.9
47614.7
47755.7
42986.1
43130.4
43271.3
43319.5
43469.6
43696.5
43869.5
99535.4
99756.2
99813.7
99666.9
99814.3
100223
100652
128572
128680
128990
129433
129755
129920
129950
136819
136816
137025
137404
137882
138391
138540
125468
125523
125753
126250
126831
127273
127460
94112.8
94347.5
94614.1
94889.1
95128.1
95314.4
95445.3
40501.1
40459.8
40502.7
40554
40558.8
40552.1
40522
39842.4
39842.1
39819.8
39795.6
39813.2
39824.8
39787.5
90605.9
90688.8
90705
90638.9
90580.7
90595.9
90661.9
119085
119114
119300
119513
119640
119642
119559
127954
127980
128131
128345
128552
128765
128828
117638
117653
117762
117989
118229
118392
118422
88458.6
88433
88469.2
88538.6
88629.3
88701.5
88763
38540.7
38516
38449.8
38421.5
38437.3
38409.2
38379.8
39015.1
39010.8
38999.9
38990.1
38970.4
38923.3
38954.4
87356.3
87362.6
87338.5
87314.3
87314.1
87317.6
87286.5
113971
113931
113894
113903
113856
113911
113780
122635
122486
122321
122191
122116
122132
122076
113862
113770
113670
113603
113576
113530
113396
86441.9
86431.7
86415.9
86407.9
86423.9
86416.4
86397.1
37695.6
37709.3
37739.6
37794.6
37780.6
37798.8
37849.9
40060.9
40036.7
40019.4
40008.9
39971.7
39902.8
39935.4
87680.5
87671.5
87702.9
87720.5
87730.6
87734.2
87739.8
111378
111306
111299
111363
111319
111433
111291
118624
118399
118172
117997
117906
117970
117779
111475
111405
111344
111285
111237
111215
111097
87213.9
87206
87198.9
87202.3
87210.2
87207.7
87200.9
39021.4
39057.9
39138.6
39241.8
39234.9
39287.2
39396.2
48938.5
48942.1
48926.5
48924.4
48933.1
48947.3
48933.2
87075.9
87087
87155.9
87200.2
87222.2
87221.4
87241.2
107018
106965
107069
107202
107200
107291
107216
113145
112977
112881
112791
112697
112854
112599
106715
106716
106764
106829
106826
106873
106859
86697.8
86724.9
86774.2
86832.6
86857.9
86885
86921.5
49242
49236.4
49220.4
49189.5
49191.5
49182.2
49156.8
86828.7
92303.3
97306.3
101390
103818
104062
101320
155252
159451
163557
167208
169752
170746
170630
183847
183094
182693
182850
183583
184613
185723
195088
193332
192114
192268
193766
195831
197448
189944
189126
188615
188532
189160
190406
191350
164239
167068
169497
172050
175204
179377
183094
91547.8
95723.8
98572.5
101162
103519
105404
107740
83222.8
88590.3
93532.9
97669.2
99617.2
99318.8
98373.8
152285
156141
159899
163303
165968
167608
168896
183187
182188
181618
181663
182380
183512
184669
195039
193050
191695
191713
193201
195366
197003
189985
189058
188320
188014
188330
189175
190091
162775
165888
168084
170082
172480
175340
178588
88769.9
94197.5
96805.3
98983.9
101578
102912
104159
77428.7
82947
87640.5
91789.3
94182
95671.2
96529.3
147805
151253
154778
158240
161478
164682
167467
182454
181055
180125
180043
180819
182066
183219
194871
192398
190869
190775
192157
194459
196242
190083
188998
187912
187239
187212
187673
188294
160358
163961
166353
167562
169225
171053
172850
84486
91070
94067.3
95851.8
98173.5
99408.9
99641.4
70906.4
76529.4
81171.2
85206.8
88226.3
90839.9
93193.7
143803
146510
149779
153227
156191
159807
163505
181945
180170
178674
178129
178696
179790
180783
194472
191256
189277
189280
190895
193314
195006
190161
188767
187371
186271
185753
185756
186043
157794
161249
164265
165085
165740
166706
167786
80824.5
86679.4
90834.8
92713.1
94372.4
95403.9
95630
66385.1
71573.9
76096.5
80015.6
83178.5
86098
88215.4
141914
143599
146026
148892
151256
154208
157404
181515
179292
177285
175942
175897
176708
177593
193140
189351
186749
186947
189009
191713
193599
189113
187739
186245
184774
183679
183297
183414
156599
159185
161985
162501
162529
162907
163467
79053
83283
87266.5
89387.5
90772.3
91885.2
92348.2
64485.2
69411.7
73222.8
76845.3
79530.7
81710.1
82593.9
141120
142769
143941
145375
146842
148782
150337
180433
177996
175438
173279
172570
173016
174033
189562
186122
184080
183972
185997
189099
191156
185977
184612
183534
181935
180590
180063
180029
155933
158048
158988
158982
159058
159073
159320
78196.5
81143.5
83323.2
85076.7
86917.7
88371.3
89629.4
63255.6
68052.8
70766.6
73836.9
75637.1
77290.7
76552.5
139271
141240
141247
141780
142067
143463
143441
174963
173760
172633
170316
168984
168970
170073
181193
178472
178441
179484
182003
185567
188004
178363
178058
178619
177749
176553
176091
176071
152374
154401
153639
152911
153254
153228
153666
76023.2
78169.9
78405.3
79457.2
81554
83174.3
85114.4
55473.1
55719.7
56471
56559.7
57084.1
56598.6
56472.7
122282
122878
123351
123800
124322
124776
125100
143248
147419
150620
152627
153803
154589
155073
143492
149735
154893
159276
163090
166247
168211
143808
148205
152148
155440
157787
159145
159874
127612
128343
128088
127490
127687
128455
129107
58935.5
58691.6
58600.5
58181.8
57392.1
57596.9
57239.6
45993.4
45688.3
45331.6
44780.1
44333.1
44338
44577.2
105009
104660
104371
104185
104013
103791
103683
133858
134026
133936
133847
133856
133959
134093
141622
142371
142751
143317
144053
144789
145312
135552
135895
136092
136519
136977
137289
137503
109107
108609
108627
109049
108798
108475
108299
49080.1
48619.3
48321.8
48065.2
47674.4
47403.2
47172.6
39857.8
39736.6
39625.9
39569.3
39516.3
39444.4
39367.9
92785.3
92638.7
92339.5
92015.2
91734.3
91470.3
91257.5
123551
123352
122770
122045
121463
121147
121044
134074
133917
133205
132566
132098
131826
131777
125579
125577
125204
124782
124237
123785
123674
96324.4
96233.3
96193.3
96375.8
96162.1
95743.8
95441
41635.2
41548.7
41494.8
41523.9
41577.7
41530.9
41504.7
37898.4
37877.6
37835.6
37789
37798
37838.9
37862.9
86974.9
86908.8
86862.5
86783.1
86687.5
86612.3
86606.8
115797
115783
115574
115293
115067
114984
114976
125923
125871
125582
125332
125141
125032
125019
116973
117014
116889
116718
116433
116218
116193
88336.4
88369.5
88413.4
88433
88366.4
88261.5
88218.8
38454.4
38454.4
38462.8
38541.6
38601.9
38652.5
38674.1
37371.3
37373.6
37382.1
37411.9
37374.2
37359.6
37354.2
85623.4
85620.3
85607.9
85587.9
85589.5
85607.5
85624.5
112425
112542
112538
112544
112611
112732
112863
120816
120976
120979
121086
121265
121490
121678
112762
112844
112779
112880
112938
112952
113047
86036.9
86029.2
86020.4
86042.9
86071.4
86067.7
86069.4
37641.3
37648.6
37667.7
37632.4
37605.2
37588.8
37577.4
38959.5
38978.5
39022.5
39083.1
39014.1
38958.6
38933.1
86928.7
86929.1
86924.7
86921
86928.2
86945.5
86960.4
110925
111056
111046
111078
111110
111168
111269
117518
117794
117749
117845
118040
118276
118518
110966
111088
111001
111062
111057
111032
111125
87036.5
87021.1
87013.4
87011
86996.9
86980
86969.4
39096.2
39130.5
39190.4
39127.5
39045.9
38990.4
38960
49305.4
49304
49294.1
49276.5
49290
49294.1
49292.1
86858.5
86858.8
86861.5
86857.4
86811.4
86768.2
86744.7
106796
106872
106842
106855
106782
106733
106747
112449
112760
112610
112693
112792
112896
113081
106733
106834
106782
106776
106661
106566
106585
86830.9
86843.3
86860.3
86840.4
86755.6
86691.5
86658.6
49277.7
49270.8
49257.4
49287.4
49303.8
49309.2
49310.4
)
;

boundaryField
{
    fuel
    {
        type            zeroGradient;
    }
    primary_air
    {
        type            zeroGradient;
    }
    Secondary_air_RHS
    {
        type            zeroGradient;
    }
    Secondary_air_LHS
    {
        type            zeroGradient;
    }
    outlet
    {
        type            totalPressure;
        rho             rho;
        psi             none;
        gamma           1;
        p0              uniform 100000;
        value           nonuniform List<scalar> 
98
(
44853.2
75471.5
100000
100000
100000
75500.2
44864.6
44817.1
75448.9
100000
100000
100000
75445
44852.5
44835.7
75475.1
100000
100000
100000
75285
44676.9
44648
75308.6
100000
100000
100000
75546.3
44839.6
44843.9
75383.3
100000
100000
100000
75359.2
44816.9
44834.5
75261.6
100000
100000
100000
75169.1
44803.7
44852.5
75194.8
100000
100000
100000
75123.3
44823.8
45077.3
75435.7
100000
100000
100000
75238.5
44867.6
44994.9
75747.5
100000
100000
100000
75303.4
44865.6
45218.3
75918.8
100000
100000
100000
75435.3
44869.1
45013
75728.1
100000
100000
100000
75314.6
44686.7
44988.3
75817.7
100000
100000
100000
75506.9
44942.8
45197.4
75971.4
100000
100000
100000
75518.5
44955.1
45007.9
75796.6
100000
100000
100000
75450.8
44748.2
)
;
    }
    stove_body
    {
        type            zeroGradient;
    }
    frontAndBack
    {
        type            empty;
    }
}


// ************************************************************************* //
