/*--------------------------------*- C++ -*----------------------------------*\
  =========                 |
  \\      /  F ield         | OpenFOAM: The Open Source CFD Toolbox
   \\    /   O peration     | Website:  https://openfoam.org
    \\  /    A nd           | Version:  6
     \\/     M anipulation  |
\*---------------------------------------------------------------------------*/
FoamFile
{
    version     2.0;
    format      ascii;
    class       surfaceScalarField;
    location    "0.0075";
    object      phi;
}
// * * * * * * * * * * * * * * * * * * * * * * * * * * * * * * * * * * * * * //

dimensions      [1 0 -1 0 0 0 0];

internalField   nonuniform List<scalar> 
10143
(
4.45424e-07
-3.48065e-05
4.62882e-05
1.00072e-08
-3.32263e-05
4.60016e-05
1.85072e-07
-3.30414e-05
4.53278e-05
1.14742e-07
-3.30835e-05
4.54213e-05
-2.14816e-07
-3.3018e-05
4.53978e-05
-4.96079e-07
-3.31653e-05
4.54674e-05
-3.49388e-05
4.61414e-05
1.53983e-07
-1.9729e-05
-8.90327e-06
5.82513e-07
-1.92313e-05
-8.48323e-06
-8.81063e-07
-1.92182e-05
-6.27945e-06
-1.69214e-06
-1.91661e-05
-7.0986e-06
-8.44268e-07
-1.93871e-05
-8.52957e-06
-7.06055e-07
-1.94703e-05
-7.76018e-06
-1.97973e-05
-9.56704e-06
-4.49833e-08
-9.95761e-06
5.99793e-06
5.08346e-07
-9.95199e-06
5.92105e-06
1.96882e-08
-1.0407e-05
7.41517e-06
2.73199e-07
-1.02447e-05
6.55494e-06
6.16419e-07
-1.02457e-05
6.27898e-06
-9.62896e-08
-1.05709e-05
7.63586e-06
-9.94636e-06
5.80306e-06
-3.16211e-08
1.00635e-05
3.96148e-06
4.66527e-07
1.00499e-05
3.38123e-06
4.48737e-07
1.03431e-05
3.15441e-06
-1.19512e-07
1.02825e-05
3.98965e-06
-7.36801e-07
1.01478e-05
4.19339e-06
-5.99723e-07
1.03336e-05
2.82872e-06
9.87533e-06
3.48945e-06
-2.11963e-07
2.00411e-05
6.00787e-06
-1.73057e-07
1.99926e-05
5.7489e-06
-3.48084e-07
1.95728e-05
6.7762e-06
-8.63458e-08
1.92119e-05
6.64122e-06
6.28618e-07
1.94092e-05
5.87538e-06
1.48578e-07
1.95113e-05
7.12962e-06
2.00541e-05
5.73214e-06
3.64214e-07
3.54501e-05
-9.55318e-06
8.33666e-07
3.46245e-05
-9.00666e-06
-4.60932e-08
3.37236e-05
-7.33978e-06
-7.62859e-07
3.32084e-05
-7.35808e-06
-1.1237e-07
3.33172e-05
-8.77282e-06
-4.28064e-07
3.35457e-05
-7.68932e-06
3.56087e-05
-9.79042e-06
3.22919e-07
4.67839e-05
2.5846e-07
4.68571e-05
1.31689e-07
4.59783e-05
1.00915e-07
4.51956e-05
-1.86846e-07
4.57166e-05
-4.31218e-07
4.58839e-05
4.68396e-05
6.26072e-08
-3.32714e-06
5.9811e-05
4.33003e-08
-3.5277e-06
5.95309e-05
5.30773e-07
-2.86987e-06
5.7544e-05
6.80768e-07
-3.25404e-06
5.84597e-05
2.53786e-07
-3.25362e-06
5.88636e-05
-1.52086e-07
-3.4647e-06
5.91387e-05
-3.78461e-06
6.01693e-05
-4.42528e-08
-5.09013e-06
-1.42238e-05
1.61444e-07
-5.1125e-06
-1.44532e-05
-8.35354e-07
-4.53727e-06
-1.09631e-05
-1.09165e-06
-4.9749e-06
-1.25769e-05
-2.02327e-07
-5.23483e-06
-1.4877e-05
-2.10425e-07
-5.10533e-06
-1.3459e-05
-5.43873e-06
-1.5302e-05
2.7248e-07
-4.49978e-06
5.96962e-06
4.36479e-07
-3.795e-06
5.51615e-06
-1.69129e-08
-4.47187e-06
9.06191e-06
7.36789e-07
-5.68008e-06
7.65719e-06
9.57409e-07
-5.36228e-06
7.30237e-06
1.48556e-07
-4.39877e-06
9.0676e-06
-4.36176e-06
5.73855e-06
-5.60296e-08
4.28045e-06
4.18446e-06
8.25473e-07
4.04454e-06
3.49597e-06
6.21311e-07
4.64545e-06
3.07527e-06
-3.99345e-07
5.09099e-06
3.13866e-06
-1.28818e-06
5.26747e-06
3.37336e-06
-8.33558e-07
4.77107e-06
2.03354e-06
4.12104e-06
3.05976e-06
-1.86346e-07
5.62083e-06
5.73635e-06
-4.54964e-07
5.5179e-06
5.30549e-06
-3.61401e-07
5.26864e-06
7.32163e-06
2.98804e-07
5.12509e-06
7.1803e-06
9.70346e-07
5.49569e-06
6.15039e-06
4.69098e-07
5.72224e-06
7.93187e-06
5.70164e-06
5.4693e-06
9.91053e-08
4.36566e-06
-1.557e-05
3.27998e-07
3.10045e-06
-1.40887e-05
-8.82314e-08
3.96133e-06
-1.30514e-05
-4.18603e-07
3.77062e-06
-1.33421e-05
3.45528e-07
3.67335e-06
-1.52013e-05
-5.85476e-08
4.09441e-06
-1.29758e-05
4.39288e-06
-1.57035e-05
3.06198e-07
6.13166e-05
-1.46542e-07
6.06053e-05
8.67908e-08
5.98706e-05
6.66035e-08
5.89546e-05
-1.66206e-07
5.96982e-05
-2.81806e-07
6.01349e-05
6.15383e-05
-6.48583e-07
1.35582e-05
5.25751e-05
-4.83234e-07
1.1499e-05
5.23918e-05
8.76229e-07
1.01802e-05
5.00232e-05
1.37902e-06
1.14237e-05
5.07377e-05
9.69224e-07
1.23134e-05
5.1711e-05
4.06053e-07
1.25048e-05
5.21966e-05
1.36117e-05
5.27627e-05
1.26884e-07
-3.45273e-06
-7.11877e-06
3.74178e-07
-4.3519e-06
-8.45908e-06
-7.09769e-07
-3.3877e-06
-5.9685e-06
-1.11035e-06
-3.83917e-06
-6.62845e-06
-4.03473e-07
-4.7386e-06
-8.28006e-06
-2.07599e-07
-4.19795e-06
-7.04683e-06
-3.41118e-06
-8.33978e-06
4.17628e-07
-3.82832e-06
6.21886e-06
4.15124e-07
-2.98087e-06
4.20376e-06
5.2359e-08
-3.42171e-06
9.55502e-06
8.11754e-07
-5.09926e-06
8.25974e-06
7.52273e-07
-4.59917e-06
7.32513e-06
1.49431e-07
-2.30563e-06
8.07992e-06
-2.51073e-06
5.27716e-06
-2.00435e-07
3.01914e-06
6.25307e-06
8.2816e-07
1.74431e-06
6.41274e-06
5.48126e-07
3.76254e-06
4.83106e-06
-3.97767e-07
4.11398e-06
3.51959e-06
-1.42863e-06
4.56201e-06
3.89878e-06
-8.11598e-07
3.17071e-06
4.61421e-06
2.29564e-06
6.14092e-06
-1.23338e-07
3.55807e-06
5.65109e-06
-5.13497e-07
3.35284e-06
4.3372e-06
-2.02668e-07
3.37001e-06
7.57758e-06
2.77888e-07
4.13365e-06
6.87076e-06
7.71541e-07
3.93571e-06
6.46159e-06
5.53837e-07
3.72213e-06
7.75579e-06
3.56495e-06
5.06206e-06
5.95846e-08
-1.33525e-05
-8.52571e-06
2.83326e-07
-1.31854e-05
-7.95016e-06
-1.04442e-07
-1.24818e-05
-6.91719e-06
-2.46134e-07
-1.32982e-05
-5.79458e-06
-6.41198e-08
-1.27014e-05
-8.8081e-06
-2.70178e-07
-1.25219e-05
-6.40991e-06
-1.33142e-05
-8.881e-06
-1.07685e-07
5.40697e-05
-8.69107e-07
5.33649e-05
-3.8848e-07
5.18468e-05
1.44744e-07
5.04566e-05
1.13088e-07
5.19019e-05
1.68051e-07
5.2493e-05
5.43576e-05
-8.2589e-07
1.57913e-05
4.01323e-05
-4.55906e-07
1.22852e-05
4.13647e-05
8.77824e-07
9.35611e-06
4.07781e-05
1.35361e-06
1.20247e-05
3.98901e-05
1.07625e-06
1.45527e-05
3.92413e-05
7.83786e-07
1.44959e-05
4.00279e-05
1.5955e-05
4.01186e-05
7.13556e-07
-1.79784e-06
-1.4261e-06
5.07023e-07
-3.3697e-06
-3.33792e-06
-8.0963e-07
-2.79611e-06
-2.63835e-06
-1.64703e-06
-2.27822e-06
-2.31523e-06
-8.25841e-07
-4.3039e-06
-1.17219e-06
-3.94569e-07
-3.56366e-06
-5.03489e-07
-1.84551e-06
-2.20173e-06
5.14523e-07
-3.68246e-06
7.48056e-06
4.91413e-07
-4.71308e-06
5.45863e-06
1.70461e-07
-3.29695e-06
1.00525e-05
7.6901e-07
-3.49963e-06
8.70426e-06
5.21518e-07
-5.18569e-06
8.31992e-06
2.79222e-08
-3.29498e-06
8.16427e-06
-3.1227e-06
6.48208e-06
-1.12866e-07
3.33673e-06
8.03859e-06
7.13328e-07
2.31948e-06
7.18162e-06
3.48958e-07
6.06038e-06
4.443e-06
-3.46156e-07
5.83445e-06
3.48515e-06
-1.27466e-06
4.72747e-06
3.53902e-06
-7.14459e-07
2.54501e-06
6.82778e-06
2.73545e-06
8.24586e-06
-3.6653e-11
1.89401e-06
7.02956e-06
-4.96945e-07
1.30834e-06
5.62049e-06
-1.07914e-07
2.99503e-06
1.01675e-05
3.85261e-07
3.17618e-06
8.91319e-06
6.23667e-07
2.81218e-06
8.03048e-06
4.6154e-07
1.98864e-06
8.31146e-06
1.92196e-06
6.21105e-06
4.15175e-07
-1.58725e-05
-2.42966e-06
3.40538e-07
-1.4888e-05
-3.12879e-06
1.08433e-07
-1.37488e-05
-9.95896e-07
-2.82482e-07
-1.15047e-05
-1.38796e-06
-4.36292e-07
-1.4292e-05
-2.73462e-06
-5.9112e-07
-1.41994e-05
-1.32451e-06
-1.58067e-05
-2.94711e-06
-4.75395e-07
4.1264e-05
-8.21377e-07
4.08804e-05
-8.80394e-07
3.99198e-05
4.43266e-07
3.96348e-05
1.92765e-07
3.95957e-05
4.21947e-07
3.99933e-05
4.15323e-05
-8.53759e-07
1.59964e-05
2.65455e-05
-2.13877e-07
1.35379e-05
2.83405e-05
5.92834e-07
1.1645e-05
2.95141e-05
1.27544e-06
1.33751e-05
2.69982e-05
1.18503e-06
1.46673e-05
2.57794e-05
9.86964e-07
1.47389e-05
2.66572e-05
1.60713e-05
2.65429e-05
1.00154e-06
-2.26324e-06
4.1301e-06
2.51158e-07
-2.36003e-06
1.77064e-06
-6.19885e-07
-2.27915e-06
1.01382e-06
-1.61434e-06
-1.89975e-06
2.46352e-06
-1.22647e-06
-2.556e-06
3.96423e-06
-6.37137e-07
-2.67881e-06
4.61209e-06
-1.96927e-06
3.36736e-06
6.81848e-07
-4.38738e-06
8.54899e-06
5.36537e-07
-4.44672e-06
7.22348e-06
3.02714e-07
-2.73557e-06
1.01393e-05
7.6923e-07
-3.21212e-06
8.96462e-06
2.79009e-07
-3.37271e-06
9.10802e-06
-1.0107e-08
-4.17414e-06
9.45989e-06
-4.06589e-06
8.18204e-06
-2.35411e-07
3.7928e-06
8.73852e-06
3.47595e-07
3.32773e-06
7.40617e-06
2.05114e-07
4.45853e-06
5.93302e-06
-3.12562e-07
4.27318e-06
5.06016e-06
-6.62757e-07
3.98447e-06
5.09712e-06
-5.64132e-07
3.72378e-06
7.3873e-06
3.92597e-06
8.31612e-06
1.41304e-07
2.15601e-06
8.16575e-06
-3.36676e-07
1.65049e-06
7.27683e-06
-6.33799e-08
2.70211e-06
1.12102e-05
3.74956e-07
1.97134e-06
1.03547e-05
3.50784e-07
2.57402e-06
8.99235e-06
3.05264e-07
2.32392e-06
9.21161e-06
2.19631e-06
7.82386e-06
6.75518e-07
-1.60269e-05
3.27985e-06
2.16738e-07
-1.45464e-05
1.64499e-06
4.42355e-07
-1.40036e-05
3.92904e-06
-4.78302e-07
-1.09681e-05
1.27021e-06
-7.8667e-07
-1.40123e-05
2.60398e-06
-7.08627e-07
-1.43402e-05
3.60784e-06
-1.60449e-05
2.83825e-06
-5.62343e-07
2.73075e-05
-9.20998e-07
2.78804e-05
-8.37428e-07
2.70552e-05
4.09588e-07
2.85066e-05
3.5645e-07
2.68094e-05
5.43288e-07
2.66703e-05
2.75169e-05
-7.54061e-07
1.27101e-05
1.57053e-05
2.48824e-07
1.08566e-05
1.72388e-05
1.08989e-07
1.24882e-05
1.82793e-05
9.91941e-07
1.00075e-05
1.68127e-05
9.95711e-07
1.07216e-05
1.56691e-05
1.17007e-06
1.1269e-05
1.59006e-05
1.33696e-05
1.54083e-05
8.66374e-07
-3.23977e-06
7.78069e-06
-2.85495e-07
-3.02151e-06
5.4076e-06
-1.23866e-07
-3.64745e-06
5.44981e-06
-1.44691e-06
-2.93002e-06
5.65065e-06
-1.68397e-06
-2.59494e-06
6.24302e-06
-7.37667e-07
-3.80822e-06
7.45868e-06
-2.8911e-06
7.24332e-06
1.01762e-06
-6.85114e-06
1.06135e-05
3.57394e-07
-5.0104e-06
9.23468e-06
3.79445e-07
-4.93317e-06
1.05508e-05
7.56428e-07
-5.125e-06
1.00344e-05
1.74819e-07
-3.61616e-06
9.85944e-06
-6.76014e-08
-5.47746e-06
1.06622e-05
-5.40657e-06
1.00613e-05
-5.44406e-07
5.92185e-06
5.10787e-06
1.4865e-07
4.51704e-06
5.72711e-06
8.71499e-08
4.18589e-06
5.39116e-06
-3.35063e-07
3.81244e-06
5.02576e-06
-3.09771e-07
4.41036e-06
5.56452e-06
-5.78058e-07
6.01911e-06
4.62611e-06
5.61836e-06
5.29664e-06
4.83876e-07
2.95078e-06
1.01191e-05
-2.85108e-07
3.23234e-06
8.72517e-06
2.02627e-08
3.3674e-06
1.09608e-05
1.62062e-07
3.00873e-06
1.02355e-05
1.35609e-07
2.82854e-06
9.88848e-06
1.56164e-07
3.7692e-06
1.07136e-05
3.04963e-06
9.93464e-06
5.75691e-07
-1.28624e-05
6.96235e-06
1.29267e-07
-1.11862e-05
4.92144e-06
5.68602e-07
-1.09616e-05
6.54877e-06
-2.90932e-07
-1.13611e-05
5.01739e-06
-8.90104e-07
-9.72715e-06
4.64125e-06
-5.21501e-07
-1.09577e-05
6.79367e-06
-1.309e-05
6.94486e-06
-5.40939e-07
1.60534e-05
-9.2366e-07
1.79143e-05
-5.80575e-07
1.65767e-05
1.56314e-07
1.72583e-05
3.24383e-07
1.75598e-05
5.95693e-07
1.61421e-05
1.6052e-05
-8.4773e-07
1.36253e-05
4.84447e-07
1.31682e-05
-7.56295e-08
1.57833e-05
1.04421e-06
1.28071e-05
1.04391e-06
1.27089e-05
1.41592e-06
1.25479e-05
1.38315e-05
7.94195e-07
-2.24281e-07
-3.91732e-07
-8.95031e-07
4.51832e-07
-6.97608e-07
-1.13446e-06
-4.18946e-07
-1.73055e-06
-8.52652e-07
-5.51465e-07
-1.47214e-06
-3.95798e-07
1.41019e-06
-1.84543e-06
1.94042e-07
-1.47454e-06
5.89181e-07
-1.57635e-06
8.51733e-07
-1.67654e-06
3.34071e-07
-1.50352e-06
-1.50529e-07
-1.33545e-06
-1.31314e-06
-5.4135e-07
1.85707e-06
1.16083e-07
1.60249e-06
-2.12e-08
1.90278e-06
-3.7165e-07
1.63645e-06
-5.05006e-07
2.12379e-06
-6.88957e-07
1.4672e-06
1.28928e-06
7.5881e-07
4.06955e-07
-4.85629e-07
6.12196e-07
2.01949e-07
1.2034e-06
2.89258e-07
8.15117e-07
3.49224e-07
9.81033e-07
1.18441e-07
1.44641e-06
4.4793e-07
1.49384e-07
-1.36241e-05
2.58758e-07
-1.56766e-05
6.85907e-07
-1.31388e-05
-4.33029e-07
-1.37371e-05
-9.31919e-07
-1.4839e-05
-2.88717e-07
-1.27171e-05
-1.36984e-05
-5.48167e-07
-1.15393e-06
-5.90065e-07
1.57234e-08
2.04008e-07
6.76089e-07
-0.00423219
0.00294292
0.00157463
-0.00208359
0.00378575
-0.00580364
0.000406021
0.0041528
-0.00651554
0.00363733
0.00294952
-0.00605035
0.00447929
0.00255951
-0.00326116
0.00414628
0.00257495
-0.00207083
0.0020621
0.00236392
-0.00764486
0.00587279
0.00546641
-0.00617605
0.00498803
-0.00236165
-0.000803212
0.00537996
-0.0063012
0.0067073
0.00545979
-0.00966718
0.00938467
0.00513257
-0.00487323
0.00838497
0.00458591
-0.000617294
0.00554062
0.00559528
-0.00293764
0.00252443
0.00681551
-0.00292423
0.00180437
0.0037002
-0.000619041
0.0012835
0.00226181
0.00258492
0.000843475
0.00190609
0.00414506
0.00163547
0.0024427
0.00348414
0.00218595
0.00360108
0.00279084
0.00675229
0.00123167
-0.00320968
0.00444264
0.00164855
-0.00222503
0.00381535
0.000849235
-0.00109871
0.00341252
-0.0010036
-0.00030311
0.00331535
-0.00154144
-0.000976161
0.00335375
-0.00110981
-0.00184058
0.00375293
-0.00275885
0.00433014
-0.00458762
-0.00615869
0.00821005
-0.00532697
-0.00521681
0.00435136
-0.00260939
-0.00627732
0.00301839
0.00151812
-0.00654759
0.00263166
0.00412723
-0.00598327
0.00286852
0.00390081
-0.00553065
0.00446892
-0.00641299
0.00816997
-0.00928253
-0.00219677
0.00599572
-0.0103102
-0.00263569
-0.00123907
-0.00571392
-0.002885
-0.00768934
0.00155899
-0.00340005
-0.0101981
0.00739466
-0.00443249
-0.00718341
0.00845849
-0.00428629
-0.00209294
-0.00321109
0.0059478
-0.00461826
0.00264056
-0.00430321
-0.00281893
-0.00312506
-0.00394534
2.50364e-05
-0.00644505
0.00277011
-0.00708202
0.0046639
-0.00607273
0.00168763
-0.0021871
0.00246656
0.00163428
-0.00106125
0.00169403
-0.00854395
-0.000197241
0.00249835
-0.00979222
0.00146857
0.00167997
-0.00930965
0.00208955
0.00150675
-0.00530265
0.00227507
0.00158991
-0.0037778
0.0017959
0.0032182
-0.00236797
0.00354832
0.0075265
-0.00222534
0.00265874
-0.00325376
-0.000124731
0.00238449
-0.00799243
0.00338214
0.0015421
-0.0128433
0.00516889
0.00271646
-0.00747831
0.00342332
0.00306353
9.78782e-06
0.00343188
0.00813005
0.000105129
0.0018723
0.00855868
8.64033e-05
0.00131873
0.00531137
0.00023246
0.000710008
0.00401758
0.000658267
0.000165953
0.00309229
0.00100806
0.000790064
0.00428482
0.000584192
0.00149099
0.00586033
0.00198297
0.00887669
0.00157968
-0.00251646
0.00710728
0.00205187
-0.0016107
0.00636784
0.00086686
-0.000173493
0.00568084
-0.00121623
0.000424487
0.00541191
-0.00193717
-0.000624882
0.00565916
-0.00144434
-0.0014625
0.00626703
-0.00226631
0.00694773
-0.0011222
-0.00376128
0.010963
-0.00151463
-0.00329807
0.00685085
-0.000932346
-0.00202859
0.00459811
-0.000129701
-0.00146689
0.0039956
0.000538543
-0.00269998
0.00455493
0.000228609
-0.00277196
0.00644902
-0.00375304
0.0102272
-0.00467465
-0.00197184
0.00972982
-0.00607637
-0.00151623
-0.00128426
-0.00369287
-0.00155034
-0.0103444
-5.95388e-05
-0.00209496
-0.0131106
0.00272831
-0.00279546
-0.00966366
0.00271693
-0.00240777
-0.00220822
-0.00293035
0.00861484
-0.00273552
0.00368248
-0.00207284
-0.00491037
-0.000753253
-0.00674087
0.000908396
-0.0101186
0.00163358
-0.0105441
0.00255718
-0.00932896
0.00162646
-0.00124808
0.00237264
0.000857472
-0.000529466
-3.35508e-06
-0.00917178
-0.000636854
0.00130819
-0.0109471
-0.000466589
0.00107818
-0.0105187
-0.000154534
0.00131607
-0.00692518
0.000319992
0.000562679
-0.00483762
0.00139301
0.00239697
0.000769169
0.00287874
0.00636713
0.000287452
0.00226336
-0.00512176
0.00127252
0.00196077
-0.00941115
0.00177296
0.00150496
-0.013777
0.00328871
0.00243834
-0.0098968
0.000773836
0.00269599
0.000623399
0.00256139
0.00785265
0.00108617
0.00114727
0.00899688
0.00131988
0.00102752
0.00630925
0.00104081
0.00068517
0.00566077
0.000324087
0.000452617
0.00497465
0.000266385
0.000822685
0.00609324
-0.000148588
0.00123304
0.00780439
0.0012811
0.00973262
0.00105514
-0.0017986
0.00894852
0.00153999
-0.00147819
0.0084059
0.00059335
-0.000509292
0.00795182
-0.00105411
-7.91118e-05
0.00778737
-0.00157039
-0.000884549
0.00798927
-0.000970863
-0.00139346
0.00832602
-0.00147704
0.00873941
0.000500205
-0.00270514
0.0113529
0.000187801
-0.00242954
0.00826417
-0.000988537
-0.000983939
0.00639743
-0.00180298
-0.000864087
0.00571454
-0.00184491
-0.00178555
0.0056347
-0.00161135
-0.00218739
0.00703749
-0.00293522
0.0100724
-0.0010597
-0.0017153
0.0101773
-0.00387325
-0.000369714
-0.000339167
-0.00382939
-0.00113574
-0.0102504
-0.00277995
-0.0012877
-0.0137238
-0.00148206
-0.000980289
-0.0115948
-0.00131047
-0.000458781
-0.00422762
-0.00269091
0.00747858
-0.000924758
0.00328603
-0.000362273
-0.00582677
0.000306524
-0.00849589
0.000668688
-0.0116816
0.00104222
-0.0118358
0.00163291
-0.0103019
0.000954463
0.000253473
0.00213729
-0.00129715
-0.000221185
0.000491371
-0.00908997
-0.00137932
0.00105912
-0.0108214
-0.00187243
0.000827804
-0.0108493
-0.00142332
0.000933072
-0.00829628
-0.00122583
0.0005509
-0.00558316
0.00102856
0.000228472
0.00233821
0.00288228
0.00318309
0.00150938
0.00200279
-0.00592071
0.00189527
0.00181311
-0.0103806
1.2426e-05
0.00151353
-0.0126907
0.000352313
0.00121506
-0.0106372
-0.00157313
0.00180408
0.00115364
0.00209779
0.00503117
0.00139039
0.000896862
0.00931352
0.00165667
0.000710222
0.00721144
0.00196406
0.000370852
0.00681079
0.000961823
0.000483898
0.00705315
0.000110248
0.00100107
0.00721191
-0.000630108
0.00129799
0.00896592
0.00103586
0.00991226
0.000464081
-0.000849448
0.0103094
0.000936825
-0.00145281
0.0101214
0.000410773
-0.00100573
0.00992623
-0.00080767
-0.000339102
0.00993114
-0.00115546
-0.000605613
0.00999745
-0.000548832
-0.00116281
0.0101747
-0.00103611
0.0102939
0.00122921
-0.001734
0.0106908
0.000620146
-0.00132508
0.00869878
-0.00164569
2.38078e-05
0.00771291
-0.00298408
-0.000817975
0.00759932
-0.00273515
-0.00164926
0.00644338
-0.00185021
-0.00276709
0.00765348
-0.00305965
0.00994369
0.00287523
-0.00141313
0.00686837
0.000763355
-0.000395239
0.00051751
0.000221569
-0.000606448
-0.00930042
-0.00154644
-0.000944874
-0.0118873
-0.00194881
-0.000402222
-0.0123455
-0.00268074
-0.000682275
-0.00564493
-0.00222898
0.00398027
0.00118566
0.000852445
0.00151319
-0.00656225
0.00204949
-0.00961226
0.00133246
-0.0118581
0.00102848
-0.0118718
0.000191219
-0.0100725
-0.000862896
0.000167953
0.00222991
-0.00348271
-0.00188613
0.0011955
-0.00812712
-0.00293786
0.000106949
-0.00984851
-0.00292137
-0.000685768
-0.0101804
-0.00199555
0.000467617
-0.00966797
-0.00179909
0.000767325
-0.00645733
0.00122146
-0.00262765
0.00227426
0.00260787
0.000458289
0.00113455
0.00198178
-0.00557359
-0.00169603
0.00195977
-0.00945228
-0.0043381
0.000375527
-0.0113135
-0.00444637
0.000501843
-0.0109272
-0.00303927
0.00120747
-0.000992423
0.00210858
0.000979117
0.00134802
0.000563038
0.00978738
0.00181336
0.00032094
0.00834447
0.002548
0.000116653
0.00794349
0.00108349
2.89829e-05
0.00888934
-0.000451105
0.000918838
0.00833615
-0.000929881
0.00142566
0.00906792
0.00134431
0.00949511
0.00048242
-0.000986233
0.0114119
0.000859495
-0.00135801
0.0114122
0.000566054
-0.0011316
0.0114887
-0.000802915
-0.000248246
0.0116079
-0.00112103
-0.000323391
0.0115688
-0.000587162
-0.000572487
0.0116123
-0.00057451
0.0115998
0.00126507
-0.00192889
0.010066
0.000680054
-0.00119678
0.00892403
-0.00133141
-7.67223e-05
0.00867365
-0.00328571
0.00017995
0.00912582
-0.00294857
-0.00189722
0.00769726
-0.00166844
-0.00310245
0.0087088
-0.00300612
0.0103828
0.00452569
-0.00152756
0.00167226
0.00409005
-0.000204807
-0.000465211
0.00494924
0.000159155
-0.0107021
0.00323403
0.000581273
-0.0107885
-0.000448543
-0.000325894
-0.0103107
-0.00203569
-0.00129647
-0.00582277
-0.00247379
0.00128966
0.00196657
-0.00252666
0.0021686
-0.006929
0.00309582
-0.0103393
0.0034623
-0.011614
0.0023309
-0.0110162
5.42037e-05
-0.00903897
-0.003053
-0.00181535
0.0018721
-0.00337651
-0.00424428
0.000801419
-0.00642266
-0.00495408
-0.000556242
-0.0085508
-0.00384607
-0.00172955
-0.00959922
-0.0012856
-0.0019991
-0.0102315
-0.0008596
-0.000261606
-0.00653584
0.000537923
-0.00393912
0.000961308
0.00180381
-0.000428119
-0.00176171
0.00185553
-0.00377982
-0.00607906
0.00135337
-0.00713364
-0.00641983
-0.001551
-0.0112826
-0.00598908
-0.000956377
-0.0125935
-0.00240064
0.00101668
-0.00579503
0.00149652
-0.00238373
0.00140632
-0.000233391
0.0102884
0.00220305
-0.000216375
0.0095951
0.00221652
-9.95619e-06
0.0093397
8.7503e-05
-0.00071681
0.0102585
-0.00192236
-0.000217908
0.00961283
-0.00117783
0.000469159
0.00874225
0.000764231
0.00886061
0.00073753
-0.00090628
0.0114136
0.00113761
-0.000606222
0.0114697
0.000758911
-0.000158479
0.0120763
-0.000698151
0.000296399
0.0121388
-0.00119118
-0.000222285
0.012121
-0.000863209
-1.08108e-05
0.0118291
-0.000124905
0.0116511
0.00124621
-0.00181509
0.00949626
0.00179657
-0.00113326
0.00868793
-3.67378e-05
0.000540443
0.0098053
-0.00241468
0.00147002
0.0102786
-0.002812
-0.00128705
0.00917156
-0.00177402
-0.00216877
0.00969376
-0.00239183
0.0106236
0.00320008
-0.000936161
-0.00250482
0.00603562
0.000336558
-0.00476178
0.00783835
0.00184822
-0.0140333
0.00734036
0.00240529
-0.0114463
0.00218106
0.000244342
-0.00682269
-0.000621094
-0.000905332
-0.00415987
-0.00210713
0.000428279
0.000504289
-0.0039126
0.000956238
-0.00695146
0.00308054
-0.0105543
0.00507565
-0.0111681
0.00417403
-0.00981597
0.00178199
-0.00747313
-0.00321333
-0.00338535
0.00134417
-0.00118329
-0.00540113
-6.80308e-05
-0.00423562
-0.00613887
-0.00133949
-0.00638363
-0.00426327
-0.00216285
-0.00926825
-0.0011108
-0.00296803
-0.0104254
0.000984056
-0.00150737
-0.00706634
0.000154176
-0.00311477
-0.0007406
0.00171845
-2.2479e-05
-0.00415104
0.00139279
-0.00181745
-0.00799603
7.57943e-05
-0.00475429
-0.00699487
-0.00246065
-0.0120458
-0.00608521
-0.00177674
-0.0148964
-0.000371795
0.00113895
-0.014081
0.001234
-0.003945
0.00149416
-0.000451916
0.0109174
0.0023805
-0.000345265
0.010445
0.00026577
-0.000434189
0.0119848
-0.0005528
-0.00115903
0.00985691
-0.00290923
-0.000578501
0.0106926
-0.000794901
0.000837565
0.00695058
0.0015101
0.00766259
0.00061505
-0.00247337
0.0128212
0.00122149
-0.00181067
0.0123898
0.000877403
0.000130332
0.0119925
-0.000796814
0.000629631
0.012178
-0.000975032
-0.000116621
0.0120175
-0.000466566
-0.000102426
0.0124741
-0.00027964
0.013092
0.000855768
-0.00213445
0.00809155
0.00324735
-0.00184351
0.00627353
0.000560468
0.00129751
0.011327
-0.000136648
0.00246695
0.00913183
-0.00250061
-8.7325e-05
0.0115361
-0.00177242
-0.00150006
0.0104208
-0.00231578
0.0108252
0.00046251
-0.000300989
-0.00489145
0.00595844
0.00133401
-0.0131454
0.00724128
0.00238615
-0.0163911
0.00828524
0.00253374
-0.0126423
0.00387046
0.00133779
-0.00391249
0.000390889
4.27586e-05
-0.00219521
-0.00136142
-2.95429e-05
-0.00124363
-0.00292649
9.02334e-05
-0.00689112
0.00323825
-0.0111627
0.0055853
-0.0108897
0.0052642
-0.00804677
0.00314915
-0.00520092
-0.00128628
-0.000894196
-0.000703263
0.00269235
-0.000978106
-0.00247664
-8.4161e-05
-0.000641592
0.00238795
-0.00355626
-0.000153036
-0.00294502
0.00425294
-0.00277994
0.000532405
-0.00889984
0.00764649
-0.00211107
0.00188289
-0.0117021
0.00917514
-0.00271041
0.00292282
-0.0103767
0.00820475
0.00165357
-0.00640703
0.00222148
-0.00432337
0.000399095
0.00596725
-0.00259098
-0.00680706
-0.000129412
0.000767799
0.0017105
-0.00871355
-0.00142069
-0.00116549
0.00427378
-0.00879435
-0.00234916
-0.00940866
0.012244
-0.00722913
-0.0012345
-0.014793
0.0161776
-0.00437733
0.000684803
-0.0161135
0.0152622
0.00194812
-0.0093956
0.00501362
0.000136656
-0.000798452
0.0115845
-0.0106348
-0.000641838
-0.000596677
0.0112454
-0.010126
-0.00281886
-0.000308656
0.0116976
-0.0107345
-0.00486436
-0.000539555
0.0100204
-0.00977912
-0.00404589
-0.000247244
0.00660745
-0.00836908
-0.00239763
0.000458234
0.00442468
-0.005888
0.0011022
0.00476692
-0.00638547
0.000780401
-0.0017768
0.011996
-0.0118368
0.00107392
-0.00106549
0.0123356
-0.0122
0.000647009
-0.000329127
0.0127543
-0.0122264
-0.000526361
6.91905e-05
0.0130355
-0.0123227
-0.00101111
-1.5097e-05
0.0127109
-0.0122763
-0.000759259
0.000243626
0.012276
-0.0121247
0.000522559
0.011936
-0.0119451
0.00230282
-0.00215645
0.00423983
-0.00635201
0.00404158
-0.000967274
0.00396604
-0.00590978
0.00556916
0.000203954
0.00577078
-0.0078691
0.00324185
0.00177021
0.00990291
-0.00933052
0.000710474
0.00162237
0.0113085
-0.0104506
-0.000125905
0.000195686
0.0107871
-0.00991623
-0.000406009
0.0114473
-0.0106052
0.00281889
-0.00158842
-0.00810585
0.0049148
0.00461092
-0.0022075
-0.0165927
0.0157584
0.00660559
-0.00291111
-0.0167026
0.0177671
0.00747455
-0.00275643
-0.00933405
0.0129028
0.00605673
0.000315459
-0.000882051
0.00355217
0.00412456
-3.9717e-05
0.000153645
0.00203492
0.000758861
0.00555931
-0.00236103
0.000989242
-0.00424467
0.00184645
-0.000393437
-0.00706361
0.0064087
0.000749182
-0.0139487
0.010035
0.00186276
-0.0140407
0.0103156
0.00262412
-0.00643173
0.00606118
0.00121135
-0.00210659
0.00355111
0.00298585
-0.000900591
-9.67133e-05
-0.000514891
0.00344066
0.000275091
-0.0014183
0.000474791
0.000267446
-0.00198658
-0.000867225
-0.00131594
-0.000981845
-0.00620805
-0.00289555
0.000554787
-0.0105347
-0.00236088
0.00120994
-0.0117977
0.000718278
-0.00862361
-0.0017063
0.000541647
0.00674415
-0.00409685
-0.000445334
0.00211047
-0.00612694
-0.00210875
0.000911394
-0.00825876
-0.00290534
-0.00542917
-0.00757589
-0.001198
-0.0137256
-0.00492943
0.000222907
-0.0174614
0.00251392
-0.0151853
0.000106114
-6.34037e-05
0.0119511
-0.000767824
-3.26246e-05
0.0116089
-0.00335347
-9.28928e-08
0.0120972
-0.00648435
-0.000323031
0.0105139
-0.00695595
-0.000312537
0.00615529
-0.0051889
9.066e-05
0.00268536
0.00112117
0.00105593
0.00104801
-0.00171864
0.0124843
0.00128748
-0.000650627
0.0126481
0.000650176
-9.58227e-05
0.0134758
-0.000522871
5.45505e-05
0.0138844
-0.00117694
-0.000316357
0.0134638
-0.00106219
-0.000400351
0.0127268
-0.000346196
0.0124061
0.00557668
-0.00305875
1.39404e-06
0.00785438
-0.000310535
0.00115786
0.00727241
0.000744098
0.00544648
0.00348076
0.00307743
0.0105505
0.000842574
0.00200118
0.0115943
6.08724e-05
0.000172236
0.0109952
-0.000506804
0.0115971
0.00381792
-0.000418569
-0.0137328
0.00417469
-0.000898781
-0.0162843
0.00523682
-0.001447
-0.0156422
0.0047951
-0.000198409
-0.00572333
0.00373464
0.00166127
0.000425869
0.00154305
0.00113178
0.00132118
0.000393005
0.00633738
0.000464031
-0.00478167
0.000467278
-0.00766303
-0.00110228
-0.0137115
-0.00145745
-0.0138174
0.00129498
-0.00748608
0.000575315
-0.000207076
0.00406477
0.000237963
-0.000430294
0.00376231
0.00102274
-0.00148684
0.00121037
0.00192904
-0.0019846
0.000223621
0.00214336
-0.00121019
-0.00511844
0.00100636
0.00101411
-0.0103589
-0.000301936
0.00222237
-0.0127066
0.00134821
-0.00999407
-0.00106709
0.00075446
0.00662872
-0.00241029
-0.000826447
0.00264629
-0.00228635
-0.00262773
0.00126141
-0.00313571
-0.00382431
-0.00216376
-0.00296923
-0.00199061
-0.0110725
-0.00187542
0.000665461
-0.017124
0.00213081
-0.0179153
-0.000779384
0.00166807
0.0116762
-0.00241362
0.000987543
0.0113889
-0.00550342
0.000488784
0.0120196
-0.00969581
-0.000296069
0.0110269
-0.0110968
-0.00023627
0.00566519
-0.00720174
0.000325144
-0.000970463
0.000975855
-0.00488447
0.00247928
-0.00170501
0.0133159
0.00263904
-0.000704878
0.0141418
0.000979317
0.000419659
0.0151688
-0.00113272
0.000258375
0.0154217
-0.00232518
-0.000548915
0.0149547
-0.00205838
-0.00119844
0.0139811
-0.00199875
0.013304
0.00706638
-0.00331794
-0.00510776
0.0107314
-0.00156337
-0.00161071
0.00916141
0.00126127
0.0061211
0.0050962
0.00326837
0.0115379
0.00262176
0.00210109
0.0113895
0.00143979
0.000477385
0.0104729
-0.000577755
0.0114574
0.000290801
-0.00081173
-0.0164967
-3.92943e-05
-0.00214167
-0.0153139
0.000831034
-0.00208209
-0.0132536
0.00208858
-0.000723873
-0.00311194
0.00363131
0.000601385
0.000254643
0.00164374
0.00160295
0.00204827
0.000274147
0.00709885
-0.000182901
-0.00497102
-0.000664147
-0.0090335
-0.00272439
-0.0136721
-0.00324165
-0.0139981
-0.000233848
-0.0099047
-0.000155513
0.00136662
0.00426916
0.00029753
-0.000287077
0.00394095
0.0015036
-0.00177203
0.00182777
0.00360505
-0.0020987
0.000241145
0.00564387
-0.000656499
-0.00647457
0.00548253
0.00150889
-0.0117007
0.00285806
0.00259233
-0.0127048
0.00289747
-0.00998998
-0.0014574
-5.83164e-05
0.00777848
-0.0016523
-0.00226004
0.00315983
0.000278241
-0.00311916
0.000130976
0.00242154
-0.00389876
-0.00134349
0.00240505
-0.00215639
-0.00767623
0.0017709
0.00130454
-0.0154599
0.00338245
-0.0168105
-0.00372064
0.00342372
0.0118257
-0.00535183
0.00202862
0.00864565
-0.00614453
0.000894005
0.00869576
-0.00851086
-0.000282413
0.00964035
-0.00989215
-0.000693856
0.00549476
-0.00674033
-0.000917702
-0.0017609
3.02363e-05
-0.00803238
0.00242403
-0.000777349
0.0150808
0.00194561
0.000854471
0.0158335
0.00053782
0.00124119
0.0162676
-0.00115274
0.000471075
0.0163428
-0.00174902
-0.000780003
0.0156821
-0.00174267
-0.00208447
0.0151583
-0.00334209
0.0148634
0.00586068
-0.00458264
-0.00682909
0.0086724
-0.00228845
-0.00111013
0.00766685
0.00124381
0.00710465
0.00580853
0.00384856
0.00989884
0.00535095
0.0031984
0.00771301
0.00429335
0.00201485
0.00725888
0.000581598
0.0117056
-0.00440222
-0.000892253
-0.0158787
-0.00405445
-0.00184872
-0.0161409
-0.00228269
-0.00175581
-0.0121117
0.000824926
-0.000332259
-0.0022172
0.00339306
0.000723414
-4.59835e-05
0.00227468
0.00144395
0.00353537
0.000762498
0.00914347
-0.000813079
-0.00484599
-0.00259002
-0.00901348
-0.0045573
-0.0134257
-0.00441329
-0.0144715
-0.00183584
-0.0118183
-0.000192865
0.00128221
0.00500915
-2.0218e-05
-0.00100351
0.00519161
0.00174781
-0.00193386
0.00209848
0.00661839
-0.00144211
-0.00310508
0.0101835
-0.000101412
-0.00994976
0.0100804
0.000349161
-0.0119418
0.00636694
0.00178564
-0.010801
0.00284303
-0.00648471
-0.002544
-0.00133299
0.0106579
-0.00282907
-0.00270655
0.00405976
0.000494387
-0.00363965
-0.00117711
0.00630719
-0.00392441
-0.00352017
0.00868377
-0.00139816
-0.00853514
0.00646933
0.00202667
-0.0137106
0.0051898
-0.0128258
-0.00658293
0.00331082
0.0136674
-0.00860612
0.00215828
0.00544967
-0.00742417
0.0014827
0.00200622
-0.00644949
0.000164131
0.00438238
-0.00516945
-0.0017536
0.00450176
-0.00348017
-0.00295269
0.00164078
-0.000799545
-0.00539146
0.00101968
0.000200472
0.0171696
-0.000637164
0.00319526
0.0164296
-0.00049532
0.00181734
0.0157406
0.000174305
-0.000166021
0.0160764
0.000100886
-0.00161283
0.0156055
-0.000811509
-0.00240875
0.0155363
-0.00328671
0.0165232
0.002326
-0.00605899
-0.00271464
0.00341497
-0.00270531
0.00381241
0.00607998
-0.000211573
0.0064127
0.007845
0.00476383
0.00299426
0.00837987
0.00481775
0.000404587
0.00670963
0.00277723
0.00346194