/*--------------------------------*- C++ -*----------------------------------*\
  =========                 |
  \\      /  F ield         | OpenFOAM: The Open Source CFD Toolbox
   \\    /   O peration     | Website:  https://openfoam.org
    \\  /    A nd           | Version:  6
     \\/     M anipulation  |
\*---------------------------------------------------------------------------*/
FoamFile
{
    version     2.0;
    format      ascii;
    class       volVectorField;
    location    "0.0075";
    object      U;
}
// * * * * * * * * * * * * * * * * * * * * * * * * * * * * * * * * * * * * * //

dimensions      [0 1 -1 0 0 0 0];

internalField   nonuniform List<vector> 
3773
(
(38.1715 -0.0336805 0.411773)
(37.561 0.0180098 0.399591)
(37.5207 0.0188657 0.385651)
(37.5859 0.00263803 0.389388)
(37.6238 -0.012072 0.393972)
(37.6985 -0.0211554 0.402138)
(38.3527 0.0258331 0.419695)
(10.8378 0.0195195 -0.0419092)
(10.7945 -0.0416241 -0.036426)
(10.8261 -0.0369248 -0.0190111)
(10.8053 -0.0128228 -0.0213228)
(10.7797 -0.00927273 -0.0235516)
(10.79 0.0130877 -0.00594376)
(10.8283 -0.0147235 -0.00300292)
(4.34771 0.0329762 0.0343652)
(4.33895 -0.00953063 0.0397306)
(4.34023 -0.0249469 0.0505719)
(4.33901 0.0147036 0.0474366)
(4.33847 0.0241883 0.0491069)
(4.33923 0.0138216 0.06242)
(4.34687 -0.0126476 0.0521493)
(9.17563e-05 0.00551107 0.0472652)
(9.41948e-05 0.0138016 0.0476991)
(8.11269e-05 0.0201421 0.0462883)
(8.1193e-05 0.000308687 0.0476018)
(7.93645e-05 -0.017843 0.0461252)
(7.0611e-05 -0.0224785 0.0379573)
(4.01959e-05 -0.0152739 0.0399549)
(-4.34844 0.027089 0.0370021)
(-4.34178 -0.0171147 0.0389366)
(-4.34064 -0.0317089 0.0442679)
(-4.33955 0.00657985 0.0447292)
(-4.33917 0.0186505 0.0445903)
(-4.33992 0.0142924 0.0568388)
(-4.34775 -0.00950298 0.0470756)
(-10.8372 0.0171647 -0.0531679)
(-10.8296 -0.0401583 -0.0418226)
(-10.8183 -0.0214048 -0.0239684)
(-10.8012 0.00728724 -0.0233761)
(-10.7897 0.00975411 -0.0250188)
(-10.8012 0.0303436 -0.00646124)
(-10.836 -0.00777162 -0.00437659)
(-38.3951 -0.0248472 0.42092)
(-37.9394 0.0190667 0.412046)
(-37.789 0.0164529 0.401986)
(-37.7399 0.00649054 0.396669)
(-37.6963 -0.00641592 0.397194)
(-37.7389 -0.0205195 0.406902)
(-38.447 0.0206477 0.431778)
(30.685 -0.0562914 0.853629)
(30.0561 0.0156379 0.848909)
(29.883 0.026853 0.833766)
(30.0001 0.0205947 0.837825)
(30.1634 0.011263 0.825555)
(30.3245 -0.0064559 0.815063)
(30.7967 0.0458434 0.841582)
(9.18448 0.0081673 -0.138003)
(9.32174 -0.048639 -0.131725)
(9.338 -0.0431002 -0.0966549)
(9.33262 -0.00536692 -0.106161)
(9.31605 0.0123167 -0.121475)
(9.33203 0.0334407 -0.0967423)
(9.21767 -8.6274e-05 -0.101096)
(3.92539 0.0401313 0.0181166)
(3.90048 -0.00541625 0.0216925)
(3.90868 -0.0294612 0.0462517)
(3.90705 0.0143269 0.040166)
(3.90728 0.0356376 0.0390992)
(3.90988 0.0216232 0.0590164)
(3.92447 -0.017037 0.0379266)
(8.42317e-05 0.00603384 0.0333536)
(8.39414e-05 0.0172498 0.0306304)
(7.53151e-05 0.0244194 0.0276795)
(7.56359e-05 -0.00132334 0.029927)
(7.40484e-05 -0.0262405 0.0292914)
(6.37328e-05 -0.0282824 0.0156697)
(3.85357e-05 -0.0166193 0.0202249)
(-3.92718 0.0322128 0.0168173)
(-3.91697 -0.0194192 0.0182749)
(-3.91175 -0.0366957 0.0338153)
(-3.90946 0.00825737 0.0338244)
(-3.90678 0.0299748 0.0304174)
(-3.91032 0.0215271 0.0493243)
(-3.92724 -0.013536 0.0311698)
(-9.21199 0.0138991 -0.154173)
(-9.18079 -0.0458554 -0.132453)
(-9.33595 -0.0334511 -0.112046)
(-9.32677 0.00784726 -0.118201)
(-9.32273 0.0241595 -0.120237)
(-9.34408 0.0455283 -0.0917023)
(-9.21489 0.0029337 -0.103391)
(-30.9417 -0.037441 0.864585)
(-30.3563 0.0151455 0.84993)
(-30.3126 0.00472568 0.849574)
(-30.3947 0.00300463 0.81971)
(-30.2131 -0.00358958 0.843114)
(-30.3042 -0.0218989 0.836426)
(-30.8976 0.0319799 0.863304)
(27.5707 -0.0807884 0.976977)
(27.2874 -0.0118177 0.941539)
(27.1617 0.020935 0.889421)
(27.1478 0.0430328 0.905113)
(27.285 0.0340122 0.934476)
(27.414 0.0173578 0.963105)
(27.6092 0.0717931 0.991437)
(8.91422 -0.0016698 -0.0516249)
(9.10203 -0.0383238 -0.0643298)
(9.1598 -0.0350221 -0.0462346)
(9.06228 -0.0111988 -0.0529087)
(9.01801 0.0132526 -0.064645)
(9.05268 0.0331555 -0.051863)
(8.91606 0.00620153 -0.0647052)
(3.90958 0.0389793 0.0524509)
(3.86537 -0.00249896 0.04066)
(3.86082 -0.0270364 0.0716883)
(3.89149 0.0111343 0.0608194)
(3.88501 0.037238 0.0550575)
(3.85775 0.0226327 0.0625775)
(3.90445 -0.0209601 0.0412292)
(8.46772e-05 0.00652213 0.0383858)
(8.46159e-05 0.0151702 0.0358917)
(7.71799e-05 0.0218328 0.0289668)
(7.70975e-05 -0.000617799 0.024684)
(7.55767e-05 -0.028462 0.0264754)
(6.24452e-05 -0.0288395 0.0236437)
(4.00271e-05 -0.0165185 0.0313809)
(-3.90736 0.0315866 0.0454515)
(-3.87611 -0.0180738 0.0386187)
(-3.87003 -0.0353591 0.0570518)
(-3.88029 0.00621378 0.0535174)
(-3.88799 0.0313285 0.046623)
(-3.87424 0.0221054 0.0555747)
(-3.90517 -0.0167334 0.0387195)
(-8.92326 0.00378149 -0.0546989)
(-8.98995 -0.0400748 -0.0531471)
(-9.08592 -0.0297544 -0.0497764)
(-8.95555 0.000686326 -0.0336134)
(-9.06003 0.0243845 -0.0677462)
(-9.07227 0.0400248 -0.0472684)
(-8.92378 0.00451516 -0.0678038)
(-27.6698 -0.0597848 1.01336)
(-27.3994 -0.00972576 0.984245)
(-27.2961 -0.0151955 0.942022)
(-27.2332 -0.00376257 0.946787)
(-27.254 -0.00127658 0.936714)
(-27.3985 -0.00571759 0.967067)
(-27.6492 0.0554781 1.01909)
(26.7322 -0.0898134 0.713889)
(26.9251 -0.0161239 0.717858)
(26.9875 0.0186411 0.692032)
(26.884 0.0431891 0.692262)
(26.7152 0.0378456 0.702711)
(26.6841 0.0239033 0.714004)
(26.74 0.0831892 0.727054)
(8.89731 -7.2543e-05 -0.02619)
(9.14518 -0.0258286 -0.0460926)
(9.21086 -0.0326227 -0.0356333)
(9.11875 -0.023451 -0.0363902)
(8.97755 0.00705527 -0.0326794)
(9.00929 0.0283594 -0.0286463)
(8.8954 0.0047339 -0.0403941)
(3.90733 0.0361803 0.0542161)
(3.87131 0.000806719 0.039228)
(3.86094 -0.0221712 0.0738787)
(3.88075 0.00810412 0.065662)
(3.8959 0.0373278 0.0599578)
(3.85865 0.0194681 0.0591221)
(3.90375 -0.0240984 0.0442922)
(8.42066e-05 0.00870935 0.0475528)
(8.41157e-05 0.0142496 0.0451171)
(7.75951e-05 0.0181025 0.0318484)
(7.70293e-05 -0.00164667 0.0242064)
(7.48389e-05 -0.0267287 0.025364)
(6.00484e-05 -0.0268834 0.0381878)
(3.81293e-05 -0.0159563 0.0468495)
(-3.90579 0.0298754 0.048276)
(-3.85905 -0.0146102 0.0391276)
(-3.88701 -0.0313629 0.0654546)
(-3.90669 0.0045728 0.0584139)
(-3.89656 0.032869 0.0538137)
(-3.86422 0.0215063 0.0577101)
(-3.90329 -0.0201718 0.0410681)
(-8.89883 0.00235762 -0.0306403)
(-9.00729 -0.0314562 -0.0342446)
(-9.06853 -0.0230871 -0.0283744)
(-8.94474 -0.0037451 -0.0263911)
(-9.03944 0.0228748 -0.0411558)
(-9.07358 0.03369 -0.0292745)
(-8.90215 -5.86879e-05 -0.0432221)
(-26.7408 -0.0753248 0.742905)
(-26.6759 -0.0186495 0.73015)
(-26.8541 -0.0193971 0.705639)
(-26.4699 -0.00827053 0.664273)
(-26.8064 0.0021771 0.711189)
(-26.7983 0.00189643 0.718502)
(-26.7527 0.0705232 0.749781)
(26.5891 -0.0851077 0.493253)
(26.7765 -0.0141168 0.529394)
(26.8808 0.0171161 0.526833)
(26.7844 0.0376516 0.500041)
(26.6082 0.039078 0.473521)
(26.5504 0.0278438 0.490292)
(26.5863 0.0858159 0.495872)
(8.90088 0.00291281 0.0185262)
(9.1052 -0.0224966 0.00338523)
(9.13669 -0.0299739 0.00112124)
(9.0961 -0.0252373 0.0104079)
(9.03693 0.00543358 0.0160827)
(9.05367 0.024363 0.0193195)
(8.90627 -0.000274833 0.00787426)
(3.90856 0.0328681 0.0590725)
(3.86821 0.00438739 0.0471565)
(3.86392 -0.0173158 0.0760099)
(3.87556 0.00591062 0.066613)
(3.87166 0.0370621 0.0654629)
(3.84508 0.0161054 0.064208)
(3.90778 -0.0257872 0.0542218)
(8.26062e-05 0.00746543 0.0557171)
(8.15996e-05 0.00998517 0.0477225)
(7.52852e-05 0.012741 0.034107)
(7.61013e-05 -0.00265889 0.0278283)
(7.19587e-05 -0.0207292 0.0283862)
(5.63968e-05 -0.0206825 0.0457583)
(3.3725e-05 -0.0128609 0.0530105)
(-3.90722 0.0273986 0.0555214)
(-3.85607 -0.0101209 0.0481731)
(-3.8788 -0.0277469 0.0776401)
(-3.89109 0.00213998 0.0703273)
(-3.88512 0.0322058 0.0613707)
(-3.85619 0.0176841 0.0624264)
(-3.90697 -0.0231457 0.0499773)
(-8.90954 0.00447556 0.0104591)
(-9.05633 -0.0243994 -0.00220575)
(-9.05631 -0.0195812 0.0217241)
(-9.03015 -0.00571049 0.00300741)
(-9.04774 0.0196959 0.0084148)
(-9.08338 0.0291902 0.0158237)
(-8.90999 -0.00547022 0.00679004)
(-26.5946 -0.0772015 0.505063)
(-26.5919 -0.0211412 0.501198)
(-26.7008 -0.0205316 0.500433)
(-26.501 -0.0072509 0.508091)
(-26.721 0.00244735 0.486773)
(-26.6125 0.00775243 0.491108)
(-26.5914 0.0761211 0.513571)
(26.6158 -0.0757985 0.267239)
(26.7251 -0.00215917 0.300957)
(26.6043 0.0134739 0.328737)
(26.7891 0.0255461 0.291056)
(26.7112 0.0307389 0.267395)
(26.6207 0.0291398 0.272754)
(26.6064 0.0862612 0.265676)
(8.98005 0.00365569 0.0572239)
(9.14508 -0.0241908 0.050118)
(9.18158 -0.0251256 0.0602972)
(9.17105 -0.021614 0.0699178)
(9.14083 -0.00058776 0.076808)
(9.13938 0.0191794 0.0811585)
(8.96879 -0.00543544 0.0689975)
(3.91648 0.0305496 0.0787733)
(3.86115 0.0080203 0.0674531)
(3.86149 -0.0137849 0.0868408)
(3.85349 0.00401224 0.0818929)
(3.85204 0.0355188 0.0829434)
(3.84701 0.0139497 0.0837694)
(3.91257 -0.0278351 0.0762866)
(8.11294e-05 0.0039597 0.0531102)
(7.83867e-05 0.00430772 0.0496315)
(7.00741e-05 0.00959689 0.0418849)
(7.48114e-05 -0.00330018 0.0370654)
(7.04246e-05 -0.0179615 0.0381143)
(5.43898e-05 -0.01737 0.042386)
(3.01178e-05 -0.0105056 0.0507093)
(-3.91413 0.0259481 0.0738504)
(-3.86326 -0.00511115 0.0632529)
(-3.8571 -0.0227031 0.0903526)
(-3.86003 -0.00205387 0.0870255)
(-3.85706 0.0285709 0.0814982)
(-3.86107 0.0140805 0.0823733)
(-3.91309 -0.0251537 0.0756099)
(-8.98529 0.00371142 0.05074)
(-9.16504 -0.0182821 0.0451531)
(-9.14669 -0.0163675 0.0733526)
(-9.18022 -0.00728266 0.0615758)
(-9.18125 0.0242021 0.0650402)
(-9.14232 0.0259712 0.0740451)
(-8.9772 -0.00977956 0.0616802)
(-26.6241 -0.0753492 0.277438)
(-26.5642 -0.0192824 0.298101)
(-26.6817 -0.018318 0.281901)
(-26.5047 -0.00597583 0.296599)
(-26.857 -0.00157278 0.295041)
(-26.6698 0.00607628 0.276588)
(-26.6133 0.0790052 0.276041)
(26.2971 -0.077596 0.224171)
(26.0158 0.00349742 0.242204)
(26.2238 0.0129558 0.252918)
(26.3263 0.0213667 0.242161)
(26.3116 0.0319404 0.227712)
(26.3183 0.0346315 0.236223)
(26.3106 0.089658 0.225658)
(9.02222 0.00258991 0.0166014)
(9.09725 -0.0220597 0.019313)
(9.02204 -0.0193587 0.0366609)
(9.04156 -0.0173476 0.0360717)
(9.04526 0.00471526 0.0384371)
(9.06245 0.0233109 0.0480218)
(9.0223 -0.00674408 0.0382783)
(3.87448 0.0321148 0.0325815)
(3.87776 0.00957178 0.0201984)
(3.8599 -0.0121402 0.0306637)
(3.86668 0.00439834 0.0322396)
(3.85652 0.0413698 0.0320404)
(3.86823 0.0156259 0.0338951)
(3.86238 -0.0339147 0.0301335)
(8.12203e-05 0.00528348 -0.000862844)
(7.72443e-05 0.0036256 0.000668585)
(6.72064e-05 0.00854213 -0.002814)
(7.47893e-05 -0.00458052 -0.00535264)
(7.05967e-05 -0.021769 -0.00408783)
(5.43729e-05 -0.0187258 -0.00686464)
(2.89006e-05 -0.0117175 -0.00175096)
(-3.87457 0.0260542 0.026541)
(-3.92633 -0.00515369 0.0126239)
(-3.87002 -0.0208514 0.0315555)
(-3.85984 -0.00199728 0.0299752)
(-3.93846 0.0353741 0.0305565)
(-3.87265 0.0181791 0.0348334)
(-3.86313 -0.030353 0.0322267)
(-9.03386 0.00363986 0.0136192)
(-8.79244 -0.0184541 0.0279158)
(-9.05881 -0.0135691 0.0359253)
(-9.05025 -0.0098213 0.0342167)
(-8.86172 0.0257678 0.0349131)
(-9.06425 0.0268737 0.0385063)
(-9.029 -0.0125051 0.0271069)
(-26.3371 -0.0754577 0.233273)
(-26.165 -0.024073 0.256867)
(-26.3309 -0.0226942 0.239581)
(-26.2573 -0.00538793 0.244953)
(-26.011 -0.00936757 0.24658)
(-26.3369 0.00314856 0.232227)
(-26.3255 0.0852555 0.228993)
(38.3822 -26.4021 -16.3706)
(39.4435 -12.4217 -52.7321)
(39.8492 -0.520347 -58.8199)
(39.8847 10.7341 -58.4961)
(39.7733 17.4045 -41.6564)
(39.2481 20.7706 -32.9056)
(37.9407 26.4829 -8.18039)
(9.75279 -21.7235 -6.49771)
(10.2994 -17.0458 -35.0955)
(10.366 -2.34947 -39.3567)
(10.6088 6.55023 -42.679)
(10.4628 12.3031 -34.2291)
(10.357 21.6794 -28.96)
(9.70766 21.5543 -4.77426)
(3.48656 -6.11103 4.85818)
(3.67793 -6.16148 -2.00195)
(3.7243 -2.54799 -6.49674)
(3.76623 1.86364 -7.56766)
(3.74996 4.82758 -5.32665)
(3.69759 7.61813 -1.7773)
(3.50261 6.13305 4.85718)
(0.00200732 0.233578 4.69521)
(0.000628425 1.67394 3.55338)
(0.00179815 2.12036 3.014)
(0.00536512 -0.128618 3.15852)
(0.0103032 -2.08282 2.92629)
(0.0145531 -1.55611 3.50114)
(0.0187911 -0.229616 4.59739)
(-3.51484 -8.61535 5.32513)
(-3.71998 -9.77013 -2.81055)
(-3.75857 -5.12898 -6.99548)
(-3.77583 -1.68343 -9.37936)
(-3.74068 4.26365 -7.51542)
(-3.68653 8.12848 -2.48244)
(-3.47422 7.95707 5.32268)
(-9.97284 -26.1837 -6.97217)
(-10.5419 -22.8118 -33.3312)
(-10.61 -10.7639 -38.8683)
(-10.6878 -7.58152 -46.3298)
(-10.4909 5.36316 -43.7107)
(-10.4494 19.6596 -39.4755)
(-9.94174 24.8397 -8.72318)
(-38.5859 -29.856 -9.11121)
(-39.2654 -20.8271 -38.4125)
(-39.8122 -12.4563 -47.2795)
(-39.8733 -11.7075 -60.6621)
(-39.8631 5.93831 -64.1044)
(-39.753 14.6292 -55.8253)
(-38.8593 28.4199 -17.3035)
(37.4525 -21.0219 10.7501)
(39.2585 -2.34547 -60.1172)
(39.9423 -0.531133 -69.8338)
(40.0785 -1.07062 -65.2299)
(39.8361 8.30428 -32.7462)
(38.6295 8.05676 -21.3844)
(37.0173 20.6025 17.6059)
(9.39481 -15.35 19.9313)
(9.98929 -2.86252 -2.25928)
(10.3724 -1.06773 -20.2662)
(10.8562 3.30321 -36.1439)
(10.4866 8.30024 -15.1257)
(10.0761 7.36888 3.98546)
(9.36677 15.1555 20.3819)
(3.52147 -1.84327 16.7235)
(3.69236 -0.723249 10.9878)
(3.79225 0.27273 7.93323)
(3.87662 0.813966 7.11276)
(3.8094 1.33506 8.522)
(3.71464 1.9832 11.1051)
(3.53842 2.21053 16.8814)
(-0.00515781 1.00821 12.9268)
(-0.00772342 2.59372 11.5954)
(-0.00703833 2.50623 10.559)
(-0.0017559 -0.295032 10.2728)
(0.0016297 -2.6302 10.4726)
(0.00522971 -2.43425 11.4514)
(0.0107684 -0.98392 12.5939)
(-3.54314 -3.85859 20.5057)
(-3.74856 -3.30689 13.1499)
(-3.83764 -1.59242 9.34318)
(-3.88196 -1.24264 8.68611)
(-3.80689 0.679314 8.99253)
(-3.70761 1.47868 12.8837)
(-3.50623 2.96244 19.8616)
(-9.75593 -21.2062 22.2057)
(-10.3496 -9.44925 0.664372)
(-10.7457 -8.1728 -29.5644)
(-10.8719 -6.69013 -38.8353)
(-10.5487 3.0176 -26.2335)
(-10.1614 2.92174 -1.0003)
(-9.60566 19.0886 22.2482)
(-38.0533 -26.6129 18.7301)
(-38.4139 -10.6966 -30.5601)
(-39.7249 0.659978 -43.7276)
(-39.9234 -0.446941 -71.9368)
(-39.888 4.75218 -75.5334)
(-39.6864 5.57812 -65.2505)
(-38.1941 22.9483 11.3351)
(34.8612 -9.66041 15.3348)
(38.998 -2.00655 -68.7681)
(39.9344 -1.9035 -80.8806)
(40.1033 -5.34822 -77.3557)
(39.7286 -5.36052 -46.2036)
(37.4216 1.0319 -33.3395)
(34.6471 8.02458 27.2543)
(9.10327 -4.78444 24.1312)
(9.88754 0.8064 -11.3944)
(10.5394 3.32415 -24.6955)
(11.0613 2.97056 -44.8716)
(10.7378 4.13889 -26.7461)
(10.0027 4.7435 1.53411)
(9.14815 5.28218 25.9929)
(3.56333 0.00491547 19.3238)
(3.71754 1.56437 13.1871)
(3.83952 1.78379 12.0988)
(3.95164 1.13956 9.3503)
(3.87232 0.522264 12.7242)
(3.74468 0.374693 15.2852)
(3.59464 0.568772 20.205)
(-0.00394758 0.833216 17.9124)
(-0.00571876 2.01284 16.4882)
(-0.00340944 1.85314 15.323)
(0.00177538 -0.379394 14.9241)
(0.00720432 -2.17544 15.3329)
(0.00922349 -2.02161 16.3255)
(0.0121679 -0.799441 17.5512)
(-3.55746 -0.970786 24.7114)
(-3.7578 -0.197842 17.2664)
(-3.89966 -0.516261 12.8315)
(-3.94158 -2.24628 11.8902)
(-3.83965 -2.66142 13.1915)
(-3.69272 -2.27205 15.8502)
(-3.52489 -0.0740778 22.5555)
(-9.33217 -8.85114 33.0637)
(-10.2835 -5.14685 -4.18164)
(-10.9427 -7.19814 -35.9931)
(-11.0471 -6.6296 -44.8054)
(-10.6985 -7.84507 -30.7716)
(-9.8372 -1.71674 -7.28626)
(-9.20549 5.83871 28.2385)
(-35.8319 -13.3116 31.6446)
(-37.439 -4.94831 -41.7088)
(-39.516 7.87109 -60.794)
(-39.9598 2.92125 -85.8852)
(-39.9336 2.13592 -87.4734)
(-39.4739 6.4548 -77.3173)
(-35.8388 11.0017 14.9134)
(34.9708 2.17755 4.12477)
(39.2802 -1.67017 -68.3507)
(40.072 -5.74726 -83.6156)
(40.1573 -11.3009 -81.0266)
(39.5554 -9.65032 -55.6104)
(37.0931 -3.57112 -33.5989)
(34.8899 0.126308 12.0007)
(9.17324 0.978499 14.8784)
(10.0361 2.11612 -16.1195)
(10.9742 7.02698 -32.9207)
(11.1707 -0.0220924 -45.3044)
(10.9082 -1.93772 -37.115)
(10.0788 1.33134 2.55129)
(9.20809 0.641373 19.2813)
(3.61129 0.905579 20.1317)
(3.75619 1.98765 15.4059)
(3.89118 2.94032 14.5154)
(4.00145 2.25377 14.4321)
(3.95142 0.985382 15.0878)
(3.79064 -0.167457 19.0441)
(3.64223 -0.268694 21.6438)
(0.0073413 0.422056 22.1509)
(0.00753058 1.12804 21.303)
(0.00963159 1.0001 20.8437)
(0.0151189 -0.323869 20.7899)
(0.0222923 -1.44504 20.9846)
(0.0215509 -1.35753 21.3308)
(0.0192183 -0.498835 21.9603)
(-3.5951 0.592725 24.2309)
(-3.7556 0.96866 19.4242)
(-3.93184 -0.730504 17.0279)
(-3.96651 -3.70681 16.2333)
(-3.86664 -4.49485 14.2942)
(-3.68653 -3.08209 16.817)
(-3.5469 -1.26464 21.874)
(-9.22839 -1.46572 27.1206)
(-9.98008 1.48718 2.29077)
(-10.9404 3.17486 -30.4889)
(-11.1374 2.17146 -43.7415)
(-11.0353 -8.3622 -39.5414)
(-9.92621 -2.83774 -12.39)
(-9.17805 -0.766523 18.4793)
(-34.3065 -0.564586 22.5487)
(-37.222 0.476337 -40.4188)
(-39.5369 15.6232 -66.46)
(-40.1181 11.5323 -89.662)
(-40.1118 4.64516 -92.09)
(-39.7193 6.85273 -78.3354)
(-35.0882 -1.5097 6.96622)
(37.926 4.33981 -19.2331)
(39.7624 -12.0712 -68.7986)
(39.9643 -16.1341 -81.3064)
(39.8625 -16.4383 -84.127)
(39.4342 -12.8711 -70.1231)
(37.5027 -3.31985 -46.7487)
(36.3282 -3.49908 -10.6717)
(9.6608 3.04891 3.13883)
(10.31 2.5404 -18.2827)
(11.182 2.27049 -34.5413)
(11.1038 -10.6748 -39.2726)
(10.7753 -12.9552 -34.1521)
(9.95807 -2.49766 2.62447)
(9.52046 -2.15876 7.41672)
(3.67813 1.16035 20.6214)
(3.81097 1.95776 17.0429)
(3.95173 3.44849 16.9131)
(4.02827 2.80915 18.1157)
(3.99223 0.767324 17.4541)
(3.8171 -0.594061 20.4289)
(3.68323 -0.655765 21.2743)
(0.0213375 0.361922 25.0926)
(0.022101 0.872884 24.7579)
(0.022538 1.08397 24.71)
(0.0244239 -0.269925 25.1775)
(0.0253212 -1.41835 24.7235)
(0.0235864 -1.10213 24.9967)
(0.0199877 -0.455648 25.2798)
(-3.63852 1.01607 22.8902)
(-3.75568 1.31607 19.923)
(-3.93628 -0.828408 19.0326)
(-3.97801 -3.87489 19.4995)
(-3.9116 -4.73785 15.852)
(-3.73328 -3.05663 17.9655)
(-3.60858 -1.47766 21.9872)
(-9.42359 4.41245 12.066)
(-9.85585 5.01795 3.13566)
(-10.7557 10.2204 -27.3087)
(-11.1182 12.1229 -34.8635)
(-11.1672 4.99961 -40.5755)
(-10.3127 -3.64167 -17.9683)
(-9.54824 -2.75002 5.01094)
(-35.977 8.71892 -6.83604)
(-37.6022 1.35753 -49.3519)
(-39.6617 15.264 -76.3065)
(-39.9456 18.5181 -91.7127)
(-40.0305 17.2733 -90.402)
(-39.9785 15.6429 -73.6727)
(-37.6641 -6.51079 -14.9744)
(39.0735 -10.7549 -33.0573)
(39.8891 -23.467 -63.3233)
(39.9187 -25.1517 -77.9822)
(39.665 -24.0505 -82.9607)
(39.3319 -17.5575 -82.5749)
(37.704 4.92409 -53.2706)
(36.6035 -1.12278 -29.3519)
(10.0941 0.0283002 -1.57739)
(10.6629 0.568514 -18.4193)
(11.2286 -12.4294 -32.1424)
(11.0487 -13.9999 -37.218)
(10.6848 -15.9481 -37.7325)
(10.2007 -3.75088 -9.46264)
(9.87947 -2.23178 -3.30119)
(3.78814 1.27839 23.2348)
(3.88484 2.37788 21.1889)
(3.99088 3.37217 19.5806)
(4.05243 2.33184 23.5121)
(4.0019 -1.73435 21.9189)
(3.87024 -2.44933 21.1164)
(3.79273 -1.11745 21.1808)
(0.0317844 0.505815 28.2058)
(0.0329339 1.31175 28.1684)
(0.0300481 1.38941 28.6664)
(0.024756 0.0213262 29.1729)
(0.0182784 -1.45115 28.8038)
(0.0160169 -1.46481 28.5405)
(0.0173873 -0.557665 28.6987)
(-3.73752 1.34036 22.1301)
(-3.81421 2.52912 20.9048)
(-3.94486 1.75018 21.984)
(-4.00259 -2.83885 23.4248)
(-3.94718 -3.89774 19.3715)
(-3.8252 -3.10764 21.2019)
(-3.71689 -1.58921 23.9238)
(-9.85169 3.60203 -3.71885)
(-10.1667 5.26815 -7.15699)
(-10.6984 17.2856 -42.0795)
(-11.0555 16.3764 -36.9637)
(-11.2191 16.0618 -31.1152)
(-10.7304 -0.0147364 -20.9204)
(-10.0134 -0.770502 1.51658)
(-37.0266 -1.00741 -31.0224)
(-38.0165 -4.2406 -56.9869)
(-39.5916 12.69 -85.7272)
(-39.6817 22.0044 -92.1584)
(-40.0655 25.8262 -86.3902)
(-39.9912 25.1154 -69.892)
(-39.1031 8.84301 -28.3379)
(39.4292 -23.232 -28.6842)
(39.8208 -25.7383 -48.946)
(39.7255 -31.3179 -66.9527)
(39.2962 -26.5066 -82.5907)
(39.1547 -20.6303 -86.5452)
(37.7444 9.75273 -54.701)
(36.6099 5.96539 -32.3532)
(10.268 -3.80624 -8.28506)
(11.1201 -5.32653 -18.5802)
(11.2383 -17.7382 -25.0748)
(11.1136 -15.9607 -41.4314)
(10.9374 -15.7962 -47.654)
(10.6302 -5.41022 -34.2363)
(10.0261 1.81481 -15.9188)
(3.88842 1.09017 24.1973)
(3.96956 2.22185 22.7919)
(4.04367 2.53904 21.6588)
(4.10088 0.0347587 25.0315)
(3.99863 -2.58203 20.7178)
(3.90251 -2.94214 17.4002)
(3.82467 -1.08964 17.6653)
(0.0392178 0.617851 29.5914)
(0.0397438 1.5856 29.9636)
(0.0295197 1.58615 29.856)
(0.021893 0.0532197 30.229)
(0.00238965 -1.38862 29.9967)
(0.00844496 -1.23913 30.0144)
(0.0105912 -0.474952 29.7864)
(-3.78799 1.29989 18.3529)
(-3.85927 3.38538 16.9093)
(-3.9611 2.77125 20.2889)
(-4.08202 -0.257774 24.9473)
(-3.99845 -2.57993 21.1289)
(-3.90931 -2.37692 22.4021)
(-3.81018 -1.12263 24.2726)
(-10.0426 -2.36594 -18.7945)
(-10.6001 6.8197 -32.1198)
(-10.9227 14.7142 -53.9762)
(-11.1138 17.275 -43.8163)
(-11.2645 17.2271 -24.783)
(-11.1214 5.33423 -19.6346)
(-10.2268 3.24179 -6.40275)
(-37.1131 -10.0213 -33.9764)
(-38.2763 -8.6534 -56.8638)
(-39.7574 12.5965 -91.0302)
(-39.5288 22.6429 -94.7377)
(-39.8635 28.7415 -80.3105)
(-39.8712 27.5234 -59.248)
(-39.4715 21.0151 -28.2444)
(39.0633 -24.7009 14.7627)
(39.8191 -4.80713 -17.8498)
(39.8377 -13.3363 -35.3094)
(39.4875 -8.45193 -65.7914)
(39.3169 -22.3291 -79.5762)
(37.9978 -24.8521 -54.9371)
(35.1076 7.37964 -26.8846)
(10.7656 -11.4288 10.4212)
(11.2891 -15.7139 -7.73174)
(11.3052 -19.406 -15.6734)
(11.1599 -20.1915 -41.3777)
(10.95 -19.4212 -54.0617)
(10.7655 -16.673 -50.7914)
(9.90447 1.89256 -16.4927)
(4.00014 0.0981987 25.1728)
(4.06759 -0.0879509 24.6418)
(4.11893 -2.432 25.6428)
(4.13102 -7.07373 21.2193)
(4.03292 -9.13732 12.8457)
(3.95359 -5.48628 8.29111)
(3.84773 -1.00935 9.22201)
(0.0700997 0.969111 26.359)
(0.0574273 1.67177 26.7114)
(0.039772 1.89644 28.5763)
(0.0218656 0.0741245 29.7349)
(0.00261073 -1.73588 28.6934)
(-0.0152782 -1.60369 26.9161)
(-0.0295395 -0.841838 26.1216)
(-3.80529 1.55286 8.63297)
(-3.95977 5.18465 7.4)
(-4.01332 9.50842 9.98802)
(-4.0957 8.42269 20.416)
(-4.08197 2.82357 25.01)
(-4.00996 0.101277 23.6327)
(-3.94706 -0.137821 24.7744)
(-9.93052 -1.02066 -15.48)
(-10.9271 11.3125 -53.2055)
(-11.0458 11.6388 -60.451)
(-11.2383 17.072 -40.7132)
(-11.2937 17.3293 -13.1842)
(-11.257 14.8884 -9.11492)
(-10.6826 10.1984 9.22139)
(-35.2383 -8.50831 -20.458)
(-37.8077 13.141 -46.1167)
(-40.3589 6.11194 -95.8706)
(-40.1863 -3.03538 -92.4908)
(-39.8573 7.18876 -49.5127)
(-39.8982 13.0926 -28.8365)
(-39.0316 23.9053 22.9289)
(38.2612 -17.7953 24.8663)
(40.0609 -0.417314 8.22752)
(40.3246 -4.03993 -3.04784)
(39.6695 9.1326 -52.6963)
(39.7998 -5.34295 -83.8935)
(39.5205 -26.4977 -83.7795)
(36.7856 -4.10869 -61.669)
(10.5225 -7.44772 19.6849)
(11.2755 -9.55882 8.12373)
(11.3764 -15.4807 2.04431)
(11.3674 -16.767 -24.498)
(11.2253 -15.3576 -47.6193)
(11.1005 -16.8214 -55.8117)
(10.7969 -3.61026 -44.7745)
(4.0317 -0.180032 26.8442)
(4.10665 -0.110728 26.3875)
(4.17853 -3.1644 27.9503)
(4.17304 -9.34329 24.2962)
(4.05272 -12.0766 15.7932)
(3.93838 -10.1687 11.1144)
(3.8308 -4.16759 8.91696)
(0.0732463 0.85208 27.8228)
(0.0605915 1.87577 28.4022)
(0.0407318 2.16509 30.3144)
(0.0200356 0.204997 31.3848)
(0.00494573 -2.04332 30.3103)
(-0.0160673 -1.81099 28.6559)
(-0.0318376 -0.916923 27.8874)
(-3.79724 4.53634 6.8694)
(-3.92487 11.4135 8.73028)
(-4.02642 13.4022 14.3418)
(-4.13114 10.5664 24.712)
(-4.12376 3.15142 27.2015)
(-4.04007 0.307618 25.2777)
(-3.98517 0.00409141 26.3872)
(-10.781 4.58366 -36.801)
(-11.1848 10.8424 -55.1268)
(-11.2374 4.88774 -52.7744)
(-11.316 13.118 -21.5536)
(-11.3416 14.1812 3.92534)
(-11.2371 8.65221 7.34653)
(-10.4207 6.68572 19.6952)
(-35.5889 -4.01648 -33.07)
(-38.8812 19.6591 -50.6615)
(-40.3844 -14.037 -106.068)
(-40.2882 -17.6171 -100.33)
(-39.864 1.50361 -39.6669)
(-39.9051 11.6467 -2.06433)
(-38.3906 18.1584 31.4138)
(37.8152 -12.311 31.2329)
(39.7178 0.273557 7.81076)
(40.3317 -0.0721447 -1.02717)
(39.9472 14.4353 -42.0605)
(40.1402 26.6201 -84.8575)
(40.7673 3.81237 -103.798)
(39.9816 -9.95254 -70.204)
(10.338 -5.70951 21.8004)
(11.2156 -6.18389 9.41161)
(11.3416 -9.82206 8.11726)
(11.4008 -10.633 -11.3878)
(11.3895 0.449638 -47.1376)
(11.4698 -2.87834 -65.1396)
(11.3359 2.42836 -61.5092)
(4.02063 0.0986168 29.2437)
(4.09485 -2.07415 29.6713)
(4.15835 -6.79088 31.5788)
(4.13905 -15.2234 27.4644)
(4.03834 -18.4417 14.7914)
(3.95303 -15.0897 2.67747)
(3.87897 -4.55492 -5.02773)
(0.0665549 1.89418 30.5824)
(0.049349 4.30941 31.447)
(0.0287513 3.89702 34.3493)
(0.0208574 -0.176682 35.6953)
(0.0169073 -3.744 34.4129)
(-0.00157903 -3.66755 32.1002)
(-0.0176261 -1.73327 30.5708)
(-3.84299 4.38245 -7.2148)
(-3.9216 14.5073 -1.96869)
(-3.99391 18.3055 13.09)
(-4.10212 14.3523 28.1339)
(-4.10787 6.3911 30.5466)
(-4.03949 3.26399 28.4368)
(-3.97923 0.503123 29.3795)
(-11.3466 -5.73517 -56.6878)
(-11.367 -3.67949 -56.4261)
(-11.3017 -8.4726 -52.9069)
(-11.3186 8.38653 -15.0953)
(-11.3487 10.9181 4.72207)
(-11.242 8.97311 7.53323)
(-10.2937 5.88952 21.8074)
(-38.0714 -0.00815335 -34.5755)
(-40.4778 8.96839 -67.2161)
(-40.6565 -23.1164 -106.068)
(-40.4306 -21.063 -108.426)
(-39.8702 -16.7095 -67.8746)
(-39.7182 12.3804 7.23745)
(-38.0009 11.1452 32.5768)
(36.5872 -5.76212 28.8839)
(39.0546 0.689908 14.7085)
(40.2014 1.76892 2.8779)
(39.9964 30.1355 -45.1128)
(40.2543 45.132 -87.8346)
(40.5714 38.027 -100.184)
(40.5824 6.07901 -79.5227)
(10.2657 -5.72481 23.225)
(11.2263 -6.62726 12.3046)
(11.4003 -5.18211 3.10994)
(11.369 -4.77428 -4.06054)
(11.3938 13.0414 -34.2191)
(11.5033 14.1489 -58.354)
(11.3694 17.6316 -61.9277)
(4.00787 -2.90082 30.7539)
(4.08236 -8.08919 28.9933)
(4.12448 -10.1057 29.6712)
(4.07992 -14.5277 26.2595)
(4.05829 -18.1792 10.0367)
(4.04725 -11.9431 -9.79832)
(3.99965 -1.73919 -19.9456)
(0.0569675 1.65608 32.7467)
(0.0250499 3.31095 35.9194)
(0.0106438 3.26473 37.85)
(0.0200033 -1.24565 37.3361)
(0.0324399 -3.10541 36.995)
(0.0210863 -2.47359 34.368)
(-0.00433507 -0.966145 32.2386)
(-3.94021 -0.374059 -17.7415)
(-3.98373 10.4766 -7.78689)
(-4.01557 16.5094 14.2298)
(-4.05965 13.2058 27.8494)
(-4.1117 9.91871 27.6183)
(-4.07432 8.61281 25.3228)
(-3.99831 4.24015 28.7663)
(-11.394 -25.4916 -54.3696)
(-11.4014 -15.6651 -51.5466)
(-11.4121 -14.9377 -42.1391)
(-11.3437 5.8609 -8.40261)
(-11.4897 9.10767 -2.87036)
(-11.357 10.5648 8.76994)
(-10.315 6.99966 23.9772)
(-40.4758 0.404176 -32.9605)
(-41.0779 -6.25232 -72.2533)
(-40.7005 -28.9278 -107.402)
(-40.6036 -28.526 -115.539)
(-39.706 -29.584 -91.423)
(-38.8768 16.3017 14.7296)
(-37.0437 1.21773 34.2638)
(34.9984 0.838371 32.1286)
(39.4997 -4.87033 14.9126)
(40.0009 10.7038 -3.34802)
(40.0513 55.18 -59.6103)
(40.0894 66.0727 -91.2783)
(40.2679 55.0922 -92.1808)
(40.6304 29.667 -66.1981)
(10.368 -6.10718 27.3959)
(11.4248 -8.4654 10.2798)
(11.6033 -8.07996 -4.83968)
(11.4997 0.800218 -7.70645)
(11.5267 20.6906 -21.0281)
(11.4377 29.8956 -49.347)
(11.3029 29.0128 -48.5976)
(4.02935 -9.05803 28.4298)
(4.14096 -14.3024 15.42)
(4.14166 -13.9108 15.4571)
(4.08555 -15.0974 20.3044)
(4.08835 -13.1732 13.2326)
(4.12007 -5.51357 -2.52925)
(4.06183 11.3331 -17.2093)
(0.052391 -0.864942 37.0097)
(0.00298267 -0.0960493 35.6997)
(-0.0111796 0.544027 38.1648)
(0.00831301 -0.626522 39.4054)
(0.0322737 -1.42529 36.2674)
(0.0248414 0.657736 34.049)
(-0.0132085 1.09703 36.7651)
(-3.94688 -11.5265 -11.9499)
(-4.02991 2.52774 0.789719)
(-4.05795 11.4536 18.782)
(-4.09178 15.0807 21.1383)
(-4.18907 13.9576 11.8272)
(-4.19238 14.601 10.7952)
(-4.04877 9.59121 28.0161)
(-11.321 -35.2476 -43.0021)
(-11.393 -40.4774 -53.6266)
(-11.4566 -35.3537 -41.4476)
(-11.4952 -5.82623 -8.26359)
(-11.6308 12.3368 -1.83167)
(-11.4335 11.4411 12.8622)
(-10.4238 7.4843 31.733)
(-41.1744 -11.3391 -25.3978)
(-41.4884 -15.4785 -60.3361)
(-40.7207 -40.7831 -98.9392)
(-40.1964 -41.662 -112.59)
(-39.6602 -44.4361 -102.058)
(-37.3765 3.64917 1.89605)
(-35.2407 1.44724 41.2222)
(34.8068 -1.31272 46.7621)
(39.5291 2.83285 -2.46982)
(39.7244 74.8311 -57.3536)
(39.6865 92.4009 -82.8409)
(39.9066 87.0027 -84.5273)
(40.6202 67.139 -74.7568)
(41.0471 29.3497 -40.6038)
(10.5005 -6.8369 41.4485)
(11.4355 -12.8382 5.00624)
(11.6951 14.0116 -20.5113)
(11.5853 33.3788 -19.9926)
(11.4778 50.7205 -28.7555)
(11.3338 49.4196 -33.8894)
(11.2694 40.7763 -25.5611)
(4.04006 -8.63824 35.9945)
(4.25335 -9.11348 3.59748)
(4.30756 2.11789 -11.534)
(4.23616 -12.0541 2.9198)
(4.15794 -11.6462 14.4597)
(4.05795 -4.14501 17.1202)
(3.9905 23.438 0.607064)
(0.0568107 -1.18637 44.1953)
(0.00575921 -3.26202 38.8547)
(-0.0167587 -2.60429 35.3309)
(-0.0143384 -0.848436 37.7485)
(-0.00841192 2.14185 36.1613)
(-0.0287867 2.44228 37.1888)
(-0.0629351 1.02154 43.0131)
(-3.94551 -20.694 3.27482)
(-4.00359 0.841525 20.7076)
(-4.15502 10.1974 18.1432)
(-4.29987 7.72113 -7.26104)
(-4.35551 -1.20103 -18.8966)
(-4.2915 6.23033 -3.19594)
(-4.06082 7.92979 34.0719)
(-11.3368 -42.1995 -29.5481)
(-11.2733 -56.2558 -56.9734)
(-11.4004 -67.4381 -60.5226)
(-11.4928 -63.1883 -54.6626)
(-11.631 -5.66791 -20.4124)
(-11.3139 10.9299 9.96176)
(-10.5106 5.06361 34.6931)
(-41.5725 -16.972 -11.1326)
(-41.8161 -24.0334 -47.878)
(-41.012 -49.0735 -85.9141)
(-39.9083 -52.486 -113.885)
(-38.7739 -78.5685 -111.63)
(-36.283 -62.0602 -40.7959)
(-35.0539 9.05241 40.2615)
(38.8988 80.808 -32.0467)
(38.6345 134.928 -80.2982)
(39.3015 129.762 -79.8406)
(40.6344 113.499 -81.931)
(40.9751 91.2786 -76.3006)
(40.4501 19.5574 28.1677)
(39.8164 -8.05607 78.4585)
(11.3494 70.3935 -20.1098)
(11.3366 81.695 -41.3258)
(11.2346 93.0357 -37.0914)
(11.4154 87.0919 -32.0918)
(11.499 82.1475 -29.5768)
(11.3277 65.8182 -25.9391)
(11.1804 42.1902 15.9463)
(4.22844 17.7252 7.61809)
(4.23235 36.509 -13.5992)
(4.24526 36.2354 -13.2934)
(4.28388 30.4317 -14.7492)
(4.28087 11.9954 -5.50116)
(4.15816 14.9501 6.48792)
(3.94871 14.9129 35.8211)
(0.0275557 -1.53736 51.6943)
(0.0125271 -6.18671 38.6968)
(0.00677704 -5.66281 35.1733)
(-0.00736696 0.355472 37.6133)
(-0.0236518 5.49474 36.3063)
(-0.0471746 4.7653 35.8456)
(-0.0529916 1.463 53.5953)
(-4.06222 -11.8838 36.0064)
(-4.21755 -4.43574 14.3547)
(-4.32061 -8.39752 -11.612)
(-4.29729 -12.4599 -23.0601)
(-4.29782 -13.1885 -33.4743)
(-4.26072 -19.7873 -31.409)
(-4.0836 -3.85843 16.1961)