/*--------------------------------*- C++ -*----------------------------------*\
  =========                 |
  \\      /  F ield         | OpenFOAM: The Open Source CFD Toolbox
   \\    /   O peration     | Website:  https://openfoam.org
    \\  /    A nd           | Version:  6
     \\/     M anipulation  |
\*---------------------------------------------------------------------------*/
FoamFile
{
    version     2.0;
    format      ascii;
    class       surfaceScalarField;
    location    "1";
    object      phi;
}
// * * * * * * * * * * * * * * * * * * * * * * * * * * * * * * * * * * * * * //

dimensions      [1 0 -1 0 0 0 0];

internalField   nonuniform List<scalar> 
675
(
4.06876e-06
2.40657e-06
0.000124178
-1.20354e-06
2.19323e-06
0.000133991
3.005e-06
0.000126429
-9.569e-06
-9.87895e-06
0.000238428
-5.9218e-07
-8.60549e-06
0.000218477
-1.15096e-05
0.000230599
1.29605e-05
0.000108069
-5.58284e-06
0.000140878
0.000113478
3.67996e-06
5.60055e-06
0.00011463
2.98957e-06
2.41636e-06
0.000132191
1.69422e-06
0.000127369
-1.35494e-05
-1.7343e-05
0.000275277
-6.2983e-06
1.00184e-05
0.000204099
-1.73802e-05
0.000243783
4.54981e-05
4.51827e-05
-7.84315e-06
0.000204165
8.77326e-05
-4.27468e-05
2.77081e-05
1.78572e-05
-5.86969e-05
1.40392e-05
3.90765e-05
4.74253e-05
-5.93966e-05
2.84693e-05
-1.56819e-05
-3.96168e-05
6.21855e-05
-0.000568438
0.00709339
-0.00329013
0.00559663
0.00633199
-0.00925158
0.00729434
0.00155321
-0.00101345
-0.00536036
0.0188276
-0.000371785
-0.0048758
0.0159223
-0.00644327
0.0187286
0.000778893
-0.00291538
0.00264323
-0.0035001
-0.000557492
0.00585272
0.00936419
-0.0184885
0.000311266
0.00877962
-0.0124834
0.0106227
-0.00875229
0.00190781
-0.00716633
0.0334416
0.000906426
-0.00572342
0.0314245
-0.0091286
0.0393894
0.00879098
-0.0188542
0.00319335
-0.00359648
-0.0064814
-0.00281075
0.0244647
-0.0401519
-0.00454749
0.0131638
-0.0239415
0.0241126
-0.0374381
-0.0464735
-0.0234218
0.127776
0.0423142
-0.014394
-0.0298424
-0.0244775
0.130274
-0.00182248
-0.0404559
-0.00276597
-0.017058
-0.0337602
-0.00722793
-0.0146734
-0.0283503
0.0501773
0.00560736
0.00395029
-0.0438768
0.027083
-0.0151302
-0.0273682
0.0480512
0.0101492
0.0170559
0.0580229
-0.0999362
-0.0113054
-0.00138669
-0.0126836
0.0394487
0.00961537
0.067362
-0.103477
-0.00307467
-0.0307293
0.0508211
0.0155608
-0.0414065
0.0212817
-0.0195095
0.0446558
-0.00138846
-0.00767809
-0.0193221
-0.00232419
-0.0096457
-0.0331831
-0.00959186
-0.0201367
0.0168121
0.0107028
0.0226706
-0.0167345
0.00729063
0.00381449
0.00843634
0.032451
0.0049096
-0.0249668
-0.000358925
-0.0289571
-0.0114575
0.00660187
-0.00679427
-0.0191781
-0.00282306
-0.00280607
-0.0208621
-0.00521871
-0.0178269
0.00232046
0.00261547
0.0107483
0.00810767
0.00260955
-0.00761785
0.0105701
0.0245432
-0.00631442
-0.0160534
-0.014613
-0.0181797
-0.0154943
-1.07309e-05
-0.00236972
-0.0430231
-0.000200107
-0.000828938
-0.0229258
-0.00232138
-0.0405688
-0.00363365
0.00245498
0.118153
0.00325097
0.000316873
-0.0378756
0.00240823
0.120348
0.000111424
-0.0433561
-3.61733e-05
-0.0165979
-0.0366419
-0.000400891
-0.00105867
-0.0468055
0.000285712
0.0001089
-0.0237233
-0.00100814
-0.0445173
-0.00181321
0.00108629
0.109419
0.00146462
-0.000220657
-0.0408276
0.000486419
0.111899
-0.000230461
-0.0472723
0.000603933
-0.0176581
-0.0407988
-0.000372349
-0.00149421
0.00023205
0.0027538
-0.00147203
-0.00196546
0.00153278
0.00168641
-0.00228002
0.000197774
-0.000147183
0.00119094
0.00552532
-0.0038191
-0.0062668
-0.0146513
-0.00497521
-0.00148018
-0.00888023
-0.00333631
-0.00445899
-0.0150276
-0.00157039
0.00221062
-0.000754767
0.00697578
0.000224083
0.00116989
-0.0121021
0.00322273
0.0128614
0.00533163
0.00391725
-0.00444689
-0.0132799
-0.00728244
-0.00583212
-0.00375231
-0.0157861
0.00631193
0.00065429
-0.000442915
-0.0128113
-0.00463042
0.00146189
0.000596142
0.000239902
0.00298728
-0.0123387
0.000918288
-0.00178801
-0.00362457
0.00436516
-0.00151023
-0.00103553
-0.00720678
-0.000875069
0.00496489
0.00747307
0.00294725
0.00175152
-0.0109319
-0.0074084
0.0034569
0.00109233
-0.0131349
-0.00112861
0.00368955
-0.00302728
-0.00464108
0.00410034
0.00274341
-0.00441838
-0.00276325
-0.0031564
0.00595817
-0.00338697
-0.0025176
-0.00246394
0.00673945
-0.00108557
-0.000321679
-0.000177881
-0.00155284
-0.0146447
-0.0024301
0.00203905
-0.0157277
0.00070374
0.000378546
0.00278024
-0.0071286
-0.01138
-0.00159194
0.00122874
0.00324034
-0.00330628
0.00226897
0.000155111
0.00203699
0.00223188
-0.00478677
-0.0167263
0.00217195
-0.0168429
0.00238653
0.00247311
-0.0172771
-0.0119493
-0.00158108
0.00322868
-0.0130478
0.00107826
0.000398303
-0.000133683
-0.00953918
-0.0105026
0.00735566
0.00102339
0.000748489
0.00625803
0.000136166
0.00218878
0.000507792
0.00741829
0.000424294
-0.0129434
0.00300203
-0.0125957
0.00217515
0.00230404
-0.0119161
-0.00155436
0.000364004
-0.00212898
0.000977086
-0.00172569
-0.00994037
0.0080749
-0.0002236
0.0113559
-0.000107914
0.00118407
0.0158725
0.00122506
0.00329425
0.00678812
0.0151874
0.00259752
-0.00681591
-0.0109739
0.0142182
0.000325991
0.000638167
-0.00242929
0.00198201
-0.00130345
0.00155872
0.0050163
-0.00269549
-0.00472993
0.00153175
0.00221151
0.000672498
-0.000871142
0.0146689
0.00226816
-0.0153794
0.0141653
0.00202491
0.00156853
0.0128395
-1.80029e-05
-0.0093469
-0.0102914
0.0118925
0.00139336
0.000187071
-0.00138475
0.00244119
-0.00352026
0.000991091
0.00740996
0.000116308
-0.00267018
0.00045047
0.00232054
0.000493827
-0.00105671
0.0109945
0.00279231
-0.0105277
0.0113539
0.00211529
0.00248786
0.00190396
-0.00154751
-0.00970329
0.00115491
0.000935644
0.000565846
-0.00968619
0.000980593
0.0145727
-0.00610017
-0.000325887
-0.000634556
-0.00332363
0.00709896
-0.00153282
-0.00359691
0.00265974
0.000935065
0.00401314
0.00271761
-0.0103296
0.00233625
-0.00929999
0.000385006
-0.00134293
0.00362205
0.00128822
0.000347545
0.0014672
-0.000636134
0.00156818
0.0104742
-0.0118131
0.0163526
-0.00552795
0.000338678
-0.00209159
0.00210482
0.00092421
0.00550007
0.00244355
-0.0203561
0.00165448
-0.0157427
0.000932094
-0.00111408
0.00591376
0.00198266
0.000366064
0.00249617
-0.000615319
0.00593412
0.0075561
-0.0204769
0.0119256
-0.00952748
0.00112319
-0.00415453
0.00125088
0.00383059
0.00924157
0.00595797
-0.0397024
0.00199648
-0.0181948
-0.00400027
-0.00340118
0.0145717
-0.00740399
0.000700195
0.0111607
0.00132842
0.0137731
0.00867985
-0.0325508
0.00299585
-0.0031389
0.012549
0.0170845
0.0104806
-0.0236941
-0.003096
0.0154138
-0.0348591
0.014716
-0.0359415
-0.00676218
-0.0013443
0.0332196
-0.00708876
0.00474471
0.0222174
0.00278307
0.0186761
0.0105091
-0.0443482
0.013822
-0.00165714
0.0292764
0.00781407
0.00633016
-0.0378019
0.00498323
0.0070193
-0.0390113
0.00736029
-0.0382843
0.0135502
-0.00438152
0.030414
0.014493
-0.00323378
0.031564
0.0011567
0.0394039
-0.00408486
-0.0446282
0.00213014
-0.0110872
0.0325719
0.000938922
0.0146574
-8.75279e-05
0.0158038
0.015113
0.00560059
-0.0244829
0.00576931
-0.0231515
-0.0217499
-0.0184843
-0.0137502
-0.00406323
0.00233147
-0.00964943
0.00381221
0.00279515
-0.0106711
0.00281997
0.000993226
-0.00281676
-0.000628072
0.000994083
-0.00170204
0.000323722
0.00135966
-0.00151871
0.00264323
-0.0181258
0.000223479
-0.0115715
-0.00622644
-0.0130854
-0.00572747
0.0016561
-0.0160749
0.00216533
0.00245203
-0.0210035
0.00221183
0.000950677
-0.00245697
-0.000581821
0.00610812
-0.00189848
0.000486162
0.00277212
-0.00122578
0.00418862
-0.0131541
0.000883694
-0.00854163
-0.010347
-0.0228464
-0.00971528
0.00180858
-0.0180988
0.00419037
0.00598944
-0.0408881
0.00130859
0.0038366
0.0085423
0.00135386
0.0138956
0.00429777
0.000860205
0.012146
-0.00380144
0.0136008
-0.00369979
0.0127293
-0.00960531
-0.00357603
-0.036246
0.00392273
0.0147721
-0.0367298
-0.0172562
0.0156835
-0.0353178
0.0108321
-0.0242157
0.00651617
0.00246608
0.0197559
0.00754184
0.00389972
0.0229655
-0.00170798
0.0337451
-0.0151189
0.0304561
-0.00811092
-0.00664821
-0.0460138
-0.00486178
0.00738599
-0.0392121
-0.00779484
0.00737625
-0.0397187
0.00658387
-0.0385523
-0.0141341
0.00133002
0.0399875
-0.0122474
-0.00317994
0.0316716
-0.00343224
0.0315552
-0.00188215
0.033709
0.00455224
-0.016261
-0.0448663
-2.89401e-06
0.0148373
-0.000905439
0.0157482
0.0145534
-0.0054797
-0.0208085
-0.00537854
-0.0220754
-0.0234581
0.0154623
0.016614
)
;

boundaryField
{
    fuel
    {
        type            calculated;
        value           nonuniform List<scalar> 
36
(
0.000130844
0.000216196
0.000130854
0.000130844
0.000216196
0.000130854
0.000130844
0.000216196
0.000130855
-0.000130844
-0.000216196
-0.000130854
-0.000130844
-0.000216196
-0.000130854
-0.000130844
-0.000216196
-0.000130854
0
0
0
0
0
0
0
0
0
0
0
0
0
0
0
0
0
0
)
;
    }
    primary_air
    {
        type            calculated;
        value           nonuniform List<scalar> 9(-0.00319575 -0.00527903 -0.00319208 -0.00319643 -0.00527944 -0.00319268 -0.00319627 -0.00528007 -0.00319274);
    }
    Secondary_air_RHS
    {
        type            calculated;
        value           nonuniform List<scalar> 9(0.0052512 0.00844242 0.00525602 0.00524065 0.00841414 0.00524662 0.00523592 0.00843502 0.00524382);
    }
    Secondary_air_LHS
    {
        type            calculated;
        value           nonuniform List<scalar> 9(0.00525069 0.00842938 0.0052448 0.00524018 0.00839945 0.00523399 0.00523584 0.0084194 0.00522922);
    }
    outlet
    {
        type            calculated;
        value           nonuniform List<scalar> 
18
(
-0.0540301
0.0811212
-0.00256559
-0.054548
0.0694143
-0.0394809
-0.0539945
0.0642135
-0.0516966
-0.0533918
0.063961
-0.050626
-0.0537827
0.0703557
-0.0389771
-0.0534786
0.082026
-0.00295233
)
;
    }
    stove_body
    {
        type            calculated;
        value           uniform 0;
    }
    frontAndBack
    {
        type            empty;
        value           nonuniform 0();
    }
}


// ************************************************************************* //
