/*--------------------------------*- C++ -*----------------------------------*\
  =========                 |
  \\      /  F ield         | OpenFOAM: The Open Source CFD Toolbox
   \\    /   O peration     | Website:  https://openfoam.org
    \\  /    A nd           | Version:  6
     \\/     M anipulation  |
\*---------------------------------------------------------------------------*/
FoamFile
{
    version     2.0;
    format      ascii;
    class       volVectorField;
    location    "1";
    object      U;
}
// * * * * * * * * * * * * * * * * * * * * * * * * * * * * * * * * * * * * * //

dimensions      [0 1 -1 0 0 0 0];

internalField   nonuniform List<vector> 
297
(
(85.1809 -0.00530727 0.182937)
(85.1775 0.00478933 0.157857)
(85.1828 0.0132873 0.183107)
(0.00154883 0.0151158 0.336084)
(0.00153222 -0.00277322 0.310093)
(0.00151218 -0.0350843 0.322037)
(-85.1815 -0.0381395 0.278985)
(-85.1718 0.00655897 0.235656)
(-85.1789 0.0493648 0.249387)
(85.2685 -0.0578356 0.176839)
(85.2005 0.0147593 0.240111)
(85.3925 0.0809043 0.18691)
(0.00151649 0.0333267 0.337943)
(0.00152439 -0.0342822 0.352905)
(0.00152698 -0.0440482 0.285826)
(-86.0699 0.0987441 -0.0453389)
(-85.3384 0.0890751 0.235691)
(-85.674 0.0365538 0.05989)
(82.052 -0.466805 0.388093)
(87.7768 -0.134279 0.344248)
(80.1594 0.48697 0.421646)
(0.0015512 0.726589 0.13137)
(0.00158104 -0.346759 -0.107238)
(0.00162663 -0.128681 0.202359)
(-96.3567 -1.25606 0.654173)
(-86.786 -0.0281552 0.417505)
(-82.6903 1.24928 0.517137)
(62.0141 1.68143 0.577334)
(62.7579 1.12147 -4.65799)
(59.0461 2.45909 -3.37439)
(-0.0148889 -0.256656 5.42274)
(-0.0157608 -0.378138 3.6434)
(-0.0141574 1.03127 4.21892)
(-61.5762 2.9249 1.24095)
(-61.3727 1.00272 -0.97523)
(-58.8049 0.161817 -1.67095)
(68.5067 7.64231 1.87053)
(65.3917 3.31149 -8.50107)
(68.9231 -7.76833 16.2832)
(-0.0181485 7.93135 35.886)
(-0.0134703 0.700976 21.5853)
(-0.00929371 -5.99979 37.1975)
(-68.3286 11.5543 1.54646)
(-67.0431 4.54711 0.431981)
(-68.8734 -2.8737 13.6501)
(67.6413 8.82191 -7.36577)
(63.4397 -2.21085 -16.9339)
(68.8935 -14.4578 -2.88795)
(-0.017293 -3.81203 47.514)
(-0.0159208 -1.52634 12.3765)
(-0.00918193 3.36644 48.9695)
(-67.463 14.7871 -7.12296)
(-63.7552 -5.91541 -5.24963)
(-68.8156 -7.71128 1.71506)
(64.4705 1.55367 -43.9169)
(62.4511 0.667378 -29.8093)
(65.0014 -5.00798 -42.1999)
(-0.0171755 -1.36516 7.41068)
(-0.0299281 0.439838 -7.59151)
(-0.0366067 -0.439066 13.7128)
(-64.2024 6.23038 -44.3841)
(-62.7789 0.269119 -26.2103)
(-65.3054 4.40637 -33.0506)
(64.313 9.89157 -27.9369)
(62.2505 0.775572 -34.2242)
(63.69 -14.8091 -26.8666)
(-0.00917978 0.870281 4.28282)
(-0.0338812 0.260526 2.62103)
(-0.0383933 -2.37523 12.3774)
(-63.2313 14.6044 -30.4865)
(-62.823 -3.1032 -32.5301)
(-65.9977 -8.18293 -19.611)
(62.6348 24.8335 -33.0934)
(60.6917 3.31731 -34.2544)
(62.537 -25.5583 -31.8751)
(0.00837155 -1.18244 7.93043)
(-0.0258157 3.60869 -5.66608)
(-0.0300294 0.683536 13.7967)
(-61.0451 18.4178 -30.8462)
(-61.0779 -13.9868 -27.8774)
(-63.3066 -19.4601 -22.4965)
(60.566 12.1322 -41.4254)
(59.3672 0.193479 -20.0526)
(61.8136 -17.3589 -39.1929)
(-0.0176434 -2.58259 62.9473)
(-0.0271304 -1.63585 -21.7673)
(0.0145088 1.71489 64.3541)
(-60.2307 18.0805 -41.4352)
(-60.983 -2.86941 -14.2976)
(-61.3657 -9.93526 -35.5047)
(58.0587 6.13969 -46.0255)
(60.9297 0.638511 -21.5529)
(58.653 -10.3816 -44.1736)
(-0.0153639 -2.1938 69.247)
(-0.0279926 -1.24878 -22.3782)
(0.0147072 1.00407 70.7073)
(-57.7872 11.4822 -46.3559)
(-61.739 -2.11421 -15.8111)
(-60.4345 -3.46916 -40.4234)
(53.6917 4.48251 -45.637)
(62.1713 0.385702 -23.6619)
(54.5581 -8.3798 -43.8373)
(-0.0156009 -1.73484 68.1631)
(-0.0305342 -0.572087 -18.9459)
(0.018544 0.304517 69.881)
(-53.3075 9.50894 -46.016)
(-62.613 -1.60895 -18.9712)
(-61.2612 0.188807 -38.5933)
(58.7394 38.0106 -8.37283)
(58.7261 2.40816 -9.85769)
(59.1738 -39.2269 -7.27764)
(-0.029441 -8.13337 5.45303)
(-0.0382967 -2.35239 -7.37368)
(-0.0493244 6.77846 11.6282)
(-58.6158 33.2932 -6.94956)
(-58.4798 -8.26826 -8.3447)
(-58.5321 -38.043 -8.13925)
(57.8328 34.1691 -3.34388)
(58.1326 4.79717 -6.09135)
(58.9815 -34.4187 -1.97912)
(-0.0293365 1.55564 -3.65585)
(-0.0398623 -4.00157 -3.34362)
(-0.0478804 5.57825 7.84581)
(-58.1705 26.0869 1.31467)
(-58.4597 -11.6173 -1.26125)
(-58.7939 -31.6579 2.49826)
(58.1869 -3.26704 1.39884)
(58.4209 -7.67181 2.63562)
(58.7971 -12.5166 5.2977)
(-0.033634 -8.3468 -1.61428)
(-0.0421757 -5.63508 -1.18567)
(-0.0447841 2.5217 0.596493)
(-58.5175 -7.32679 -2.72157)
(-58.823 -6.79476 1.21038)
(-59.0248 11.3694 -3.23098)
(56.383 -41.9282 -2.80456)
(57.3789 -45.9339 -10.5507)
(57.7376 -28.1901 -21.7065)
(-0.0981612 7.15942 8.40591)
(-0.124805 -5.0653 -6.57377)
(-0.223026 -7.8063 -10.5626)
(-57.0154 -43.7507 -3.23057)
(-56.4539 -49.3433 -7.91957)
(-56.2618 -53.1906 -8.85214)
(58.0452 -35.4894 3.59076)
(58.5294 -41.627 -7.2437)
(57.3628 -25.2419 -23.1608)
(-0.0656373 15.9765 4.26587)
(-0.101363 14.7903 4.869)
(-0.207918 8.90651 10.8058)
(-58.1073 -34.8311 8.20868)
(-58.1313 -40.7673 7.11232)
(-57.9966 -43.13 4.26614)
(58.8599 -12.057 12.4023)
(58.7562 -4.8966 4.58217)
(57.3495 -22.1758 -31.3121)
(-0.0458627 14.2567 -1.10131)
(-0.0666447 17.2434 0.396097)
(-0.116299 29.9217 7.51169)
(-58.8188 -2.91829 7.82542)
(-58.6277 3.33712 9.46609)
(-58.9958 16.6324 12.6597)
(57.5546 27.4701 -21.1373)
(57.0834 44.5404 -9.02008)
(56.4923 40.4153 -2.44139)
(-0.217555 2.83614 -3.15462)
(-0.13817 -10.3012 5.63384)
(-0.0972495 -11.921 3.9936)
(-56.4571 47.8652 -7.35908)
(-57.2463 41.9269 -5.25086)
(-57.878 37.6243 -2.50565)
(56.9128 25.441 -22.3647)
(58.1353 39.826 -7.57114)
(56.965 35.9427 2.69282)
(-0.175868 -4.95055 8.76088)
(-0.0814875 -5.7197 -0.0516497)
(-0.0513585 -8.56126 -4.3487)
(-57.5974 37.5459 5.12178)
(-57.9218 33.2057 6.56006)
(-57.7556 30.3719 6.71237)
(56.7386 21.9736 -30.2692)
(58.246 3.03467 8.34399)
(57.9685 11.2634 11.1991)
(-0.0913292 -25.1174 8.84621)
(-0.0507802 -13.324 2.27233)
(-0.039544 -11.7962 0.0169349)
(-57.9632 -15.6741 10.6803)
(-58.3307 -6.07615 6.19446)
(-58.265 -0.237297 5.88266)
(57.2549 -8.03286 -12.1389)
(57.0559 1.85137 -30.7664)
(57.0936 20.8527 -27.7306)
(-0.0345234 2.28566 -3.89185)
(-0.135745 -4.14479 -9.48868)
(-0.232568 9.7533 -8.62273)
(-55.5848 22.2602 -27.7063)
(-55.1185 28.0426 -19.8351)
(-56.8579 46.0733 -14.6396)
(57.2318 -3.81422 8.71303)
(57.1848 5.75115 -37.4487)
(57.0123 19.8094 -37.5795)
(-0.100515 1.23806 13.2737)
(-0.208975 -1.21279 7.95861)
(-0.246257 8.21704 10.0814)
(-56.1254 5.74875 -49.4779)
(-56.3082 18.8363 -25.8281)
(-57.7717 36.3635 -3.07462)
(56.8908 0.494233 4.36289)
(60.1932 5.21803 -45.9316)
(58.0619 11.3176 -47.8352)
(-0.176718 -1.28078 11.5371)
(-0.257865 -10.8797 8.58538)
(-0.236427 -18.9725 16.357)
(-58.5284 3.82676 -65.1126)
(-56.8391 19.0726 -20.1669)
(-56.7074 -9.36397 21.2457)
(57.1947 5.22262 -11.0276)
(57.8217 3.87061 -63.8297)
(57.4044 -8.42561 -80.9904)
(-0.372685 0.989528 61.0897)
(-0.37891 -1.2771 34.3471)
(-0.387578 -12.2593 32.091)
(-58.0356 -7.72547 -96.5904)
(-58.6655 9.77323 17.1527)
(-58.4568 -0.940392 61.9976)
(56.406 1.06574 -124.463)
(56.5 1.44659 -131.031)
(56.3046 7.07183 -127.628)
(-0.208875 3.22481 80.1856)
(-0.20379 4.81067 70.86)
(-0.212926 1.05832 66.8355)
(-56.848 1.95773 -129.418)
(-56.9338 -4.1515 -22.4494)
(-56.8144 1.69206 104.916)
(54.1702 0.164176 -157.813)
(54.2299 0.280536 -159.469)
(53.9827 -1.00865 -158.177)
(0.395673 -0.0831512 160.405)
(0.420273 2.07208 175.535)
(0.44217 0.637998 203.529)
(-53.2946 -7.05793 -148.334)
(-52.7974 -6.88147 -106.534)
(-54.0364 -2.86889 -4.22258)
(57.16 -21.9662 -29.2693)
(57.121 -1.42712 -31.822)
(57.3405 8.3892 -12.3568)
(-0.232343 -10.5537 -10.7491)
(-0.109538 0.521676 -10.084)
(0.0110878 -3.97543 -6.72544)
(-56.9992 -51.5139 -17.2037)
(-55.0256 -31.2069 -22.6057)
(-55.6923 -24.6778 -31.4678)
(57.1089 -20.7473 -38.0965)
(57.228 -6.09852 -38.5359)
(57.2673 4.01969 8.98091)
(-0.26304 -8.68731 11.7552)
(-0.205375 -0.84611 8.75575)
(-0.068848 -2.18987 12.6953)
(-57.945 -40.7003 -4.27959)
(-56.2062 -21.2804 -28.8739)
(-56.2398 -6.6913 -54.0551)
(58.1173 -12.2173 -49.0759)
(60.3578 -6.65107 -47.4914)
(57.0019 -0.48339 4.27392)
(-0.267115 22.67 16.6016)
(-0.270235 12.0632 9.67409)
(-0.158867 1.46067 8.01416)
(-57.6461 6.97245 22.3913)
(-56.7176 -20.7962 -21.5891)
(-58.856 -3.88214 -69.9867)
(57.4639 8.93 -82.2447)
(57.8783 -3.66928 -65.2827)
(57.3983 -5.32994 -11.728)
(-0.41051 13.7293 35.4004)
(-0.399153 0.907213 37.3376)
(-0.392246 -0.8736 61.1907)
(-58.9676 0.087446 65.3768)
(-58.7512 -9.09273 25.7134)
(-58.2782 8.76608 -99.6953)
(55.6596 -7.21745 -131.19)
(56.3958 -1.25923 -133.71)
(55.9215 -1.18249 -127.022)
(-0.238207 -0.300285 69.5677)
(-0.223478 -4.83867 71.4324)
(-0.225736 -3.36573 83.7877)
(-57.1973 -3.21626 109.318)
(-56.8308 6.72572 -57.5784)
(-56.4234 -2.70634 -133.187)
(53.8624 0.84978 -160.265)
(54.1596 -0.293961 -162.495)
(54.0428 -0.150716 -160.113)
(0.418214 -0.517958 203.711)
(0.38659 -1.97554 174.205)
(0.362192 -0.0886665 161.715)
(-54.431 2.49698 -2.91214)
(-52.9674 7.32437 -107.861)
(-53.2938 6.68814 -152.286)
)
;

boundaryField
{
    fuel
    {
        type            fixedValue;
        value           uniform (0 0 0.25);
    }
    primary_air
    {
        type            fixedValue;
        value           uniform (0 0 2.5);
    }
    Secondary_air_RHS
    {
        type            fixedValue;
        value           uniform (0 41.6667 0);
    }
    Secondary_air_LHS
    {
        type            fixedValue;
        value           uniform (0 -41.6667 0);
    }
    outlet
    {
        type            pressureInletOutletVelocity;
        value           nonuniform List<vector> 
18
(
(0 0 -160.265)
(0.418214 -0.517958 203.711)
(0 0 -2.91214)
(0 0 -162.495)
(0.38659 -1.97554 174.205)
(0 0 -107.861)
(0 0 -160.113)
(0.362192 -0.0886665 161.715)
(0 0 -152.286)
(0 0 -157.813)
(0.395673 -0.0831512 160.405)
(0 0 -148.334)
(0 0 -159.469)
(0.420273 2.07208 175.535)
(0 0 -106.534)
(0 0 -158.177)
(0.44217 0.637998 203.529)
(0 0 -4.22258)
)
;
    }
    stove_body
    {
        type            noSlip;
    }
    frontAndBack
    {
        type            empty;
    }
}


// ************************************************************************* //
