/*--------------------------------*- C++ -*----------------------------------*\
  =========                 |
  \\      /  F ield         | OpenFOAM: The Open Source CFD Toolbox
   \\    /   O peration     | Website:  https://openfoam.org
    \\  /    A nd           | Version:  6
     \\/     M anipulation  |
\*---------------------------------------------------------------------------*/
FoamFile
{
    version     2.0;
    format      ascii;
    class       volScalarField;
    location    "3.5";
    object      p;
}
// * * * * * * * * * * * * * * * * * * * * * * * * * * * * * * * * * * * * * //

dimensions      [1 -1 -2 0 0 0 0];

internalField   nonuniform List<scalar> 
297
(
111538
111537
111538
185857
185857
185857
111538
111537
111538
111537
111537
111537
185857
185857
185857
111537
111537
111537
111537
111537
111537
185857
185857
185857
111537
111537
111537
97629.9
97524.9
97619.7
162353
162288
162354
97630.6
97525
97618.9
97850.5
97032.1
97880.7
161757
161709
161782
97852.8
97032.8
97880.1
95235.6
94675.9
95503.7
154115
158276
154430
95239.3
94676.1
95502
92841.5
95120.7
92584.7
157891
156867
157785
92838.8
95121.4
92590.8
96938.4
97023.2
96862.5
161668
160819
161668
96939
97023.9
96863.5
97037.2
97257.9
97006
161612
161988
161692
97037.8
97257.9
97006.7
78131.8
92580.7
78404.8
127943
154119
127113
78107.3
92579.8
78399.8
78072.5
92490.2
78146.8
126678
154157
125438
78048.3
92489.3
78142.5
80076.8
92767.9
80004.2
128902
155125
127375
80058.1
92767.1
80000.7
97405.4
97489.6
97398.9
162168
162351
162172
97404.9
97489.4
97403.6
97474.8
97491.8
97466.9
162326
162407
162321
97474
97491.5
97471.8
97476.3
97488
97470.2
162402
162426
162393
97475.3
97487.6
97475
97538
97642.6
97890.9
162288
162357
162494
97550.2
97655
97902
97482.4
97507.8
97666.4
162299
162306
162363
97494.3
97520.5
97678.3
97423.5
97349.3
97287.3
162358
162310
162278
97435.2
97362.1
97300
97897
97643.4
97539.4
162496
162355
162286
97896.9
97643.1
97539
97668.1
97507.5
97484.6
162365
162305
162299
97668.2
97507.3
97484
97279
97348.7
97425.9
162277
162308
162358
97279.6
97348.4
97425.1
98439.9
98344.2
98164.4
162944
162867
162711
98439.9
98344.2
98164.3
98307.5
98182.6
97970.5
162767
162699
162548
98307.7
98182.7
97970.7
98154.2
98019.2
97752.9
162528
162451
162340
98154.9
98019.8
97753.5
97214.6
97165.3
97058.2
161282
161242
161158
97217.2
97167.8
97060.4
92220.2
92232.6
92268.5
152957
152961
152960
92220.3
92233
92269.2
85017.7
85017.4
85020.5
137090
137094
137087
85017.5
85017.2
85020.2
98161.2
98349.2
98446.5
162707
162869
162945
98171.3
98360
98457.5
97964.4
98179.8
98307.6
162544
162696
162762
97974.4
98190
98317.8
97744.2
98007.4
98148.6
162331
162440
162516
97753.1
98015.8
98157.2
97042.6
97151.5
97203.7
161106
161189
161234
97040.2
97151.5
97205.3
92240.4
92203.4
92188.9
152912
152912
152908
92248
92211
92196.8
84986
84983.2
84983.7
137037
137043
137039
84984.3
84981.4
84981.9
)
;

boundaryField
{
    fuel
    {
        type            zeroGradient;
    }
    primary_air
    {
        type            zeroGradient;
    }
    Secondary_air_RHS
    {
        type            zeroGradient;
    }
    Secondary_air_LHS
    {
        type            zeroGradient;
    }
    outlet
    {
        type            totalPressure;
        rho             rho;
        psi             none;
        gamma           1;
        p0              uniform 100000;
        value           nonuniform List<scalar> 
18
(
88606.9
100000
88606.4
88580.5
100000
88580
88577.3
100000
88576.8
88604.2
100000
88604.2
88606.6
100000
88606.5
88632.4
100000
88632.3
)
;
    }
    stove_body
    {
        type            zeroGradient;
    }
    frontAndBack
    {
        type            empty;
    }
}


// ************************************************************************* //
