/*--------------------------------*- C++ -*----------------------------------*\
  =========                 |
  \\      /  F ield         | OpenFOAM: The Open Source CFD Toolbox
   \\    /   O peration     | Website:  https://openfoam.org
    \\  /    A nd           | Version:  6
     \\/     M anipulation  |
\*---------------------------------------------------------------------------*/
FoamFile
{
    version     2.0;
    format      ascii;
    class       surfaceScalarField;
    location    "3.5";
    object      phi;
}
// * * * * * * * * * * * * * * * * * * * * * * * * * * * * * * * * * * * * * //

dimensions      [1 0 -1 0 0 0 0];

internalField   nonuniform List<scalar> 
675
(
1.079e-05
-3.52493e-05
0.000142561
-1.08613e-05
5.38822e-06
0.000134365
-3.52171e-05
0.000142457
-1.61016e-05
3.52418e-05
0.000142442
1.62096e-05
-5.39133e-06
0.0001753
3.52126e-05
0.000142611
1.07932e-05
0.00014255
-1.08583e-05
0.000134362
0.000142456
6.67406e-06
-5.83886e-05
0.000194265
-6.78685e-06
4.79367e-06
0.000143022
-5.81328e-05
0.000193793
-2.72545e-05
5.83579e-05
5.29693e-05
2.80617e-05
-4.79673e-06
0.000129592
5.81321e-05
5.44274e-05
6.68183e-06
0.000194216
-6.78249e-06
0.000143019
0.000193795
3.6888e-06
7.24534e-05
-4.7829e-06
3.33715e-05
7.08874e-05
1.00755e-06
-7.237e-05
5.52715e-07
-3.33747e-05
-7.09179e-05
3.72296e-06
-4.75451e-06
0.00327627
0.00390185
-0.00396816
-0.00299238
0.00521204
0.00426271
0.00373766
-0.00352039
0.00538421
-0.00390082
0.00775488
-0.00523572
-0.00521231
0.0263772
-0.00372992
0.00756838
0.00329263
-0.00398351
-0.00296964
0.00425599
-0.00348998
0.00874827
0.00833942
-0.0210561
-0.00823569
-0.00483455
0.0260808
0.00798434
-0.0197406
0.00280843
-0.00835988
0.021645
-0.00357923
0.00483185
0.0230967
-0.00794858
0.0199213
0.00872431
-0.021068
-0.00823492
0.0260466
-0.0196737
0.000381212
0.0176337
-0.0390716
-0.000685511
-0.00713558
0.0342823
0.0174981
-0.0379248
-0.0431962
-0.0176363
0.10011
0.0433036
0.00713297
-0.0776751
-0.0174635
0.0981851
0.000412947
-0.0391179
-0.000658032
0.0342497
-0.037796
-0.0244768
-0.0223074
-0.018491
0.065274
0.0241289
0.00879053
-0.0316326
-0.0257654
-0.0231378
-0.0173595
0.064625
-0.00226764
0.0223189
0.0178155
-0.0601753
0.00434895
-0.00878363
-0.0904396
0.101393
0.0231142
0.0179494
-0.0598537
-0.0244953
-0.0184866
0.0652996
0.0240785
-0.0316204
-0.025739
-0.0173108
0.0645019
0.00542075
-0.00773267
-0.0161813
-0.00899944
0.0117802
-0.0289958
-0.0109585
-0.0154025
0.0179951
0.00772008
-0.0156344
-0.0109214
-0.0117851
-0.0379636
0.0109469
-0.0148811
0.00541995
-0.0161882
-0.00901096
-0.0289792
-0.0153791
-0.00124374
0.0026679
-0.0176065
-0.0129818
0.000222176
-0.0174727
-0.0102129
-0.018162
0.018395
-0.00267606
-0.0286968
0.00950259
-0.000215515
-0.0286601
0.0102237
-0.0258656
-0.00125743
-0.0175996
-0.0129846
-0.017465
-0.0181596
-0.00162374
-0.000416696
-0.0473083
0.00153093
-0.000123162
0.0312508
-0.000327402
-0.0463796
-0.00285025
0.00041808
0.0852961
0.00317375
0.000123461
-0.0839459
0.000329429
0.0839819
-0.00162818
-0.0473455
0.0015243
0.0312206
-0.0462547
-0.00150479
0.000208467
-0.0562813
0.00146619
-0.0005233
0.0288031
0.000310797
-0.0555033
-0.00314669
-0.000207468
0.072196
0.00323711
0.000523538
-0.0913767
-0.000306032
0.0713362
-0.00150685
-0.0563123
0.00146167
0.0287756
-0.0553776
-0.00215696
0.000616646
0.00210727
-0.00122661
0.000705542
-0.00370212
-0.000615747
0.00386119
0.00122636
-0.000705214
-0.002159
0.00210388
0.00612593
-0.000737129
-0.00889575
-0.0141016
-0.00550271
-0.000699679
-0.00514272
-0.000810279
-0.00870307
-0.0141485
0.00620553
0.000736989
-0.0174964
-0.018877
-0.00823609
0.000702231
-0.0156237
0.00081368
-0.016799
-0.0189296
0.00612658
-0.00889417
-0.0140956
-0.00549763
-0.00514109
-0.00870375
-0.0141465
0.00266677
0.000234518
-0.00221868
-0.00958081
-0.00331951
0.000469651
0.000375257
0.000132078
-0.00255777
-0.00959422
0.004438
-0.000233416
-0.00707626
-0.0143863
-0.00429252
-0.000467104
-0.00595888
-0.00012695
-0.00632185
-0.0145116
0.00267239
-0.00222092
-0.00958012
-0.00331776
0.000379001
-0.00255787
-0.00959806
0.000346786
0.000180718
-0.00274881
-2.62099e-05
0.000749172
0.00023224
-0.00281403
0.00171452
-0.000179886
-0.0084263
-0.0027511
-0.000746003
-0.000227972
-0.00861268
0.000348984
-0.00275095
-2.0895e-05
-0.00281454
-0.0129006
-6.30055e-05
-0.00118508
-0.0131992
0.0015658
-0.00126964
0.00190039
-0.00467511
-0.0104287
-0.0179203
6.24528e-05
-0.00112927
-0.015943
-0.00156702
0.00116443
-0.00190066
0.00181973
-0.013952
-0.0128998
-0.00118494
-0.0131964
-0.00127015
-0.00466659
-0.0104303
-0.00998534
-9.32611e-05
-0.000699662
-0.0100628
0.00103088
-0.00222434
0.000511878
-0.00532781
-0.00992507
-0.0155185
9.37221e-05
-0.00030415
-0.0131419
-0.00103225
0.000859193
-0.000514439
0.00269765
-0.0129845
-0.00999058
-0.000700817
-0.0100627
-0.00223072
-0.00531553
-0.00992806
-0.00339765
-0.000113698
-0.00508677
-0.000535242
-0.00111548
-0.00930007
-0.00913933
0.000113692
-0.00934256
0.000534906
0.00111275
-0.00886474
-0.0034049
-0.00510166
-0.0093043
0.0131773
0.00190404
-0.00472487
-0.0103591
0.0128549
0.00155477
-0.00123434
-6.78263e-05
-0.00118042
0.0158372
-0.00190343
0.00183242
-0.0138587
0.0178028
-0.001555
0.00114811
6.72508e-05
-0.00120574
0.0131702
-0.00472008
-0.0103561
0.0128483
-0.00123451
-0.0011806
0.0100483
0.000494828
-0.00541559
-0.00985453
0.00993949
0.0010167
-0.00214399
-8.89989e-05
-0.000734246
0.0130255
-0.000495974
0.00268347
-0.0128823
0.0154085
-0.00101748
0.000803044
8.86712e-05
-0.000357903
0.010045
-0.00541082
-0.00985215
0.00993735
-0.00214547
-0.000735188
0.00497199
-0.00112444
-0.00926435
0.00335391
-0.000527397
-0.000130592
0.00928863
0.00112334
-0.00884952
0.00904145
0.000526508
0.000129856
0.00497642
-0.00926477
0.00335668
0.00445904
0.00168513
-0.00614553
0.00700423
0.00160156
-0.00414833
0.00166318
-0.00502003
0.0062348
-0.00168452
-0.00286363
0.0100994
-0.00160103
-0.000660096
-0.00166268
-0.00043137
0.00445965
-0.00614535
0.00700498
-0.00414778
-0.00501576
0.00337552
0.00147131
-0.0109941
0.00663712
0.00141857
-0.00883043
0.00110938
-0.00934883
0.00453815
-0.00147049
-0.00445873
0.0089385
-0.00141731
-0.00222284
-0.00110977
-0.00215398
0.00337776
-0.0109951
0.00663716
-0.00882622
-0.00934238
0.0043638
0.00292308
-0.0182827
0.00497916
0.00184878
-0.0112967
0.00110744
-0.0147434
0.00483202
-0.00292251
-0.00344426
0.00839477
-0.00184994
-0.0020857
-0.00110938
-0.000390271
0.00436393
-0.0182833
0.00497793
-0.0112921
-0.0147403
-0.00507216
0.011382
-0.0245981
-0.00103802
0.0101294
-0.0254662
0.00988876
-0.0256768
0.00109665
-0.0113851
0.0182176
-0.000864508
-0.0101304
0.020125
-0.00988743
0.0185107
-0.00508513
-0.0245941
-0.00105017
-0.0254649
-0.0256824
0.000744748
0.00638576
-0.0317361
0.00111762
0.00635266
-0.0321985
0.00689914
-0.0314648
-0.000972182
-0.00638727
0.0319637
-0.000780895
-0.00635377
0.0326439
-0.0069003
0.0315359
0.000749217
-0.0317354
0.00112298
-0.0321981
-0.0314665
5.67896e-05
0.0191075
-0.000265113
0.0190189
0.0191156
-0.000303495
-0.0191063
2.55133e-05
-0.0190176
-0.0191141
5.74209e-05
-0.000263937
-0.00713376
0.00166081
-0.00495868
-0.0045236
0.00159881
-0.00421116
0.0016982
-0.00622365
-0.0101876
-0.00166049
-0.00043657
-0.0062854
-0.00159923
-0.000697816
-0.00170002
-0.00288087
-0.00714067
-0.00495017
-0.00452556
-0.00421432
-0.00622576
-0.00679839
0.00113475
-0.00922276
-0.0035364
0.00141222
-0.00888788
0.00147344
-0.0112359
-0.00913511
-0.00113705
-0.00200829
-0.00464617
-0.00141174
-0.00235706
-0.00147425
-0.00457369
-0.00680987
-0.00920556
-0.00354945
-0.00888636
-0.0112492
-0.00510823
0.00110001
-0.0145166
-0.00452304
0.00185048
-0.0113264
0.00294307
-0.0187051
-0.00865575
-0.00110416
-8.50046e-06
-0.00501107
-0.00185434
-0.00229251
-0.00294386
-0.00369332
-0.00511702
-0.0144975
-0.00453809
-0.0113196
-0.0187304
0.00151009
0.009744
-0.0257667
0.00554276
0.0101488
-0.0255173
0.0115039
-0.0246857
0.00068288
-0.00973384
0.018764
-0.00134385
-0.0101677
0.0200368
-0.0115343
0.0179983
0.00152889
-0.0257691
0.00556578
-0.0255186
-0.0246807
-0.00112366
0.00689181
-0.0315509
-0.0007301
0.00633984
-0.0322614
0.00636199
-0.0317844
0.00101251
-0.00689117
0.0315487
0.00116077
-0.00633824
0.032579
-0.00635934
0.0318904
-0.00111583
-0.0315558
-0.000724291
-0.0322648
-0.0317844
0.000254815
0.0190892
-6.5961e-05
0.0190042
0.0190999
5.40017e-05
-0.0190849
0.000358846
-0.0189999
-0.019096
0.000251846
-6.93442e-05
)
;

boundaryField
{
    fuel
    {
        type            calculated;
        value           nonuniform List<scalar> 
36
(
0.000118112
0.000196812
0.000118112
0.000118112
0.000196812
0.000118112
0.000118112
0.000196812
0.000118112
-0.000118112
-0.000196812
-0.000118112
-0.000118112
-0.000196812
-0.000118112
-0.000118112
-0.000196812
-0.000118112
0
0
0
0
0
0
0
0
0
0
0
0
0
0
0
0
0
0
)
;
    }
    primary_air
    {
        type            calculated;
        value           nonuniform List<scalar> 9(-0.00321045 -0.0053388 -0.00321048 -0.003207 -0.00533666 -0.003207 -0.00321012 -0.00533885 -0.00321009);
    }
    Secondary_air_RHS
    {
        type            calculated;
        value           nonuniform List<scalar> 9(0.010313 0.0167199 0.0103124 0.0102791 0.0164995 0.0102785 0.0105234 0.0167544 0.0105229);
    }
    Secondary_air_LHS
    {
        type            calculated;
        value           nonuniform List<scalar> 9(0.0102771 0.016829 0.0102739 0.0102693 0.0166627 0.0102661 0.010533 0.0169552 0.0105305);
    }
    outlet
    {
        type            calculated;
        value           nonuniform List<scalar> 
18
(
-0.0508947
0.0696617
-0.0508957
-0.0509453
0.0702706
-0.0509463
-0.0509512
0.0704371
-0.0509524
-0.0508989
0.0704734
-0.050899
-0.0508945
0.0703437
-0.0508946
-0.0508449
0.0697834
-0.050845
)
;
    }
    stove_body
    {
        type            calculated;
        value           uniform 0;
    }
    frontAndBack
    {
        type            empty;
        value           nonuniform 0();
    }
}


// ************************************************************************* //
