/*--------------------------------*- C++ -*----------------------------------*\
  =========                 |
  \\      /  F ield         | OpenFOAM: The Open Source CFD Toolbox
   \\    /   O peration     | Website:  https://openfoam.org
    \\  /    A nd           | Version:  6
     \\/     M anipulation  |
\*---------------------------------------------------------------------------*/
FoamFile
{
    version     2.0;
    format      ascii;
    class       volScalarField;
    location    "3.5";
    object      Qdot;
}
// * * * * * * * * * * * * * * * * * * * * * * * * * * * * * * * * * * * * * //

dimensions      [1 -1 -3 0 0 0 0];

internalField   nonuniform List<scalar> 
297
(
0
0.000144258
0
0
0
0.000437517
0
0.000218758
0
0
0
0
0
0
0
0.000144258
0.000218758
0
0
0
7.21288e-05
0
0
0
7.21288e-05
0.000218758
0
-5.26582e-10
0
-5.26582e-10
0
0
0
0
7.74053e-11
0
-2.63291e-10
0
0
0
0
0
-2.63291e-10
0
0
0
9.67566e-12
0
9.67566e-12
3.87026e-11
9.67566e-12
0
0
0
0
0
0
0
0
0
-5.26582e-10
0
0
0
0
0
0
0
0
2.95278e-16
0
2.95278e-16
0
0
0
0
3.60446e-20
0
0
0
0
0
0
0
-5.26582e-10
2.41891e-12
-5.26582e-10
0
0
0
0
0
0
0
0
0
-2.63291e-10
0
-2.63291e-10
0
9.67566e-12
0
0
0
0
0
9.67566e-12
0
0
-4.21266e-09
0
1.09999e-24
0
2.19999e-24
0
-4.21266e-09
0
0
0
0
0
0
1.34277e-28
-4.21266e-09
5.37107e-28
-4.21266e-09
-4.21266e-09
0
0
0
0
0
0
0
-4.21266e-09
1.67846e-29
0
-4.21266e-09
3.35692e-29
0
0
0
0
7.81593e-39
0
0
0
0
1.6007e-35
0
0
0
0
-4.21266e-09
0
3.81637e-42
0
1.00044e-36
0
0
0
0
-4.21266e-09
0
0
0
2.56112e-34
0
0
0
8.39229e-30
-4.21266e-09
0
-4.21266e-09
0
0
0
-4.21266e-09
6.25275e-38
0
-4.21266e-09
7.81593e-39
-4.21266e-09
0
0
0
0
-4.21266e-09
0
-4.21266e-09
-4.21266e-09
0
0
0
0
0
1.45583e-47
0
0
0
-4.21266e-09
2.77678e-53
0
0
0
0
0
0
0
0
0
0
0
0
-4.21266e-09
-4.21266e-09
0
6.94194e-54
0
1.38839e-53
0
0
0
0
4.44284e-52
0
0
0
0
-4.21266e-09
1.81979e-48
0
0
0
0
0
0
-4.21266e-09
2.84342e-50
0
0
0
0
0
0
-4.21266e-09
0
0
0
-4.21266e-09
0
0
0
0
-4.21266e-09
0
0
0
0
7.10855e-51
0
1.16466e-46
0
0
1.86346e-45
0
0
0
-4.21266e-09
0
0
0
1.73549e-54
0
0
2.77678e-53
0
0
0
0
0
0
-4.21266e-09
0
0
0
0
1.35585e-56
1.73549e-54
0
0
9.09894e-49
-4.21266e-09
0
0
0
0
)
;

boundaryField
{
    fuel
    {
        type            calculated;
        value           uniform 0;
    }
    primary_air
    {
        type            calculated;
        value           uniform 0;
    }
    Secondary_air_RHS
    {
        type            calculated;
        value           uniform 0;
    }
    Secondary_air_LHS
    {
        type            calculated;
        value           uniform 0;
    }
    outlet
    {
        type            calculated;
        value           uniform 0;
    }
    stove_body
    {
        type            calculated;
        value           uniform 0;
    }
    frontAndBack
    {
        type            empty;
    }
}


// ************************************************************************* //
