/*--------------------------------*- C++ -*----------------------------------*\
  =========                 |
  \\      /  F ield         | OpenFOAM: The Open Source CFD Toolbox
   \\    /   O peration     | Website:  https://openfoam.org
    \\  /    A nd           | Version:  6
     \\/     M anipulation  |
\*---------------------------------------------------------------------------*/
FoamFile
{
    version     2.0;
    format      ascii;
    class       volScalarField;
    location    "3.5";
    object      T;
}
// * * * * * * * * * * * * * * * * * * * * * * * * * * * * * * * * * * * * * //

dimensions      [0 0 0 1 0 0 0];

internalField   nonuniform List<scalar> 
297
(
292.877
292.876
292.877
292.886
292.962
292.887
292.877
292.876
292.877
292.874
292.878
292.877
293.105
293.629
293.116
292.874
292.878
292.877
291.89
292.518
291.96
322.622
366.19
324.334
291.896
292.518
291.96
1987.1
1079.09
2003.63
810.432
477.867
802.059
1989.75
1079.84
2006.91
3197.06
2692.61
3385.71
2716.84
1228.42
2839.65
3197
2698.74
3403.52
3199.46
2434.83
3388.63
2176.77
1087.77
2257.64
3199.41
2439.71
3406.46
1936.45
1382.88
2037.82
3397.86
1035.76
3442.64
1937.06
1384.73
2039.07
900.289
549.847
1090.74
2030.5
969.699
2096.34
899.472
549.93
1090.63
301.616
301.731
301.67
301.811
301.609
301.856
301.679
301.736
301.701
3105.68
2377.73
3287.64
2451.63
1034.39
2539.93
3099.35
2382.51
3311.16
2571.04
2363.52
2514.74
2646.12
1033.96
2938.74
2571.46
2368.23
2525.81
2206.38
2331.24
2317.42
3390.03
1034.86
3506.05
2206.98
2335.8
2327.07
301.398
301.974
301.42
301.701
301.974
301.7
301.46
301.971
301.463
301.763
301.897
301.822
301.876
302.012
301.896
301.784
301.907
301.834
301.864
301.823
301.901
302.09
302.054
302.108
301.882
301.835
301.897
301.34
301.387
301.505
301.593
301.621
301.715
301.38
301.428
301.547
301.771
301.684
301.712
301.827
301.835
301.896
301.788
301.702
301.733
301.981
301.916
301.793
302.117
302.111
302.113
301.982
301.92
301.798
301.454
301.331
301.296
301.729
301.645
301.618
301.512
301.4
301.359
301.674
301.65
301.749
301.882
301.829
301.826
301.692
301.666
301.764
301.738
301.873
301.949
302.084
302.093
302.11
301.752
301.884
301.961
301.785
301.777
301.585
302.066
302.008
301.852
301.873
301.857
301.639
301.768
301.768
301.613
302.173
302.104
301.994
301.829
301.805
301.636
301.681
301.624
301.566
302.231
302.145
302.125
301.748
301.65
301.583
301.587
301.5
301.478
302.402
302.104
302.223
301.638
301.504
301.483
298.76
298.652
298.818
300.021
299.91
300.992
298.75
298.649
298.797
292.04
292.052
292.087
288.766
288.802
289.054
292.04
292.053
292.087
301.627
301.834
301.83
301.852
302.005
302.072
301.678
301.901
301.917
301.648
301.798
301.785
302.026
302.14
302.217
301.678
301.847
301.874
301.623
301.662
301.71
302.171
302.196
302.286
301.628
301.688
301.783
301.52
301.537
301.612
302.29
302.152
302.469
301.515
301.538
301.67
298.83
298.687
298.775
301.028
300.008
300.08
298.836
298.665
298.79
292.106
292.072
292.06
289.095
288.861
288.835
292.106
292.073
292.06
)
;

boundaryField
{
    fuel
    {
        type            fixedValue;
        value           uniform 293;
    }
    primary_air
    {
        type            fixedValue;
        value           uniform 293;
    }
    Secondary_air_RHS
    {
        type            fixedValue;
        value           uniform 293;
    }
    Secondary_air_LHS
    {
        type            fixedValue;
        value           uniform 293;
    }
    outlet
    {
        type            inletOutlet;
        inletValue      uniform 293;
        value           nonuniform List<scalar> 
18
(
293
289.095
293
293
288.861
293
293
288.835
293
293
288.766
293
293
288.802
293
293
289.054
293
)
;
    }
    stove_body
    {
        type            fixedValue;
        value           uniform 293;
    }
    frontAndBack
    {
        type            empty;
    }
}


// ************************************************************************* //
