/*--------------------------------*- C++ -*----------------------------------*\
  =========                 |
  \\      /  F ield         | OpenFOAM: The Open Source CFD Toolbox
   \\    /   O peration     | Website:  https://openfoam.org
    \\  /    A nd           | Version:  6
     \\/     M anipulation  |
\*---------------------------------------------------------------------------*/
FoamFile
{
    version     2.0;
    format      ascii;
    class       volVectorField;
    location    "3.5";
    object      U;
}
// * * * * * * * * * * * * * * * * * * * * * * * * * * * * * * * * * * * * * //

dimensions      [0 1 -1 0 0 0 0];

internalField   nonuniform List<vector> 
297
(
(12.406 0.0177788 0.274363)
(12.4066 -0.000171951 0.249333)
(12.406 -0.0179549 0.274043)
(1.26313e-08 -0.023265 0.251978)
(1.25485e-08 0.000132324 0.24946)
(1.24657e-08 0.0233755 0.251932)
(-12.406 0.0177889 0.274349)
(-12.4066 -0.000159151 0.249331)
(-12.406 -0.0179466 0.27404)
(12.4056 0.0130045 0.296917)
(12.4067 -0.000237934 0.259731)
(12.4057 -0.0132989 0.29711)
(1.28332e-08 -0.0698136 0.0577288)
(1.26064e-08 0.00216421 0.228498)
(1.25065e-08 0.0708152 0.0624416)
(-12.4056 0.0130307 0.296918)
(-12.4067 -0.000211134 0.259727)
(-12.4057 -0.0132854 0.2971)
(11.3357 0.0265802 0.445515)
(12.3919 -0.00451108 0.398319)
(11.4284 -0.0280716 0.447152)
(9.23733e-09 0.0562639 0.207984)
(1.25925e-08 -0.0179339 0.0995926)
(9.29882e-09 -0.0413803 0.2037)
(-11.346 0.0266631 0.445684)
(-12.3918 -0.00424423 0.39831)
(-11.4254 -0.0280347 0.447076)
(54.9299 -7.04234 12.5654)
(29.5866 0.446233 16.8843)
(55.3487 7.22238 10.5208)
(3.49269e-05 -0.796585 16.7768)
(2.24546e-06 0.235114 10.3112)
(-4.1769e-05 0.401642 16.0182)
(-55.0041 -7.09552 12.4714)
(-29.6068 0.542731 16.872)
(-55.4364 7.14739 10.5749)
(89.0907 -34.8113 51.8234)
(75.0972 2.00788 126.958)
(94.318 36.2816 59.2791)
(0.00040032 8.09024 210.234)
(5.08056e-05 -1.08118 130.668)
(-0.000114789 -6.94046 213.064)
(-89.088 -34.927 51.7231)
(-75.2671 1.90895 127.11)
(-94.8125 36.1796 59.8414)
(87.191 -88.0392 -50.701)
(68.3467 -1.23517 166.989)
(92.2606 99.064 -42.0475)
(0.000537139 -59.9225 269.972)
(8.13236e-06 1.31851 -23.3647)
(-0.000259429 60.8634 279.833)
(-87.1861 -88.1987 -50.405)
(-68.4836 -0.883651 167.213)
(-92.7447 99.2286 -42.2825)
(54.7773 -55.4008 -212.947)
(38.0989 -3.57011 -28.6446)
(57.7174 63.6438 -217.563)
(-0.000588033 -106.424 -23.6942)
(5.11835e-05 0.760623 -120.626)
(0.00139164 114.786 -24.3247)
(-54.7948 -55.4004 -213.015)
(-38.1493 -3.72272 -28.6803)
(-57.7501 63.6251 -217.779)
(25.2549 46.0512 -132.223)
(15.3542 -8.61422 -89.6839)
(30.593 -38.0999 -140.426)
(8.45416e-05 -0.852765 -115.298)
(4.5358e-05 6.5014 -100.444)
(0.000142793 7.52173 -121.886)
(-25.2319 46.0526 -132.249)
(-15.3565 -8.64197 -89.6737)
(-30.5898 -38.0891 -140.292)
(8.46338 23.1817 -21.1522)
(8.46417 -8.6613 -16.783)
(8.46664 -22.0204 -21.5546)
(1.07576e-05 20.611 -19.5823)
(9.62807e-08 7.89339 -22.1171)
(1.39517e-05 -16.5643 -18.1979)
(-8.46512 23.1616 -21.1452)
(-8.46432 -8.66438 -16.7732)
(-8.46747 -22.0218 -21.5463)
(77.04 -85.6424 -516.196)
(65.2556 -5.34619 211.632)
(80.4312 100.927 -520.073)
(-0.00480622 -80.6336 401.903)
(-5.72415e-05 5.47216 -151.052)
(-0.0010268 85.59 423.375)
(-76.9194 -85.8585 -516.172)
(-65.3853 -5.31668 211.856)
(-80.9556 101.046 -521.918)
(69.0219 -64.0153 -412.022)
(59.2157 -5.45599 206.696)
(66.7612 75.3869 -414.502)
(-0.00512344 -76.4071 454.594)
(-5.9887e-05 4.87423 -152.72)
(-0.00102383 80.1642 482.78)
(-69.0611 -64.0978 -412.251)
(-59.3274 -5.45451 206.913)
(-67.033 75.4079 -415.541)
(61.7466 -68.3158 -358.167)
(59.5186 -4.86317 189.262)
(64.3388 78.9911 -360.663)
(-0.00462246 -107.526 500.447)
(-6.2788e-05 3.7432 -143.553)
(-0.000905177 117.847 530.16)
(-61.7778 -68.4618 -358.372)
(-59.6296 -4.88949 189.449)
(-64.6098 78.9802 -361.433)
(8.43068 36.5577 -10.3999)
(8.4562 1.67628 -10.4085)
(8.43162 -36.5749 -10.6165)
(-8.34235e-06 28.4448 -11.2404)
(-4.96383e-06 -3.11557 -11.2552)
(9.10666e-05 -28.9224 -10.4118)
(-8.43242 36.5532 -10.3977)
(-8.45615 1.68602 -10.4055)
(-8.43259 -36.569 -10.6164)
(8.46357 19.9758 -3.98467)
(8.47479 -2.19982 -2.03486)
(8.46504 -19.439 -4.04573)
(-1.53557e-05 19.1445 -4.78702)
(-6.41959e-06 0.480451 -5.57621)
(9.66659e-05 -19.6713 -4.50388)
(-8.46419 19.9884 -3.98926)
(-8.4751 -2.18107 -2.0318)
(-8.46511 -19.4608 -4.0496)
(8.47491 -0.669843 -4.93123)
(8.47623 0.544882 0.459928)
(8.47588 0.966015 -5.13491)
(-1.94887e-05 9.21764 -2.78535)
(-7.43456e-06 -1.86943 -2.20091)
(9.32957e-05 -9.50409 -2.33493)
(-8.47545 -0.662635 -4.92703)
(-8.47661 0.551149 0.461995)
(-8.47554 0.975655 -5.12949)
(8.42718 -39.3639 -4.538)
(8.45108 -35.646 -6.68667)
(8.44168 -31.0411 -9.02073)
(0.000236468 -31.4888 -3.77644)
(0.000243016 -29.3204 -3.71115)
(0.000216638 -25.0666 -4.05932)
(-8.42765 -39.3535 -4.53636)
(-8.45155 -35.6313 -6.68714)
(-8.44226 -31.0666 -9.01472)
(8.4529 -29.5979 -2.25023)
(8.46613 -30.759 -7.48902)
(8.43975 -27.1506 -13.8486)
(0.000232786 -26.2021 0.00479209)
(0.000248743 -26.1694 0.945545)
(0.000231192 -22.0335 1.7056)
(-8.45271 -29.601 -2.25865)
(-8.46595 -30.755 -7.49051)
(-8.43984 -27.1614 -13.8216)
(8.48013 -6.36827 -4.46051)
(8.47903 -17.4802 -12.9635)
(8.44644 -23.5066 -20.0198)
(0.000228411 -15.3213 2.52746)
(0.000249955 -15.969 3.56064)
(0.000249302 -16.6218 3.49869)
(-8.47953 -6.36933 -4.44539)
(-8.47839 -17.4992 -12.9679)
(-8.44587 -23.5101 -19.9715)
(8.44002 30.6914 -8.99637)
(8.44939 35.6271 -6.59397)
(8.42591 39.2468 -4.51489)
(-2.99391e-06 24.8334 -4.0493)
(-5.50204e-06 29.2206 -3.6936)
(-8.85419e-06 31.4227 -3.7775)
(-8.44165 30.6929 -8.9876)
(-8.45134 35.6156 -6.59091)
(-8.42769 39.2339 -4.51266)
(8.43749 26.9049 -13.9694)
(8.4652 30.7909 -7.41019)
(8.4528 29.4472 -2.21962)
(2.78925e-06 21.7826 1.834)
(-4.25712e-06 26.0436 0.975)
(-1.20742e-05 26.0785 -0.105623)
(-8.43803 26.9031 -13.9575)
(-8.46564 30.7813 -7.40783)
(-8.45324 29.4394 -2.22347)
(8.44579 23.479 -20.4164)
(8.47842 17.4281 -12.8018)
(8.47908 6.17559 -4.66395)
(1.11687e-05 16.6241 3.20508)
(-4.70044e-06 15.923 3.40856)
(-1.57429e-05 15.0787 2.54254)
(-8.44617 23.4774 -20.4033)
(-8.47874 17.4374 -12.8063)
(-8.47945 6.17905 -4.66093)
(8.42419 9.83797 -15.8634)
(8.42519 14.1454 -11.5547)
(8.43231 21.7522 -13.0339)
(-7.52788e-07 8.03813 -7.75702)
(-8.76628e-07 12.277 -4.31576)
(-2.14942e-06 18.0091 -5.01111)
(-8.42663 9.84758 -15.8605)
(-8.42744 14.1501 -11.551)
(-8.43385 21.7505 -13.0218)
(8.42857 4.32209 -22.7918)
(8.43299 11.9975 -17.5647)
(8.42984 21.9956 -21.6423)
(3.76498e-06 5.95574 -5.05445)
(2.98116e-06 9.53511 -1.30422)
(3.11575e-06 16.7804 -1.35716)
(-8.43024 4.33637 -22.8051)
(-8.434 11.9994 -17.5687)
(-8.43051 21.9925 -21.6339)
(8.45562 3.00544 -27.1659)
(8.439 13.0902 -25.5346)
(8.43911 14.6198 -31.4231)
(1.46703e-05 4.73445 -7.95142)
(1.16393e-05 10.0151 -4.90288)
(1.07671e-05 13.9099 -0.805243)
(-8.45747 3.00585 -27.1688)
(-8.43977 13.0773 -25.5171)
(-8.43965 14.6305 -31.4005)
(8.44626 -2.88328 -43.9495)
(8.4429 -2.0027 -44.9868)
(8.44836 -10.0679 -49.495)
(5.23623e-05 -2.6109 16.9741)
(4.81822e-05 3.08965 21.745)
(4.26251e-05 -9.49507 19.9292)
(-8.44754 -2.89017 -43.9387)
(-8.44286 -2.00811 -44.9802)
(-8.4484 -10.0706 -49.5078)
(8.34845 1.1867 -111.463)
(8.34411 -0.881274 -113.802)
(8.34677 4.5795 -110.842)
(3.4185e-06 -0.769269 61.2233)
(9.35365e-06 0.909005 63.1635)
(1.54861e-05 -1.72228 60.4786)
(-8.34817 1.18424 -111.46)
(-8.344 -0.875616 -113.801)
(-8.34614 4.57934 -110.848)
(8.00285 0.0039201 -149.564)
(8.00317 -0.0464333 -149.547)
(8.00401 -0.0645241 -149.356)
(-3.90729e-06 -0.321257 180.444)
(-5.42291e-06 0.329258 180.132)
(-7.08469e-06 -0.56249 178.847)
(-8.00287 0.00410307 -149.565)
(-8.00319 -0.046008 -149.547)
(-8.00403 -0.0642399 -149.356)
(8.43359 -21.9547 -12.8778)
(8.42644 -14.3438 -11.5123)
(8.42524 -10.1034 -15.8001)
(0.00019721 -18.287 -4.99402)
(0.000210696 -12.1697 -4.296)
(0.000214236 -8.0689 -7.70751)
(-8.43448 -21.9625 -12.8554)
(-8.42772 -14.3509 -11.502)
(-8.42712 -10.1188 -15.7827)
(8.43248 -22.2428 -21.613)
(8.43363 -12.3095 -17.9682)
(8.42879 -4.90722 -23.4139)
(0.000195204 -17.1055 -1.48848)
(0.000198562 -9.66415 -1.48966)
(0.000199271 -6.12172 -5.21519)
(-8.43292 -22.2577 -21.5851)
(-8.43438 -12.3337 -17.9834)
(-8.43072 -4.96538 -23.4484)
(8.44356 -15.0711 -30.8423)
(8.4424 -13.2594 -25.7981)
(8.45667 -3.44208 -27.8807)
(0.000174722 -14.289 -0.138995)
(0.00016619 -10.2763 -5.22129)
(0.000168605 -5.03551 -8.26291)
(-8.44343 -15.1058 -30.7757)
(-8.44282 -13.2571 -25.7914)
(-8.45825 -3.49142 -27.9266)
(8.44858 9.99423 -49.2793)
(8.44249 2.48349 -44.9389)
(8.44582 3.14678 -44.3745)
(-4.76864e-05 9.26745 20.686)
(7.43823e-07 -2.91205 21.5917)
(3.02899e-05 2.36993 16.3485)
(-8.44859 9.99251 -49.2369)
(-8.44248 2.5014 -44.934)
(-8.44732 3.14687 -44.3778)
(8.347 -4.48087 -111.311)
(8.34506 0.730252 -114.125)
(8.34896 -1.06804 -111.65)
(0.000155887 1.78516 60.6361)
(0.00015763 -0.864999 63.0459)
(0.00016311 0.829565 61.0772)
(-8.34675 -4.47375 -111.34)
(-8.34405 0.721187 -114.133)
(-8.34896 -1.047 -111.647)
(8.00467 0.0617805 -149.545)
(8.00381 0.041557 -149.74)
(8.00348 -0.00680859 -149.763)
(-3.8034e-05 0.587537 178.561)
(-3.8791e-05 -0.312764 179.983)
(-3.96511e-05 0.342752 180.395)
(-8.00478 0.0610184 -149.548)
(-8.00392 0.0399623 -149.743)
(-8.00359 -0.00771572 -149.768)
)
;

boundaryField
{
    fuel
    {
        type            fixedValue;
        value           uniform (0 0 0.25);
    }
    primary_air
    {
        type            fixedValue;
        value           uniform (0 0 2.5);
    }
    Secondary_air_RHS
    {
        type            fixedValue;
        value           uniform (0 100 0);
    }
    Secondary_air_LHS
    {
        type            fixedValue;
        value           uniform (0 -100 0);
    }
    outlet
    {
        type            pressureInletOutletVelocity;
        value           nonuniform List<vector> 
18
(
(0 0 -149.545)
(-3.8034e-05 0.587537 178.561)
(0 0 -149.548)
(0 0 -149.74)
(-3.8791e-05 -0.312764 179.983)
(0 0 -149.743)
(0 0 -149.763)
(-3.96511e-05 0.342752 180.395)
(0 0 -149.768)
(0 0 -149.564)
(-3.90729e-06 -0.321257 180.444)
(0 0 -149.565)
(0 0 -149.547)
(-5.42291e-06 0.329258 180.132)
(0 0 -149.547)
(0 0 -149.356)
(-7.08469e-06 -0.56249 178.847)
(0 0 -149.356)
)
;
    }
    stove_body
    {
        type            noSlip;
    }
    frontAndBack
    {
        type            empty;
    }
}


// ************************************************************************* //
