/*--------------------------------*- C++ -*----------------------------------*\
  =========                 |
  \\      /  F ield         | OpenFOAM: The Open Source CFD Toolbox
   \\    /   O peration     | Website:  https://openfoam.org
    \\  /    A nd           | Version:  6
     \\/     M anipulation  |
\*---------------------------------------------------------------------------*/
FoamFile
{
    version     2.0;
    format      ascii;
    class       volScalarField;
    location    "2.5";
    object      O2;
}
// * * * * * * * * * * * * * * * * * * * * * * * * * * * * * * * * * * * * * //

dimensions      [0 0 0 0 0 0 0];

internalField   nonuniform List<scalar> 
297
(
0
0
0
0
0
0
0
0
0
0
0
0
0
0
0
0
0
0
0
0
0
0
0
0
0
0
0
0.0554811
0.0699142
0.138905
0.149628
0.15874
0.201137
0.0555105
0.0701955
0.139989
0
8.14831e-06
0.0199651
0.0651877
0.116474
0.101494
0
8.35453e-06
0.0204634
0
0
0
0.0433774
0.0276061
0.0731089
0
0
0
0
0
0
0
0
0
1.50396e-05
1.06008e-09
0
0
0
0
0
0
0
0
0
0
0
0
0
0
0
0
0
0
0
0
0
0
0.00304395
6.87309e-07
0.0317452
0
0
0
0
0
0
0
0
0.00985861
0
0
0
0
0
0
0
0
0
0
0
0
4.39523e-14
0
0
1.62361e-13
0
0
3.18067e-14
0
0
1.15206e-17
4.27771e-17
3.19949e-17
0
0
0
7.73602e-18
1.32641e-16
7.04333e-16
5.91595e-18
4.0099e-17
4.82528e-17
1.18467e-19
0
0
2.88247e-17
7.40428e-17
6.8137e-17
0
4.54145e-22
1.51781e-24
0
3.05514e-21
2.35227e-23
0
0
2.43967e-26
0
0
0
0
0
0
0
0
0
1.91271e-21
7.19328e-22
0
0
0
0
0
5.77353e-24
0
4.17839e-25
8.49524e-22
1.51398e-18
2.44565e-21
1.02098e-19
1.28564e-17
1.58846e-20
1.86244e-20
6.92966e-19
3.01098e-24
1.22199e-22
3.67603e-19
2.36497e-19
3.54172e-18
3.78328e-18
4.5165e-20
1.24217e-19
4.035e-19
1.12652e-23
9.03868e-21
3.47224e-19
8.24129e-19
1.06338e-18
2.10925e-19
1.15805e-18
1.93498e-18
3.44666e-18
9.42986e-26
1.44825e-25
2.74633e-25
4.31681e-21
3.46272e-21
3.8549e-21
7.50723e-21
1.85902e-20
1.86448e-20
1.40006e-25
4.74628e-25
1.01248e-24
6.12863e-21
4.46863e-21
4.72296e-21
1.23447e-20
2.82985e-20
2.78882e-20
1.50527e-25
6.82844e-25
2.18019e-24
6.81311e-21
1.09969e-19
3.8963e-19
1.59127e-20
3.45714e-20
8.09649e-19
1.86353e-25
8.56477e-25
1.57999e-24
1.61814e-20
9.67272e-20
1.99293e-19
1.79217e-20
7.28987e-20
4.00867e-19
1.22277e-25
4.04989e-25
1.15309e-24
1.25653e-20
4.78437e-20
1.37225e-19
2.17119e-20
8.02623e-20
3.21302e-19
6.39116e-26
1.70305e-25
5.34454e-25
1.1573e-20
4.72473e-20
1.5002e-19
1.81558e-20
8.166e-20
2.90204e-19
2.77711e-27
2.74308e-27
3.99715e-27
2.68641e-27
1.07022e-27
1.41632e-27
1.45123e-29
1.02627e-32
2.42262e-32
2.57133e-28
2.82405e-28
4.03462e-27
0
1.0704e-27
1.50424e-27
1.7298e-29
0
1.25649e-32
0
0
4.04049e-27
0
0
1.50277e-27
0
0
8.87282e-33
6.07167e-26
6.78952e-27
4.04407e-27
0
0
0
0
0
6.27474e-33
5.84327e-26
1.63189e-26
4.04263e-27
0
0
1.39553e-28
3.02514e-32
2.76015e-32
9.23572e-33
5.53226e-26
1.5857e-26
3.59506e-27
7.52913e-27
4.97251e-27
1.4122e-27
4.24747e-32
2.77979e-32
7.86335e-33
)
;

boundaryField
{
    fuel
    {
        type            fixedValue;
        value           uniform 0;
    }
    primary_air
    {
        type            fixedValue;
        value           uniform 0.23;
    }
    Secondary_air_RHS
    {
        type            fixedValue;
        value           uniform 0.23;
    }
    Secondary_air_LHS
    {
        type            fixedValue;
        value           uniform 0.23;
    }
    outlet
    {
        type            inletOutlet;
        inletValue      uniform 0;
        value           nonuniform List<scalar> 
18
(
0
7.52913e-27
0
0
4.97251e-27
0
0
1.4122e-27
0
0
1.1573e-20
0
0
4.72473e-20
0
0
1.5002e-19
0
)
;
    }
    stove_body
    {
        type            fixedValue;
        value           uniform 0;
    }
    frontAndBack
    {
        type            empty;
    }
}


// ************************************************************************* //
