/*--------------------------------*- C++ -*----------------------------------*\
  =========                 |
  \\      /  F ield         | OpenFOAM: The Open Source CFD Toolbox
   \\    /   O peration     | Website:  https://openfoam.org
    \\  /    A nd           | Version:  6
     \\/     M anipulation  |
\*---------------------------------------------------------------------------*/
FoamFile
{
    version     2.0;
    format      ascii;
    class       surfaceScalarField;
    location    "2.5";
    object      phi;
}
// * * * * * * * * * * * * * * * * * * * * * * * * * * * * * * * * * * * * * //

dimensions      [1 0 -1 0 0 0 0];

internalField   nonuniform List<scalar> 
675
(
-3.99396e-06
-4.30546e-05
0.000173941
-1.50443e-06
-4.33369e-05
0.00016774
-4.34503e-05
0.000168839
2.15838e-06
4.25964e-05
0.000122525
2.55055e-06
4.28275e-05
0.00012378
4.29429e-05
0.000126495
-3.10142e-06
0.00017259
-1.31762e-06
0.000167937
0.000168519
-1.76547e-06
-6.75621e-05
0.000243257
-5.45147e-07
-6.79929e-05
0.000234533
-6.91596e-05
0.00023751
2.15387e-05
6.97308e-05
-3.64408e-05
2.88892e-06
6.69123e-05
7.54041e-06
6.85215e-05
-8.03817e-06
-7.86092e-07
0.000243083
-2.56042e-07
0.000234339
0.000236839
-1.41034e-05
0.000130488
1.40051e-06
9.21873e-05
0.000112115
1.18311e-05
-0.00012851
-4.69934e-06
-9.29623e-05
-0.000112288
-1.22889e-05
2.24502e-06
0.00766721
0.00559651
-0.0100608
0.00899712
0.00575936
-0.00388305
0.0088275
0.00337445
0.00155588
-0.00553952
0.0148748
-0.00420709
-0.00567482
0.022498
-0.008733
0.0186554
0.00769416
-0.0100244
0.00899809
-0.00377154
0.00347119
0.0156973
0.00673709
-0.0324938
0.0121545
0.00274449
-0.00308228
0.00852501
0.0070108
0.0057793
-0.00662943
0.0224604
0.0088751
-0.00258831
0.0247389
-0.00836125
0.0444392
0.0157916
-0.0324483
0.0121478
-0.00270686
0.00727493
-0.00671757
0.023532
-0.049309
-0.00525792
0.0108221
-0.015377
0.0169748
-0.0152239
-0.0470315
-0.0234503
0.116468
0.0414179
-0.0105334
-0.0423554
-0.0167173
0.119545
-0.00667155
-0.0492279
-0.00516848
-0.0147677
-0.0146215
-0.0169728
-0.0138718
-0.0299704
0.060829
0.00618119
-0.000145581
-0.0415393
0.0185414
-0.00944244
-0.015951
0.0315772
0.0180694
0.0135645
0.0402461
-0.0857256
-0.00433146
-0.000191675
-0.0303406
0.0528081
0.00977366
0.063239
-0.0867925
-0.0174142
-0.0297085
0.0606926
0.00557348
-0.0410932
0.0179221
-0.0156787
0.0310204
0.00402162
-0.00991895
-0.0240937
-0.000303619
-0.00845469
-0.028753
-0.00653156
-0.009701
0.0156215
0.00995878
0.0047358
-0.011786
0.00770227
-0.0190911
0.00715957
0.0377533
0.00487156
-0.0246004
-0.000288818
-0.0282422
-0.00882983
-0.00565816
-0.000861099
-0.0175777
-0.0155316
-0.000477282
-0.0183221
-0.00926002
-0.015675
0.0102898
0.000768291
-0.00714985
6.96477e-05
-5.26308e-05
-0.00928666
0.00897526
0.0196539
-0.00575628
-0.0180878
-0.0148444
-0.019244
-0.0147055
-0.000926909
-0.00249343
-0.0521499
-0.0013531
-0.000594574
-0.0143561
-0.00198648
-0.0209078
-0.00315901
0.00248291
0.104604
0.00264031
0.000620323
-0.0493681
0.0019733
0.108005
-0.00093879
-0.0520596
-0.00135931
-0.0137245
-0.0203251
-0.00116491
-0.000697083
-0.0565328
-0.000303825
-1.01632e-05
-0.015207
-0.000978567
-0.0265391
-0.00147622
0.000687381
0.0946883
0.00230519
4.18912e-05
-0.0532
0.000974065
0.0981712
-0.00118863
-0.0564215
-0.000319756
-0.0145482
-0.0259768
-0.00192985
-1.89897e-05
-6.20699e-05
0.00146664
-0.00132197
-0.00109998
-1.00093e-07
0.00145222
-0.00147674
0.00131955
-0.00196539
-6.51698e-05
0.00533423
-0.00298093
-0.0044539
-0.0154715
-0.00616113
-0.000901584
-0.0059209
-0.00298014
-0.00269581
-0.0163561
-0.00248383
0.00224264
-0.00803192
-0.00185414
-0.00295126
0.00158326
-0.0113044
0.00343164
0.0118415
-0.00154754
0.00566127
-0.00484095
-0.0166624
-0.00573855
-0.00626102
-0.00229381
-0.0147296
0.00371214
0.00126109
0.00208957
-0.0115096
-0.00593183
0.00148069
0.00222717
0.000223213
0.00264662
-0.0115038
-0.00144471
-0.00208537
-0.00579419
0.00256345
-0.00378403
-0.00126857
-0.00621461
0.00038949
0.00467822
0.00321951
0.00259353
0.00261991
-0.0121353
-0.00683936
0.00190214
0.00202255
-0.0107614
0.000332938
0.0035342
-0.00176909
-0.000922314
0.00343967
0.00234863
-0.000723009
-0.00387707
-0.00318003
0.0048105
-0.00396631
-0.00268924
-0.00184667
0.00488087
-0.00191367
0.00136185
-0.00270056
-0.00252014
-0.0171461
-0.000987961
0.00177641
-0.0170303
-0.0017785
0.00165766
-0.00159316
0.00183227
-0.0172626
-0.00604778
0.00247082
0.00103827
-0.0082657
8.04734e-05
0.000362405
-0.00172925
0.00234122
-0.0104617
-0.0140646
0.00180705
-0.0150645
0.00108032
-0.00214959
-0.0146443
-0.0117161
-0.000874066
0.00285372
-0.0117606
-0.00103563
0.00273045
-0.00133578
0.0029018
-0.0114891
0.00354791
0.00159594
-0.00176388
0.00057697
-0.000158123
0.00241848
-0.00133133
0.00738328
-0.00443463
-0.0101804
0.00281698
-0.0101495
0.000890787
-0.00357078
-0.0100601
0.00162772
0.000482565
0.00406759
0.00028514
-0.00131658
0.00829344
0.00412814
-0.000533661
0.00772328
-0.000894258
-0.000920296
0.0147122
-0.000237164
-0.00024145
-0.00473202
0.0156051
0.00167526
-0.00213941
-0.0151397
0.0146186
-0.000122253
0.00111171
-0.00256019
0.00171116
0.00831862
0.00164888
0.00236761
-0.0106585
0.00675256
0.0018878
-0.000440258
0.000996375
0.00134638
0.0171527
0.00183852
-0.0173424
0.0173155
0.00172611
0.00165126
0.0106634
0.00128453
-0.00361279
-0.0104733
0.0107957
9.6369e-05
0.000886224
-0.00171398
0.00271527
-0.00071587
0.00116768
0.00778931
-0.00458736
-0.00349487
0.00065916
0.00178186
0.000532966
-0.00182853
0.0119176
0.00257346
-0.0114847
0.0122494
0.00205476
0.00230064
3.32931e-05
0.00100689
-0.00465161
-8.28395e-05
0.00100586
0.000867883
-0.00711992
0.00128742
0.0146322
-0.00418274
-0.000142532
-0.000329924
-0.00524824
0.00910951
-0.00333462
0.00657792
0.00309665
-0.0096766
0.0116433
0.00286212
-0.00792902
0.00184306
-0.00533998
0.0092452
-0.00170601
-0.00444537
0.011105
-0.000130969
0.00113119
-0.000825639
0.0031144
0.0116663
-0.0133738
0.0181302
-0.00659617
-3.85483e-05
0.00503179
0.00206454
-0.0167748
0.00796086
0.0019713
-0.0128307
0.00170561
-0.00955836
0.00789395
-0.00139165
-0.0088857
0.00680558
7.15136e-06
0.00418181
-0.000735096
0.00777275
0.00863836
-0.023405
0.0129748
-0.0109264
0.000715934
0.00623389
0.00469228
-0.0277026
0.00626269
0.00284655
-0.0157071
0.00202735
-0.0099748
0.0021297
-0.00433567
-0.0019895
-0.00675349
0.000280577
0.0156294
0.00115186
0.0165266
0.00944667
-0.0371881
0.00233597
-0.00353563
0.0133128
-0.0102959
0.0170599
-0.0344656
-0.00692594
0.0140347
-0.0331111
0.0155326
-0.0324325
-0.00340831
-0.00281076
0.0212879
-0.00514654
0.0027001
0.028699
0.00112037
0.0257908
0.00624045
-0.0462392
0.0170199
-0.011615
0.0314533
-0.00105885
0.00759078
-0.0409984
-0.000470726
0.00711678
-0.0408168
0.0076988
-0.0406028
0.00442416
-0.00188402
0.0263368
0.00935358
-0.00270396
0.0335888
0.00088437
0.0419573
-0.00288971
-0.0452345
0.00256864
-0.0197784
0.0349054
-0.000159631
0.0147526
-0.000156057
0.0147094
0.0147158
-0.000100878
-0.0228629
0.00160242
-0.0221393
-0.0212171
-0.0152906
-0.0163422
-0.0180941
0.000784271
5.62381e-05
-0.0116384
9.11871e-05
-0.0065471
0.00166634
-0.0133109
-0.0109285
-0.0018268
0.00307848
-0.00911338
-0.00282681
0.0011099
-0.00305858
-0.00438055
-0.0113026
-0.0051679
-0.00635749
-0.00777082
-0.0094146
-0.0130158
0.000663189
0.000921651
-0.00866714
-7.13378e-05
-0.0108306
0.00134825
-0.0233437
-0.00658604
-0.00169635
0.00759482
-0.00784775
-0.00193902
0.00424505
-0.0020387
-0.00883725
-0.00772058
-0.00920316
-0.00487866
-0.0125509
-0.0163309
-0.00276061
-0.00122067
0.0132003
-0.00952978
-0.000389923
-0.00368633
0.00428058
-0.037171
0.00743915
-0.00191075
0.0155595
-0.00178153
-0.00276309
0.0158423
-0.00461399
-0.00172594
-0.00602905
-0.00981553
-0.00603758
-0.0153051
-0.026982
-0.0167036
-0.00128172
0.0311537
-0.00641233
-0.00306596
-0.0109724
0.00270394
-0.04603
0.00466247
-0.01548
0.0250952
0.00301203
-0.0140034
0.0284265
-0.0171305
0.0211147
0.00706483
-0.0323599
0.0103374
-0.0325816
-0.0337746
-0.00250173
-0.000800593
0.0344943
0.00326436
0.00279021
-0.0194427
0.00200607
-0.0449345
-0.0100737
-0.00753842
0.0419092
-0.00492831
-0.00732534
0.0334054
-0.00783607
0.026046
0.000460661
-0.040355
0.000993903
-0.0404369
-0.0406162
0.016095
0.0210354
0.0152635
0.0221158
0.0229308
-0.00183236
-0.0145512
4.90604e-05
-0.0147979
-0.0148877
0.000148914
0.000175746
)
;

boundaryField
{
    fuel
    {
        type            calculated;
        value           nonuniform List<scalar> 
36
(
0.00012687
0.000210296
0.00012687
0.00012687
0.000210295
0.00012687
0.00012687
0.000210295
0.00012687
-0.00012687
-0.000210295
-0.00012687
-0.00012687
-0.000210295
-0.00012687
-0.00012687
-0.000210295
-0.00012687
0
0
0
0
0
0
0
0
0
0
0
0
0
0
0
0
0
0
)
;
    }
    primary_air
    {
        type            calculated;
        value           nonuniform List<scalar> 9(-0.00320279 -0.00529614 -0.00320263 -0.00320333 -0.00529739 -0.00320316 -0.0032031 -0.00529955 -0.00320295);
    }
    Secondary_air_RHS
    {
        type            calculated;
        value           nonuniform List<scalar> 9(0.00631623 0.0102203 0.00631574 0.00630534 0.0101858 0.00630491 0.00629739 0.0101895 0.00629718);
    }
    Secondary_air_LHS
    {
        type            calculated;
        value           nonuniform List<scalar> 9(0.00626603 0.0100494 0.00626626 0.00624919 0.0100122 0.00624959 0.00624888 0.0100492 0.00624943);
    }
    outlet
    {
        type            calculated;
        value           nonuniform List<scalar> 
18
(
-0.00263175
0.0793259
-0.0550566
-0.0407273
0.0684342
-0.0552631
-0.0525998
0.0639114
-0.0553295
-0.0555915
0.0640533
-0.0528069
-0.0555298
0.0687341
-0.0408664
-0.0554747
0.0794927
-0.00265505
)
;
    }
    stove_body
    {
        type            calculated;
        value           uniform 0;
    }
    frontAndBack
    {
        type            empty;
        value           nonuniform 0();
    }
}


// ************************************************************************* //
