/*--------------------------------*- C++ -*----------------------------------*\
  =========                 |
  \\      /  F ield         | OpenFOAM: The Open Source CFD Toolbox
   \\    /   O peration     | Website:  https://openfoam.org
    \\  /    A nd           | Version:  6
     \\/     M anipulation  |
\*---------------------------------------------------------------------------*/
FoamFile
{
    version     2.0;
    format      ascii;
    class       volScalarField;
    location    "2.5";
    object      T;
}
// * * * * * * * * * * * * * * * * * * * * * * * * * * * * * * * * * * * * * //

dimensions      [0 0 0 1 0 0 0];

internalField   nonuniform List<scalar> 
297
(
291.811
291.8
291.805
293.013
292.999
293.001
291.81
291.8
291.805
292.363
291.915
292.029
295.443
293.497
294.009
292.206
291.91
292.01
293.25
292.167
292.276
303.34
300.174
319.289
293.311
292.165
292.277
413.334
403.593
360.699
356.744
355.039
338.046
413.36
403.743
360.37
450.685
453.075
414.359
400.421
371.999
357.848
450.947
454.793
414.323
450.724
464.801
600.579
432.421
456.051
439.991
451.058
477.911
611.957
403.462
387.418
463.402
501.746
488.815
530.456
402.394
390.119
471.155
370.208
386.01
447.044
501.586
465.197
530.582
367.565
389.62
464.724
319.19
365.056
405.641
396.6
413.659
530.439
315.099
355.547
412.765
448.684
410.671
660.832
456.564
484.898
482.784
447.812
423.598
682.209
429.959
385.564
538.01
476.821
484.808
493.152
429.08
392.689
550.259
415.088
383.874
507.079
498.565
484.894
527.029
414.133
390.657
517.197
308.374
323.249
329.045
341.502
424.476
515.136
305.164
330.282
337.288
305.012
314.374
319.736
324.027
379.681
510.089
303.269
321.895
328.38
305.229
314.959
319.92
327.819
358.619
418.742
313.333
323.098
323.854
301.372
301.333
300.889
301.892
304.611
304.553
301.735
302.944
302.985
319.862
307.32
302
454.705
427.648
311.885
321.101
302.963
303.07
319.822
312.131
317.414
405.857
394.437
368.942
319.974
303.169
302.797
303.054
303.002
303.319
304.3
305.108
305.14
300.201
300.65
300.931
303.071
302.958
304.998
304.963
318.985
319.588
301.687
302.486
303.206
302.886
303.013
305.257
314.094
319.072
323.81
304.627
304.034
304.892
303.937
303.828
303.343
304.035
304.278
304.147
299.75
300.821
300.067
303.789
303.616
303.193
304.362
304.51
304.303
299.854
301.698
301.538
303.338
303.222
302.759
304.392
305.742
308.599
299.368
301.959
304.258
302.981
302.663
302.025
305.418
304.938
305.628
299.002
299.643
300.004
298.903
298.976
298.311
304.11
303.236
302.804
295.203
294.688
295.785
292.076
292.049
291.442
293.069
290.307
286.971
291.137
290.74
299.311
300.71
301.441
301.16
304.489
304.56
304.45
303.241
303.594
303.778
301.539
301.574
300.455
304.515
304.761
304.645
303.156
303.563
303.614
315.009
301.701
299.58
334.998
313.75
304.608
302.721
303.116
303.212
303.758
301.068
298.813
318.79
312.176
305.642
302.07
302.628
302.857
301.333
296.09
295.36
310.768
305.266
304.272
296.096
298.83
298.857
304.421
292.188
291.461
292.101
292.389
293.2
291.334
292.019
292.079
)
;

boundaryField
{
    fuel
    {
        type            fixedValue;
        value           uniform 293;
    }
    primary_air
    {
        type            fixedValue;
        value           uniform 293;
    }
    Secondary_air_RHS
    {
        type            fixedValue;
        value           uniform 293;
    }
    Secondary_air_LHS
    {
        type            fixedValue;
        value           uniform 293;
    }
    outlet
    {
        type            inletOutlet;
        inletValue      uniform 293;
        value           nonuniform List<scalar> 
18
(
293
292.101
293
293
292.389
293
293
293.2
293
293
293.069
293
293
290.307
293
293
286.971
293
)
;
    }
    stove_body
    {
        type            fixedValue;
        value           uniform 293;
    }
    frontAndBack
    {
        type            empty;
    }
}


// ************************************************************************* //
