/*--------------------------------*- C++ -*----------------------------------*\
  =========                 |
  \\      /  F ield         | OpenFOAM: The Open Source CFD Toolbox
   \\    /   O peration     | Website:  https://openfoam.org
    \\  /    A nd           | Version:  6
     \\/     M anipulation  |
\*---------------------------------------------------------------------------*/
FoamFile
{
    version     2.0;
    format      ascii;
    class       volScalarField;
    location    "5";
    object      T;
}
// * * * * * * * * * * * * * * * * * * * * * * * * * * * * * * * * * * * * * //

dimensions      [0 0 0 1 0 0 0];

internalField   nonuniform List<scalar> 
297
(
291.479
291.47
291.481
293.013
293.013
293.015
291.477
291.469
291.48
291.514
291.532
291.547
293.446
293.391
293.724
291.516
291.53
291.542
291.734
291.781
291.894
307.596
295.877
297.333
291.735
291.781
291.896
374.532
365.524
331.566
328.73
332.004
318.865
375.682
367.989
336.808
406.868
404.604
382.623
368.903
347.577
336.571
406.204
404.274
386.504
406.874
397.521
462.239
385.069
395.407
382.541
406.166
397.347
480.038
374.205
346.011
391.612
427.857
412.457
438.802
372.824
364.841
398.46
380.899
345.74
366.982
427.878
409.31
438.843
344.813
364.334
399.753
352.947
326.643
338.665
427.795
363.562
438.875
321.488
352.057
380.801
407.971
359.753
467.905
401.357
410.192
411.397
405.773
372.262
486.672
393.942
345.989
423.98
413.079
410.109
417.315
393.547
365.018
435.013
382.653
343.539
411.82
425.232
410.37
436.334
383.265
364.902
421.062
317.055
313.962
309.972
368.399
356.679
438.912
306.812
321.61
330.059
305.53
305.87
306.507
309.424
335.972
425.136
303.338
319.256
322.558
305.271
305.641
306.333
312.71
327.881
360.16
304.933
318.27
317.1
301.739
301.396
300.683
322.69
305.453
305.188
304.356
303.462
304.126
306.494
302.717
302.24
410.646
368.925
330.694
315.889
305.461
306.049
306.509
305.465
310.614
360.894
358.712
347.359
315.398
308.769
309.093
303.371
303.457
313.518
304.767
339.575
368.177
299.586
303.538
305.32
303.777
303.459
305.752
309.169
322.04
309.836
301.909
302.791
303.326
304.168
304.185
305.114
312.851
314.185
311.712
303.99
303.121
303.527
304.151
303.686
303.231
303.583
304.748
304.491
297.836
300.113
299.346
304.126
302.869
302.573
303.771
304.736
304.647
298.419
301.895
301.695
304.193
302.552
302.111
303.851
306.75
309.339
298.291
302.819
304.047
302.375
302.229
301.425
303.021
305.862
307.165
298.177
300.041
300.537
298.933
298.802
297.816
299.674
302.354
303.321
294.698
294.58
296.305
291.86
291.852
291.184
292.324
290.369
286.771
290.935
290.765
299.656
300.265
300.924
300.393
304.767
304.974
304.479
302.988
303.55
303.881
301.346
301.413
299.768
304.71
304.942
304.49
302.397
303.292
304.089
311.433
302.141
299.093
334.586
317.084
307.706
301.757
302.943
304.264
304.731
300.67
297.583
318.53
311.879
304.806
300.969
302.635
302.601
300.593
295.901
293.301
310.814
307.616
302.664
297.539
296.737
298.284
303.653
291.906
291.214
291.396
291.455
293.245
291.117
291.783
291.864
)
;

boundaryField
{
    fuel
    {
        type            fixedValue;
        value           uniform 293;
    }
    primary_air
    {
        type            fixedValue;
        value           uniform 293;
    }
    Secondary_air_RHS
    {
        type            fixedValue;
        value           uniform 293;
    }
    Secondary_air_LHS
    {
        type            fixedValue;
        value           uniform 293;
    }
    outlet
    {
        type            inletOutlet;
        inletValue      uniform 293;
        value           nonuniform List<scalar> 
18
(
293
291.394
293
293
291.451
293
293
293.241
293
293
292.323
293
293
290.368
293
293
286.77
293
)
;
    }
    stove_body
    {
        type            fixedValue;
        value           uniform 293;
    }
    frontAndBack
    {
        type            empty;
    }
}


// ************************************************************************* //
