/*--------------------------------*- C++ -*----------------------------------*\
  =========                 |
  \\      /  F ield         | OpenFOAM: The Open Source CFD Toolbox
   \\    /   O peration     | Website:  https://openfoam.org
    \\  /    A nd           | Version:  6
     \\/     M anipulation  |
\*---------------------------------------------------------------------------*/
FoamFile
{
    version     2.0;
    format      ascii;
    class       volVectorField;
    location    "5";
    object      U;
}
// * * * * * * * * * * * * * * * * * * * * * * * * * * * * * * * * * * * * * //

dimensions      [0 1 -1 0 0 0 0];

internalField   nonuniform List<vector> 
297
(
(76.5343 -0.0502978 0.247514)
(76.4997 0.0171357 0.295433)
(76.5329 0.0674373 0.246323)
(-0.000324895 0.0488856 0.328889)
(-0.00025708 -0.0467067 0.373914)
(-0.00025291 -0.085524 0.311511)
(-76.5357 -0.0370686 0.25252)
(-76.5009 0.0345331 0.294528)
(-76.533 0.07329 0.246088)
(76.5349 -0.0296841 0.278741)
(76.4993 0.0105621 0.30762)
(76.5434 0.0639031 0.287411)
(-0.000317445 0.203959 -0.0890948)
(-0.000258008 -0.117164 -0.338532)
(-0.000252136 -0.187847 -0.136806)
(-76.5366 -0.0137538 0.283895)
(-76.5 0.0310761 0.304755)
(-76.5428 0.0740831 0.286745)
(76.5986 -0.08746 0.578661)
(76.5995 0.035521 0.583433)
(76.6376 0.177579 0.579182)
(-0.000267732 -0.178532 0.402302)
(-0.000227402 -0.145741 0.587341)
(-0.00022226 0.411209 0.428182)
(-76.599 -0.0689418 0.586267)
(-76.5999 0.0609012 0.580614)
(-76.639 0.178955 0.578777)
(64.4221 4.66257 -5.67537)
(62.7773 4.76982 -2.71834)
(56.5051 2.83287 1.05392)
(0.0045676 1.02757 4.42512)
(0.00732928 -0.63111 3.86745)
(0.00783856 0.104061 5.19555)
(-64.6374 6.55174 -5.61239)
(-63.2163 4.81684 -3.0976)
(-57.4639 2.38291 1.48881)
(70.4076 6.90831 -9.3598)
(70.0497 7.08758 -7.78233)
(66.1662 7.76217 13.4129)
(0.00431047 9.7623 37.0841)
(0.00775993 0.67473 26.0615)
(0.0090481 0.658623 34.5421)
(-70.2579 11.527 -9.56496)
(-69.9214 8.49602 -7.01551)
(-66.8993 8.90896 10.708)
(69.4921 4.36037 -11.9827)
(68.4961 -7.42564 -5.89579)
(79.1703 -23.5738 19.3279)
(-0.00257961 -7.74346 51.5643)
(0.000726472 -3.76192 11.3087)
(0.0133471 7.69134 51.7746)
(-69.336 10.5236 -13.5732)
(-68.4855 -9.46766 -3.84995)
(-82.2205 -12.7396 24.4199)
(64.8309 -6.27918 -43.6071)
(59.6001 -2.65592 -28.7233)
(67.3631 -10.216 -39.4415)
(0.0217851 -2.07877 1.82292)
(0.000289176 8.55417 -32.7698)
(0.00548721 -5.89254 24.901)
(-63.8762 3.07245 -58.1889)
(-62.832 -1.97303 -27.6807)
(-68.6093 2.45431 -37.1311)
(66.3356 11.2945 -30.0991)
(59.6984 -1.04007 -36.833)
(63.4155 -22.6263 -25.6944)
(0.0221076 -0.0326039 -2.8556)
(-0.0100692 5.1537 -14.706)
(-0.0200212 -5.6455 20.5449)
(-59.8501 14.3596 -35.4724)
(-62.9626 -3.7722 -36.5545)
(-69.5401 -3.56475 -20.1015)
(61.2864 18.8963 -27.2419)
(56.5589 15.1939 -34.3735)
(58.6567 -30.9291 -31.2044)
(0.0579172 -2.62513 6.11638)
(0.00459935 0.0529828 -17.1357)
(-0.029984 -3.0123 18.282)
(-55.7363 13.861 -30.8953)
(-60.8423 -21.0063 -28.4002)
(-65.8974 -21.3716 -20.9698)
(59.8377 6.59823 -51.7024)
(57.894 -10.0579 -14.7053)
(73.6682 -39.9733 -32.8411)
(-0.0747247 -5.89555 70.2981)
(-0.0156967 -2.32163 -34.9529)
(0.0114418 0.00886684 68.4166)
(-61.2901 12.6024 -58.3056)
(-61.0035 -14.0091 -16.5844)
(-77.0552 -24.9761 -32.3361)
(59.824 1.51542 -55.4793)
(56.9303 -6.40369 -13.1049)
(65.5933 -22.0372 -39.9785)
(-0.0717461 -4.83154 78.2039)
(-0.0158614 1.09946 -36.4252)
(0.0121808 0.0921933 75.036)
(-58.0859 6.76146 -62.0781)
(-61.0098 -9.31253 -16.6985)
(-67.7064 -7.87751 -37.8941)
(61.8548 -2.02342 -52.6693)
(58.8343 -4.13608 -17.1957)
(60.389 -17.557 -40.3273)
(-0.0787291 -3.72034 77.2243)
(-0.0137559 3.06209 -35.0706)
(0.0140817 -5.39804 77.7553)
(-51.8248 5.82057 -61.2188)
(-62.1808 -7.70325 -20.6662)
(-62.2493 -4.15982 -38.1767)
(53.8264 40.6085 -7.89934)
(53.48 14.9629 -9.17879)
(52.9925 -42.9616 -9.26421)
(0.0220169 -6.55704 -0.36602)
(-0.00306871 -5.66333 -6.88903)
(-0.0158523 1.68583 12.7274)
(-52.321 38.1875 -9.30655)
(-54.9022 -17.9002 -10.0364)
(-55.8989 -41.3193 -8.31915)
(52.4487 37.8156 -0.916183)
(52.5702 26.6619 -4.53624)
(52.9187 -28.2261 3.93535)
(0.0154011 2.66792 -2.14606)
(-0.00462091 -3.16885 -5.31633)
(-0.0255594 0.149852 6.45537)
(-52.2595 28.424 4.15004)
(-54.8587 -22.9278 -3.62148)
(-55.44 -35.3644 -1.24051)
(52.6344 4.31829 3.58256)
(52.7893 8.81393 1.74139)
(52.9643 5.59081 -1.1194)
(0.0080696 -6.87071 -0.987082)
(-0.00500879 -4.32907 -1.39517)
(-0.0209093 3.10303 -0.5851)
(-52.6786 -3.53914 -0.771959)
(-54.9789 -9.6445 1.97899)
(-54.847 -0.111399 4.68264)
(51.5981 -48.9941 -6.4436)
(50.9834 -51.9507 -9.20738)
(50.7252 -56.6622 -10.8219)
(0.0594147 1.00771 -0.410203)
(0.100021 -9.57053 -7.71756)
(0.200041 -9.8132 -10.9801)
(-50.7624 -46.0572 -5.62943)
(-51.9501 -48.6769 -13.3278)
(-51.9973 -29.2637 -22.7177)
(52.6016 -35.8969 8.90075)
(52.4107 -40.8279 7.17535)
(52.2235 -45.4533 3.80238)
(0.0281431 11.2245 4.68706)
(0.0735638 8.07337 5.71148)
(0.178116 0.972334 11.6358)
(-53.4913 -37.463 2.2444)
(-52.897 -42.9469 -10.1343)
(-51.6413 -25.2762 -25.354)
(52.8638 7.50651 4.37471)
(52.9466 12.993 5.38782)
(53.2942 22.8727 9.9999)
(0.0139968 14.8105 0.540899)
(0.0483925 20.3086 0.839499)
(0.0963581 29.5538 8.94186)
(-54.4323 -10.3364 14.9084)
(-53.4918 -0.26433 18.3688)
(-51.9413 -21.7387 -34.0453)
(51.8318 30.0839 -23.6656)
(51.2205 47.9169 -7.50298)
(51.4048 42.6396 -1.55721)
(-0.21198 10.0878 -7.28073)
(-0.121884 -4.40962 0.244156)
(-0.0785384 -10.452 0.585356)
(-50.6417 55.8904 -10.259)
(-51.3393 49.6092 -8.12137)
(-52.0264 44.2957 -4.08662)
(51.2073 26.1975 -24.7975)
(52.3676 44.6098 -6.03413)
(51.4555 38.5952 5.11859)
(-0.169441 1.42678 10.4321)
(-0.0694255 -5.36941 2.83093)
(-0.0310301 -7.90814 -1.49426)
(-51.92 44.0359 4.60208)
(-52.1613 38.5261 7.42359)
(-51.9375 35.7327 7.93683)
(51.1366 23.2983 -33.8353)
(52.6833 6.38823 4.35546)
(52.3789 15.8038 12.2889)
(-0.0747338 -24.4888 9.29237)
(-0.0333176 -14.3711 1.82065)
(-0.0165671 -12.5086 -0.133849)
(-52.1731 -19.6938 12.0984)
(-52.4606 -8.75984 8.33319)
(-52.3423 -3.00257 7.57804)
(51.5116 -9.18137 -13.3752)
(51.3521 1.69527 -33.537)
(51.4027 21.3696 -29.6056)
(0.0185168 4.28177 -7.84729)
(-0.103585 1.13242 -9.81366)
(-0.222938 10.9163 -9.09624)
(-49.6147 25.0772 -34.0743)
(-49.4874 32.2872 -25.0353)
(-51.2357 53.4753 -19.2761)
(51.4613 -4.78126 9.35193)
(51.4264 5.26421 -41.5147)
(51.1883 22.1694 -41.5773)
(-0.0578876 2.21256 13.1862)
(-0.193435 2.40734 8.85324)
(-0.245384 9.69637 10.4564)
(-50.2749 6.2194 -57.0743)
(-50.6283 22.9001 -30.9495)
(-52.201 41.2769 -5.32367)
(51.2028 -0.122532 5.77794)
(54.0044 4.4517 -50.5009)
(52.148 11.4901 -54.0879)
(-0.13935 -0.198116 6.25204)
(-0.243772 -8.47633 8.8684)
(-0.233095 -18.4864 17.6033)
(-52.658 3.109 -73.2896)
(-51.2087 21.5807 -21.9877)
(-51.0737 -13.0514 22.7851)
(51.4795 5.90098 -12.8909)
(52.0326 4.28277 -70.7689)
(51.7264 -8.92079 -88.8932)
(-0.341839 0.769596 60.7608)
(-0.34179 -1.46485 34.6143)
(-0.352472 -12.4581 32.9031)
(-52.3209 -9.51514 -102.872)
(-52.3131 11.3837 31.6563)
(-52.4259 -3.50453 71.1074)
(50.6752 1.05967 -132.418)
(50.7487 1.96079 -138.915)
(50.6079 7.2396 -136.67)
(-0.18286 3.20701 86.0212)
(-0.177781 4.53594 71.67)
(-0.190429 0.335134 68.4063)
(-50.869 2.93075 -136.659)
(-50.93 -5.54934 -66.2402)
(-50.8831 1.06684 112.698)
(48.6914 0.195992 -165.008)
(48.756 0.228859 -166.473)
(48.569 -0.868568 -165.514)
(0.34306 0.209717 160.864)
(0.364433 1.95793 173.418)
(0.387497 0.161306 200.808)
(-47.868 -6.1131 -155.388)
(-47.5357 -7.345 -109.546)
(-48.6969 -3.93001 -1.89613)
(51.3823 -54.0164 -19.6239)
(49.6064 -32.4541 -25.363)
(50.0195 -25.011 -34.2584)
(0.210722 -12.6272 -11.9437)
(0.0910364 -2.13687 -11.8548)
(-0.0299888 -4.63484 -8.57542)
(-51.4463 -23.2233 -33.0729)
(-51.4832 -1.26966 -34.8354)
(-51.5537 9.45595 -13.7277)
(52.1469 -41.0553 -6.25135)
(50.5339 -23.2987 -30.9652)
(50.4824 -5.98713 -56.7449)
(0.234324 -10.8158 11.0804)
(0.180385 -3.4675 9.82855)
(0.0453482 -3.04397 12.4221)
(-51.2865 -20.9239 -41.029)
(-51.5397 -5.33782 -41.1636)
(-51.4861 4.97901 9.75225)
(52.2338 17.5211 22.3376)
(51.1199 -21.2376 -21.4677)
(52.8244 -2.81786 -72.7925)
(0.238525 22.2896 17.8776)
(0.234381 10.0332 10.3923)
(0.128723 0.552608 3.91297)
(-52.1701 -11.84 -54.3634)
(-54.0941 -4.42569 -51.3948)
(-51.2655 0.0491562 5.38778)
(53.1419 5.50765 68.9623)
(52.4193 -13.5544 27.4429)
(52.2047 9.36526 -102.779)
(0.361067 14.0763 35.5757)
(0.343812 0.84788 35.7877)
(0.340911 -0.583227 60.1032)
(-51.6099 9.92396 -85.1197)
(-52.1278 -5.1422 -70.4959)
(-51.5528 -5.05127 -14.0634)
(51.6245 0.169519 113.125)
(51.1651 5.06915 -66.6379)
(50.588 -2.8894 -136.291)
(0.205982 0.199368 70.0779)
(0.190184 -4.76712 72.4408)
(0.192967 -3.11236 86.0021)
(-50.5116 -7.25909 -135.331)
(-50.3454 -1.13054 -137.467)
(-50.5359 -1.31473 -131.478)
(49.3457 4.74706 -2.21966)
(47.721 7.31089 -109.476)
(47.8732 5.86864 -154.609)
(-0.383569 0.296537 202.32)
(-0.35841 -2.03399 175.03)
(-0.337502 -0.165664 162.066)
(-48.5283 0.883809 -164.439)
(-48.6788 -0.32748 -164.692)
(-48.6628 -0.102109 -163.904)
)
;

boundaryField
{
    fuel
    {
        type            fixedValue;
        value           uniform (0 0 0.25);
    }
    primary_air
    {
        type            fixedValue;
        value           uniform (0 0 2.5);
    }
    Secondary_air_RHS
    {
        type            fixedValue;
        value           uniform (0 47.2222 0);
    }
    Secondary_air_LHS
    {
        type            fixedValue;
        value           uniform (0 -47.2222 0);
    }
    outlet
    {
        type            pressureInletOutletVelocity;
        value           nonuniform List<vector> 
18
(
(0 0 -2.21966)
(-0.383569 0.296537 202.32)
(0 0 -164.439)
(0 0 -109.476)
(-0.35841 -2.03399 175.03)
(0 0 -164.692)
(0 0 -154.609)
(-0.337502 -0.165664 162.066)
(0 0 -163.904)
(0 0 -165.008)
(0.34306 0.209717 160.864)
(0 0 -155.388)
(0 0 -166.473)
(0.364433 1.95793 173.418)
(0 0 -109.546)
(0 0 -165.514)
(0.387497 0.161306 200.808)
(0 0 -1.89613)
)
;
    }
    stove_body
    {
        type            noSlip;
    }
    frontAndBack
    {
        type            empty;
    }
}


// ************************************************************************* //
