# Probe 0 (0 -0.07 0.5)
# Probe 1 (0 -0.04 0.5)
# Probe 2 (0 -0.07 0.3)
# Probe 3 (0 -0.07 0.33)
# Probe 4 (0 -0.04 0.3)
# Probe 5 (0 -0.04 0.33)
# Probe 6 (0 0 0.33)
# Probe 7 (0 0 0.3)
# Probe 8 (0 0.1 0.33)
# Probe 9 (0 0.1 0.3)
# Probe 10 (0 0.14 0.3)
# Probe 11 (0 0.14 0.33)
# Probe 12 (0 0.17 0.3)
# Probe 13 (0 0.17 0.33)
# Probe 14 (0 0.14 0.5)
# Probe 15 (0 0.14 0.33)
#       Probe             0             1             2             3             4             5             6             7             8             9            10            11            12            13            14            15
#        Time
          0.5       292.407       292.482       302.566       302.572       302.355       303.112       303.281       302.938       303.364       303.035       302.469       303.211       302.765       302.631       292.497       303.211
            1       292.508       292.588       302.853       302.875       302.543        303.22       303.386       303.059        303.57       303.276       302.714       303.458       303.075       302.925       292.599       303.458
          1.5       292.474       292.552       302.911        302.79       302.619       303.344       303.566       302.925       303.417       303.024       302.615       303.272       302.917       302.797       292.556       303.272
            2       292.478       292.555        302.96       302.799       302.671       303.373       303.563       302.936       303.409       303.026       302.616       303.252       302.935       302.801        292.56       303.252
          2.5       292.478       292.555        302.96       302.799       302.671       303.373       303.563       302.936       303.409       303.026       302.616       303.252       302.935       302.801        292.56       303.252
            3       292.477       292.555        302.96       302.798       302.671       303.373       303.563       302.935       303.409       303.026       302.616       303.252       302.935       302.801       292.559       303.252
          3.5       292.477       292.555        302.96       302.798       302.671       303.373       303.563       302.935       303.409       303.026       302.616       303.252       302.935       302.801       292.559       303.252
            4       292.477       292.555        302.96       302.798       302.671       303.373       303.563       302.935       303.409       303.026       302.616       303.252       302.935       302.801       292.559       303.252
          4.5       292.477       292.555        302.96       302.798       302.671       303.373       303.563       302.935       303.409       303.026       302.616       303.252       302.935       302.801       292.559       303.252
            5       292.477       292.555        302.96       302.798       302.671       303.373       303.563       302.935       303.409       303.026       302.616       303.252       302.935       302.801       292.559       303.252
