/*--------------------------------*- C++ -*----------------------------------*\
  =========                 |
  \\      /  F ield         | OpenFOAM: The Open Source CFD Toolbox
   \\    /   O peration     | Website:  https://openfoam.org
    \\  /    A nd           | Version:  6
     \\/     M anipulation  |
\*---------------------------------------------------------------------------*/
FoamFile
{
    version     2.0;
    format      ascii;
    class       volScalarField;
    location    "3.5";
    object      T;
}
// * * * * * * * * * * * * * * * * * * * * * * * * * * * * * * * * * * * * * //

dimensions      [0 0 0 1 0 0 0];

internalField   nonuniform List<scalar> 
297
(
291.056
292.2
291.061
295.539
297.514
295.548
291.056
292.2
291.061
291.086
292.22
291.091
298.468
303.679
298.49
291.086
292.22
291.091
292.204
294.008
292.215
298.947
304.319
298.975
292.204
294.008
292.215
295.574
301.101
295.575
294.388
296.933
294.389
295.635
301.263
295.635
305.896
303.899
306.164
301.054
299.683
301.215
305.996
304.099
306.177
309.546
303.887
309.778
304.359
306.646
304.474
309.61
304.094
309.75
302.806
299.556
302.942
310.882
308.535
311.03
302.845
299.565
302.928
301.612
299.437
301.763
310.877
310.63
311.025
301.638
299.437
301.715
299.563
298.073
299.753
309.635
307.096
309.713
299.653
298.056
299.697
309.813
301.472
310.048
307.293
307.966
307.424
309.876
301.891
310.016
307.445
299.787
306.74
307.874
307.982
308.007
307.496
300.118
306.718
305.673
299.324
305.833
309.844
308.077
309.989
305.715
299.678
305.814
298.412
297.934
298.581
309.211
300.158
309.22
298.486
297.905
298.488
296.788
296.903
296.901
308.165
300.16
308.276
296.727
296.989
296.846
296.641
296.707
296.76
300.768
300.207
300.715
296.593
296.707
296.771
297.182
296.003
295.022
309.178
309.233
309.235
297.057
295.856
294.788
297.105
295.465
295.118
306.46
306.558
308.045
296.994
295.327
294.932
296.733
295.551
295.247
300.555
300.35
303.925
296.723
295.498
295.213
294.944
295.514
296.961
309.221
309.222
309.171
294.726
295.366
297.061
294.874
295.249
296.913
308.059
306.485
306.385
294.799
295.209
296.922
295.241
295.431
296.572
303.626
300.241
300.585
295.088
295.364
296.527
294.826
294.982
294.385
298.433
298.474
302.154
294.938
295.052
294.455
294.692
294.988
294.728
298.534
298.586
304.338
294.802
295.011
294.746
294.219
295.135
295.167
298.528
300.793
303.98
294.264
295.084
295.09
293.965
294.433
292.861
298.786
298.719
300.261
294.051
294.265
292.737
292.837
293.795
294.2
298.592
296.966
297.46
292.911
293.602
294.151
288.89
288.383
288.389
285.539
283.526
284.528
288.892
288.387
288.392
294.799
295.47
295.499
302.297
298.613
298.619
294.522
295.131
295.048
295.1
295.457
295.436
304.42
298.705
298.723
294.819
295.072
294.788
295.369
295.46
294.949
304.064
300.889
298.72
295.214
295.184
294.327
292.897
294.389
293.434
299.03
299.066
298.768
292.874
294.43
294.151
294.218
293.81
292.269
296.938
296.629
298.199
294.205
293.798
292.362
288.406
288.401
288.895
284.641
283.177
285.376
288.401
288.397
288.892
)
;

boundaryField
{
    fuel
    {
        type            fixedValue;
        value           uniform 293;
    }
    primary_air
    {
        type            fixedValue;
        value           uniform 293;
    }
    Secondary_air_RHS
    {
        type            fixedValue;
        value           uniform 293;
    }
    Secondary_air_LHS
    {
        type            fixedValue;
        value           uniform 293;
    }
    outlet
    {
        type            inletOutlet;
        inletValue      uniform 293;
        value           nonuniform List<scalar> 
18
(
293
284.642
293
293
283.18
293
293
285.374
293
293
285.539
293
293
283.526
293
293
284.528
293
)
;
    }
    stove_body
    {
        type            fixedValue;
        value           uniform 293;
    }
    frontAndBack
    {
        type            empty;
    }
}


// ************************************************************************* //
