/*--------------------------------*- C++ -*----------------------------------*\
  =========                 |
  \\      /  F ield         | OpenFOAM: The Open Source CFD Toolbox
   \\    /   O peration     | Website:  https://openfoam.org
    \\  /    A nd           | Version:  6
     \\/     M anipulation  |
\*---------------------------------------------------------------------------*/
FoamFile
{
    version     2.0;
    format      ascii;
    class       surfaceScalarField;
    location    "5";
    object      phi;
}
// * * * * * * * * * * * * * * * * * * * * * * * * * * * * * * * * * * * * * //

dimensions      [1 0 -1 0 0 0 0];

internalField   nonuniform List<scalar> 
675
(
3.23234e-06
-0.000212366
0.000326403
-3.06444e-06
-0.000210511
0.000334063
-0.000211737
0.000325943
2.86764e-06
0.000212366
-0.000235213
-5.0282e-06
0.000210511
-0.000220783
0.000211737
-0.000236115
3.23236e-06
0.000326404
-3.06435e-06
0.000334063
0.000325943
2.63138e-06
1.15079e-05
0.00031227
-2.36658e-06
1.97425e-05
0.000319309
1.16968e-05
0.000311886
-6.16843e-06
-1.15071e-05
-0.000205977
5.91011e-06
-1.97418e-05
-0.000193468
-1.16961e-05
-0.00020676
2.6314e-06
0.000312272
-2.36644e-06
0.00031931
0.000311887
2.49488e-06
0.000192521
-1.76544e-06
0.000206281
0.000192865
-1.32505e-05
-0.000192522
1.33495e-05
-0.000206281
-0.000192866
2.49465e-06
-1.76532e-06
-0.00617428
0.0060099
0.00336119
0.00623365
0.00276836
-0.0119782
0.0060096
0.00342128
0.000829829
-0.00600219
0.0164326
-0.000825526
-0.0027337
0.0124077
-0.00600214
0.0164375
-0.00621348
0.00340781
0.00624878
-0.0119989
0.00344374
-0.000171667
0.00851811
-0.00498459
-0.000169152
0.00435226
-0.0163717
0.00853105
-0.00528031
-0.00168945
-0.00852878
0.0351703
0.00143826
-0.00447281
0.0181019
-0.00852823
0.0349327
-0.000114314
-0.00500407
-0.000150181
-0.0163928
-0.00523431
0.00422555
0.0169027
-0.0261161
-0.00366798
0.00843173
-0.016976
0.0170763
-0.0260266
-0.0364783
-0.0169552
0.10551
0.0364331
-0.00852241
-0.0378536
-0.0170206
0.105467
0.00411695
-0.0260703
-0.00383579
-0.0168892
-0.0260847
-0.00410968
-0.00895682
-0.0211065
0.0341674
0.00422699
0.00800661
-0.0307861
0.0144178
-0.00894242
-0.0208867
0.0340528
0.0192987
0.00894045
0.0429692
-0.0801786
-0.0193908
-0.00801199
0.00278925
0.0519173
0.00894156
0.042932
-0.0802111
-0.00415731
-0.0210189
0.0341154
0.00420491
-0.0307687
0.0144059
-0.0209624
0.0341126
0.0015364
-0.00578628
-0.0168498
-0.00147104
-0.00276829
-0.0249937
-0.00573625
-0.0166107
0.00882183
0.00576061
0.0226059
-0.00883166
0.00276246
0.0149191
0.00575404
0.0226177
0.00151613
-0.0167754
-0.00148831
-0.0250033
-0.0166951
0.00244798
-0.00288085
-0.0164083
-0.00294431
-0.00100545
-0.0185977
-0.00309896
-0.0164635
-0.0101079
0.00295191
0.0268888
0.0104182
0.00100204
-0.00761811
0.00302489
0.026903
0.00261769
-0.0164382
-0.00277614
-0.0186079
-0.0164487
0.000698807
-0.00245208
-0.0286065
-0.00066265
-0.00183114
-0.0137829
-0.00241492
-0.0285173
-0.0032769
0.0024426
0.0970733
0.00327228
0.00174801
-0.047982
0.00242553
0.0970803
0.000693244
-0.0285619
-0.000674245
-0.0137721
-0.0285742
0.000193775
-0.00128065
-0.0317602
-0.000166971
-0.00107604
-0.0123398
-0.00126305
-0.031661
-0.0015115
0.00127749
0.0892207
0.0015069
0.00104202
-0.0531153
0.0012669
0.0892519
0.000189644
-0.0317128
-0.000175057
-0.0123708
-0.0317208
9.70419e-05
-0.00192773
-7.58811e-05
0.00225411
-0.00192166
-0.00162823
0.00192476
0.00162247
-0.00219732
0.00192425
8.90614e-05
-7.79936e-05
0.00452468
-0.00352499
-0.00479242
-0.0126151
-0.00462861
-0.000945871
-0.00850101
-0.00358522
-0.00486281
-0.0126486
-0.00128738
0.00354398
0.0094633
0.0116446
0.00133584
0.000945113
-0.0121345
0.00356602
0.00936751
0.0117159
0.00456018
-0.00481796
-0.0126362
-0.00459552
-0.00850759
-0.00484306
-0.0126353
0.00437257
0.000168006
0.00102375
-0.0103563
-0.00449491
0.00164347
-0.00127965
0.000150538
0.000881797
-0.0103956
-0.000824469
-0.000165677
0.000743361
0.0098785
0.000854035
-0.0016444
-0.0105278
-0.000155707
0.000596762
0.00992629
0.0043973
0.000995701
-0.0103765
-0.00447561
-0.00127964
0.000910579
-0.0103851
0.00227682
0.0024283
-0.00368111
-0.00212851
0.00312289
0.00244068
-0.00369349
0.00219656
-0.00243338
0.00340879
-0.00208512
-0.003126
-0.00244058
0.00338815
0.00224564
-0.00368322
-0.00216059
-0.00369061
-0.0122875
-0.00190007
0.00153754
-0.0131297
-0.000739162
0.00158189
-0.000788984
0.00141634
-0.0137552
0.0079878
0.00189759
-7.10053e-05
0.00649752
0.00073798
1.25908e-05
0.000789135
0.0034519
0.00146857
-0.0122748
0.00153788
-0.0131181
0.00158296
0.00141844
-0.0137448
-0.0100728
-0.0018789
0.00309175
-0.0103112
-0.000446805
0.00226707
-0.000164401
0.00082945
-0.00955812
0.00899793
0.00187693
-0.00289996
0.00748378
0.000444652
0.00063463
0.000164149
0.0062044
0.00440421
-0.0100629
0.00309349
-0.0103021
0.00226833
0.000836382
-0.00955392
-0.00092353
0.000319904
0.000509575
0.00083333
0.000480341
0.000860129
0.00112633
-0.000319627
0.00342633
-0.000832235
-0.000474689
0.0105885
-0.000915749
0.000521778
0.000885185
0.0131
-0.0007889
0.00141005
-0.0137209
0.0122602
-0.000732361
0.00157227
-0.00189299
0.00153829
-0.0064406
0.000785987
0.00341458
0.00145121
-0.00789752
0.000731563
-6.85901e-06
0.00189803
-4.37595e-05
0.0131249
0.00140548
-0.0137444
0.012281
0.00157554
0.00154291
0.0102844
-0.000162948
0.000828574
-0.00953963
0.0100419
-0.000442814
0.00225791
-0.00187382
0.00309798
-0.00745042
0.000157173
0.00616834
0.00437664
-0.00895302
0.000441463
0.000611624
0.00187898
-0.00287088
0.0102985
0.000816057
-0.00955194
0.0100569
0.00225866
0.00310242
-0.000528733
0.000474932
0.00088261
0.000900052
0.000829431
0.000317186
-0.00344347
-0.00047884
0.0105656
-0.00117291
-0.000829346
-0.000317616
-0.000530975
0.000868193
0.00089837
0.0084551
0.000575794
-0.00903029
0.0138081
-0.000763983
-0.00458875
0.000190154
-0.000102736
0.00604222
-0.000576587
-0.0048898
0.00239074
0.000758291
0.00212919
-0.000190227
0.00422238
0.00846347
-0.0090401
0.0138253
-0.00460359
-0.000109383
0.00607292
0.000447435
-0.0155505
0.00927167
-0.000413216
-0.00737409
0.000527242
-0.000897687
0.00494281
-0.000452084
-0.00893307
3.71981e-05
0.000413332
0.00620829
-0.000527961
0.0096915
0.0060733
-0.0155655
0.00927589
-0.00739287
-0.000913404
0.00550747
0.00275853
-0.0238172
0.00494129
-0.00100892
-0.00579941
-8.84275e-05
0.00501471
0.00186927
-0.00276752
-0.0052765
-0.00598441
0.00101835
0.0120348
8.39576e-05
0.0141004
0.00550486
-0.0238379
0.00496145
-0.00583109
0.00500021
0.0024211
0.00776124
-0.0339988
0.00571614
0.00343914
-0.0125329
0.0029102
0.00782133
0.0102097
-0.0077754
5.14442e-05
0.0106212
-0.00344621
0.0185097
-0.00292161
0.0305545
0.00240143
-0.0340138
0.00573176
-0.0126068
0.00781116
-0.0141763
0.00994604
-0.029768
-0.0132278
0.00658125
-0.0200622
0.00648588
-0.0118919
-0.00141477
-0.00995217
0.0213651
-0.00481621
-0.00656927
0.0350623
-0.00647892
0.0387037
-0.0141744
-0.0297912
-0.0132429
-0.0201071
-0.0119103
-0.00750891
0.0218079
-0.00672436
0.0209668
0.0223259
-0.00809814
-0.0217987
-0.0082379
-0.0209382
-0.0223117
-0.00750094
-0.00672939
-0.0138383
0.000191152
-0.000106014
-0.00847135
-0.000755516
-0.00460965
0.00057912
-0.00904914
-0.00238381
-0.000189646
0.00423519
-0.00604959
0.000763038
0.0021499
-0.000576506
-0.00489151
-0.0138318
-0.000100565
-0.00846867
-0.00459831
-0.00904333
-0.00928281
0.000529231
-0.000908826
-0.00607416
-0.00041222
-0.00740492
0.000452903
-0.0155769
-3.87097e-05
-0.000527733
0.00973756
-0.00495279
0.00041329
0.0062414
-0.000449323
-0.00894022
-0.00928669
-0.000894411
-0.00608246
-0.00738853
-0.0155749
-0.00497169
-8.29386e-05
0.00500693
-0.00550249
-0.00102108
-0.00585349
0.00276859
-0.0238568
0.00598205
8.88753e-05
0.0141706
-0.00187759
0.00101232
0.01207
-0.00276346
-0.00528463
-0.00495164
0.00503177
-0.0055141
-0.00581414
-0.0238568
-0.0057475
0.00295219
0.00782266
-0.00240586
0.00343973
-0.0126219
0.00778513
-0.0340569
-0.0106004
-0.00293105
0.0306763
-0.0102137
-0.00342899
0.0185816
-0.00776715
6.35184e-05
-0.00573083
0.00781402
-0.00240144
-0.0125851
-0.0340729
0.0132401
0.00647363
-0.0119249
0.0141464
0.00657828
-0.0201306
0.00991985
-0.0298206
0.00486761
-0.00649728
0.0387381
0.00157144
-0.00660402
0.0351035
-0.00991529
0.0214369
0.0132391
-0.0119097
0.0141566
-0.0200956
-0.0297788
0.00674982
0.0223023
0.00752355
0.02095
0.0217928
0.0082807
-0.0223106
0.00811946
-0.0209656
-0.0217842
0.00674452
0.00752128
)
;

boundaryField
{
    fuel
    {
        type            calculated;
        value           nonuniform List<scalar> 
36
(
0.000117262
0.000192368
0.000117262
0.000117262
0.000192368
0.000117262
0.000117262
0.000192368
0.000117262
-0.000117263
-0.000192367
-0.000117263
-0.000117263
-0.000192367
-0.000117263
-0.000117263
-0.000192367
-0.000117263
0
0
0
0
0
0
0
0
0
0
0
0
0
0
0
0
0
0
)
;
    }
    primary_air
    {
        type            calculated;
        value           nonuniform List<scalar> 9(-0.00319839 -0.00525348 -0.0031984 -0.00319907 -0.00525301 -0.00319908 -0.00319843 -0.00525349 -0.00319842);
    }
    Secondary_air_RHS
    {
        type            calculated;
        value           nonuniform List<scalar> 9(0.00424237 0.00681841 0.00424237 0.00423949 0.00680544 0.0042395 0.00423797 0.00681731 0.004238);
    }
    Secondary_air_LHS
    {
        type            calculated;
        value           nonuniform List<scalar> 9(0.00424246 0.00681856 0.0042424 0.00423964 0.00680563 0.00423958 0.00423816 0.00681752 0.00423812);
    }
    outlet
    {
        type            calculated;
        value           nonuniform List<scalar> 
18
(
-0.0409702
0.0750838
-0.0409607
-0.041846
0.0770653
-0.0418336
-0.0440805
0.073142
-0.0440369
-0.0440672
0.0730695
-0.0440892
-0.0418137
0.0771068
-0.0418171
-0.0409423
0.0751031
-0.0409516
)
;
    }
    stove_body
    {
        type            calculated;
        value           uniform 0;
    }
    frontAndBack
    {
        type            empty;
        value           nonuniform 0();
    }
}


// ************************************************************************* //
