/*--------------------------------*- C++ -*----------------------------------*\
  =========                 |
  \\      /  F ield         | OpenFOAM: The Open Source CFD Toolbox
   \\    /   O peration     | Website:  https://openfoam.org
    \\  /    A nd           | Version:  6
     \\/     M anipulation  |
\*---------------------------------------------------------------------------*/
FoamFile
{
    version     2.0;
    format      ascii;
    class       volScalarField;
    location    "3";
    object      N2;
}
// * * * * * * * * * * * * * * * * * * * * * * * * * * * * * * * * * * * * * //

dimensions      [0 0 0 0 0 0 0];

internalField   nonuniform List<scalar> 
297
(
0.0296288
0.0336185
0.0278839
0.198659
0.199841
0.195074
0.0296292
0.0336189
0.0278842
0.0311812
0.0339283
0.0293828
0.603268
0.627012
0.598511
0.0311817
0.033929
0.0293835
0.210896
0.203822
0.208014
0.641569
0.661425
0.636149
0.210898
0.203826
0.208018
0.883622
0.950165
0.88543
0.815419
0.837742
0.815455
0.885378
0.950197
0.883731
0.957598
0.998821
0.958337
0.891231
0.873704
0.891221
0.958488
0.998862
0.957481
1
0.998828
1
0.923346
0.966375
0.923337
1
0.998869
1
0.997157
0.998051
0.997096
0.995381
0.995933
0.995381
0.997096
0.99805
0.997157
0.998015
0.998051
0.997639
0.995381
0.995443
0.995382
0.997639
0.998051
0.998015
0.99835
0.998314
0.997844
0.995484
0.996059
0.995484
0.997844
0.998314
0.998349
1
0.998274
1
0.962656
0.996276
0.962661
1
0.998313
1
1
0.998169
1
0.974172
0.996277
0.974144
1
0.998181
1
1
0.998193
1
0.995354
0.996278
0.995377
1
0.998191
1
0.998418
0.998651
0.99832
0.995685
0.998482
0.995686
0.99832
0.998651
0.998418
0.998927
0.998952
0.998836
0.995906
0.998482
0.995907
0.998835
0.998952
0.998927
0.998991
0.99905
0.999078
0.997426
0.998354
0.997427
0.999078
0.99905
0.998991
0.999047
0.999467
0.99967
0.995686
0.995729
0.995731
0.999065
0.999428
0.999637
0.99887
0.999571
0.999698
0.995964
0.996257
0.996149
0.998927
0.999535
0.999677
0.999096
0.999645
0.999717
0.99754
0.998008
0.997899
0.999022
0.999554
0.999659
0.999637
0.999429
0.999065
0.99573
0.995729
0.995686
0.99967
0.999466
0.999048
0.999677
0.999535
0.998927
0.996148
0.996256
0.995963
0.999698
0.999571
0.99887
0.999659
0.999554
0.999021
0.997898
0.998007
0.997539
0.999717
0.999645
0.999096
0.999985
0.999876
0.999867
0.99999
0.999361
0.995735
0.999996
0.999883
0.999883
0.999985
0.999842
0.999839
0.99999
0.998588
0.996091
0.999996
0.999799
0.999796
0.999985
0.999849
0.999529
0.999991
0.997868
0.997185
0.999996
0.999752
0.999752
0.999985
0.999958
0.999735
0.999991
0.998914
0.998193
0.999996
0.999983
0.999885
0.999985
0.999942
0.999871
0.99999
0.999369
0.998784
0.999996
0.99998
0.999956
1
1
1
0.999966
0.99971
0.999499
1
1
1
0.999883
0.999883
0.999996
0.995735
0.99936
0.99999
0.999867
0.999876
0.999985
0.999796
0.999799
0.999996
0.996092
0.998587
0.99999
0.999839
0.999842
0.999985
0.999752
0.999752
0.999996
0.997186
0.997869
0.999991
0.99953
0.999849
0.999985
0.999885
0.999983
0.999996
0.998193
0.998914
0.999991
0.999735
0.999958
0.999985
0.999956
0.99998
0.999996
0.998785
0.999369
0.99999
0.999871
0.999942
0.999985
1
1
1
0.999499
0.99971
0.999966
1
1
1
)
;

boundaryField
{
    fuel
    {
        type            fixedValue;
        value           uniform 0;
    }
    primary_air
    {
        type            fixedValue;
        value           uniform 0.77;
    }
    Secondary_air_RHS
    {
        type            fixedValue;
        value           uniform 0.77;
    }
    Secondary_air_LHS
    {
        type            fixedValue;
        value           uniform 0.77;
    }
    outlet
    {
        type            inletOutlet;
        inletValue      uniform 0;
        value           nonuniform List<scalar> 
18
(
1
0.999499
1
1
0.99971
1
1
0.999966
1
1
0.999966
1
1
0.99971
1
1
0.999499
1
)
;
    }
    stove_body
    {
        type            fixedValue;
        value           uniform 0;
    }
    frontAndBack
    {
        type            empty;
    }
}


// ************************************************************************* //
