/*--------------------------------*- C++ -*----------------------------------*\
  =========                 |
  \\      /  F ield         | OpenFOAM: The Open Source CFD Toolbox
   \\    /   O peration     | Website:  https://openfoam.org
    \\  /    A nd           | Version:  6
     \\/     M anipulation  |
\*---------------------------------------------------------------------------*/
FoamFile
{
    version     2.0;
    format      ascii;
    class       surfaceScalarField;
    location    "3";
    object      phi;
}
// * * * * * * * * * * * * * * * * * * * * * * * * * * * * * * * * * * * * * //

dimensions      [1 0 -1 0 0 0 0];

internalField   nonuniform List<scalar> 
675
(
-2.37436e-06
-0.000213496
0.000334493
2.00538e-06
-0.000225079
0.000339346
-0.000214856
0.00033549
1.27733e-05
0.000213496
-0.00024641
-7.91029e-06
0.000225079
-0.000236061
0.000214857
-0.000244257
-2.37415e-06
0.000334495
2.00553e-06
0.000339347
0.000335492
-2.47875e-06
1.85462e-05
0.000318429
1.81262e-06
1.10764e-05
0.000324005
1.77156e-05
0.000319593
4.36442e-06
-1.85456e-05
-0.000213758
-3.73632e-06
-1.10758e-05
-0.000205741
-1.77149e-05
-0.000212628
-2.4785e-06
0.000318431
1.81282e-06
0.000324007
0.000319595
-7.19873e-06
0.000206996
5.54293e-06
0.000192669
0.000206505
6.76991e-06
-0.000206996
-6.93417e-06
-0.00019267
-0.000206506
-7.19835e-06
5.54326e-06
-0.00586408
0.00589602
0.00317465
0.00610894
0.00312272
-0.0118877
0.00596553
0.00335151
0.00175259
-0.00596922
0.0153553
-0.00174164
-0.00312404
0.0149838
-0.00589266
0.0153608
-0.00609416
0.00333192
0.0058767
-0.011887
0.00319194
-0.00145076
0.00813797
-0.00351295
0.000311031
0.00288712
-0.0165364
0.00861001
-0.00494658
-0.000638384
-0.00860012
0.0327305
0.000605728
-0.00288819
0.0195144
-0.00814801
0.0327254
-0.00035314
-0.00491622
0.00140739
-0.0165365
-0.00354851
0.00697831
0.0123507
-0.0228423
0.000828939
0.00528923
-0.0156534
0.0151925
-0.0193099
-0.0319667
-0.0151944
0.0922363
0.0319503
-0.00530283
-0.0338117
-0.012344
0.0922102
-0.000837692
-0.019273
-0.00698908
-0.015712
-0.0228812
-0.00120721
-0.00649431
-0.0199279
0.02763
0.00519725
0.00758909
-0.0263573
0.0123709
-0.00551576
-0.0132503
0.0239591
0.0190913
0.00550651
0.0402857
-0.071379
-0.0190652
-0.00758551
0.00428923
0.0490406
0.00650438
0.0402782
-0.071361
-0.00518929
-0.0132296
0.0239284
0.00122074
-0.0263645
0.0123611
-0.0199396
0.0276618
0.00238698
-0.00475657
-0.0175551
0.000262475
-0.00162952
-0.0226032
-0.00185294
-0.0111383
0.00858604
0.00184873
0.0251004
-0.00856214
0.00162651
0.0181817
0.00476115
0.0250945
-0.000246856
-0.0111299
-0.00237739
-0.0226078
-0.0175608
-0.00283198
-0.000323545
-0.0143956
-0.00728941
-0.00124992
-0.0168917
-0.00295669
-0.015468
-0.0101477
0.00295847
0.0319691
0.0101447
0.00125702
-0.00461676
0.000329066
0.0319522
0.00729205
-0.0154647
0.0028312
-0.0168927
-0.0144037
0.000839491
-0.00271852
-0.0241599
-0.000164293
-0.00181441
-0.0128313
-0.00178552
-0.0208832
-0.00277304
0.0017931
0.0853596
0.00277339
0.00188359
-0.0430549
0.00271081
0.0853455
0.000167254
-0.0208435
-0.000832365
-0.0128313
-0.0242001
0.000371051
-0.00144066
-0.0262858
0.000140798
-0.00126879
-0.0113318
-0.00111637
-0.0228198
-0.00138768
0.00112096
0.0790573
0.00138915
0.00131548
-0.0484126
0.00143605
0.079046
-0.000135918
-0.0227814
-0.000362755
-0.0112885
-0.0263232
0.000319159
-0.0021706
0.000144205
0.00121617
-0.00191052
-0.00154333
0.00190728
0.00154452
-0.00124636
0.00217343
-0.000140056
-0.00031653
0.00256072
-0.00251029
-0.00392194
-0.0105246
-0.0058649
-0.00108028
-0.00738516
-0.0038178
-0.00502334
-0.012491
-0.00154451
0.00381687
0.0162858
0.0108988
0.00154216
0.00108114
-0.00986501
0.00251075
0.0162724
0.0108951
0.00586359
-0.00502127
-0.0124921
-0.00256308
-0.0073856
-0.00392681
-0.010528
0.00296717
0.000440331
0.000896123
-0.0082265
-0.00461468
0.00124329
-0.00104599
-0.000210918
0.000435483
-0.00986181
-0.000848973
0.000210335
0.00487971
0.0124824
0.000846848
-0.00124282
-0.00907491
-0.000441222
0.00487363
0.0124783
0.00461288
0.000436721
-0.00986287
-0.00297016
-0.0010461
0.000893262
-0.00822981
0.00120358
0.0021122
-0.00242079
-0.00243179
0.00259001
0.00182798
-0.00382347
0.00194667
-0.00182868
0.00687102
-0.00194857
-0.00258984
-0.00211213
0.00686772
0.00243036
-0.00382471
-0.00120626
-0.00242336
-0.0120156
-0.00168057
0.00120486
-0.0123772
-0.00086996
0.00123096
-0.00101094
0.00136159
-0.0127287
0.00689618
0.00124049
0.00107952
0.00640317
0.000718714
-0.00109371
0.000946814
0.000628169
0.00381911
-0.0103942
0.00110858
-0.0107978
0.00112453
0.00134677
-0.0111958
-0.00952644
-0.00195274
0.00282191
-0.00968343
-0.00060866
0.00199583
-0.000302943
0.00077701
-0.00879693
0.0111379
0.00134358
-0.000874346
0.010426
0.000499964
-0.00148825
0.000523053
0.00257015
0.0076601
-0.00822803
0.00245246
-0.00846963
0.00186861
0.00145834
-0.0080559
-0.00129091
0.000288952
-0.00014437
0.000848527
0.00081892
-0.000187271
0.00680378
-0.000519555
0.00703595
-0.000869916
-0.00053254
0.0109594
-0.000488366
0.000512664
0.00144047
0.0108003
-0.000948009
0.00134607
-0.0111985
0.0103946
-0.000719208
0.00112446
-0.00123962
0.00110876
-0.00639978
0.0010102
0.000627907
0.00381192
-0.00689709
0.000869141
-0.00109335
0.00167908
0.00108106
0.0123823
0.00136123
-0.0127338
0.0120198
0.00123081
0.00120511
0.00847227
-0.00052483
0.001458
-0.00805966
0.00822786
-0.000501017
0.00186921
-0.0013438
0.00245302
-0.0104244
0.000303242
0.00256719
0.00765493
-0.01114
0.000608443
-0.00148975
0.00195116
-0.000873489
0.00968889
0.000777433
-0.00880259
0.00953036
0.00199648
0.00282209
-0.000510153
0.000532452
0.00143536
0.000488226
0.000870054
0.000519607
-0.00703364
-0.000820763
0.0109523
-0.00680535
-0.000850104
-0.00029007
0.000149245
-0.000193352
0.00129417
0.00694354
0.000283886
-0.00722631
0.0114054
-0.0012533
-0.00320783
-2.55762e-05
0.000232615
0.00429268
-0.00027868
-0.00373043
-0.000742151
0.0010377
0.00274325
-3.09187e-06
0.00304605
0.00780633
-0.00808458
0.0127885
-0.00394407
5.13888e-05
0.00496584
0.000266495
-0.0124585
0.00814184
-0.000602879
-0.00578033
0.00040632
-9.12833e-05
0.00327701
-0.000325918
-0.00641531
-0.00394986
0.000618562
0.00874811
-0.000470358
0.00762681
0.0053448
-0.0137509
0.00852372
-0.00650301
-0.000697939
0.0050152
0.0023199
-0.0198023
0.00409533
-0.000847704
-0.00401206
-0.000399292
0.00583905
0.000713824
-0.0025865
-0.00222241
-0.00682312
0.00132999
0.0141073
-2.84708e-05
0.0113847
0.00488655
-0.0212266
0.00540316
-0.00568813
0.00448344
0.00451695
0.00665235
-0.0309816
0.005405
0.00315683
-0.00804101
0.00241249
0.00884164
0.0112185
-0.00751382
0.000736554
0.0128746
-0.00347912
0.0190976
-0.0033169
0.0299992
0.0033103
-0.0320216
0.00605799
-0.0119132
0.0072276
-0.0123938
0.0105172
-0.0290891
-0.0115524
0.00712271
-0.0160246
0.00661868
-0.00934243
-7.20332e-05
-0.0102752
0.0215909
-0.00342982
-0.00654731
0.0361181
-0.00627568
0.0394568
-0.012843
-0.0294909
-0.0124671
-0.0188437
-0.0115235
-0.00864697
0.0223164
-0.00647847
0.0214896
0.0230268
-0.00767253
-0.0217301
-0.00774022
-0.0206194
-0.0218433
-0.00762715
-0.00635775
-0.0127835
1.52029e-06
5.23607e-05
-0.00780318
-0.00103911
-0.00394203
0.000276807
-0.00808109
0.000747842
2.5765e-05
0.00304831
-0.00428943
0.00125337
0.0027459
-0.000283623
-0.00372802
-0.0114027
0.000234111
-0.00694219
-0.00320571
-0.00722418
-0.00851858
0.000468969
-0.000695975
-0.00534232
-0.000620101
-0.00649997
0.000326667
-0.0137549
0.00395344
-0.000406126
0.00763143
-0.00327604
0.000602779
0.00875366
-0.000267085
-0.00640963
-0.00813884
-8.74349e-05
-0.00496526
-0.00577513
-0.0124578
-0.00539909
2.72695e-05
0.0044875
-0.00488735
-0.00133129
-0.00568299
0.00258938
-0.0212327
0.00682562
0.000399021
0.0113944
-0.000714055
0.000847807
0.0141149
-0.00232156
-0.00221326
-0.004093
0.00584619
-0.00501665
-0.00400357
-0.0198001
-0.00604568
0.00331469
0.00721484
-0.00329021
0.00347738
-0.0119268
0.00751414
-0.0320349
-0.0128761
-0.00240967
0.0299899
-0.0112213
-0.0031552
0.0190874
-0.00665317
0.00072657
-0.00540365
0.00883148
-0.00451814
-0.00805018
-0.0309886
0.0124546
0.00628627
-0.0115146
0.0128247
0.00655881
-0.0188356
0.0102798
-0.0294771
0.00343184
-0.00662228
0.0394664
7.76904e-05
-0.00712616
0.0361267
-0.0105153
0.0216021
0.0115528
-0.00933892
0.0124
-0.0160215
-0.0290817
0.00635809
0.0218475
0.0076261
0.0206237
0.0217373
0.00774161
-0.0230266
0.00767357
-0.0214897
-0.0223178
0.00647791
0.00864484
)
;

boundaryField
{
    fuel
    {
        type            calculated;
        value           nonuniform List<scalar> 
36
(
0.000118623
0.000193374
0.000118623
0.000118623
0.000193374
0.000118623
0.000118623
0.000193374
0.000118623
-0.000118624
-0.000193373
-0.000118624
-0.000118624
-0.000193373
-0.000118624
-0.000118624
-0.000193373
-0.000118624
0
0
0
0
0
0
0
0
0
0
0
0
0
0
0
0
0
0
)
;
    }
    primary_air
    {
        type            calculated;
        value           nonuniform List<scalar> 9(-0.00320711 -0.00524322 -0.00320744 -0.00320795 -0.00524267 -0.00320795 -0.00320745 -0.00524323 -0.00320712);
    }
    Secondary_air_RHS
    {
        type            calculated;
        value           nonuniform List<scalar> 9(0.00319585 0.00514235 0.00319737 0.0031947 0.00513548 0.00319638 0.00319448 0.00514196 0.00319592);
    }
    Secondary_air_LHS
    {
        type            calculated;
        value           nonuniform List<scalar> 9(0.00319743 0.00514251 0.00319593 0.00319645 0.00513564 0.00319478 0.00319601 0.00514209 0.00319455);
    }
    outlet
    {
        type            calculated;
        value           nonuniform List<scalar> 
18
(
-0.0397194
0.0765928
-0.038847
-0.0407267
0.0783012
-0.0396819
-0.043588
0.0733226
-0.0427581
-0.0427572
0.0733189
-0.0435906
-0.0396811
0.0783026
-0.0407296
-0.0388461
0.0765939
-0.0397221
)
;
    }
    stove_body
    {
        type            calculated;
        value           uniform 0;
    }
    frontAndBack
    {
        type            empty;
        value           nonuniform 0();
    }
}


// ************************************************************************* //
