/*--------------------------------*- C++ -*----------------------------------*\
  =========                 |
  \\      /  F ield         | OpenFOAM: The Open Source CFD Toolbox
   \\    /   O peration     | Website:  https://openfoam.org
    \\  /    A nd           | Version:  6
     \\/     M anipulation  |
\*---------------------------------------------------------------------------*/
FoamFile
{
    version     2.0;
    format      ascii;
    class       volScalarField;
    location    "3";
    object      T;
}
// * * * * * * * * * * * * * * * * * * * * * * * * * * * * * * * * * * * * * //

dimensions      [0 0 0 1 0 0 0];

internalField   nonuniform List<scalar> 
297
(
290.683
291.46
290.55
297.211
298.513
296.972
290.683
291.46
290.55
290.725
291.486
290.591
302.171
305.647
301.622
290.725
291.486
290.591
292.583
293.689
292.333
302.934
306.43
302.307
292.583
293.689
292.333
293.284
295.86
293.316
294.907
295.954
294.899
293.313
295.858
293.285
297.167
297.601
298.034
297.605
296.964
297.616
298.03
297.598
297.172
299.979
297.615
300.907
300.125
300.924
300.126
300.91
297.612
299.982
296.549
295.775
296.853
303.186
302.68
303.189
296.852
295.774
296.55
295.626
295.615
296.416
303.169
303.127
303.172
296.414
295.614
295.627
295.032
295.388
295.717
302.97
302.399
302.974
295.714
295.388
295.035
300.421
297.04
301.398
301.14
301.958
301.139
301.405
297.033
300.422
299.372
296.544
299.551
301.431
301.984
301.429
299.988
296.541
299.064
298.749
295.922
299.114
302.375
302.051
302.362
299.115
295.917
298.75
295.207
295.35
295.546
302.709
299.626
302.713
295.544
295.35
295.211
294.613
294.875
294.903
302.458
299.629
302.462
294.902
294.876
294.618
294.656
294.767
294.822
300.775
299.784
300.778
294.821
294.768
294.66
294.851
294.052
293.737
302.699
302.718
302.717
294.578
293.85
293.553
295.06
294.078
293.761
302.359
302.014
302.115
294.763
293.881
293.608
294.81
294.157
293.897
300.595
300.067
300.09
294.648
293.98
293.772
293.552
293.847
294.574
302.715
302.715
302.695
293.741
294.054
294.849
293.606
293.878
294.759
302.113
302.012
302.356
293.765
294.08
295.059
293.772
293.979
294.644
300.091
300.065
300.593
293.901
294.159
294.81
293.464
293.783
293.286
298.098
298.793
302.724
293.957
294.137
293.573
293.243
293.664
293.386
298.129
299.82
302.325
293.756
294.044
293.708
292.738
293.68
294.023
298.111
300.163
300.944
293.245
294.069
293.791
292.476
293.165
292.076
298.222
298.357
298.355
292.99
293.265
291.884
291.41
292.684
292.946
297.932
296.415
295.814
291.666
292.659
293.016
287.933
287.308
287.285
285.037
282.625
283.266
288.101
287.504
287.494
293.567
294.132
293.958
302.724
298.792
298.096
293.287
293.783
293.465
293.703
294.04
293.716
302.325
299.82
298.128
293.387
293.665
293.228
293.787
294.055
293.135
300.943
300.161
298.104
294.021
293.671
292.671
291.879
293.26
292.914
298.348
298.35
298.213
292.066
293.155
292.433
293.023
292.666
291.772
295.826
296.427
297.945
292.956
292.692
291.466
287.494
287.503
288.101
283.266
282.625
285.037
287.282
287.306
287.93
)
;

boundaryField
{
    fuel
    {
        type            fixedValue;
        value           uniform 293;
    }
    primary_air
    {
        type            fixedValue;
        value           uniform 293;
    }
    Secondary_air_RHS
    {
        type            fixedValue;
        value           uniform 293;
    }
    Secondary_air_LHS
    {
        type            fixedValue;
        value           uniform 293;
    }
    outlet
    {
        type            inletOutlet;
        inletValue      uniform 293;
        value           nonuniform List<scalar> 
18
(
293
283.265
293
293
282.624
293
293
285.036
293
293
285.039
293
293
282.626
293
293
283.267
293
)
;
    }
    stove_body
    {
        type            fixedValue;
        value           uniform 293;
    }
    frontAndBack
    {
        type            empty;
    }
}


// ************************************************************************* //
