/*--------------------------------*- C++ -*----------------------------------*\
  =========                 |
  \\      /  F ield         | OpenFOAM: The Open Source CFD Toolbox
   \\    /   O peration     | Website:  https://openfoam.org
    \\  /    A nd           | Version:  6
     \\/     M anipulation  |
\*---------------------------------------------------------------------------*/
FoamFile
{
    version     2.0;
    format      ascii;
    class       volVectorField;
    location    "3";
    object      U;
}
// * * * * * * * * * * * * * * * * * * * * * * * * * * * * * * * * * * * * * //

dimensions      [0 1 -1 0 0 0 0];

internalField   nonuniform List<vector> 
297
(
(139.008 0.00674571 0.262221)
(139.186 -0.00165738 0.259012)
(139.026 -0.00372746 0.262384)
(-4.56685e-08 0.116763 -0.559806)
(-4.64356e-08 0.00472417 -0.568729)
(-4.70687e-08 -0.101809 -0.561471)
(-139.008 0.00674636 0.262223)
(-139.186 -0.00165645 0.259013)
(-139.026 -0.00372718 0.262386)
(138.837 -0.0182131 0.603379)
(139.065 -0.0033402 0.616496)
(138.857 0.0196781 0.605679)
(-3.9571e-08 -0.00852564 -0.318478)
(-4.02415e-08 -0.00868732 -0.315913)
(-4.09175e-08 0.022029 -0.318817)
(-138.837 -0.0182122 0.603382)
(-139.065 -0.00333899 0.616499)
(-138.857 0.0196784 0.605682)
(131.33 -0.0656026 0.946177)
(132.163 -0.00740354 0.964654)
(131.355 0.0662123 0.948994)
(-3.88504e-08 -0.0248502 0.516808)
(-3.96065e-08 -0.00771296 0.533294)
(-4.0135e-08 0.0342186 0.521188)
(-131.329 -0.0656013 0.94618)
(-132.163 -0.00740157 0.964656)
(-131.355 0.0662128 0.948997)
(92.6184 -2.63964 -3.33528)
(93.9619 0.374231 -8.18062)
(92.6375 2.66689 -4.11711)
(0.00221795 -1.14727 3.27635)
(-1.77475e-05 -0.000430914 3.01304)
(-0.00225165 1.15541 3.2713)
(-92.6362 -2.65164 -4.08092)
(-93.9621 -0.372874 -8.17889)
(-92.6198 2.65071 -3.37087)
(94.7889 0.422698 8.77154)
(94.9978 1.35927 -14.6835)
(95.0745 -3.15215 7.133)
(0.00489408 1.63324 24.6528)
(1.11514e-05 0.00252373 16.6298)
(-0.00485973 -1.66174 24.6537)
(-95.0745 3.10703 7.09323)
(-94.9979 -1.36071 -14.6831)
(-94.7896 -0.465982 8.81791)
(95.2269 13.9846 -11.0392)
(94.5189 2.33498 -15.8026)
(95.6144 -8.53967 -2.03214)
(0.0185837 -1.57342 30.2385)
(0.000212398 -0.000837203 2.94724)
(-0.0184886 1.56684 30.2396)
(-95.6159 8.54179 -2.00285)
(-94.4811 -2.33173 -15.8039)
(-95.2269 -13.9874 -11.0643)
(94.2306 8.06346 -22.5316)
(94.5455 -1.94691 -16.5627)
(94.4913 -1.01322 -19.3534)
(-0.00931526 0.865366 0.451772)
(-1.15123e-05 0.0090165 -7.85922)
(0.00920921 -0.871364 0.453097)
(-94.4925 1.01834 -19.3233)
(-94.5644 1.95051 -16.5743)
(-94.2299 -8.05454 -22.5603)
(94.147 12.1931 -17.7078)
(94.1855 -2.75241 -21.9079)
(94.7825 -6.60498 -12.4194)
(-0.0184387 1.5353 4.32801)
(-0.000239298 0.0083992 0.686157)
(0.0180552 -1.53817 4.32536)
(-94.7831 6.6109 -12.4075)
(-94.1866 2.76411 -21.9126)
(-94.1479 -12.1921 -17.7139)
(94.1152 15.6066 -24.1426)
(93.9528 -6.88266 -22.8849)
(94.3425 -15.7278 -23.1602)
(-0.0285274 -0.459332 14.0278)
(1.09765e-05 0.00182504 6.66706)
(0.0285907 0.45508 14.02)
(-94.3418 15.7281 -23.1591)
(-93.9526 6.88364 -22.8859)
(-94.1159 -15.6048 -24.146)
(87.9712 17.8057 -18.8217)
(88.0053 1.33643 -11.5932)
(89.7575 -10.2791 -16.9317)
(-0.0106818 -1.77497 38.9435)
(0.000571565 0.0078168 -22.1057)
(0.0108321 1.76679 38.9418)
(-89.7473 10.3103 -16.9043)
(-89.9949 -1.29135 -11.6319)
(-87.9835 -17.7753 -18.8497)
(86.0774 12.0999 -22.0636)
(90.0336 -0.117344 -9.44825)
(87.5352 -4.37262 -18.9062)
(-0.00978991 -1.91614 42.1922)
(0.000448587 0.0121982 -21.1117)
(0.00985217 1.90562 42.1851)
(-87.6451 4.4055 -18.8869)
(-91.4982 0.188351 -9.40818)
(-86.0061 -12.064 -22.0874)
(80.9559 10.7594 -21.7254)
(94.4943 -0.262196 -10.2438)
(82.756 -3.48355 -18.768)
(-0.00797691 -2.08066 41.2826)
(-0.000191991 0.0109169 -17.3657)
(0.00792184 2.06887 41.2749)
(-82.7732 3.49536 -18.7467)
(-93.5143 0.305327 -10.2265)
(-80.9388 -10.7434 -21.7469)
(92.105 24.7775 -5.40965)
(92.9731 -7.64092 -8.14437)
(91.6646 -29.0454 -6.82589)
(-0.0114123 -8.41892 13.6184)
(0.000202734 -0.000271759 -5.39168)
(0.0119279 8.4123 13.6108)
(-91.6641 29.0442 -6.8235)
(-92.9731 7.63677 -8.14461)
(-92.1042 -24.7851 -5.41489)
(93.3102 19.9479 -1.35307)
(93.6308 -3.58154 -3.73251)
(93.1823 -23.8766 -1.74392)
(-0.00668861 -10.28 7.43294)
(0.000253645 -0.000769468 -4.49516)
(0.00734079 10.2746 7.42625)
(-93.1815 23.875 -1.74267)
(-93.6307 3.57573 -3.73352)
(-93.3072 -19.9559 -1.35617)
(93.9961 3.37111 0.840626)
(94.1409 -2.366 -1.12412)
(93.9609 -6.60733 2.28879)
(-0.00232176 -5.57096 -0.0406622)
(0.000281081 -0.00118971 -0.862621)
(0.00302952 5.56605 -0.0425105)
(-93.9596 6.60632 2.28927)
(-94.1405 2.36145 -1.12358)
(-93.9959 -3.3784 0.839196)
(90.183 -31.6765 -1.48745)
(91.4511 -36.3995 -4.39911)
(91.7129 -38.0586 -5.76386)
(-0.00660717 15.6023 9.75306)
(-0.00738611 13.1686 5.94009)
(-0.00982754 11.8661 7.41597)
(-90.7359 -26.9326 -0.751256)
(-91.6296 -31.6383 -2.89787)
(-91.807 -33.3715 -3.91004)
(90.8024 -24.8426 4.05208)
(92.2007 -29.3475 3.37653)
(92.8175 -30.4673 1.61788)
(-0.0014061 19.2734 1.85828)
(0.000392275 19.3653 -3.319)
(-0.00153502 18.9393 -0.603925)
(-91.3955 -20.9809 3.64731)
(-92.2577 -25.2785 3.13139)
(-92.5281 -26.7022 1.9957)
(93.395 -8.2701 7.62713)
(93.894 -4.15678 7.72265)
(93.8696 4.84521 8.11996)
(0.000347092 11.2199 -5.29646)
(0.00181764 10.862 -3.32113)
(-0.00312914 15.0799 -0.63356)
(-93.5802 -4.96945 6.18744)
(-93.8437 -1.21397 6.20974)
(-93.537 3.76962 7.47646)
(91.8037 33.3766 -3.91034)
(91.6262 31.6422 -2.89834)
(90.7367 26.9278 -0.750964)
(0.0102373 -11.8576 7.41697)
(0.00792816 -13.1667 5.9413)
(0.00728707 -15.6068 9.75557)
(-91.7165 38.0705 -5.76384)
(-91.4524 36.4115 -4.39923)
(-90.1798 31.6826 -1.48722)
(92.5223 26.7089 1.99519)
(92.2547 25.2816 3.13205)
(91.4056 20.9753 3.64779)
(0.00193326 -18.9336 -0.605162)
(0.000166454 -19.3656 -3.31866)
(0.00212652 -19.2785 1.86135)
(-92.8176 30.4804 1.61817)
(-92.1994 29.3597 3.37684)
(-90.8006 24.8482 4.05249)
(93.5381 -3.75869 7.47587)
(93.8435 1.2176 6.21046)
(93.5812 4.96554 6.18828)
(0.00351255 -15.0718 -0.636877)
(-0.0012439 -10.8612 -3.32389)
(0.000349749 -11.2242 -5.29759)
(-93.8661 -4.83183 8.12062)
(-93.8916 4.16869 7.72358)
(-93.3936 8.27568 7.62735)
(91.2065 15.2417 -16.8405)
(89.6225 19.174 -10.7394)
(92.3473 31.2236 -8.23263)
(0.0565585 8.31611 -3.66192)
(0.0465058 5.4659 4.62061)
(0.0259344 -4.48828 10.7296)
(-90.9212 17.4644 -19.5227)
(-89.6809 21.6601 -13.0899)
(-92.2798 34.573 -10.6129)
(91.7482 4.20949 -30.248)
(91.3391 11.8224 -16.2289)
(93.5183 24.1156 -1.79889)
(0.0505021 4.39232 -7.05067)
(0.0349065 3.05389 8.34244)
(0.0151638 -10.9052 8.35226)
(-91.5991 5.87871 -32.42)
(-91.151 11.3577 -18.7694)
(-93.5959 25.2767 -2.2746)
(95.1632 2.1722 -39.3633)
(91.104 9.12308 -12.8469)
(92.4005 6.99222 5.5279)
(0.0465224 4.48502 -11.7706)
(0.0250339 -6.47971 19.2544)
(0.0109182 -17.4795 11.7531)
(-95.3741 3.27625 -41.1569)
(-90.1507 5.67605 -15.3139)
(-92.9541 17.6012 3.11744)
(93.8357 -6.6183 -55.2156)
(93.2937 1.25874 -1.03745)
(92.7085 7.29663 56.5912)
(0.0300928 -6.97037 13.0482)
(0.024593 7.09229 38.3835)
(0.0249826 -2.11116 58.4724)
(-93.9816 -7.33994 -56.3858)
(-93.217 -0.872216 -8.72899)
(-92.6711 11.6938 58.8278)
(91.8541 -2.17439 -74.2683)
(91.2065 -7.96335 -18.3044)
(91.0057 0.0624776 12.0821)
(-0.0274784 -1.17797 30.5403)
(-0.0241849 -0.43483 68.2151)
(-0.0203301 -0.716202 86.529)
(-92.0627 -1.72258 -78.3309)
(-91.212 -8.48997 -33.0621)
(-91.0793 0.410931 -0.247977)
(86.3755 -1.90579 -120.246)
(85.7636 -3.15799 -109.628)
(86.1462 -1.43271 -106.841)
(-0.0888805 -2.02526 176.329)
(-0.0897613 -2.68442 187.375)
(-0.0901955 -1.5521 183.444)
(-86.7901 -1.71612 -122.939)
(-86.0937 -2.77399 -112.921)
(-86.3712 -1.45386 -109.505)
(92.2766 -34.5596 -10.611)
(89.6786 -21.651 -13.0868)
(90.9283 -17.4606 -19.5187)
(-0.0255339 4.50098 10.7309)
(-0.0459992 -5.45976 4.62394)
(-0.0559613 -8.31424 -3.65942)
(-92.3458 -31.217 -8.23039)
(-89.6211 -19.1695 -10.7364)
(-91.2066 -15.2402 -16.8386)
(93.5963 -25.2631 -2.27066)
(91.1507 -11.3459 -18.7624)
(91.6158 -5.87565 -32.4111)
(-0.0148052 10.9125 8.35757)
(-0.0344962 -3.05017 8.3508)
(-0.0502164 -4.39094 -7.04415)
(-93.519 -24.107 -1.79166)
(-91.3391 -11.8173 -16.2205)
(-91.7577 -4.20882 -30.2404)
(92.9554 -17.5866 3.12559)
(90.1484 -5.67157 -15.3031)
(95.341 -3.27237 -41.1585)
(-0.0107724 17.488 11.7663)
(-0.0249743 6.48097 19.2654)
(-0.0472158 -4.48389 -11.7579)
(-92.398 -6.98425 5.54273)
(-91.1032 -9.1198 -12.8279)
(-95.1485 -2.17223 -39.3532)
(92.6687 -11.6907 58.8175)
(93.2172 0.879571 -8.73593)
(93.9554 7.34422 -56.4027)
(-0.0260268 2.10976 58.4732)
(-0.0251963 -7.09365 38.383)
(-0.030293 6.97095 13.0484)
(-92.7083 -7.29683 56.595)
(-93.2937 -1.25901 -1.02933)
(-93.8194 6.61818 -55.2157)
(91.0859 -0.413697 -0.253209)
(91.2171 8.48299 -33.0737)
(92.1123 1.71662 -78.3417)
(0.0213244 0.715929 86.5235)
(0.024775 0.436041 68.2074)
(0.0279159 1.17856 30.5341)
(-91.0097 -0.0619289 12.0642)
(-91.2109 7.96498 -18.3233)
(-91.885 2.17455 -74.2749)
(86.3715 1.45389 -109.495)
(86.0943 2.77376 -112.909)
(86.8018 1.71634 -122.928)
(0.0896267 1.55216 183.443)
(0.0891784 2.6848 187.373)
(0.0882742 2.02546 176.339)
(-86.1471 1.43266 -106.84)
(-85.7648 3.15735 -109.626)
(-86.3836 1.90555 -120.246)
)
;

boundaryField
{
    fuel
    {
        type            fixedValue;
        value           uniform (0 0 0.25);
    }
    primary_air
    {
        type            fixedValue;
        value           uniform (0 0 2.5);
    }
    Secondary_air_RHS
    {
        type            fixedValue;
        value           uniform (0 25 0);
    }
    Secondary_air_LHS
    {
        type            fixedValue;
        value           uniform (0 -25 0);
    }
    outlet
    {
        type            pressureInletOutletVelocity;
        value           nonuniform List<vector> 
18
(
(0 0 -109.495)
(0.0896267 1.55216 183.443)
(0 0 -106.84)
(0 0 -112.909)
(0.0891784 2.6848 187.373)
(0 0 -109.626)
(0 0 -122.928)
(0.0882742 2.02546 176.339)
(0 0 -120.246)
(0 0 -120.246)
(-0.0888805 -2.02526 176.329)
(0 0 -122.939)
(0 0 -109.628)
(-0.0897613 -2.68442 187.375)
(0 0 -112.921)
(0 0 -106.841)
(-0.0901955 -1.5521 183.444)
(0 0 -109.505)
)
;
    }
    stove_body
    {
        type            noSlip;
    }
    frontAndBack
    {
        type            empty;
    }
}


// ************************************************************************* //
