/*--------------------------------*- C++ -*----------------------------------*\
  =========                 |
  \\      /  F ield         | OpenFOAM: The Open Source CFD Toolbox
   \\    /   O peration     | Website:  https://openfoam.org
    \\  /    A nd           | Version:  6
     \\/     M anipulation  |
\*---------------------------------------------------------------------------*/
FoamFile
{
    version     2.0;
    format      ascii;
    class       surfaceScalarField;
    location    "0.5";
    object      phi;
}
// * * * * * * * * * * * * * * * * * * * * * * * * * * * * * * * * * * * * * //

dimensions      [1 0 -1 0 0 0 0];

internalField   nonuniform List<scalar> 
675
(
-2.69574e-07
-0.000216
0.000333783
2.98721e-07
-0.000222986
0.00033986
-0.000215922
0.000333668
8.64796e-06
0.00021601
-0.000248865
-8.87608e-06
0.000222994
-0.00023677
0.00021593
-0.000249031
-2.71592e-07
0.000333765
2.97468e-07
0.000339844
0.000333653
-2.31588e-07
1.54633e-05
0.000318396
2.682e-07
1.44918e-05
0.000324664
1.54877e-05
0.000318308
1.22684e-07
-1.54666e-05
-0.000217821
-1.77535e-07
-1.4495e-05
-0.000207319
-1.54923e-05
-0.000217961
-2.34215e-07
0.000318381
2.66136e-07
0.000324652
0.000318295
-2.73453e-06
0.000203536
2.81291e-06
0.000201525
0.000203574
-2.16726e-06
-0.000203543
2.14859e-06
-0.000201532
-0.000203584
-2.74014e-06
2.80855e-06
-0.00586402
0.00589844
0.00317316
0.00611167
0.00312022
-0.0118884
0.00596772
0.00335014
0.00175783
-0.00597192
0.0153573
-0.00174338
-0.00312261
0.0149865
-0.00589562
0.0153614
-0.00609465
0.00333112
0.00587887
-0.0118881
0.00318938
-0.00145046
0.00813377
-0.00351077
0.000309908
0.00288577
-0.0165343
0.00860553
-0.00494446
-0.000640812
-0.00859579
0.0327269
0.000607986
-0.00288745
0.0195117
-0.00814408
0.0327202
-0.00035252
-0.00491294
0.00140643
-0.0165341
-0.00354757
0.00697322
0.0123499
-0.0228352
0.000823395
0.00530568
-0.0157137
0.0151895
-0.0193084
-0.0319634
-0.0151903
0.0922325
0.031943
-0.00528603
-0.0338021
-0.0123424
0.0922046
-0.000835622
-0.0192702
-0.00698644
-0.0156467
-0.0228749
-0.00121045
-0.00649319
-0.0199225
0.0276274
0.00519511
0.00757971
-0.0263554
0.0123604
-0.00551729
-0.0132496
0.0239605
0.0190829
0.00550817
0.0402774
-0.0713657
-0.0190597
-0.00759091
0.00428695
0.049028
0.00650294
0.0402708
-0.0713503
-0.00518873
-0.0132325
0.0239306
0.0012204
-0.0263649
0.0123729
-0.0199355
0.0276599
0.00238515
-0.00475616
-0.0175486
0.000259493
-0.00163125
-0.0225994
-0.00185774
-0.011138
0.0085835
0.00185053
0.0250932
-0.0085597
0.00162561
0.0181735
0.00475842
0.0250906
-0.00024447
-0.011133
-0.00237571
-0.0226061
-0.0175531
-0.00283103
-0.000325203
-0.0143909
-0.0072915
-0.00125149
-0.0168879
-0.00295935
-0.0154724
-0.0101421
0.00295931
0.0319557
0.0101447
0.00125545
-0.00461794
0.000329095
0.0319446
0.00729577
-0.0154649
0.00283427
-0.0168861
-0.0143899
0.000838477
-0.00271738
-0.0241548
-0.000160611
-0.00188322
-0.0128339
-0.00178553
-0.0208807
-0.00277279
0.00179283
0.0853489
0.00277274
0.00181469
-0.0430475
0.00271005
0.0853351
0.000171045
-0.0208443
-0.000832652
-0.0128245
-0.024195
0.000367644
-0.00143992
-0.0262804
0.000141187
-0.00131686
-0.0112903
-0.00111632
-0.0228189
-0.00138742
0.00112053
0.0790374
0.00138842
0.00126683
-0.0484102
0.00143562
0.0790289
-0.000135475
-0.0227833
-0.000365632
-0.0113273
-0.0263215
0.0003199
-0.00216967
0.000143107
0.00124399
-0.00191032
-0.00154263
0.00190681
0.00154338
-0.00122199
0.00217277
-0.000140983
-0.000315105
0.00256286
-0.00251004
-0.00391861
-0.0105258
-0.00586441
-0.00107907
-0.0073819
-0.00381521
-0.00502473
-0.0124956
-0.00154343
0.00381612
0.0162758
0.0108959
0.00154377
0.00108056
-0.00986512
0.00251174
0.0162664
0.0108945
0.00586288
-0.00501988
-0.0124924
-0.00256266
-0.0073801
-0.00391796
-0.0105242
0.0029704
0.000439361
0.000898886
-0.00822831
-0.00461356
0.00124469
-0.00104296
-0.00020749
0.000435039
-0.00986408
-0.000847554
0.000208891
0.00487422
0.0124775
0.000848768
-0.00124346
-0.0090739
-0.00043782
0.00486964
0.0124754
0.00461177
0.00043753
-0.00986125
-0.0029702
-0.00104192
0.000899104
-0.00822691
0.0012089
0.00211146
-0.00242272
-0.00242596
0.00259153
0.00183216
-0.00382121
0.00194697
-0.00183066
0.00686704
-0.00194552
-0.00259057
-0.0021101
0.00686578
0.00242486
-0.00381903
-0.00120801
-0.00242091
-0.0120192
-0.00167932
0.00120497
-0.0123812
-0.000866261
0.00123053
-0.0010067
0.0013608
-0.0127328
0.00689505
0.00124117
0.00107887
0.00639885
0.000720533
-0.00109056
0.00094907
0.00063322
0.00380996
-0.0103942
0.0011096
-0.0108007
0.00112521
0.00134619
-0.0112001
-0.00952714
-0.0019505
0.00282087
-0.00968508
-0.000607727
0.00199909
-0.000303831
0.000783248
-0.00880078
0.0111358
0.00134519
-0.000877423
0.0104237
0.000501293
-0.00148749
0.000524928
0.0025719
0.00765629
-0.0082277
0.00245378
-0.00847256
0.00186913
0.00145742
-0.00806137
-0.0012898
0.000291819
-0.000139389
0.000851527
0.000822284
-0.000175668
0.00679823
-0.000518146
0.00703077
-0.00086855
-0.000530751
0.0109557
-0.000487047
0.000511401
0.00143589
0.0108007
-0.000947439
0.00134609
-0.0111989
0.0103951
-0.000718785
0.00112471
-0.0012402
0.00110938
-0.00639692
0.00100896
0.000632857
0.00380634
-0.00689513
0.000868083
-0.00109052
0.00167911
0.00107988
0.0123836
0.00136061
-0.0127355
0.0120202
0.00123089
0.00120569
0.00847232
-0.000524425
0.00145799
-0.00805929
0.00822865
-0.000500685
0.00186925
-0.00134426
0.0024537
-0.0104228
0.000306057
0.00257006
0.00765344
-0.0111373
0.000609617
-0.00148833
0.00195061
-0.000876311
0.00968811
0.000782778
-0.00880472
0.00952776
0.00199989
0.00282159
-0.000511488
0.000531475
0.00143846
0.00048832
0.000869525
0.000519018
-0.00703036
-0.000822595
0.0109531
-0.00679951
-0.000851326
-0.000291217
0.000142262
-0.000182595
0.00128972
0.00694427
0.000283932
-0.0072275
0.0114055
-0.00125239
-0.00320847
-2.5536e-05
0.000232691
0.00429607
-0.000278792
-0.00373363
-0.000734665
0.00103617
0.00274174
-3.66158e-06
0.00304885
0.00780881
-0.0080866
0.0127902
-0.00394445
5.10686e-05
0.00496639
0.000266186
-0.0124611
0.00814116
-0.000603212
-0.00577989
0.0004057
-9.06856e-05
0.00327667
-0.000325324
-0.00641914
-0.00394539
0.000617592
0.00874249
-0.000469925
0.00763176
0.00534576
-0.0137544
0.0085226
-0.0065022
-0.00070083
0.00501678
0.00232031
-0.0198058
0.00409307
-0.000847635
-0.00400848
-0.000400126
0.00584153
0.000713655
-0.00258658
-0.00222578
-0.00682457
0.00132901
0.0141041
-2.95607e-05
0.0113895
0.00488664
-0.0212329
0.00539982
-0.00568473
0.0044871
0.00450714
0.00665134
-0.0309867
0.00539626
0.00315455
-0.00804051
0.00240942
0.00884137
0.01122
-0.00751298
0.000730887
0.0128727
-0.00347973
0.0190976
-0.00331601
0.0299991
0.00328851
-0.0320259
0.00605073
-0.0119133
0.00722828
-0.0123887
0.0105172
-0.0290841
-0.0115455
0.00712724
-0.0160241
0.0066225
-0.00934152
-7.77655e-05
-0.0102782
0.0215918
-0.00343353
-0.00654802
0.0361175
-0.00627637
0.0394545
-0.012827
-0.0294897
-0.0124621
-0.0188467
-0.0115227
-0.00864538
0.0223152
-0.00647815
0.0214913
0.0230286
-0.00767789
-0.0217305
-0.00774351
-0.0206198
-0.0218446
-0.00762591
-0.00635886
-0.0127869
3.54614e-06
5.24801e-05
-0.00780714
-0.00103635
-0.00394161
0.000277788
-0.00808279
0.000737264
2.63223e-05
0.00304992
-0.00429488
0.00125286
0.00274295
-0.000284427
-0.00373262
-0.0114077
0.000232044
-0.00694597
-0.00321056
-0.00723201
-0.00851834
0.000469598
-0.00069733
-0.00534367
-0.000617796
-0.00649654
0.000323899
-0.0137507
0.00394718
-0.000405434
0.0076341
-0.00327658
0.00060313
0.0087459
-0.000269218
-0.00641592
-0.00814487
-9.1789e-05
-0.00497041
-0.00578316
-0.0124702
-0.00539497
2.92278e-05
0.00449436
-0.00488579
-0.00132929
-0.00567588
0.0025872
-0.021229
0.00682437
0.000400208
0.0113946
-0.000714507
0.000847209
0.0141085
-0.0023221
-0.0022209
-0.00409793
0.00584125
-0.00502379
-0.00400966
-0.0198085
-0.0060344
0.00330883
0.00722008
-0.00326776
0.0034727
-0.0119215
0.00750895
-0.0320381
-0.0128745
-0.00241552
0.0299953
-0.0112227
-0.00316279
0.0190927
-0.00666004
0.000725482
-0.00541221
0.00884061
-0.00453721
-0.00804158
-0.0309832
0.0124425
0.0062879
-0.0115171
0.0128011
0.00656116
-0.0188411
0.01028
-0.0294808
0.00343546
-0.00661491
0.0394591
8.30766e-05
-0.00711698
0.0361211
-0.0105111
0.0215978
0.0115718
-0.00934149
0.0124393
-0.0160262
-0.0290844
0.00635811
0.0218441
0.00762343
0.02062
0.0217249
0.00774414
-0.0230304
0.0076787
-0.0214928
-0.0223246
0.0064799
0.00864706
)
;

boundaryField
{
    fuel
    {
        type            calculated;
        value           nonuniform List<scalar> 
36
(
0.000117575
0.000191713
0.000117575
0.000117575
0.000191713
0.000117575
0.000117575
0.000191713
0.000117575
-0.000117575
-0.000191712
-0.000117575
-0.000117575
-0.000191712
-0.000117575
-0.000117575
-0.000191712
-0.000117575
0
0
0
0
0
0
0
0
0
0
0
0
0
0
0
0
0
0
)
;
    }
    primary_air
    {
        type            calculated;
        value           nonuniform List<scalar> 9(-0.00320709 -0.00524329 -0.00320743 -0.00320794 -0.00524274 -0.00320794 -0.00320744 -0.0052433 -0.0032071);
    }
    Secondary_air_RHS
    {
        type            calculated;
        value           nonuniform List<scalar> 9(0.00319585 0.00514256 0.00319735 0.00319469 0.00513571 0.00319636 0.00319446 0.0051422 0.00319591);
    }
    Secondary_air_LHS
    {
        type            calculated;
        value           nonuniform List<scalar> 9(0.00319741 0.00514266 0.00319589 0.00319643 0.00513581 0.00319474 0.00319597 0.00514228 0.00319453);
    }
    outlet
    {
        type            calculated;
        value           nonuniform List<scalar> 
18
(
-0.0397239
0.0765895
-0.0388473
-0.0407306
0.0782995
-0.039682
-0.0435861
0.0733258
-0.0427579
-0.0427537
0.0733228
-0.0435918
-0.039682
0.0783009
-0.040731
-0.0388478
0.0765903
-0.0397238
)
;
    }
    stove_body
    {
        type            calculated;
        value           uniform 0;
    }
    frontAndBack
    {
        type            empty;
        value           nonuniform 0();
    }
}


// ************************************************************************* //
