/*--------------------------------*- C++ -*----------------------------------*\
  =========                 |
  \\      /  F ield         | OpenFOAM: The Open Source CFD Toolbox
   \\    /   O peration     | Website:  https://openfoam.org
    \\  /    A nd           | Version:  6
     \\/     M anipulation  |
\*---------------------------------------------------------------------------*/
FoamFile
{
    version     2.0;
    format      ascii;
    class       volVectorField;
    location    "0.5";
    object      U;
}
// * * * * * * * * * * * * * * * * * * * * * * * * * * * * * * * * * * * * * //

dimensions      [0 1 -1 0 0 0 0];

internalField   nonuniform List<vector> 
297
(
(137.955 0.0097358 0.253907)
(137.987 0.000152053 0.255479)
(137.954 -0.00994345 0.253815)
(-2.47716e-06 0.105871 -0.580339)
(-2.47789e-06 -0.000166965 -0.593395)
(-2.46905e-06 -0.106824 -0.580199)
(-137.955 0.00973192 0.253872)
(-137.987 0.000143455 0.255447)
(-137.954 -0.00994796 0.253783)
(137.827 -0.0110489 0.604962)
(137.841 0.000221864 0.617094)
(137.826 0.0109146 0.604755)
(-2.13981e-06 -0.00784272 -0.313579)
(-2.13346e-06 0.000500198 -0.304623)
(-2.13262e-06 0.00672952 -0.313649)
(-137.827 -0.0110574 0.604931)
(-137.84 0.000207629 0.617067)
(-137.826 0.0109089 0.604728)
(130.027 -0.0479904 0.945959)
(130.213 0.00041898 0.963492)
(130.023 0.0478389 0.945722)
(-2.10886e-06 -0.0171006 0.506468)
(-2.10405e-06 0.000432885 0.531742)
(-2.10243e-06 0.0163701 0.50614)
(-130.026 -0.0480098 0.945926)
(-130.212 0.000388757 0.963466)
(-130.023 0.0478292 0.945695)
(92.5726 -2.63973 -3.33818)
(93.928 0.374612 -8.18336)
(92.5923 2.66826 -4.12189)
(0.00223769 -1.14663 3.27523)
(4.50689e-06 0.000108463 3.01368)
(-0.002226 1.15541 3.26973)
(-92.5909 -2.65222 -4.08476)
(-93.927 -0.372168 -8.18158)
(-92.5739 2.65146 -3.37449)
(94.7642 0.423587 8.77423)
(94.9664 1.35824 -14.686)
(95.0515 -3.15343 7.13835)
(0.00485116 1.63296 24.6543)
(-1.43666e-05 0.00252319 16.63)
(-0.00487193 -1.66159 24.6545)
(-95.0509 3.10804 7.09878)
(-94.9653 -1.35992 -14.6857)
(-94.7648 -0.46744 8.82025)
(95.2003 13.9835 -11.035)
(94.4495 2.33274 -15.8046)
(95.5907 -8.54418 -2.03355)
(0.0184845 -1.57354 30.2417)
(-0.000168747 -0.00147339 2.94915)
(-0.0185066 1.56621 30.2416)
(-95.5915 8.54522 -2.00365)
(-94.4856 -2.33111 -15.8068)
(-95.2004 -13.9873 -11.0615)
(94.1963 8.06116 -22.5329)
(94.5256 -1.94695 -16.5639)
(94.4583 -1.01575 -19.3578)
(-0.00921415 0.866093 0.45223)
(-4.53062e-05 0.00852867 -7.86123)
(0.0092961 -0.872685 0.454716)
(-94.4587 1.02028 -19.3291)
(-94.5068 1.94884 -16.5755)
(-94.1954 -8.05311 -22.5623)
(94.1093 12.1923 -17.7043)
(94.147 -2.75292 -21.9067)
(94.7475 -6.60855 -12.4207)
(-0.0181219 1.53607 4.32799)
(-3.0178e-05 0.00852309 0.686168)
(0.0181106 -1.53906 4.3264)
(-94.7469 6.61452 -12.4116)
(-94.1469 2.76419 -21.9136)
(-94.1098 -12.1915 -17.7106)
(94.0756 15.6057 -24.1384)
(93.9122 -6.88156 -22.8831)
(94.3029 -15.7298 -23.1604)
(-0.0283277 -0.458952 14.0252)
(-0.000218741 0.00290108 6.66286)
(0.0279114 0.455729 14.0198)
(-94.3019 15.7312 -23.1595)
(-93.9115 6.88382 -22.8844)
(-94.0766 -15.6037 -24.1384)
(87.9489 17.8043 -18.8211)
(89.9633 1.35927 -11.6353)
(89.7374 -10.2814 -16.934)
(-0.0108436 -1.77445 38.9466)
(-0.000567597 0.006663 -22.1049)
(0.010702 1.76483 38.9438)
(-89.7266 10.3129 -16.9075)
(-87.9634 -1.26701 -11.5891)
(-87.9627 -17.7754 -18.8494)
(86.0529 12.0978 -22.0641)
(91.4622 -0.140315 -9.41347)
(87.5118 -4.37469 -18.9095)
(-0.0098523 -1.9151 42.1912)
(-0.000444411 0.0109426 -21.1136)
(0.00978596 1.90312 42.1848)
(-87.6223 4.40753 -18.8928)
(-89.9973 0.164959 -9.44404)
(-85.9836 -12.0632 -22.0894)
(80.9348 10.7572 -21.7265)
(93.4735 -0.260344 -10.2261)
(82.7334 -3.48625 -18.7722)
(-0.00792274 -2.07901 41.2813)
(0.00020161 0.00978032 -17.3687)
(0.00796505 2.06592 41.2751)
(-82.751 3.49714 -18.7525)
(-94.463 0.308433 -10.2455)
(-80.9182 -10.7421 -21.7496)
(92.0662 24.7816 -5.40814)
(92.9323 -7.63223 -8.14271)
(91.6244 -29.0527 -6.83008)
(-0.0112956 -8.41797 13.6154)
(-0.000364046 0.0022188 -5.39235)
(0.0106228 8.4155 13.6105)
(-91.6249 29.0464 -6.82481)
(-92.9323 7.6305 -8.14097)
(-92.0676 -24.7791 -5.40756)
(93.2664 19.9533 -1.35057)
(93.5878 -3.56799 -3.72965)
(93.1391 -23.8776 -1.74327)
(-0.00660786 -10.2785 7.42918)
(-0.000405593 0.00213897 -4.49419)
(0.00583873 10.2779 7.4238)
(-93.1387 23.8715 -1.74038)
(-93.5878 3.56645 -3.7293)
(-93.2678 -19.9513 -1.35004)
(93.9526 3.37945 0.846188)
(94.0971 -2.34679 -1.12398)
(93.9159 -6.58151 2.283)
(-0.00226599 -5.56956 -0.0424479)
(-0.000428608 0.00160473 -0.862687)
(0.00143476 5.5695 -0.0439162)
(-93.9155 6.57727 2.28409)
(-94.0971 2.34754 -1.12303)
(-93.9542 -3.37578 0.845629)
(90.1388 -31.6889 -1.48999)
(91.4121 -36.4149 -4.40397)
(91.675 -38.0748 -5.77143)
(-0.00757639 15.6054 9.75398)
(-0.00747392 13.1662 5.94646)
(-0.00902582 11.8606 7.42694)
(-90.6969 -26.9276 -0.751659)
(-91.5835 -31.6447 -2.90065)
(-91.7586 -33.3816 -3.91369)
(90.7587 -24.8485 4.05128)
(92.1614 -29.3535 3.3745)
(92.7785 -30.4719 1.61601)
(-0.00243847 19.2716 1.85336)
(0.000252837 19.3644 -3.32059)
(-0.000773233 18.9419 -0.601458)
(-91.3642 -20.9769 3.64976)
(-92.2135 -25.2841 3.13304)
(-92.4789 -26.714 1.99455)
(93.3505 -8.25647 7.63016)
(93.8484 -4.19299 7.73779)
(93.8255 4.91754 8.15201)
(-0.000699381 11.2152 -5.29817)
(0.00159402 10.8504 -3.31545)
(-0.00239143 15.0788 -0.628084)
(-93.5391 -4.96452 6.19119)
(-93.7981 -1.21429 6.2123)
(-93.4913 3.76049 7.47727)
(91.7602 33.381 -3.91398)
(91.5834 31.6463 -2.90101)
(90.6949 26.9313 -0.751904)
(0.0107828 -11.8562 7.42689)
(0.00840519 -13.1647 5.94668)
(0.00761321 -15.6073 9.75567)
(-91.6718 38.0779 -5.77069)
(-91.4088 36.418 -4.40391)
(-90.1378 31.6845 -1.48933)
(92.4814 26.7111 1.99512)
(92.2134 25.285 3.13267)
(91.361 20.9802 3.64953)
(0.00241357 -18.9387 -0.601582)
(0.000599599 -19.365 -3.31972)
(0.00242645 -19.2752 1.85636)
(-92.7691 30.4789 1.61685)
(-92.1539 29.3576 3.37619)
(-90.7603 24.8441 4.05274)
(93.4916 -3.7636 7.4777)
(93.7977 1.21614 6.21226)
(93.5376 4.96823 6.19104)
(0.00394098 -15.0762 -0.630915)
(-0.000865552 -10.8513 -3.31797)
(0.000650416 -11.2174 -5.29902)
(-93.8216 -4.90197 8.14936)
(-93.8462 4.19449 7.73795)
(-93.3505 8.25403 7.63067)
(91.1595 15.242 -16.8455)
(89.5766 19.1739 -10.7445)
(92.2999 31.2264 -8.23721)
(0.0570339 8.31324 -3.67084)
(0.0470097 5.4722 4.61057)
(0.0264903 -4.47338 10.7328)
(-90.8715 17.466 -19.5304)
(-89.6345 21.6627 -13.0975)
(-92.2314 34.578 -10.6207)
(91.7094 4.20734 -30.2538)
(91.2937 11.8238 -16.2306)
(93.4714 24.1165 -1.79812)
(0.0505922 4.38658 -7.05742)
(0.0351927 3.05893 8.33153)
(0.0156204 -10.9002 8.36155)
(-91.5503 5.87552 -32.4274)
(-91.1046 11.358 -18.7718)
(-93.5471 25.2786 -2.27629)
(95.1094 2.16978 -39.369)
(91.0602 9.12677 -12.8416)
(92.3551 6.98133 5.53305)
(0.0463507 4.48013 -11.7744)
(0.0252195 -6.48127 19.2513)
(0.011309 -17.4811 11.7648)
(-95.321 3.27165 -41.1644)
(-90.107 5.67151 -15.3051)
(-92.909 17.6007 3.1193)
(93.7843 -6.62302 -55.2236)
(93.2485 1.257 -1.01451)
(92.6626 7.29074 56.6023)
(0.0290426 -6.97731 13.0345)
(0.0247018 7.09742 38.385)
(0.0252838 -2.11387 58.4759)
(-93.9329 -7.34734 -56.3934)
(-93.1677 -0.879489 -8.70451)
(-92.6225 11.6946 58.8351)
(91.8084 -2.17172 -74.2799)
(91.1593 -7.96077 -18.3116)
(90.96 0.0629825 12.0827)
(-0.0265824 -1.17826 30.5336)
(-0.0246233 -0.435421 68.2152)
(-0.02101 -0.71897 86.5305)
(-92.0203 -1.7172 -78.3414)
(-91.1663 -8.48489 -33.084)
(-91.0337 0.41186 -0.247322)
(86.3316 -1.90586 -120.233)
(85.7202 -3.15777 -109.63)
(86.1025 -1.43258 -106.846)
(-0.0889468 -2.02622 176.344)
(-0.0898378 -2.68562 187.38)
(-0.0902752 -1.55338 183.445)
(-86.7458 -1.71615 -122.942)
(-86.0502 -2.77415 -112.925)
(-86.3277 -1.45404 -109.511)
(92.2321 -34.5721 -10.6185)
(89.6366 -21.6577 -13.0943)
(90.8765 -17.4641 -19.5274)
(-0.0241994 4.48015 10.7338)
(-0.0442503 -5.47002 4.61317)
(-0.0540254 -8.31295 -3.66931)
(-92.3006 -31.2295 -8.23782)
(-89.5736 -19.1792 -10.7467)
(-91.1577 -15.2445 -16.8508)
(93.5495 -25.2696 -2.27018)
(91.108 -11.3496 -18.7628)
(91.5739 -5.87321 -32.4162)
(-0.0134091 10.9049 8.36351)
(-0.0326703 -3.05765 8.33659)
(-0.0481681 -4.38631 -7.05363)
(-93.4706 -24.1236 -1.8005)
(-91.2864 -11.833 -16.2363)
(-91.6885 -4.21182 -30.2688)
(92.9119 -17.5856 3.13408)
(90.1103 -5.66411 -15.2853)
(95.3113 -3.26903 -41.1494)
(-0.00916513 17.4836 11.7717)
(-0.0229282 6.47987 19.2575)
(-0.0448575 -4.48001 -11.768)
(-92.3535 -6.99195 5.53091)
(-91.052 -9.14193 -12.8479)
(-95.1065 -2.17687 -39.3877)
(92.6253 -11.6909 58.8378)
(93.1739 0.887559 -8.6974)
(93.9207 7.35281 -56.4009)
(-0.0218576 2.11224 58.4781)
(-0.0212321 -7.09904 38.3851)
(-0.0260774 6.97863 13.0333)
(-92.6586 -7.29544 56.6011)
(-93.2413 -1.26737 -1.01348)
(-93.7756 6.61598 -55.2214)
(91.0318 -0.416957 -0.251324)
(91.1631 8.4736 -33.0898)
(92.0341 1.71011 -78.3587)
(0.0138568 0.718489 86.5286)
(0.0174511 0.436632 68.2113)
(0.0203045 1.1791 30.5303)
(-90.9666 -0.0565946 12.0815)
(-91.1672 7.98011 -18.3216)
(-91.8269 2.1837 -74.272)
(86.3281 1.45381 -109.507)
(86.051 2.77347 -112.919)
(86.7507 1.71583 -122.918)
(0.0898538 1.55326 183.444)
(0.0894137 2.68596 187.377)
(0.0884535 2.02641 176.35)
(-86.103 1.43302 -106.846)
(-85.7208 3.1585 -109.631)
(-86.3366 1.90617 -120.249)
)
;

boundaryField
{
    fuel
    {
        type            fixedValue;
        value           uniform (0 0 0.25);
    }
    primary_air
    {
        type            fixedValue;
        value           uniform (0 0 2.5);
    }
    Secondary_air_RHS
    {
        type            fixedValue;
        value           uniform (0 25 0);
    }
    Secondary_air_LHS
    {
        type            fixedValue;
        value           uniform (0 -25 0);
    }
    outlet
    {
        type            pressureInletOutletVelocity;
        value           nonuniform List<vector> 
18
(
(0 0 -109.507)
(0.0898538 1.55326 183.444)
(0 0 -106.846)
(0 0 -112.919)
(0.0894137 2.68596 187.377)
(0 0 -109.631)
(0 0 -122.918)
(0.0884535 2.02641 176.35)
(0 0 -120.249)
(0 0 -120.233)
(-0.0889468 -2.02622 176.344)
(0 0 -122.942)
(0 0 -109.63)
(-0.0898378 -2.68562 187.38)
(0 0 -112.925)
(0 0 -106.846)
(-0.0902752 -1.55338 183.445)
(0 0 -109.511)
)
;
    }
    stove_body
    {
        type            noSlip;
    }
    frontAndBack
    {
        type            empty;
    }
}


// ************************************************************************* //
