/*--------------------------------*- C++ -*----------------------------------*\
  =========                 |
  \\      /  F ield         | OpenFOAM: The Open Source CFD Toolbox
   \\    /   O peration     | Website:  https://openfoam.org
    \\  /    A nd           | Version:  6
     \\/     M anipulation  |
\*---------------------------------------------------------------------------*/
FoamFile
{
    version     2.0;
    format      ascii;
    class       volScalarField;
    location    "3";
    object      O2;
}
// * * * * * * * * * * * * * * * * * * * * * * * * * * * * * * * * * * * * * //

dimensions      [0 0 0 0 0 0 0];

internalField   nonuniform List<scalar> 
297
(
0
0
0
0
0
0
0
0
0
0
0
0
0
0
0
0
0
0
0
0
0
0
0
0
0
0
0
0.101162
0.138428
0.212796
0.18078
0.203865
0.22634
0.104448
0.14265
0.215277
0
0.0322588
0.0404182
0.0160931
0.14837
0.192575
0
0.0416901
0.0524998
0
0.0288956
0
0.0148492
0.0256846
0.10646
0
0.0362367
0
0.00442824
0.0111765
0.00335063
0
0.0024588
0
0.00579711
0.0143084
0.00423799
9.14852e-07
3.20669e-07
9.0698e-08
1.65637e-06
7.72637e-08
3.78597e-09
1.08117e-06
4.83625e-07
1.01838e-07
4.7336e-11
1.28019e-11
1.59407e-12
9.38804e-11
2.4671e-11
1.45166e-12
6.61613e-11
2.65554e-11
5.81778e-12
0
0.0252138
0
0
0.0024595
0.0442112
0
0.0304001
0
0
0.0249187
0
0
0.00245897
0
0
0.0300458
0
0
0.0242671
0
0
0.00245889
0
0
0.0292732
0
1.99069e-15
7.18597e-16
5.54658e-17
2.46956e-15
8.40574e-16
3.72278e-17
2.37034e-15
1.67957e-15
3.93833e-16
5.07127e-19
2.94966e-19
8.30589e-21
3.64983e-19
3.94188e-19
1.1141e-20
5.27046e-19
1.06599e-18
2.65016e-19
3.83175e-20
7.83951e-20
1.21552e-22
1.79551e-20
2.17737e-19
1.9932e-20
1.02934e-19
1.05737e-18
1.05165e-18
1.33595e-21
4.74627e-26
3.39449e-30
8.57525e-22
7.05829e-24
1.81111e-26
1.56352e-20
1.31049e-22
2.89004e-25
3.16968e-24
3.14978e-26
2.23656e-29
1.24648e-22
7.20076e-23
3.628e-27
2.68302e-20
1.0623e-21
4.53388e-25
8.67853e-23
1.76459e-25
6.38162e-29
4.26902e-21
3.7563e-24
8.57342e-28
8.80618e-19
9.66739e-21
6.78685e-25
1.99626e-29
9.98766e-25
4.69881e-20
1.88209e-29
8.47727e-25
4.46711e-20
4.07018e-29
1.06935e-24
5.2811e-20
5.20514e-32
9.46787e-28
2.03847e-23
1.75465e-30
3.32981e-26
6.40986e-24
7.71585e-32
1.26015e-27
1.97785e-23
4.3348e-32
5.33262e-28
5.62449e-24
3.34988e-31
1.38033e-27
1.85292e-24
7.5023e-32
1.45601e-27
1.22235e-23
8.57495e-38
1.36523e-37
1.26092e-33
2.02705e-37
1.9712e-37
7.54952e-34
2.63231e-37
2.66684e-37
2.43453e-33
3.8119e-39
1.30036e-40
2.52099e-36
1.59321e-37
7.46679e-39
7.79963e-35
2.49165e-38
2.80492e-40
4.34036e-36
1.8291e-41
1.60268e-41
8.88375e-37
8.79048e-38
9.52401e-40
1.67261e-35
4.30728e-41
3.6734e-41
1.68848e-36
2.00591e-42
4.87023e-43
3.61617e-42
3.89431e-38
3.41898e-41
1.64969e-40
3.42063e-42
9.90422e-43
1.24077e-41
2.62796e-43
6.56458e-44
1.18004e-44
2.08079e-38
3.22742e-39
3.92491e-40
2.02263e-43
6.40261e-44
7.47026e-45
3.4427e-44
6.77802e-45
8.4283e-46
9.83002e-39
1.89153e-39
2.41741e-40
6.18687e-44
1.24046e-44
1.51993e-45
5.14932e-34
2.86319e-37
1.18664e-37
5.49696e-30
9.67147e-33
8.52002e-33
7.52105e-29
2.81817e-32
2.42777e-32
1.74699e-33
1.48016e-37
1.1975e-38
9.96303e-31
2.41022e-33
2.83299e-33
2.48988e-29
3.57232e-33
9.40954e-33
1.74446e-33
4.70715e-38
3.33488e-40
1.71854e-30
3.11446e-34
6.23398e-35
1.85132e-29
1.05174e-33
2.28657e-34
1.75947e-38
6.56794e-40
1.08338e-40
1.40858e-34
1.30852e-35
2.89793e-36
1.82509e-34
3.70553e-38
2.71922e-39
5.73789e-40
5.65608e-41
1.14635e-41
7.66261e-35
4.77166e-36
1.50956e-36
1.12677e-39
4.32395e-41
1.53215e-41
1.13097e-40
7.19752e-42
2.21906e-42
3.26997e-35
2.03751e-36
6.42968e-37
2.05904e-40
1.29376e-41
4.12415e-42
)
;

boundaryField
{
    fuel
    {
        type            fixedValue;
        value           uniform 0;
    }
    primary_air
    {
        type            fixedValue;
        value           uniform 0.23;
    }
    Secondary_air_RHS
    {
        type            fixedValue;
        value           uniform 0.23;
    }
    Secondary_air_LHS
    {
        type            fixedValue;
        value           uniform 0.23;
    }
    outlet
    {
        type            inletOutlet;
        inletValue      uniform 0;
        value           nonuniform List<scalar> 
18
(
0
3.26997e-35
0
0
2.03751e-36
0
0
6.42968e-37
0
0
9.83002e-39
0
0
1.89153e-39
0
0
2.41741e-40
0
)
;
    }
    stove_body
    {
        type            fixedValue;
        value           uniform 0;
    }
    frontAndBack
    {
        type            empty;
    }
}


// ************************************************************************* //
