/*--------------------------------*- C++ -*----------------------------------*\
  =========                 |
  \\      /  F ield         | OpenFOAM: The Open Source CFD Toolbox
   \\    /   O peration     | Website:  https://openfoam.org
    \\  /    A nd           | Version:  6
     \\/     M anipulation  |
\*---------------------------------------------------------------------------*/
FoamFile
{
    version     2.0;
    format      ascii;
    class       surfaceScalarField;
    location    "3";
    object      phi;
}
// * * * * * * * * * * * * * * * * * * * * * * * * * * * * * * * * * * * * * //

dimensions      [1 0 -1 0 0 0 0];

internalField   nonuniform List<scalar> 
675
(
1.2709e-05
-4.38581e-05
0.000155056
-1.27172e-05
1.87895e-06
0.000147453
-4.38551e-05
0.000155045
-1.97497e-05
4.38596e-05
0.000139057
1.97528e-05
-1.87876e-06
0.000171275
4.38544e-05
0.000139068
1.27098e-05
0.000155056
-1.27168e-05
0.000147454
0.000155044
7.64988e-06
-6.14263e-05
0.00020867
-7.65748e-06
3.19479e-07
0.000162277
-6.14096e-05
0.000208634
-3.77498e-05
6.14283e-05
5.42446e-05
3.78098e-05
-3.19013e-07
9.6638e-05
6.14087e-05
5.43518e-05
7.65065e-06
0.000208671
-7.65716e-06
0.000162279
0.000208633
2.39771e-06
8.204e-05
-2.50556e-06
4.29475e-05
8.18969e-05
1.20336e-05
-8.20387e-05
-1.18563e-05
-4.29501e-05
-8.1898e-05
2.40082e-06
-2.50345e-06
0.00431617
0.00301109
-0.00410233
0.00446803
0.002451
0.00061631
0.00444695
0.00324102
0.00884144
-0.00283015
0.0023587
0.00425344
-0.00214168
0.0145368
-0.00375051
0.0178124
0.00426295
-0.00386886
0.0044648
0.000875079
0.00393349
0.00500154
0.00611382
-0.0152181
-0.00917588
-0.000453964
0.0152478
0.00513799
-0.0110727
0.00228505
-0.00599341
0.0121803
0.00451122
0.000590944
0.0112655
-0.00485199
0.0323125
0.0049097
-0.0147726
-0.00903895
0.0154144
-0.00995782
0.000340407
0.0139505
-0.0295092
-0.00369877
-0.00559698
0.0248842
0.0150752
-0.0298466
-0.0372532
-0.0139494
0.0773337
0.0224974
0.0054917
-0.0595725
-0.0154958
0.0853806
0.000344146
-0.0290666
-0.0041627
0.0254128
-0.0296169
-0.0190977
-0.0172061
-0.0106308
0.0469353
0.015244
0.00811289
-0.0225978
-0.0198562
-0.0158297
-0.0192562
0.0503311
-0.00200387
0.0174121
0.0162005
-0.0488158
-0.00695834
-0.00736168
-0.056974
0.0774025
0.0150774
0.0149064
-0.0527718
-0.0187929
-0.0101664
0.0463713
0.0149936
-0.0206933
-0.0204555
-0.0205326
0.050604
0.00366405
-0.0085494
-0.00574454
-0.00409925
0.00615714
-0.0209861
-0.00670215
-0.0166483
0.000818599
0.00940866
-0.00257541
-0.020817
-0.00538272
-0.0237958
0.00313798
-0.0157485
0.00474573
-0.00550396
-0.0019493
-0.0193811
-0.0193415
0.0115212
-0.00215715
-0.0150909
0.00066615
0.00239232
-0.0125052
-0.00405434
-0.0119112
0.0058998
0.0100615
-0.02069
0.00086742
0.00107258
-0.0174293
-0.00301631
-0.0159046
0.0190609
-0.0145216
0.0128026
-0.0120513
-0.00953998
-0.000859499
-0.000579337
-0.0353537
0.000578942
-0.000503165
0.023949
-0.000677161
-0.0363981
-0.00340344
0.000594446
0.0675755
0.00158959
0.000501849
-0.0655708
0.000605681
0.0727689
-0.000863231
-0.0348768
0.000556786
0.0244946
-0.0362969
-0.00115471
-0.000183404
-0.0412602
0.00110284
-0.000447132
0.0221386
0.00015784
-0.0432398
-0.00277815
0.000211312
0.0580997
0.00252137
0.000446365
-0.0717642
-0.000256208
0.0628759
-0.00115254
-0.0407404
0.00106473
0.0227237
-0.0433154
-0.00186085
0.000185424
0.00112789
-0.000706451
0.000377838
-0.0023542
-0.00016794
0.00186451
0.000712796
-0.00051248
-0.00187117
0.00110976
0.00303517
-0.000753138
-0.00615622
-0.0112136
-0.00618362
-0.000377361
-0.00290594
-0.000938662
-0.00607904
-0.0110793
0.00479955
0.00125136
-0.0131792
-0.0143155
-0.00439605
0.000661211
-0.00927132
0.000589131
-0.0104503
-0.0113774
0.00696257
-0.00826044
-0.0119752
-0.00122789
-0.00319849
-0.0025332
-0.00764108
0.00120616
0.000706569
-0.000516205
-0.00754981
-0.00412573
0.00111468
0.00131387
4.26515e-05
-0.00226262
-0.00798606
0.00176264
0.000126848
-0.00481298
-0.0095498
-0.00292216
-5.27446e-05
-0.00341896
-8.03262e-05
-0.00476612
-0.00848291
0.00133798
-0.00147482
-0.00799872
-0.0032767
0.00136543
-0.00041389
-0.00547219
-0.000855933
0.00121359
-0.000871171
-0.000764532
0.00122449
0.000513801
-0.00353981
0.000837941
-0.000534851
-0.00390317
-0.000892244
-0.000465082
-9.7105e-05
-0.00504731
-0.000173189
-0.00183786
0.000730002
0.000222967
-0.0102117
-0.00019686
-0.000670392
-0.0103122
0.00118339
-0.00108555
0.00152824
-0.00357516
-0.0082704
-0.0110919
0.00012359
-0.000605119
-0.00927608
-0.00109809
0.000466305
-0.0011854
0.00112865
-0.00769002
-0.00689064
-0.000625463
-0.00701533
-0.00097224
-0.00418744
-0.00401114
-0.00806339
-0.000208827
-0.000383552
-0.00803596
0.000529279
-0.00164332
0.000425637
-0.00415495
-0.00788586
-0.00936029
-2.70464e-05
9.26452e-05
-0.00825817
-0.000486526
0.000382713
-3.00451e-05
0.00105831
-0.00773058
-0.00582605
-0.00029768
-0.00604587
-0.00123789
-0.00519428
-0.00506712
-0.00376779
-0.000155704
-0.00470099
-0.000710343
-0.000966569
-0.00788986
-0.00507909
-2.76336e-05
-0.00546562
6.34658e-05
0.000807279
-0.00617968
-0.000102137
-0.00127597
-0.00566114
0.0101029
0.00141606
-0.00427404
-0.00724541
0.0101525
0.00137874
-0.00142815
-6.17499e-05
-0.000998776
0.0112746
-0.00140687
0.00112567
-0.00957783
0.0136231
-0.00139451
0.000424317
0.000180313
-0.000934805
0.0107402
-0.00448303
-0.00766458
0.0106957
-0.00135058
-0.00109942
0.00776228
0.000274491
-0.00502038
-0.0072911
0.0079891
0.000686269
-0.00234124
5.70315e-05
-0.000615984
0.00934772
-0.000210889
0.00136503
-0.00910233
0.010799
-0.000650771
0.000309588
0.000152371
0.000218793
0.008301
-0.00529793
-0.00769732
0.00853825
-0.00223884
-0.00040783
0.00370416
-0.000947777
-0.00777756
0.00177543
-0.000412533
0.000288779
0.00415864
0.0010246
-0.00476681
0.00338955
0.000665684
-6.20273e-06
0.00382574
-0.00809899
0.00225239
-0.00166398
0.00146546
0.000197764
0.00207103
0.0015877
-0.00532331
0.00109233
-0.00626721
-0.00105789
-0.00153212
0.00405473
0.00497011
-0.00165187
-0.00278911
-0.0011717
-0.00234418
-0.00170203
0.000169299
0.00227463
-0.00562904
-0.0065622
-0.000705307
0.00148292
-0.000580624
0.00419809
0.00139321
-0.0116207
0.000744245
-0.0101051
2.37001e-05
-0.00152738
0.00704062
0.00514385
-0.0014458
-0.00507097
-0.000803678
-0.00475538
-0.000657232
-0.000701249
0.00449552
-0.0122279
-0.010568
-0.00306975
0.00136639
0.00112199
0.00651256
0.00363052
-0.0248342
0.00159421
-0.0129651
-0.000257698
-0.00139405
0.010058
0.00446928
-0.00381189
-0.00235634
-0.00157807
-0.00188141
-0.00318349
0.00108775
0.00683994
-0.0260637
-0.0134054
0.0100021
0.0085088
-0.0173943
-0.00164029
0.0102245
-0.023422
0.010224
-0.0248352
-0.00215247
-0.00834303
0.0290558
-0.00416464
-0.0101178
0.0199914
-0.00995774
0.0141285
0.0103987
-0.0176563
-0.00183239
-0.0239533
-0.0251987
0.00379777
0.00719509
-0.0283919
0.00353276
0.00664463
-0.0298064
0.00725017
-0.0285574
0.00590596
-0.00695378
0.0372925
0.00390173
-0.00640874
0.0350428
-0.0070267
0.0323009
0.00391172
-0.0285258
0.00349248
-0.0299468
-0.028737
0.000540265
0.0192678
-0.000242475
0.0192307
0.0194312
0.0032521
-0.0191735
0.00273606
-0.0191358
-0.0193317
0.000555564
-0.000216668
-0.0054584
0.00134155
-0.00415885
-0.00338387
0.00129158
-0.00337022
0.00137415
-0.00476189
-0.00468817
-0.000912608
-0.000747413
-0.00266754
-0.00101837
0.000289701
-0.000973287
-0.000320605
-0.000155947
-0.0047666
0.00132162
-0.00249497
0.000349079
-0.0050072
0.00081028
-0.00785251
-0.00233367
0.00119221
-0.00724012
0.0013735
-0.00847309
-0.00520101
-0.000374883
-0.00209169
-0.00216927
-0.000627094
-0.000922772
-0.000915793
-0.000201319
-0.00247603
-0.00773135
0.000242626
-0.00583954
-0.000323059
-0.00388518
0.00116665
-0.0130279
-0.00289384
0.00206638
-0.0103031
0.00267653
-0.0140479
-0.00548783
-0.00115566
-0.000462366
-0.00230693
-0.00172154
-0.000316998
-0.00114862
0.00131561
-0.00123769
-0.0133095
0.000502668
-0.00930028
-0.000967784
0.000527312
0.00876286
-0.0223561
0.00304963
0.00895228
-0.0218132
0.0100078
-0.021036
0.00170955
-0.0105302
0.0171007
0.000791655
-0.00997007
0.019495
-0.00947148
0.0215501
-0.00392205
-0.0199203
-0.00425234
-0.0189387
-0.0146871
-0.00105695
0.00608577
-0.0273969
-0.000724388
0.00565437
-0.0278128
0.00576024
-0.0275344
-0.00121331
-0.00854983
0.032939
-0.00177141
-0.0083278
0.0340277
-0.00879117
0.0343249
-0.00204574
-0.0264215
-0.00228911
-0.0270204
-0.0257645
0.000115128
0.0197019
-6.26772e-05
0.0196168
0.0196511
-0.000877241
-0.0203164
-0.000948766
-0.0202217
-0.0203548
-2.84687e-05
-0.000555641
)
;

boundaryField
{
    fuel
    {
        type            calculated;
        value           nonuniform List<scalar> 
36
(
0.000124069
0.000206738
0.000124069
0.000124069
0.000206738
0.000124069
0.000124069
0.000206738
0.000124069
-0.000124069
-0.000206738
-0.000124069
-0.000124069
-0.000206738
-0.000124069
-0.000124069
-0.000206738
-0.000124069
0
0
0
0
0
0
0
0
0
0
0
0
0
0
0
0
0
0
)
;
    }
    primary_air
    {
        type            calculated;
        value           nonuniform List<scalar> 9(-0.00322506 -0.00535887 -0.00322446 -0.00321891 -0.00535539 -0.00321839 -0.00321806 -0.00535741 -0.00321751);
    }
    Secondary_air_RHS
    {
        type            calculated;
        value           nonuniform List<scalar> 9(0.00780764 0.0129183 0.00784252 0.00778672 0.0128283 0.00782696 0.0078413 0.0128587 0.00788584);
    }
    Secondary_air_LHS
    {
        type            calculated;
        value           nonuniform List<scalar> 9(0.00728334 0.0119878 0.00726787 0.0072446 0.0118592 0.00722743 0.00735051 0.0119914 0.00733412);
    }
    outlet
    {
        type            calculated;
        value           nonuniform List<scalar> 
18
(
-0.0472156
0.0738383
-0.0467089
-0.047253
0.0739419
-0.0467146
-0.0472488
0.0733861
-0.0466747
-0.0482015
0.0724788
-0.0482571
-0.0482559
0.0739225
-0.0483127
-0.0482325
0.073797
-0.0482877
)
;
    }
    stove_body
    {
        type            calculated;
        value           uniform 0;
    }
    frontAndBack
    {
        type            empty;
        value           nonuniform 0();
    }
}


// ************************************************************************* //
