/*--------------------------------*- C++ -*----------------------------------*\
  =========                 |
  \\      /  F ield         | OpenFOAM: The Open Source CFD Toolbox
   \\    /   O peration     | Website:  https://openfoam.org
    \\  /    A nd           | Version:  6
     \\/     M anipulation  |
\*---------------------------------------------------------------------------*/
FoamFile
{
    version     2.0;
    format      ascii;
    class       volScalarField;
    location    "3";
    object      Qdot;
}
// * * * * * * * * * * * * * * * * * * * * * * * * * * * * * * * * * * * * * //

dimensions      [1 -1 -3 0 0 0 0];

internalField   nonuniform List<scalar> 
297
(
0
0
-0.000140627
0
0
-0.000426506
-0.000140627
-0.00035388
-0.000213253
0
0
0
0
0
-0.000426506
0
-0.000213253
0
-0.000213253
-0.000140627
0
-8.78919e-06
-2.66566e-05
0
0
-0.000140627
0
-1.88643e-11
-3.77286e-11
0
0
0
0
0
-3.77286e-11
1.02666e-09
2.56665e-10
-4.71607e-12
0
0
0
8.75744e-10
0
0
5.13329e-10
2.56665e-10
0
0
-4.71607e-12
1.02666e-09
0
0
0
0
0
5.13329e-10
0
0
1.02666e-09
5.13329e-10
0
-4.71607e-12
0
-1.43923e-16
-2.87846e-16
-7.19616e-17
0
0
0
0
-2.87846e-16
0
-7.0275e-20
0
-2.19609e-21
0
-7.0275e-20
0
0
0
0
0
0
0
0
0
-1.88643e-11
0
0
0
0
0
0
0
1.02666e-09
0
0
0
0
2.56665e-10
0
0
0
0
5.13329e-10
0
-4.71607e-12
0
0
-1.07231e-24
0
0
0
0
0
0
0
0
-5.23589e-28
0
0
0
0
0
0
-5.23589e-28
0
0
0
0
0
0
0
0
0
0
0
0
0
0
0
0
0
0
0
0
-3.04769e-38
0
0
0
0
0
0
0
0
-1.21908e-37
0
0
-1.95052e-36
0
-1.63622e-29
-9.98667e-34
0
0
-6.54487e-29
0
0
0
0
0
0
0
0
-3.19574e-32
0
0
0
0
0
0
0
0
-7.98934e-33
0
-3.90104e-36
0
0
-1.95052e-36
0
0
0
0
-4.54141e-46
0
0
-4.54141e-46
0
-3.72033e-42
0
-2.21749e-49
0
0
0
0
0
0
0
0
0
0
0
0
0
0
0
0
0
0
0
0
0
0
0
0
0
0
0
0
0
0
0
0
-1.08276e-52
0
0
0
0
0
0
0
-1.08276e-52
0
0
0
-4.54141e-46
0
0
0
0
-1.21908e-37
0
0
0
0
0
0
0
-7.44065e-42
0
0
0
0
0
0
0
-9.30081e-43
0
-3.04769e-38
0
0
-2.83838e-47
0
0
-4.65041e-43
0
0
0
0
0
0
0
0
0
0
0
0
0
-2.77186e-50
0
0
0
0
0
4.10663e-09
0
0
0
)
;

boundaryField
{
    fuel
    {
        type            calculated;
        value           uniform 0;
    }
    primary_air
    {
        type            calculated;
        value           uniform 0;
    }
    Secondary_air_RHS
    {
        type            calculated;
        value           uniform 0;
    }
    Secondary_air_LHS
    {
        type            calculated;
        value           uniform 0;
    }
    outlet
    {
        type            calculated;
        value           uniform 0;
    }
    stove_body
    {
        type            calculated;
        value           uniform 0;
    }
    frontAndBack
    {
        type            empty;
    }
}


// ************************************************************************* //
