/*--------------------------------*- C++ -*----------------------------------*\
  =========                 |
  \\      /  F ield         | OpenFOAM: The Open Source CFD Toolbox
   \\    /   O peration     | Website:  https://openfoam.org
    \\  /    A nd           | Version:  6
     \\/     M anipulation  |
\*---------------------------------------------------------------------------*/
FoamFile
{
    version     2.0;
    format      ascii;
    class       volVectorField;
    location    "3";
    object      U;
}
// * * * * * * * * * * * * * * * * * * * * * * * * * * * * * * * * * * * * * //

dimensions      [0 1 -1 0 0 0 0];

internalField   nonuniform List<vector> 
297
(
(12.729 0.0198403 0.284969)
(12.7295 -2.40867e-05 0.253893)
(12.729 -0.0198545 0.284935)
(-5.69315e-10 -0.0279066 0.251416)
(-5.04197e-10 -3.10213e-06 0.247095)
(-4.19799e-10 0.0279084 0.251398)
(-12.7291 0.0198421 0.284971)
(-12.7295 -2.0425e-05 0.253893)
(-12.7289 -0.0198537 0.284934)
(12.7288 0.0128319 0.298643)
(12.7305 -1.02873e-05 0.269435)
(12.7288 -0.0128498 0.298623)
(-5.9009e-10 -0.0847096 -0.00170278)
(-5.02954e-10 0.0001724 0.203626)
(-3.94463e-10 0.0847659 -0.0012136)
(-12.7289 0.0128338 0.298645)
(-12.7305 -6.66932e-06 0.269436)
(-12.7288 -0.0128492 0.298621)
(12.7256 0.0240699 0.491231)
(12.7314 -0.00037819 0.431194)
(12.7256 -0.024243 0.491192)
(-4.10347e-10 0.022355 0.267749)
(-4.48077e-10 -0.000776731 0.0864224)
(-2.47255e-10 -0.0219432 0.26742)
(-12.7257 0.0240758 0.49124)
(-12.7311 -0.000356013 0.431188)
(-12.7255 -0.0242417 0.491185)
(81.0832 -12.8335 -14.7844)
(60.5713 16.0489 4.9163)
(25.904 17.0896 12.8164)
(-0.0016102 0.0028455 6.05501)
(-0.000910017 5.48634 6.80973)
(-0.000581097 9.04702 11.7053)
(-81.4743 -13.3143 -14.8534)
(-60.0636 15.7231 3.84014)
(-25.9367 17.1033 11.7812)
(133.078 -71.5615 47.7702)
(89.3058 10.9554 85.81)
(67.2207 -21.5119 79.8267)
(-0.00408193 -33.2514 215.431)
(-0.00127726 18.4041 136.175)
(-0.00200711 -7.40122 119.497)
(-136.839 -76.2879 52.9831)
(-86.6867 11.6666 89.4127)
(-61.7675 -18.9153 82.7603)
(130.264 -165.283 -8.50921)
(80.9842 35.4357 183.266)
(75.5789 -8.65377 -21.6197)
(0.0105781 -79.9513 279.862)
(0.00138156 -18.5943 -9.70498)
(-0.000113434 17.0689 163.156)
(-133.851 -172.001 -0.303586)
(-80.229 36.1515 182.494)
(-71.8823 -12.6198 -16.9083)
(83.3104 -73.6658 -251.472)
(45.7226 -5.36328 -29.3242)
(47.0787 18.6953 -136.22)
(-0.0167089 -172.266 0.433354)
(-0.00347345 15.6298 -125.377)
(0.0186992 -10.6896 46.8051)
(-85.4569 -76.0701 -254.439)
(-47.9273 -6.61866 -28.1649)
(-44.6455 20.3417 -121.814)
(73.697 2.23505 -182.175)
(19.5561 9.04641 -78.9697)
(19.7002 -32.7693 -88.2915)
(-0.00782237 -68.0612 -139.377)
(-0.000717339 -9.58002 -73.2568)
(0.00659092 -16.9755 -80.5922)
(-77.1033 -7.75445 -180.858)
(-23.045 16.0025 -84.6583)
(-14.0617 -19.8022 -72.6693)
(8.6439 20.87 -14.988)
(8.63604 4.41873 -12.039)
(8.62523 -15.5024 -17.4399)
(-0.00117943 13.0018 -11.1216)
(-0.000626402 1.93554 -16.4525)
(0.00185847 -10.1909 -15.8953)
(-8.64935 18.4671 -13.9575)
(-8.64058 12.9262 -12.1549)
(-8.62596 -3.34925 -14.8596)
(113.649 -176.622 -521.926)
(67.485 21.8901 182.177)
(70.7712 -0.173043 -285.333)
(-0.0463417 -121.43 406.534)
(-0.00137965 -20.951 -139.76)
(0.0567464 7.90692 239.934)
(-116.494 -184.751 -529.626)
(-65.8907 21.7534 181.709)
(-67.3601 -3.20663 -270.381)
(101.763 -114.406 -450.287)
(69.9955 14.0949 175.713)
(57.1389 10.6504 -235.495)
(-0.0531011 -120.864 458.92)
(-0.00190211 -7.1599 -143.929)
(0.0768544 9.22038 264.403)
(-104.373 -119.428 -457.836)
(-68.3628 13.3771 175.359)
(-54.0362 9.82981 -220.441)
(92.7561 -118.54 -391.692)
(69.5752 -8.14019 160.529)
(53.3996 8.23821 -209.246)
(-0.058288 -180.621 510.046)
(-0.0024635 -0.603867 -139.355)
(0.0936137 -1.40945 312.28)
(-95.2441 -123.123 -397.545)
(-67.9052 -10.8892 161.234)
(-50.7387 7.54174 -194.155)
(8.61083 29.3851 -9.54875)
(8.61659 -8.91147 -7.56471)
(8.59705 -28.5065 -6.9228)
(-0.00123815 20.2165 -8.84785)
(-0.00097957 -0.971132 -6.37899)
(-0.000212902 -16.7247 -6.62715)
(-8.61262 30.6741 -10.1726)
(-8.62503 11.6598 -7.30928)
(-8.59941 -21.5918 -5.52077)
(8.6364 17.3454 -0.45985)
(8.62771 -7.38499 0.229727)
(8.61771 -18.1349 -2.74895)
(-0.000823897 9.23354 -2.19907)
(-0.000944424 -1.93227 -3.3075)
(-0.000855622 -10.1507 -1.89143)
(-8.63853 16.4955 -1.31598)
(-8.62514 -6.74903 -0.182865)
(-8.61825 -15.1355 -0.533337)
(8.63248 -4.50991 -3.96567)
(8.62292 -1.59677 0.125297)
(8.624 -1.30606 -4.13079)
(-0.000804917 1.67729 -4.75377)
(-0.000901965 0.631115 -1.94635)
(-0.000862926 -4.40303 -3.78406)
(-8.64396 -0.704548 -5.70046)
(-8.62791 -2.58211 1.12952)
(-8.62892 1.89205 0.546137)
(8.5941 -30.4022 -3.59476)
(8.61462 -28.5889 -5.74281)
(8.60605 -24.2337 -7.59554)
(-0.000629034 -18.9623 -3.6693)
(-0.000284918 -17.4234 -3.85357)
(-0.000667535 -13.9991 -3.99244)
(-8.59709 -21.7019 -4.62153)
(-8.609 -17.3013 -6.8548)
(-8.59861 -12.0926 -9.02675)
(8.60815 -23.4891 -0.782689)
(8.62215 -24.7701 -5.74422)
(8.59903 -21.5981 -10.6398)
(-0.00050192 -15.4186 1.32124)
(8.83673e-05 -15.5044 1.55081)
(-0.000309023 -12.9681 1.94024)
(-8.61389 -17.3031 -2.10496)
(-8.61555 -17.0437 -5.549)
(-8.58899 -13.949 -12.2052)
(8.62814 -10.4934 -4.45166)
(8.62908 -15.671 -10.5671)
(8.59954 -19.288 -15.2592)
(0.000397401 -8.72375 0.555751)
(0.00136245 -8.97618 1.01923)
(0.00128604 -10.5826 -0.139381)
(-8.62559 3.2602 4.42162)
(-8.61822 -2.60173 -3.33617)
(-8.59287 -12.6811 -14.7556)
(8.61035 22.0088 -11.9154)
(8.62554 27.1874 -8.85135)
(8.60842 31.2742 -6.25452)
(0.000207841 17.0944 -6.19696)
(-0.000359715 22.0684 -5.89908)
(-0.000609445 24.1373 -5.20456)
(-8.61042 23.2705 -12.4907)
(-8.62817 28.8031 -9.52245)
(-8.60852 33.2579 -6.73808)
(8.60833 21.0438 -11.1807)
(8.63567 24.0895 -5.01736)
(8.62985 23.1156 -0.398249)
(-0.00020678 14.9857 1.19705)
(-0.000633076 18.343 1.99174)
(-0.000699265 18.1067 2.01833)
(-8.60904 22.2528 -11.8466)
(-8.63973 25.7288 -5.41227)
(-8.62798 24.836 -0.129761)
(8.61124 18.1557 -17.0738)
(8.6395 12.5661 -12.7474)
(8.64468 1.12429 -4.40397)
(-0.000691094 9.33815 0.533745)
(-0.000754624 7.6249 1.15038)
(-0.000810171 5.74377 0.42395)
(-8.61438 19.2188 -17.9579)
(-8.64404 13.0168 -12.2123)
(-8.64924 3.37069 -3.84149)
(8.61788 -3.94837 -6.72095)
(8.61741 2.01348 -16.4201)
(8.60233 12.7736 -20.163)
(0.000780251 -2.94782 0.444136)
(0.000868362 3.31883 -7.5286)
(0.000706294 10.5214 -8.2741)
(-8.62087 -3.93635 -7.20224)
(-8.61672 2.45626 -17.2707)
(-8.60227 13.4204 -21.1977)
(8.61622 0.896548 4.78094)
(8.6156 4.09506 -19.1125)
(8.60272 14.4428 -21.3665)
(0.000723981 -1.13214 9.88894)
(0.000745456 4.23516 -5.44418)
(0.000389107 10.2072 -4.51968)
(-8.61595 1.34173 5.01909)
(-8.61469 4.52797 -20.2318)
(-8.60339 15.0834 -22.5076)
(8.60887 1.56088 -0.420868)
(8.65271 3.30646 -21.7794)
(8.62492 10.8093 -26.9323)
(0.000654022 -1.33228 13.5927)
(0.000687916 4.18087 -8.72014)
(0.000121786 6.43464 -6.24381)
(-8.60826 1.84503 -1.0738)
(-8.65404 3.63346 -22.9442)
(-8.62472 11.0338 -28.2977)
(8.60996 3.51521 -2.90515)
(8.62165 2.94714 -30.3329)
(8.6177 -9.95534 -46.1174)
(-0.000352124 1.28372 46.2227)
(-0.00043878 2.67607 26.7207)
(-0.000502101 -12.0375 16.5732)
(-8.61318 3.85698 -3.27107)
(-8.62449 2.55011 -31.7758)
(-8.62014 -9.96502 -46.7828)
(8.52586 0.616281 -99.0087)
(8.52089 -0.09807 -104.935)
(8.52892 5.84802 -99.2621)
(-0.000581848 1.2949 71.4576)
(-0.000592652 1.88956 62.4149)
(-0.000550195 0.273058 55.2227)
(-8.52611 0.507266 -99.5136)
(-8.52298 0.00942218 -105.562)
(-8.53014 5.89038 -100.125)
(8.19989 0.110427 -139.539)
(8.19584 0.0730988 -139.739)
(8.1954 -0.0489077 -139.653)
(-0.000535456 0.780445 184.004)
(-0.000539501 1.18024 187.557)
(-0.000545905 0.33333 187.328)
(-8.20167 0.114518 -139.741)
(-8.19765 0.0826248 -139.946)
(-8.19722 -0.0436026 -139.854)
(8.59778 -16.3892 -11.2458)
(8.59231 -11.2198 -9.59234)
(8.59202 -7.75021 -12.8907)
(-0.00333158 -9.847 -4.67206)
(-0.00667438 -5.20839 -3.28265)
(-0.00843493 -1.79668 -4.06326)
(-8.59583 -6.79141 -13.1121)
(-8.60209 -1.36201 -8.20718)
(-8.60689 7.66292 -3.52217)
(8.59091 -16.5679 -17.4511)
(8.5941 -8.63791 -13.9916)
(8.59483 -3.57441 -17.1596)
(-0.00264524 -10.3903 -0.626414)
(-0.00564523 -5.50707 2.05468)
(-0.00753248 -0.628954 1.52286)
(-8.58714 -9.89916 -17.3583)
(-8.59422 -7.59468 -10.2926)
(-8.60411 6.83424 0.659425)
(8.60501 -11.7193 -23.5794)
(8.60839 -7.27962 -18.0661)
(8.61728 -1.75204 -19.12)
(-0.00164946 -9.50466 -2.35957)
(-0.00424229 -6.56268 -1.52278)
(-0.00616118 -1.03969 0.618368)
(-8.60912 -6.57073 -22.7797)
(-8.60854 -8.59373 -13.0213)
(-8.60164 1.4287 4.58638)
(8.60934 9.59804 -37.8249)
(8.60543 0.285219 -33.5763)
(8.60659 1.66756 -31.2312)
(0.00244772 7.94716 23.4397)
(0.0018605 -2.10158 27.613)
(0.00167671 -0.790491 32.1056)
(-8.5945 5.22103 -26.09)
(-8.58873 -2.37152 -17.9557)
(-8.58331 -2.76088 -0.202153)
(8.52772 -4.25406 -95.7398)
(8.529 0.878219 -97.3116)
(8.52527 -0.691318 -96.0894)
(0.00630197 0.817853 57.8697)
(0.0068374 -0.929905 60.7719)
(0.00731043 -0.626617 62.6842)
(-8.50621 -2.86951 -92.7784)
(-8.49965 -0.136585 -95.5809)
(-8.50283 -0.158795 -90.1326)
(8.1939 0.0299777 -136.001)
(8.19408 0.0101432 -136.136)
(8.1954 -0.00956788 -136.121)
(0.00342085 0.191483 186.967)
(0.00347178 -0.494034 187.131)
(0.00359567 -0.264696 185.795)
(-8.1821 -0.0144624 -134.189)
(-8.18195 -0.137999 -134.21)
(-8.18303 -0.118673 -134.068)
)
;

boundaryField
{
    fuel
    {
        type            fixedValue;
        value           uniform (0 0 0.25);
    }
    primary_air
    {
        type            fixedValue;
        value           uniform (0 0 2.5);
    }
    Secondary_air_RHS
    {
        type            fixedValue;
        value           uniform (0 66.6667 0);
    }
    Secondary_air_LHS
    {
        type            fixedValue;
        value           uniform (0 -66.6667 0);
    }
    outlet
    {
        type            pressureInletOutletVelocity;
        value           nonuniform List<vector> 
18
(
(0 0 -136.001)
(0.00342085 0.191483 186.967)
(0 0 -134.189)
(0 0 -136.136)
(0.00347178 -0.494034 187.131)
(0 0 -134.21)
(0 0 -136.121)
(0.00359567 -0.264696 185.795)
(0 0 -134.068)
(0 0 -139.539)
(-0.000535456 0.780445 184.004)
(0 0 -139.741)
(0 0 -139.739)
(-0.000539501 1.18024 187.557)
(0 0 -139.946)
(0 0 -139.653)
(-0.000545905 0.33333 187.328)
(0 0 -139.854)
)
;
    }
    stove_body
    {
        type            noSlip;
    }
    frontAndBack
    {
        type            empty;
    }
}


// ************************************************************************* //
