/*--------------------------------*- C++ -*----------------------------------*\
  =========                 |
  \\      /  F ield         | OpenFOAM: The Open Source CFD Toolbox
   \\    /   O peration     | Website:  https://openfoam.org
    \\  /    A nd           | Version:  6
     \\/     M anipulation  |
\*---------------------------------------------------------------------------*/
FoamFile
{
    version     2.0;
    format      ascii;
    class       volScalarField;
    location    "3";
    object      O2;
}
// * * * * * * * * * * * * * * * * * * * * * * * * * * * * * * * * * * * * * //

dimensions      [0 0 0 0 0 0 0];

internalField   nonuniform List<scalar> 
297
(
0
0
0
0
0
0
0
0
0
0
0
0
0
0
0
0
0
0
0
0
0
0
0
0
0
0
0
0.0669318
0.0835487
0.155991
0.16541
0.161345
0.206322
0.0631383
0.0772238
0.142693
0
7.93433e-06
0.0213823
0.078036
0.126346
0.108085
0
5.94182e-06
0.00954066
0
0
0
0.0504698
0.0245532
0.0750615
0
0
0
0
2.1489e-10
0
0
0
0
4.68853e-05
1.3325e-09
0
0
0
0
0
0
0
0
0
0
0
0
0
0
0
0
0
0
0
0
0
0
0.00726144
5.42036e-07
0.0307728
0
0
0
0
0
0
0
0
0.0103937
0
2.68402e-08
0
0
0
0
0
0
0
0
0
0
0
0
0
0
0
0
0
0
0
7.63398e-22
2.89814e-17
1.57028e-16
0
0
0
0
0
0
6.56146e-21
1.30718e-17
2.56905e-16
0
0
0
8.84988e-19
2.42618e-18
0
0
3.44456e-18
7.75081e-19
0
1.89641e-17
7.07808e-20
0
0
3.91138e-24
0
1.05842e-18
7.97636e-19
0
0
0
0
0
0
1.05859e-16
7.33935e-17
4.78727e-17
0
0
0
0
0
0
2.86225e-21
0
0
5.3568e-20
0
0
4.92894e-20
2.35113e-18
0
9.40288e-21
8.99953e-21
0
1.7524e-20
0
0
4.92792e-20
1.6136e-18
1.17132e-19
1.89096e-20
1.24211e-20
5.5729e-21
1.19252e-19
1.59204e-19
1.80055e-19
1.4352e-18
2.30873e-18
1.37393e-18
3.81279e-25
1.61997e-25
6.33934e-25
1.85466e-20
8.69415e-21
1.09409e-20
4.51786e-20
4.85061e-20
4.9e-20
5.82817e-25
2.2497e-25
9.369e-25
1.86089e-20
8.89076e-21
1.13157e-20
4.55429e-20
5.00058e-20
5.04957e-20
6.29836e-25
2.49303e-25
9.73658e-25
2.85742e-20
2.68144e-20
8.24967e-20
4.58232e-20
5.20598e-20
9.59466e-19
2.67963e-25
2.93709e-25
7.51114e-25
2.11172e-20
2.3568e-20
5.06779e-20
4.62054e-20
1.17776e-19
4.81719e-19
1.82245e-25
3.03213e-25
8.91188e-25
1.71155e-20
2.73395e-20
3.99871e-20
4.98958e-20
1.65417e-19
4.85376e-19
1.05928e-25
2.18759e-25
6.08134e-25
1.89417e-20
6.0441e-20
1.65011e-19
3.65678e-20
1.4981e-19
4.97883e-19
8.62667e-19
8.78254e-19
8.97695e-19
1.5978e-19
1.27236e-19
2.98271e-19
1.09387e-23
7.68802e-24
1.00659e-23
8.68495e-19
8.89353e-19
9.22818e-19
1.82208e-19
1.51387e-19
3.03396e-19
1.21412e-23
7.38479e-24
1.24058e-23
3.53443e-17
8.92623e-19
9.29108e-19
4.29673e-22
2.78352e-20
3.97349e-19
1.43039e-23
7.05956e-24
1.16386e-23
1.6735e-17
1.47844e-18
9.49972e-19
3.84155e-21
7.76732e-21
1.77224e-19
1.67944e-23
7.02271e-24
6.00381e-24
1.42111e-17
3.58675e-18
9.64635e-19
2.87961e-20
1.72921e-19
1.84268e-19
1.80485e-23
6.64248e-24
2.81405e-24
1.3026e-17
3.70278e-18
8.65806e-19
3.43369e-18
1.1948e-18
3.6734e-19
1.89075e-23
6.43701e-24
2.00132e-24
)
;

boundaryField
{
    fuel
    {
        type            fixedValue;
        value           uniform 0;
    }
    primary_air
    {
        type            fixedValue;
        value           uniform 0.23;
    }
    Secondary_air_RHS
    {
        type            fixedValue;
        value           uniform 0.23;
    }
    Secondary_air_LHS
    {
        type            fixedValue;
        value           uniform 0.23;
    }
    outlet
    {
        type            inletOutlet;
        inletValue      uniform 0;
        value           nonuniform List<scalar> 
18
(
0
3.43369e-18
0
0
1.1948e-18
0
0
3.6734e-19
0
0
1.89417e-20
0
0
6.0441e-20
0
0
1.65011e-19
0
)
;
    }
    stove_body
    {
        type            fixedValue;
        value           uniform 0;
    }
    frontAndBack
    {
        type            empty;
    }
}


// ************************************************************************* //
