/*--------------------------------*- C++ -*----------------------------------*\
  =========                 |
  \\      /  F ield         | OpenFOAM: The Open Source CFD Toolbox
   \\    /   O peration     | Website:  https://openfoam.org
    \\  /    A nd           | Version:  6
     \\/     M anipulation  |
\*---------------------------------------------------------------------------*/
FoamFile
{
    version     2.0;
    format      ascii;
    class       surfaceScalarField;
    location    "3";
    object      phi;
}
// * * * * * * * * * * * * * * * * * * * * * * * * * * * * * * * * * * * * * //

dimensions      [1 0 -1 0 0 0 0];

internalField   nonuniform List<scalar> 
675
(
-7.18296e-08
-3.9042e-05
0.000166667
-1.26889e-06
-3.92743e-05
0.000168025
-3.94124e-05
0.000165697
3.05677e-06
3.90288e-05
0.000129991
4.48352e-07
3.92667e-05
0.000135189
3.94048e-05
0.000132751
-6.18659e-08
0.000166644
-1.28721e-06
0.000168046
0.000165671
1.93282e-06
-6.35595e-05
0.000228304
-3.36025e-06
-5.62163e-05
0.00022954
-6.25952e-05
0.000224935
1.47519e-05
6.35676e-05
-1.19257e-05
-9.39015e-06
5.62052e-05
4.68866e-05
6.26075e-05
-1.96119e-06
1.96203e-06
0.00022826
-3.39892e-06
0.000229621
0.000224883
-7.73456e-06
0.000108491
1.81428e-06
9.24537e-05
9.91708e-05
-6.16335e-06
-0.000108486
1.45547e-05
-9.24507e-05
-9.91625e-05
-7.77196e-06
1.85719e-06
0.00623378
0.00475318
-0.00780366
0.00716291
0.00521487
-0.00296931
0.00795004
0.00237697
-0.000300682
-0.00549852
0.015798
-0.00429074
-0.00603929
0.0204637
-0.00900433
0.0178642
0.00612839
-0.00844907
0.00717499
-0.00391921
0.00132012
0.0119078
0.00658576
-0.0263154
0.0093305
0.0036874
-0.00409941
0.00808525
0.00360741
0.0039509
-0.0066597
0.0250783
0.00818388
-0.00373782
0.0236387
-0.00928577
0.0433903
0.0146269
-0.029741
0.0112865
-0.00432116
0.00331907
-0.00836468
0.0247397
-0.0426608
-0.00859066
0.011816
-0.0156243
0.018006
-0.0229785
-0.0489126
-0.0238066
0.12255
0.0416692
-0.0123544
-0.0427162
-0.0196777
0.122775
-0.00494175
-0.0486327
-0.00486963
-0.0167471
-0.0212128
-0.020466
-0.00887155
-0.0244175
0.0538251
0.00272693
0.00277319
-0.0436196
0.0176715
-0.00997666
-0.0246701
0.0374827
0.0157802
0.0194468
0.0489073
-0.0929211
-0.00359852
-0.00225943
-0.0298084
0.0543097
0.0083735
0.068431
-0.0902665
-0.00747714
-0.0321304
0.0591122
0.00952152
-0.0387769
0.0195272
-0.0167642
0.0347214
-0.00316042
-0.00751759
-0.0136379
-0.010034
-0.00604684
-0.0306647
-0.0130179
-0.0216469
0.0179232
0.00851872
0.0150151
-0.00904676
0.00726669
-0.0160912
0.00569327
0.0407356
0.00477017
-0.0283823
0.00197423
-0.0287209
-0.00904848
0.011381
-0.00933206
-0.0156804
-0.00143083
0.00221553
-0.0201677
-0.00536063
-0.017776
0.000896208
0.000306681
0.00441241
-0.00304464
0.000952704
-0.0109532
0.0125855
0.0197079
-0.0107812
-0.017388
-0.0192058
-0.0193721
-0.0157395
-0.000710791
-0.00250634
-0.0453698
-0.00139631
-0.000939303
-0.0139943
-0.00230961
-0.0280072
-0.00352839
0.00214047
0.111954
0.00270759
0.000541224
-0.0504322
0.00199573
0.111561
-0.000837025
-0.0515636
-0.000853632
-0.0161855
-0.0260134
-0.000999979
-0.000600833
-0.0496832
-0.000528295
-0.000401055
-0.0140609
-0.00145408
-0.0330143
-0.00159675
0.0010285
0.10248
0.00229898
-0.000119822
-0.054608
0.00129418
0.101525
-0.000943912
-0.0554764
7.05655e-05
-0.0173244
-0.0305848
-0.00192765
0.000155811
-0.000282315
0.00196725
-0.00174132
-0.00130116
0.00154396
0.00171755
-0.0013465
0.00163795
-0.000697616
0.000158259
0.00747394
-0.00381784
-0.0040053
-0.0153442
-0.00429447
-0.00112929
-0.00728881
-0.00125126
-0.00445365
-0.0163922
-0.00255508
0.00151808
-0.00403238
0.00562988
-0.00206928
0.000597435
-0.0131941
0.00459099
0.0104852
0.00130945
0.00353124
-0.0040908
-0.0152896
-0.00828004
-0.00696058
-0.00311326
-0.0162635
0.00996578
0.000657697
-0.000433781
-0.014204
-0.000983821
0.00190955
0.00173021
0.00180485
0.00452408
-0.0117559
0.0003425
-0.00287824
-0.00406467
0.00321862
-0.00263692
-0.00150405
-0.00682867
0.000666303
0.00471801
0.0042877
0.00172996
0.00379481
-0.0124932
-0.00896271
0.00223715
0.00117819
-0.0125458
0.0022299
0.00287888
-0.00555686
0.000507407
0.0034302
0.00296091
0.00208261
-0.0028948
-0.00399571
0.00569795
-0.00305118
-0.0032538
-0.00225322
0.00690833
-0.000725213
0.000526298
-0.00173033
-0.00277017
-0.0175647
-0.000236141
0.00141043
-0.0175339
-0.00184337
0.00181761
-0.00158343
0.00197008
-0.0179145
-0.0031384
0.00198189
0.00225189
-0.00442974
-0.00149419
0.000934855
-0.00286723
0.00285258
-0.00601581
-0.0155939
0.00131227
-0.0170385
-4.91107e-05
-0.00689783
-0.0130106
-0.0125835
-0.000484799
0.00271988
-0.0124746
2.74093e-06
0.00170817
-0.00030083
0.00186713
-0.012066
0.00376895
0.00166381
0.000610791
0.00324137
-0.00111657
0.00258499
-0.000148107
0.00733808
-0.00135864
-0.0121032
0.00255334
-0.0134584
0.000188705
-0.00995728
-0.0105479
0.00478961
1.78908e-05
0.00645588
4.611e-05
-0.00128589
0.00960442
0.00795866
-0.000429348
0.0114646
-0.000897949
0.00145292
0.0160461
-0.000644992
-0.0013579
-0.00986199
0.0163542
0.00295164
-0.00766279
-0.011635
0.0150751
-8.95027e-05
0.00136644
-0.00305977
0.0027792
0.00229012
0.00153436
0.0044787
-0.00533909
-0.00197252
0.00179244
0.00234445
0.000636652
-4.24746e-05
0.0172023
0.00218631
-0.0178494
0.0167048
0.00228879
0.00206061
0.013833
-5.29894e-05
-0.0102203
-0.0112156
0.0130535
0.00123992
0.000910195
-0.00180446
0.00343363
-0.00195778
0.000699881
0.00776634
-0.00207885
-0.00156526
0.000283
0.0029183
0.000314786
-0.000507728
0.0125752
0.00236146
-0.0120414
0.0129981
0.00215628
0.00288575
0.00230252
-0.00186573
-0.0106476
0.00232448
0.00089451
0.000203919
-0.00979506
0.00129178
0.0144168
-0.00590357
-6.75546e-05
-0.000504054
-0.00500768
0.00867011
-0.00291191
-0.00407009
0.00302059
0.00105727
0.00410341
0.00296336
-0.0111302
0.00253331
-0.0100595
0.00232681
-0.00186421
0.00257006
0.00370049
-8.49274e-05
0.00168581
-0.000944729
0.00185056
0.0121141
-0.0139669
0.0187986
-0.00676152
1.17525e-05
-0.00254084
0.0024001
0.00120694
0.0057373
0.00264958
-0.0220461
0.0016608
-0.0171922
0.00234607
-0.00149703
0.00413544
0.00391604
0.000245284
0.00253253
-0.000782182
0.00614212
0.00897499
-0.0244269
0.0134538
-0.0109874
0.000648645
-0.00456942
0.00150352
0.00428051
0.00933357
0.00640461
-0.0423447
0.00201023
-0.0205078
-0.0029154
-0.00420592
0.0127813
-0.00618031
0.000579651
0.0116287
0.00133913
0.0150601
0.00994526
-0.0385668
0.00261778
-0.00307366
0.0132826
0.0183573
0.0111317
-0.0252099
-0.00279641
0.0161546
-0.0373167
0.0154079
-0.0386792
-0.00891206
-0.00157431
0.034447
-0.00780769
0.00386221
0.0228403
0.00297363
0.019718
0.00701863
-0.0471308
0.0154814
-0.00764534
0.0317222
0.00829775
0.00644431
-0.0399694
0.00545101
0.00668531
-0.0411726
0.00733461
-0.0405811
0.0120346
-0.0027352
0.0315517
0.0134704
-0.00327573
0.0313778
0.00112107
0.0393837
-0.00448799
-0.0453941
0.00208643
-0.0175032
0.0348874
0.000887108
0.0142834
1.38008e-05
0.0151762
0.0146816
0.00552329
-0.023243
0.00537316
-0.0222255
-0.0210031
-0.0161564
-0.0159567
-0.0187539
0.000990759
-0.000149474
-0.0120421
0.000165833
-0.00687837
0.00193619
-0.0139812
-0.00380237
-0.00264397
0.00139578
-0.00258523
-0.00299033
0.00190765
-0.00306176
0.00237014
-0.00465379
-0.0109989
0.00464865
-0.0122935
0.00157469
-0.0133941
0.000911597
0.000268973
-0.00895361
-8.95035e-05
-0.01123
0.00155962
-0.0244962
-0.00382865
-0.00136211
0.00610104
-0.00354639
-0.00162329
0.00311322
-0.00246227
0.00279504
-0.00568323
-0.0172226
0.00162797
-0.0212299
0.000732024
-0.0017816
-0.00124798
0.0128963
-0.00964986
-0.000418271
-0.0029431
0.00424779
-0.0384
0.00795549
-0.00160092
0.01444
0.00292441
-0.00459543
0.0123966
-0.00170004
0.0116272
-0.00809625
-0.0205942
0.00343565
-0.0373626
0.00247779
-0.016113
-0.0024503
0.0313932
-0.00697633
-0.00344422
-0.00869838
0.00158575
-0.047047
0.00592614
-0.0157912
0.021733
0.00827271
-0.0169511
0.0235091
-0.0125758
0.0339306
0.00188818
-0.0381242
-0.0151785
-0.0371112
-0.0251105
-0.00190018
-0.00108411
0.0344109
0.0043191
0.00305805
-0.0179447
0.00285947
-0.0455611
-0.0133366
-0.0071776
0.0411966
-0.0124001
-0.0068889
0.0325214
-0.00688309
0.0313053
-0.00478514
-0.0405042
-0.00780597
-0.0410564
-0.0397846
0.016242
0.0206163
0.0163068
0.0219852
0.0231673
-0.00467262
-0.0142144
-0.00474728
-0.0148165
-0.0142095
-8.98626e-07
-0.000833855
)
;

boundaryField
{
    fuel
    {
        type            calculated;
        value           nonuniform List<scalar> 
36
(
0.000127539
0.000211105
0.000127539
0.000127539
0.000211105
0.000127539
0.000127539
0.000211105
0.000127539
-0.000127539
-0.000211105
-0.000127539
-0.000127539
-0.000211105
-0.000127539
-0.000127539
-0.000211105
-0.000127539
0
0
0
0
0
0
0
0
0
0
0
0
0
0
0
0
0
0
)
;
    }
    primary_air
    {
        type            calculated;
        value           nonuniform List<scalar> 9(-0.00319407 -0.00527983 -0.0031954 -0.00319426 -0.00528091 -0.00319621 -0.00319415 -0.00528262 -0.00319619);
    }
    Secondary_air_RHS
    {
        type            calculated;
        value           nonuniform List<scalar> 9(0.00594821 0.00962044 0.00595191 0.0059385 0.00959187 0.00594266 0.00593251 0.00959954 0.00593752);
    }
    Secondary_air_LHS
    {
        type            calculated;
        value           nonuniform List<scalar> 9(0.00593301 0.00948203 0.0059041 0.00591961 0.00944435 0.00588694 0.00591792 0.00947363 0.00588125);
    }
    outlet
    {
        type            calculated;
        value           nonuniform List<scalar> 
18
(
-0.00246187
0.0806941
-0.0547444
-0.0400263
0.0693639
-0.0550683
-0.0524527
0.0638958
-0.0548512
-0.0551577
0.0635272
-0.0524951
-0.0554931
0.0689006
-0.039938
-0.0552667
0.0804221
-0.00208592
)
;
    }
    stove_body
    {
        type            calculated;
        value           uniform 0;
    }
    frontAndBack
    {
        type            empty;
        value           nonuniform 0();
    }
}


// ************************************************************************* //
