/*--------------------------------*- C++ -*----------------------------------*\
  =========                 |
  \\      /  F ield         | OpenFOAM: The Open Source CFD Toolbox
   \\    /   O peration     | Website:  https://openfoam.org
    \\  /    A nd           | Version:  6
     \\/     M anipulation  |
\*---------------------------------------------------------------------------*/
FoamFile
{
    version     2.0;
    format      ascii;
    class       volScalarField;
    location    "3";
    object      T;
}
// * * * * * * * * * * * * * * * * * * * * * * * * * * * * * * * * * * * * * //

dimensions      [0 0 0 1 0 0 0];

internalField   nonuniform List<scalar> 
297
(
291.496
291.487
291.495
293.006
293
293.003
291.496
291.487
291.495
291.687
291.524
291.605
294.398
293.278
293.774
291.687
291.52
291.605
292.428
291.757
292.22
308.658
295.259
312.468
292.425
291.758
292.218
378.09
368.672
333.217
330.021
333.543
319.964
379.106
371.117
338.743
412.117
409.634
387.012
371.767
349.794
338.487
411.193
409.184
390.813
412.151
401.995
470.262
388.834
399.787
386.651
411.178
401.814
489.361
377.939
347.942
395.802
433.823
417.411
445.562
376.151
367.349
403.242
385.24
347.546
369.629
433.76
413.684
445.545
346.821
366.785
404.48
355.135
327.645
340.527
433.654
365.526
445.538
321.96
353.583
384.231
413.654
362.643
476.395
406.037
415.082
416.774
410.594
375.3
496.673
398.82
347.91
429.943
418.316
414.964
422.989
397.776
367.531
441.934
386.876
345.322
417.098
431.023
415.169
442.955
387.053
367.412
427.137
317.794
314.533
310.801
371.668
358.189
445.574
307.204
322.01
331.093
305.609
305.921
306.331
309.546
336.588
430.664
303.388
319.656
322.736
305.2
305.65
306.382
313.091
328.168
361.622
305.718
318.807
317.677
301.112
300.917
300.454
321.452
305.389
305.058
304.371
303.637
304.265
306.334
302.378
302.177
414.747
370.019
329.953
317.431
305.907
306.383
306.462
305.385
310.453
363.09
360.423
347.962
315.77
309.158
309.259
303.158
303.186
313.853
304.734
339.311
371.516
299.45
303.437
305.459
303.724
303.352
305.798
309.092
322.251
310.12
301.837
302.704
303.324
304.217
303.981
305.153
313.131
314.567
312.138
304.146
303.287
303.79
303.956
303.482
303.056
303.345
304.517
304.336
297.905
300.054
299.239
303.98
303.14
302.644
303.628
304.563
304.526
298.527
301.851
301.657
304.116
302.829
302.232
303.948
306.575
309.485
298.363
302.714
304.18
302.441
302.531
301.486
303.063
306.014
307.294
298.231
300.15
298.919
298.977
298.855
297.869
299.636
303.359
303.532
294.75
294.68
296.996
291.86
291.854
291.188
292.372
290.252
286.981
290.959
290.927
300.273
300.322
301.212
300.972
304.51
304.659
304.094
303.353
304.027
303.669
301.655
301.938
300.594
304.565
304.731
304.202
303.35
304.1
303.885
311.522
302.533
299.898
334.982
318.411
307.476
302.586
303.674
304.544
304.966
300.844
297.393
319.668
311.819
304.812
301.745
303.325
302.874
300.674
295.859
295.085
310.73
307.522
302.774
294.553
296.521
298.238
303.462
291.895
291.195
291.118
291.791
293.42
291.107
291.824
291.881
)
;

boundaryField
{
    fuel
    {
        type            fixedValue;
        value           uniform 293;
    }
    primary_air
    {
        type            fixedValue;
        value           uniform 293;
    }
    Secondary_air_RHS
    {
        type            fixedValue;
        value           uniform 293;
    }
    Secondary_air_LHS
    {
        type            fixedValue;
        value           uniform 293;
    }
    outlet
    {
        type            inletOutlet;
        inletValue      uniform 293;
        value           nonuniform List<scalar> 
18
(
293
291.116
293
293
291.793
293
293
293.422
293
293
292.369
293
293
290.25
293
293
286.978
293
)
;
    }
    stove_body
    {
        type            fixedValue;
        value           uniform 293;
    }
    frontAndBack
    {
        type            empty;
    }
}


// ************************************************************************* //
