/*--------------------------------*- C++ -*----------------------------------*\
  =========                 |
  \\      /  F ield         | OpenFOAM: The Open Source CFD Toolbox
   \\    /   O peration     | Website:  https://openfoam.org
    \\  /    A nd           | Version:  6
     \\/     M anipulation  |
\*---------------------------------------------------------------------------*/
FoamFile
{
    version     2.0;
    format      ascii;
    class       volScalarField;
    location    "0.01";
    object      O2;
}
// * * * * * * * * * * * * * * * * * * * * * * * * * * * * * * * * * * * * * //

dimensions      [0 0 0 0 0 0 0];

internalField   nonuniform List<scalar> 
3773
(
0
0
0
0
0
0
0
0
0
0
0
0
0
0
0
0
0
0
0
0
0
0
0
0
0
0
0
0
0
0
0
0
0
0
0
0
0
0
0
0
0
0
0
0
0
0
0
0
0
0
0
0
0
0
0
0
0
0
0
0
0
0
0
0
0
0
0
0
0
0
0
0
0
0
0
0
0
0
0
0
0
0
0
0
0
0
0
0
0
0
0
0
0
0
0
0
0
0
0
0
0
0
0
0
0
0
0
0
0
0
0
0
0
0
0
0
0
0
0
0
0
0
0
0
0
0
0
0
0
0
0
0
0
0
0
0
0
0
0
0
0
0
0
0
0
0
0
0
0
0
0
0
0
0
0
0
0
0
0
0
0
0
0
0
0
0
0
0
0
0
0
0
0
0
0
0
0
0
0
0
0
0
0
0
0
0
0
0
0
0
0
0
0
0
0
0
0
0
0
0
0
0
0
0
0
0
0
0
0
0
0
0
0
0
0
0
0
0
0
0
0
0
0
0
0
0
0
0
0
0
0
0
0
0
0
0
0
0
0
0
0
0
0
0
0
0
0
0
0
0
0
0
0
0
0
0
0
0
0
0
0
0
0
0
0
0
0
0
0
0
0
0
0
0
0
0
0
0
0
0
0
0
0
0
0
0
0
0
0
0
0
0
0
0
0
0
0
0
0
0
0
0
0
0
0
0
0
0
0
0
0
0
0
0
0
0
0
0
0
0
0
0
0
0
0
0
0
0
0
0
0
0
0
0
0
0
0
0
0
0
0
0
0
0.00173578
0.000699965
0.000673615
0.00065667
0.000709128
0.00110321
0.00232865
0.00220634
0.00114258
0.000863373
0.000960117
0.0010738
0.00163155
0.00263598
0.00456469
0.00364948
0.00338673
0.00328675
0.00322893
0.00332242
0.00427006
0.00924164
0.00889413
0.00943526
0.0105083
0.00918221
0.00882144
0.00909688
0.0055152
0.00437498
0.00408319
0.00399615
0.00392957
0.00425946
0.00549185
0.00273073
0.00157395
0.00136514
0.00134196
0.00126797
0.00135762
0.00243122
0.00206221
0.000967255
0.000801504
0.000822827
0.000925705
0.00104596
0.00196558
0.000262041
7.36962e-07
1.22121e-06
3.41187e-06
1.5474e-05
4.64743e-05
0.00133181
0.000844699
8.70564e-05
1.32113e-05
8.38111e-06
2.78581e-05
2.29967e-05
0.00124941
0.00407428
0.00228091
0.00220778
0.00213148
0.0019646
0.00214051
0.00362279
0.0065095
0.00613237
0.00683107
0.00795151
0.00692677
0.00625183
0.00671004
0.00475947
0.00247986
0.00181049
0.0016633
0.0018775
0.00248414
0.00469869
0.00120277
0.00031519
0.000100695
1.97811e-05
6.11277e-06
1.1167e-05
0.000918131
0.000126789
5.23031e-05
3.15467e-05
1.87322e-05
1.05263e-05
5.26502e-06
0.000375281
0.000125689
8.21331e-07
1.37646e-06
3.33598e-06
2.14198e-05
9.98651e-05
0.000825354
0.000653005
5.04498e-05
1.23638e-05
2.48427e-05
8.89378e-05
0.000131921
0.000904825
0.00374226
0.00161753
0.0012526
0.00144285
0.00129618
0.00139942
0.00333361
0.00510483
0.00404078
0.00406903
0.00392387
0.00434066
0.00420861
0.00490693
0.00322877
0.00160433
0.00111611
0.00112961
0.00103016
0.00133622
0.00308782
0.000351633
0.000348987
0.000237832
8.98167e-05
1.77298e-05
1.06145e-05
0.000549697
3.24624e-06
4.63227e-06
3.74458e-06
4.1275e-06
4.02969e-06
2.09785e-06
0.000116459
2.82861e-05
8.20161e-07
9.91487e-07
1.4725e-06
3.98762e-06
2.70317e-05
0.000113197
0.000444762
1.1026e-05
9.06246e-06
3.82218e-05
0.000128147
0.000289236
0.000616426
0.00225915
0.000971891
0.000663276
0.00070617
0.000776267
0.00110635
0.00280516
0.00364975
0.00269132
0.00241002
0.00289183
0.00229101
0.0026883
0.00342929
0.00220149
0.00102784
0.000659611
0.000707329
0.000690519
0.000855204
0.0015849
5.09137e-05
6.64765e-05
6.90562e-05
5.81239e-05
2.98982e-05
4.83601e-06
0.000255067
3.22574e-06
5.11789e-06
3.40177e-06
1.62084e-06
8.67865e-07
3.0956e-07
3.82955e-05
1.8687e-07
1.01355e-06
9.75285e-07
1.4094e-06
8.21902e-07
1.80855e-07
3.86252e-08
7.82059e-05
4.03911e-06
7.76832e-06
1.53548e-05
2.61941e-05
6.13507e-05
0.000151483
0.00134423
0.000708438
0.000469813
0.000497298
0.000434026
0.000678451
0.0014561
0.00205067
0.00171134
0.00135008
0.00141309
0.00138906
0.00141999
0.00180166
0.00154051
0.000747069
0.000515188
0.000449614
0.000364942
0.000548697
0.000992814
7.98512e-05
8.72216e-05
3.10047e-05
8.94012e-06
2.82193e-06
1.13263e-06
0.000117459
4.09895e-06
6.33859e-06
3.76821e-06
1.54387e-06
5.02422e-07
4.21387e-07
1.10729e-05
1.64958e-07
1.06352e-06
1.39933e-06
1.78032e-06
1.2736e-06
3.23347e-07
0
5.95704e-07
4.43302e-06
1.04612e-05
1.43142e-05
1.80764e-05
8.53852e-06
1.84669e-06
0.000662294
0.00040824
0.000284926
0.000308201
0.000304324
0.000528321
0.00105443
0.00123872
0.00107197
0.00099718
0.00109755
0.00101683
0.00111865
0.00118638
0.000917237
0.000509889
0.000324489
0.00024447
0.000162819
0.000192548
0.000372531
8.48781e-05
9.26475e-05
5.30481e-05
1.41097e-05
5.00397e-06
1.4122e-06
1.8282e-05
3.87059e-06
7.10791e-06
3.55693e-06
1.83829e-06
6.95185e-07
2.99029e-07
2.39784e-06
0
8.78726e-07
1.66332e-06
2.11723e-06
1.54579e-06
3.39056e-07
0
0
7.34029e-06
1.93362e-05
3.12505e-05
3.2157e-05
2.08469e-05
8.67299e-06
0.000312908
0.000153752
0.000128031
0.000193753
0.000222686
0.000322087
0.000515968
0.000946552
0.000678025
0.000560062
0.000660985
0.000628471
0.00063584
0.000826025
0.000418209
0.000260958
0.000180438
0.000145178
0.000106482
0.000106773
0.00016204
1.36675e-05
2.57607e-05
2.58909e-05
2.01475e-05
7.58563e-06
3.36239e-06
7.21707e-07
0
1.34458e-06
1.30518e-06
1.99561e-06
1.9257e-06
7.10911e-07
1.33312e-06
1.19332e-08
1.05375e-09
6.76691e-08
9.69328e-08
5.30015e-08
1.83237e-08
6.68268e-09
2.27623e-09
5.31381e-07
4.16112e-06
8.31538e-06
3.6062e-06
2.06138e-07
8.3126e-09
0
3.63932e-05
4.27891e-05
5.27796e-05
2.53829e-05
1.11375e-06
0
1.78038e-07
0.000282675
0.000280764
0.00032323
0.00028308
0.00021872
0
0
2.09061e-05
3.97676e-05
5.7501e-05
5.09343e-05
4.26441e-05
0
5.52404e-10
1.47356e-06
3.55011e-06
4.06113e-06
3.14571e-06
1.0919e-06
0
1.42888e-09
2.21394e-09
1.1226e-08
7.02063e-08
1.13142e-07
4.90278e-07
0
4.78608e-10
9.50647e-10
1.07772e-07
1.42083e-07
5.14322e-08
1.09084e-08
1.84413e-09
2.56677e-08
9.17867e-08
3.16414e-06
6.08883e-06
5.13931e-07
4.06333e-08
4.90482e-09
3.17502e-09
1.56395e-05
2.13638e-05
1.90413e-05
6.28545e-06
7.18666e-07
3.38572e-09
2.17565e-06
0.000150733
0.000108167
0.000214282
0.000130619
0.00012674
2.17345e-09
2.13244e-10
1.52791e-06
1.16677e-05
2.19276e-05
2.44488e-05
2.35592e-05
1.70298e-07
5.30307e-10
8.55449e-08
9.01888e-07
1.68879e-06
1.19396e-06
3.93693e-07
7.2087e-08
8.76729e-10
3.4877e-09
2.19912e-08
1.44501e-07
5.99718e-08
9.45915e-08
4.72892e-09
5.10369e-10
1.71646e-09
8.86441e-09
1.29654e-08
1.13408e-08
6.77714e-09
1.63259e-09
8.29053e-09
1.53177e-08
7.49882e-08
1.46292e-07
9.61031e-08
4.54034e-08
1.10769e-08
1.52249e-07
6.44682e-06
8.84692e-06
8.9241e-06
2.99077e-06
5.33117e-06
1.78215e-08
1.0239e-06
6.08517e-05
6.24185e-05
0.000100298
8.03913e-05
4.95235e-05
4.95277e-08
5.40002e-10
8.48917e-07
3.27145e-06
8.40003e-06
9.22881e-06
1.04026e-05
6.82196e-07
1.30969e-09
9.45847e-09
1.19643e-07
6.20914e-07
3.21883e-07
1.42993e-07
4.26772e-08
1.67143e-09
4.20096e-09
5.74454e-09
8.53857e-09
2.45863e-08
2.796e-08
4.11986e-09
7.89343e-10
3.14928e-09
6.80673e-09
1.20685e-08
1.87391e-08
1.44807e-08
3.72849e-09
3.40455e-09
1.74416e-08
2.37241e-08
5.37985e-08
9.93508e-08
6.86746e-08
1.93918e-08
1.86353e-07
2.79032e-06
3.87157e-06
4.95204e-06
7.03902e-06
7.06173e-06
1.1621e-07
4.15379e-07
3.46343e-05
3.78676e-05
4.05395e-05
3.71554e-05
2.86541e-05
5.00956e-08
1.67777e-09
4.92799e-06
1.48976e-06
3.44233e-06
4.5209e-06
3.85913e-06
4.62077e-07
2.92653e-09
1.39183e-08
5.55051e-08
2.88925e-07
4.66411e-07
1.59432e-07
2.19562e-08
2.04076e-09
5.47726e-09
7.6341e-09
7.69971e-09
8.2871e-09
2.32032e-08
2.41061e-09
9.70975e-10
3.46934e-09
5.43889e-09
1.52811e-08
2.70586e-08
1.73336e-08
5.71218e-09
1.69539e-08
2.52329e-08
2.00534e-08
1.26994e-07
3.45181e-07
1.43127e-07
3.21802e-08
2.04348e-07
1.05308e-06
1.34762e-06
2.15103e-06
4.75064e-06
3.85688e-06
1.16928e-07
1.21523e-07
1.80447e-05
2.52883e-05
2.48611e-05
2.19041e-05
1.48102e-05
4.08784e-08
1.47396e-09
2.59285e-06
1.74137e-06
1.42499e-06
2.03354e-06
1.66341e-06
3.4763e-07
6.16921e-09
2.01535e-08
6.79024e-08
2.08105e-07
3.38306e-07
2.39261e-07
4.74473e-08
2.28284e-09
5.78148e-09
1.02191e-08
1.26957e-08
1.54389e-08
3.57112e-08
5.85349e-09
8.35011e-10
2.09893e-09
3.49329e-09
1.46802e-08
1.26728e-08
6.19856e-09
3.97951e-09
2.63464e-08
9.9725e-09
1.48469e-08
1.25181e-07
3.76918e-07
1.82789e-07
1.94754e-08
1.52754e-07
3.57558e-07
4.09572e-07
7.14291e-07
1.5534e-06
1.08584e-06
8.24573e-08
4.32341e-08
5.49732e-06
8.04932e-06
1.28646e-05
1.06341e-05
5.1036e-06
5.30386e-08
2.43214e-09
5.94989e-07
4.87318e-07
7.61925e-07
8.54629e-07
7.45937e-07
2.30669e-07
8.83843e-09
1.89505e-08
5.74023e-08
1.27827e-07
1.78218e-07
1.93905e-07
7.51584e-08
2.3907e-09
5.35787e-09
9.12207e-09
1.50138e-08
1.71814e-08
1.70122e-08
1.93523e-08
2.67003e-10
5.31685e-10
1.05056e-09
1.50144e-09
2.9665e-09
3.11218e-09
1.67247e-09
6.60077e-09
2.40623e-09
1.05977e-08
2.79105e-08
4.32006e-08
3.17863e-08
5.60725e-09
4.08379e-08
1.20554e-07
3.48827e-07
2.02591e-07
2.13294e-07
2.04835e-07
7.98464e-08
2.01802e-07
3.85064e-06
5.26228e-06
8.26567e-06
4.34051e-06
2.8981e-06
1.75476e-07
6.1251e-09
4.07875e-08
5.97403e-08
1.07755e-07
1.70652e-07
1.74272e-07
6.10062e-08
2.54339e-09
4.8801e-09
9.34053e-09
1.76906e-08
2.14581e-08
2.31968e-08
3.20535e-08
7.05114e-10
4.68503e-10
2.11163e-09
3.98725e-09
4.08248e-09
4.30211e-09
9.25674e-09
0
3.35759e-07
9.20108e-07
1.48039e-06
1.02143e-06
2.04598e-07
0
0
1.24055e-05
1.70853e-05
2.75385e-05
2.10971e-05
3.41882e-06
0
0
7.83617e-05
6.99665e-05
0.00010483
0.0001256
7.14806e-05
0
0.000504326
0.000463261
0.000533591
0.000610811
0.000415337
0.000442589
0.000334746
0
0.00010457
0.000111432
8.71158e-05
6.19446e-05
4.5433e-05
0
0
1.07441e-05
1.6435e-05
2.09266e-05
1.47905e-05
9.29723e-06
0
0
4.89015e-07
9.26794e-07
2.34502e-06
3.64524e-06
4.5549e-06
0
0
5.66608e-08
6.42367e-07
9.46145e-07
5.91165e-07
1.03552e-07
0
0
8.40217e-06
1.35876e-05
2.32057e-05
1.75697e-05
2.50878e-06
0
0
7.35033e-05
6.86619e-05
0.000101729
0.000111754
5.27027e-05
0
0.000402543
0.000453034
0.00052834
0.000602085
0.000411949
0.000418394
0.00022029
0
9.61445e-05
0.00010563
8.59298e-05
6.07384e-05
4.32413e-05
0
0
8.89169e-06
1.28624e-05
1.40589e-05
1.03876e-05
7.86738e-06
0
0
3.34432e-07
6.58594e-07
1.54067e-06
2.51827e-06
2.57892e-06
0
0
9.12354e-09
5.45241e-07
7.7681e-07
4.75725e-07
7.77887e-08
0
0
6.51884e-06
1.24853e-05
2.17716e-05
1.57837e-05
1.4861e-06
0
0
6.9709e-05
6.43526e-05
9.85932e-05
0.000103836
4.10022e-05
0
0.000286869
0.000446166
0.000519642
0.0005903
0.000407079
0.000403576
2.33096e-06
0
9.12274e-05
0.000101181
8.26602e-05
5.76785e-05
4.01221e-05
0
0
7.9729e-06
1.17508e-05
1.26076e-05
9.3314e-06
7.88492e-06
0
0
2.72028e-07
5.40957e-07
1.48642e-06
1.93935e-06
2.42333e-06
0
0
0
3.97008e-07
6.90815e-07
4.60171e-07
6.94823e-08
0
0
3.8399e-06
1.10749e-05
1.92473e-05
1.39451e-05
1.03396e-06
0
0
6.36351e-05
6.41307e-05
9.26008e-05
9.72564e-05
3.0729e-05
0
9.10318e-06
0.000433516
0.000511716
0.000573466
0.000396826
0.000374599
0
0
8.32971e-05
9.34229e-05
7.90286e-05
5.69124e-05
4.12993e-05
0
0
6.51217e-06
1.07115e-05
1.25881e-05
9.95558e-06
8.61254e-06
0
0
2.08207e-07
4.29045e-07
1.55621e-06
2.12928e-06
2.90956e-06
0
0
0
3.32877e-07
6.416e-07
4.53748e-07
5.33933e-08
0
0
2.88625e-06
1.00794e-05
1.64554e-05
1.15307e-05
4.94701e-07
0
0
6.38741e-05
6.62352e-05
9.17314e-05
7.97494e-05
2.18098e-05
0
0
0.000425295
0.000503966
0.000564405
0.000389147
0.000359426
0
0
7.69025e-05
8.99525e-05
7.68513e-05
5.76266e-05
4.38721e-05
0
0
5.58853e-06
1.01291e-05
1.26465e-05
1.07126e-05
7.54057e-06
0
0
1.83201e-07
3.72544e-07
1.53775e-06
2.86881e-06
2.25752e-06
0
0
0
1.69493e-07
3.3415e-07
2.64598e-07
3.67909e-08
0
0
2.45705e-06
8.46695e-06
1.32328e-05
9.41468e-06
2.08513e-07
0
0
6.53926e-05
7.02302e-05
9.16689e-05
7.1019e-05
1.42781e-05
0
0
0.000408227
0.000489147
0.000545208
0.00037288
0.000326645
0
0
6.87967e-05
8.14832e-05
7.37686e-05
6.07458e-05
4.87611e-05
0
0
4.20605e-06
9.04767e-06
1.08037e-05
1.10827e-05
7.3971e-06
0
0
9.86398e-08
2.06101e-07
1.28524e-06
3.64969e-06
2.35198e-06
0
0
0
9.75915e-08
2.19332e-07
1.84668e-07
2.93927e-08
0
0
1.52849e-06
5.93286e-06
1.086e-05
7.70482e-06
0
0
0
6.41162e-05
6.93077e-05
9.10836e-05
6.79937e-05
6.2369e-06
0
0
0.000391617
0.000443046
0.000532892
0.00036263
0.000314695
0
0
6.12523e-05
7.96361e-05
7.41496e-05
6.17372e-05
4.89795e-05
0
0
3.51802e-06
7.24039e-06
8.08945e-06
8.4692e-06
5.68682e-06
0
0
3.67038e-08
1.16277e-08
3.42322e-07
2.67155e-06
2.73393e-06
0
5.71883e-11
4.5213e-11
9.93448e-11
1.95327e-10
2.05678e-10
2.08015e-10
5.27656e-11
1.86811e-09
8.95859e-10
2.06732e-09
3.41006e-09
4.113e-09
4.45082e-09
1.28449e-09
6.96476e-08
4.61048e-07
7.23033e-07
4.94196e-07
2.79104e-07
7.06152e-08
6.40139e-08
2.01579e-07
2.23997e-06
2.76942e-06
5.0434e-06
2.91616e-06
1.73829e-06
1.54456e-07
1.62565e-08
9.75278e-08
1.69881e-07
8.54434e-08
9.35546e-08
1.09576e-07
4.27471e-10
4.0084e-10
9.22119e-10
6.57918e-10
7.88735e-09
6.12129e-09
2.29612e-09
2.3215e-11
2.21331e-11
7.5688e-11
1.89811e-10
5.09431e-10
4.04571e-10
6.30449e-11
2.53354e-11
4.74441e-11
4.2009e-11
3.42019e-11
1.76257e-10
2.02247e-10
1.87774e-10
5.60767e-11
1.54404e-09
7.1709e-10
1.18845e-09
2.3664e-09
2.99857e-09
3.21159e-09
1.92741e-09
8.83274e-08
3.20265e-07
3.55377e-07
4.79911e-07
3.2254e-07
9.34148e-08
5.70123e-08
2.29483e-07
1.84911e-06
2.34641e-06
4.01802e-06
2.67676e-06
1.42294e-06
1.49927e-07
2.70414e-08
7.4132e-08
8.50027e-08
1.47594e-07
1.21683e-07
1.99871e-07
1.75755e-09
3.79562e-10
1.47421e-09
9.33688e-10
5.33465e-09
8.35157e-09
3.40084e-09
8.64734e-11
1.7734e-11
9.24035e-11
1.27386e-10
3.75384e-10
3.54463e-10
2.90031e-10
8.44354e-11
7.3721e-11
5.88797e-11
3.51646e-11
1.68965e-10
3.3346e-10
3.43346e-10
3.02902e-10
1.43719e-09
6.18744e-10
1.12877e-09
2.13946e-09
2.3367e-09
2.68205e-09
2.97483e-09
1.02844e-07
2.86403e-07
2.71179e-07
4.66618e-07
3.53455e-07
1.4848e-07
6.44534e-08
2.92392e-07
1.52897e-06
1.93322e-06
3.04559e-06
2.33082e-06
1.16276e-06
1.49608e-07
4.24517e-08
1.20984e-07
1.6385e-07
2.65118e-07
2.0046e-07
1.63914e-07
3.84278e-08
1.59234e-09
3.61793e-09
4.80913e-09
6.20834e-09
4.78651e-09
3.3089e-09
2.02383e-09
7.64953e-11
2.45056e-10
4.89298e-10
6.8112e-10
5.78972e-10
4.47168e-10
2.25535e-10
2.36893e-10
1.1347e-10
4.91603e-11
1.33248e-10
3.54729e-10
4.23132e-10
4.48119e-10
2.27351e-09
7.72066e-10
8.5902e-10
9.87004e-10
1.83671e-09
2.48188e-09
2.86257e-09
1.04945e-07
2.2391e-07
2.31318e-07
2.92738e-07
2.62764e-07
1.62725e-07
6.84383e-08
3.10266e-07
1.15737e-06
1.56913e-06
2.09516e-06
1.80138e-06
8.76457e-07
1.48364e-07
7.70704e-08
1.79965e-07
2.12332e-07
3.01076e-07
2.27824e-07
1.06917e-07
3.57902e-08
3.05006e-09
4.02622e-09
6.13888e-09
8.39595e-09
7.18994e-09
5.26896e-09
3.21432e-09
4.47068e-10
5.13691e-10
8.14041e-10
1.14643e-09
1.1475e-09
8.9424e-10
6.85356e-10
1.42324e-10
8.07372e-11
4.62866e-11
1.1008e-10
2.69345e-10
3.11563e-10
2.80097e-10
1.22332e-09
5.30149e-10
5.38241e-10
5.80413e-10
6.821e-10
1.10976e-09
1.44766e-09
1.07979e-07
1.4072e-07
2.18647e-07
2.1856e-07
2.04799e-07
1.25411e-07
5.72945e-08
3.56627e-07
8.42387e-07
1.24187e-06
1.41217e-06
1.22403e-06
6.00631e-07
1.39335e-07
1.07643e-07
1.43525e-07
1.88855e-07
2.22758e-07
1.7972e-07
9.40325e-08
2.90676e-08
2.99883e-09
2.98311e-09
4.17665e-09
5.49023e-09
4.78567e-09
3.58902e-09
2.85107e-09
4.27017e-10
4.44266e-10
5.49722e-10
8.22837e-10
8.49294e-10
8.22988e-10
6.99586e-10
4.68914e-11
3.212e-11
4.12741e-11
1.20044e-10
2.13034e-10
2.06981e-10
1.39888e-10
3.83581e-10
2.22603e-10
4.1973e-10
4.73217e-10
4.27364e-10
3.87778e-10
3.96736e-10
8.85512e-08
9.49153e-08
1.48942e-07
1.12901e-07
1.16807e-07
9.67502e-08
6.38323e-08
3.67748e-07
5.44589e-07
8.48698e-07
6.45125e-07
6.77634e-07
3.74412e-07
1.35595e-07
9.94201e-08
8.69228e-08
1.1142e-07
1.11296e-07
1.35211e-07
6.50348e-08
2.51784e-08
1.12231e-09
1.18033e-09
2.11167e-09
2.78948e-09
2.22992e-09
1.5095e-09
1.02764e-09
9.24226e-11
1.41994e-10
3.14314e-10
4.29991e-10
4.893e-10
5.59789e-10
5.65089e-10
4.39136e-11
5.3908e-11
7.97571e-11
1.51049e-10
1.81534e-10
1.82823e-10
1.65051e-10
1.86178e-10
2.09089e-10
4.53101e-10
4.23891e-10
4.06597e-10
3.53775e-10
3.17401e-10
4.31326e-08
3.82152e-08
6.03126e-08
5.84175e-08
6.91284e-08
5.28696e-08
4.37955e-08
2.28735e-07
1.99906e-07
3.30829e-07
2.9927e-07
3.68642e-07
1.46197e-07
1.00116e-07
5.83595e-08
5.04795e-08
7.02342e-08
7.22692e-08
7.29563e-08
2.81722e-08
2.22002e-08
3.2882e-10
3.29932e-10
4.5875e-10
4.6365e-10
2.80186e-10
1.4601e-10
1.71602e-10
6.86145e-11
8.69013e-11
1.21248e-10
1.37713e-10
1.76649e-10
2.64164e-10
2.56472e-10
4.66593e-12
1.59235e-12
9.65957e-13
9.61711e-13
9.3417e-13
8.61062e-13
4.73198e-13
3.06022e-10
9.68689e-11
4.02981e-12
3.464e-13
3.80901e-13
3.86098e-13
3.83194e-13
4.64258e-08
2.44055e-08
4.36578e-10
1.06392e-13
1.09011e-13
1.48909e-13
2.1685e-13
9.85666e-08
3.41953e-09
1.37979e-10
2.17973e-11
5.76796e-12
3.08681e-12
3.80597e-12
1.07415e-11
1.21603e-11
1.06847e-11
6.72356e-12
2.70433e-12
3.64122e-13
2.19737e-13
6.19798e-12
5.29505e-12
3.85386e-12
3.66706e-12
2.80405e-12
1.57086e-12
9.76209e-13
7.73916e-12
8.34044e-12
9.22608e-12
9.64939e-12
7.36205e-12
3.34035e-12
1.55544e-12
1.43978e-11
8.15056e-12
8.12024e-12
7.22955e-12
6.53905e-12
5.26078e-12
2.50714e-12
4.43115e-10
2.24729e-10
2.42801e-11
2.51009e-12
1.98161e-12
2.05307e-12
2.04238e-12
3.56607e-08
2.52208e-08
1.0237e-08
1.29768e-12
1.06535e-12
2.0181e-12
4.43447e-12
9.93707e-08
3.95289e-08
9.68141e-09
2.39771e-09
7.63964e-10
5.06564e-10
4.84109e-10
1.1676e-10
2.12268e-10
1.49863e-10
1.06898e-10
5.9675e-11
2.88997e-12
1.34698e-12
1.01425e-10
7.72492e-11
3.98593e-11
2.86826e-11
2.73624e-11
2.14854e-11
9.40209e-12
5.44692e-11
6.17136e-11
6.84692e-11
7.27524e-11
6.58199e-11
5.29746e-11
1.40031e-11
6.00601e-11
4.64629e-11
3.91154e-11
3.75877e-11
3.31063e-11
2.32676e-11
7.60089e-12
6.44803e-10
4.81886e-10
3.44812e-10
1.67014e-10
1.15158e-11
1.20841e-11
1.26457e-11
3.91698e-08
2.44717e-08
1.72936e-08
6.46439e-09
2.39186e-12
4.8448e-12
7.44383e-12
1.01824e-07
6.93384e-08
3.82622e-08
1.94906e-08
8.88433e-09
5.48086e-09
2.93282e-09
1.47268e-08
8.27756e-09
4.38053e-09
2.2265e-09
5.54497e-10
2.41576e-11
1.6843e-11
1.06364e-09
7.34854e-10
3.04285e-10
6.40034e-11
9.65507e-11
1.07918e-10
7.35737e-11
1.62369e-10
1.40617e-10
1.12572e-10
1.47555e-10
1.54467e-10
1.66059e-10
7.97694e-11
2.94229e-10
1.96623e-10
9.39287e-11
7.94467e-11
7.07041e-11
6.03657e-11
2.29876e-11
1.71918e-09
9.01215e-10
4.47262e-10
2.58169e-10
3.98721e-11
2.51677e-11
2.91858e-11
4.3655e-08
3.13959e-08
1.83222e-08
1.27465e-08
6.45313e-09
1.14878e-09
8.47201e-12
1.06869e-07
7.35766e-08
5.07868e-08
3.5401e-08
2.33813e-08
1.45246e-08
9.72797e-09
1.92614e-08
1.16009e-08
8.33177e-09
4.91035e-09
2.33693e-09
9.32697e-10
3.78755e-10
2.14626e-09
1.85439e-09
1.13942e-09
8.1976e-10
5.98983e-10
4.33618e-10
2.48576e-10
5.2233e-10
4.36981e-10
3.94278e-10
3.57981e-10
3.43494e-10
3.13213e-10
1.98191e-10
2.16207e-10
1.59643e-10
1.43694e-10
1.32483e-10
1.14982e-10
1.07229e-10
4.96249e-11
7.69277e-10
6.98658e-10
7.72991e-10
5.82003e-10
2.43819e-10
6.8423e-11
2.72876e-11
3.31465e-08
2.8375e-08
2.01495e-08
1.24518e-08
8.89653e-09
5.44242e-09
1.72668e-09
1.09716e-07
7.95557e-08
5.88989e-08
4.43889e-08
3.33269e-08
2.49161e-08
1.53967e-08
2.49685e-08
1.81269e-08
1.21421e-08
8.6871e-09
5.43389e-09
4.03546e-09
1.86467e-09
2.20728e-09
1.85956e-09
1.44786e-09
1.14391e-09
9.75769e-10
7.32014e-10
4.63583e-10
6.51163e-10
5.98185e-10
5.53086e-10
4.94514e-10
4.29533e-10
3.82905e-10
2.74966e-10
1.36433e-10
1.64163e-10
1.773e-10
1.67272e-10
1.4291e-10
1.18303e-10
6.12389e-11
4.43467e-10
5.32279e-10
5.2536e-10
3.76813e-10
2.71385e-10
1.80992e-10
1.46407e-10
3.32305e-08
2.90837e-08
2.08232e-08
1.75755e-08
1.09879e-08
7.48157e-09
5.07818e-09
9.42824e-08
8.03898e-08
5.81666e-08
5.07991e-08
3.59709e-08
3.19693e-08
2.16987e-08
2.34276e-08
1.81195e-08
1.43261e-08
1.09835e-08
6.39567e-09
4.90048e-09
3.46766e-09
9.1085e-10
8.6698e-10
7.95825e-10
7.30139e-10
6.62655e-10
5.9577e-10
4.52889e-10
5.52229e-10
5.22977e-10
4.85711e-10
4.30865e-10
3.79173e-10
3.23621e-10
2.52209e-10
1.60008e-10
1.52575e-10
1.4568e-10
1.34329e-10
1.14617e-10
9.85025e-11
6.33653e-11
2.55956e-10
2.63047e-10
2.43422e-10
2.25706e-10
1.89162e-10
1.92983e-10
2.04496e-10
2.97032e-08
2.63674e-08
1.93514e-08
1.60354e-08
1.18194e-08
8.50569e-09
7.42535e-09
6.0734e-08
5.60825e-08
4.46477e-08
4.0553e-08
3.21706e-08
2.78589e-08
2.43566e-08
1.52093e-08
1.05308e-08
7.14545e-09
4.81587e-09
2.25273e-09
2.04243e-09
2.027e-09
2.58467e-10
2.63581e-10
2.64097e-10
2.66359e-10
2.94779e-10
3.00684e-10
2.92927e-10
2.66084e-10
2.25479e-10
1.95572e-10
1.97953e-10
2.10843e-10
2.09754e-10
1.8134e-10
4.76956e-13
1.4335e-12
1.7553e-12
1.85488e-12
1.85505e-12
1.83958e-12
2.64361e-12
3.09942e-13
3.83022e-13
4.72824e-13
5.09335e-13
5.01048e-13
4.91081e-13
1.31615e-10
8.63239e-12
5.46309e-12
2.60036e-12
1.50673e-12
8.12502e-13
7.71301e-13
1.08887e-08
5.8145e-10
6.02657e-10
9.169e-10
1.68165e-09
6.96689e-09
3.45052e-08
1.41374e-07
1.34801e-11
7.67898e-12
5.73022e-12
3.35748e-12
2.01287e-12
3.748e-09
1.02425e-08
2.00595e-13
2.70928e-13
3.3322e-13
3.59235e-13
3.57068e-13
1.19299e-11
7.74928e-11
9.61044e-13
1.34195e-12
1.33923e-12
1.31128e-12
1.27853e-12
1.2382e-12
1.88537e-12
1.71152e-12
5.6393e-12
7.3663e-12
8.39181e-12
8.96128e-12
8.71458e-12
8.42214e-12
1.31491e-12
1.38642e-12
1.60392e-12
1.76966e-12
1.77725e-12
1.72189e-12
1.61388e-11
3.22888e-11
1.69362e-11
1.46273e-11
1.09415e-11
5.82247e-12
3.46755e-12
1.27071e-09
2.94571e-09
3.37232e-09
4.49351e-09
1.07495e-08
2.54771e-08
7.76623e-08
1.57138e-07
3.01619e-11
1.5799e-11
1.16781e-11
7.10579e-12
2.03549e-09
7.22853e-09
1.19181e-08
2.03812e-12
2.01533e-12
1.8894e-12
1.74788e-12
2.07442e-11
6.4658e-11
2.17741e-10
4.91925e-12
6.42878e-12
6.27639e-12
6.36363e-12
6.47772e-12
6.69189e-12
1.07384e-11
5.27492e-12
1.34408e-11
2.0723e-11
2.324e-11
2.31476e-11
2.15703e-11
2.20326e-11
9.2687e-12
8.73519e-12
8.63544e-12
8.37473e-12
8.55079e-12
7.77559e-12
1.15353e-10
4.12182e-11
4.48383e-11
2.78927e-10
1.8247e-10
8.70073e-11
3.30756e-11
8.74784e-09
7.88433e-09
9.59545e-09
1.78277e-08
3.10144e-08
5.94591e-08
1.10603e-07
1.87561e-07
5.00296e-11
2.77788e-11
1.48319e-09
5.56733e-09
1.01923e-08
1.46393e-08
2.30415e-08
1.13202e-11
9.8183e-12
3.88856e-11
1.02264e-10
1.99465e-10
4.07164e-10
9.88106e-10
8.58301e-12
2.09766e-11
2.31668e-11
2.43292e-11
2.5175e-11
2.87675e-11
4.84052e-11
9.25031e-12
3.6358e-11
4.09612e-11
4.2042e-11
4.40957e-11
6.08912e-11
1.97012e-10
2.6069e-11
2.59496e-11
5.18954e-11
6.94314e-11
1.53473e-10
4.95977e-10
1.877e-09
2.64732e-11
1.29306e-09
6.78858e-09
8.50223e-09
1.0317e-08
1.44844e-08
4.5562e-08
2.43504e-08
3.69205e-08
5.73422e-08
8.22288e-08
1.25439e-07
1.59318e-07
2.27914e-07
1.79887e-09
5.36793e-09
8.33141e-09
1.22885e-08
1.69579e-08
2.90586e-08
3.9892e-08
8.27818e-11
1.52868e-10
2.84698e-10
4.32491e-10
5.55111e-10
9.08921e-10
1.23408e-09
1.80386e-11
4.756e-11
5.5749e-11
6.09639e-11
8.58093e-11
1.32821e-10
1.48445e-10
2.18639e-11
4.62586e-11
5.00288e-11
6.31696e-11
1.78216e-10
1.63225e-10
2.07692e-10
6.74558e-11
4.00117e-11
1.95873e-10
2.51862e-10
1.12853e-09
1.89007e-09
2.08181e-09
7.02318e-09
1.52293e-08
1.95676e-08
2.69135e-08
4.19934e-08
4.8298e-08
7.09381e-08
4.99083e-08
6.93092e-08
8.38302e-08
1.00925e-07
1.47583e-07
1.93411e-07
2.52673e-07
6.09185e-09
9.64568e-09
1.36177e-08
2.16069e-08
3.00105e-08
3.97629e-08
5.48128e-08
2.78742e-10
4.01737e-10
6.44826e-10
1.01418e-09
1.22581e-09
1.6005e-09
2.00258e-09
4.07603e-11
8.67823e-11
1.19744e-10
1.17587e-10
1.54961e-10
2.92633e-10
4.78141e-10
2.59612e-11
5.56862e-11
5.49841e-11
5.49921e-11
4.98549e-11
6.15989e-11
6.51872e-11
1.38575e-10
9.58123e-11
1.94647e-10
3.03944e-10
6.5006e-10
9.11331e-10
5.99737e-10
2.4142e-08
2.83439e-08
4.1396e-08
4.78524e-08
6.27102e-08
7.23883e-08
8.31387e-08
7.58375e-08
8.61614e-08
1.13243e-07
1.27111e-07
1.6478e-07
1.92548e-07
2.56919e-07
1.02045e-08
1.86591e-08
2.52048e-08
3.6161e-08
4.70102e-08
6.37319e-08
7.16005e-08
6.78059e-10
6.57273e-10
5.3914e-10
5.95896e-10
6.58728e-10
7.48427e-10
9.49817e-10
5.50936e-11
9.40299e-11
1.25932e-10
1.39925e-10
1.33314e-10
1.22808e-10
1.29679e-10
2.99285e-11
5.14447e-11
4.57353e-11
4.4745e-11
4.30912e-11
3.92154e-11
3.98603e-11
1.16479e-10
1.18797e-10
1.29553e-10
1.51606e-10
1.61893e-10
1.65838e-10
1.5642e-10
2.34512e-08
2.82574e-08
3.38172e-08
3.74629e-08
4.06402e-08
4.37862e-08
4.48649e-08
7.99327e-08
9.44214e-08
1.09122e-07
1.30809e-07
1.50136e-07
1.78564e-07
2.06176e-07
1.85987e-08
2.1623e-08
3.07568e-08
3.84177e-08
4.92578e-08
5.45472e-08
5.67393e-08
2.93196e-10
2.69287e-10
3.06347e-10
3.18234e-10
3.39684e-10
3.56661e-10
3.32151e-10
6.3625e-11
6.63828e-11
8.25683e-11
9.2324e-11
9.8263e-11
9.36209e-11
7.98519e-11
2.01762e-14
2.48841e-14
5.31781e-14
8.44267e-14
1.57344e-13
2.2822e-13
2.44766e-13
1.31049e-14
3.1096e-14
1.08812e-13
2.46883e-13
3.22687e-13
3.299e-13
3.05537e-13
8.25521e-12
2.19225e-11
3.9979e-11
3.89305e-11
3.24079e-11
2.5162e-11
1.538e-11
6.18774e-11
1.84529e-10
2.80828e-10
3.60031e-10
3.92725e-10
5.03483e-10
5.43385e-10
1.01687e-11
2.26271e-11
3.21943e-11
3.19859e-11
2.85761e-11
2.36449e-11
1.85865e-11
6.11009e-15
7.43593e-15
8.39339e-15
1.2263e-14
3.32114e-14
4.98295e-14
1.02288e-13
8.38328e-16
1.15739e-15
2.85888e-15
1.9437e-14
4.79974e-14
1.12902e-13
2.8393e-13
9.40309e-15
2.72219e-14
9.94747e-14
2.79314e-13
3.57637e-13
4.13664e-13
3.48039e-13
2.76742e-14
8.43313e-14
3.46714e-13
1.14447e-12
1.21706e-12
1.20749e-12
1.16957e-12
1.46403e-11
5.21198e-11
1.39218e-10
1.47867e-10
1.30881e-10
7.69432e-11
5.22764e-11
1.29892e-10
5.97467e-10
1.28246e-09
1.84782e-09
2.07522e-09
2.64863e-09
2.85474e-09
2.02956e-11
6.72942e-11
1.1254e-10
1.26629e-10
1.06055e-10
8.48684e-11
4.83162e-11
1.13043e-14
1.6262e-14
4.44588e-14
1.55158e-13
5.56078e-13
8.04498e-13
1.61336e-12
8.18912e-16
1.75318e-15
1.32703e-14
5.51795e-14
2.74898e-13
6.57278e-13
1.8875e-12
1.00476e-14
2.85849e-14
1.4146e-13
4.07714e-13
5.46705e-13
5.165e-13
2.53935e-13
5.81421e-14
1.8503e-13
5.9511e-13
3.51791e-12
4.49966e-12
5.7283e-12
6.97975e-12
5.89812e-11
1.67325e-10
3.67029e-10
3.38425e-10
1.81148e-10
1.21657e-10
8.16888e-11
4.35806e-10
1.43717e-09
2.77578e-09
3.6501e-09
4.23991e-09
5.70796e-09
7.2541e-09
7.66294e-11
1.89169e-10
3.65006e-10
3.53668e-10
1.93366e-10
1.17964e-10
8.19073e-11
1.3186e-14
3.11245e-14
1.64676e-13
1.64406e-12
2.94452e-12
5.14734e-12
1.12912e-11
8.07114e-16
2.19882e-15
3.6912e-14
1.17555e-13
5.53489e-13
1.72627e-12
5.71582e-12
1.12814e-14
3.5263e-14
1.74272e-13
4.80632e-13
6.24476e-13
4.79224e-13
1.31312e-13
8.06215e-14
3.21767e-13
2.55413e-12
1.25866e-11
1.26692e-11
1.6041e-11
2.52618e-11
1.09927e-10
2.50342e-10
4.82057e-10
3.34464e-10
1.75758e-10
9.89226e-11
5.47088e-11
6.80756e-10
2.43477e-09
4.56039e-09
6.98907e-09
1.02893e-08
1.27199e-08
1.63206e-08
1.24148e-10
3.01934e-10
4.6363e-10
4.24166e-10
2.58728e-10
1.6217e-10
8.56569e-11
1.42444e-14
5.26077e-14
3.9575e-13
4.69251e-12
1.40866e-11
5.15188e-11
9.17105e-11
7.85334e-16
2.41317e-15
4.64576e-14
1.83872e-13
8.07474e-13
2.63956e-12
7.95587e-12
1.16706e-14
3.75351e-14
1.9698e-13
5.31403e-13
6.81565e-13
3.70359e-13
9.19016e-14
9.60953e-14
6.16556e-13
8.59293e-12
2.39478e-11
2.39916e-11
5.5794e-11
9.48653e-11
2.64974e-10
4.8821e-10
8.70845e-10
3.6161e-10
1.32305e-10
4.52477e-10
1.96463e-09
1.55849e-09
5.03026e-09
1.15809e-08
1.83331e-08
2.51259e-08
3.10179e-08
4.05386e-08
2.62437e-10
5.6947e-10
8.19014e-10
3.83029e-10
2.85825e-10
8.8327e-10
3.12172e-09
1.7983e-14
6.23903e-14
1.001e-12
1.2388e-11
6.21168e-11
1.64604e-10
2.33955e-10
7.50606e-16
2.39561e-15
5.15853e-14
2.4746e-13
1.06562e-12
3.42566e-12
9.49648e-12
1.19246e-14
3.86308e-14
2.07597e-13
5.53045e-13
7.06454e-13
3.33977e-13
7.23332e-14
1.09073e-13
9.27473e-13
1.66964e-11
4.60268e-11
6.73178e-11
1.08997e-10
1.61158e-10
4.58887e-10
9.41856e-10
1.0791e-09
4.15451e-10
1.32264e-09
8.02632e-09
1.43204e-08
2.52348e-09
1.05656e-08
1.92281e-08
2.59029e-08
3.55449e-08
4.39272e-08
5.45922e-08
4.40913e-10
1.25006e-09
1.69835e-09
4.06448e-10
4.96633e-10
2.70904e-09
6.28491e-09
1.90945e-14
6.99008e-14
1.5364e-12
2.44035e-11
1.13572e-10
2.56512e-10
6.07129e-10
7.19122e-16
2.58097e-15
6.14999e-14
2.75441e-13
1.3799e-12
4.52418e-12
1.13754e-11
1.07759e-14
3.87702e-14
2.1167e-13
5.60923e-13
7.46124e-13
3.25253e-13
7.13434e-14
1.1506e-13
1.0097e-12
2.34885e-11
4.96875e-11
7.50008e-11
8.28557e-11
8.50333e-11
1.00345e-09
1.92584e-09
1.93995e-09
4.40136e-09
1.13284e-08
1.56862e-08
2.03542e-08
7.22866e-09
1.96489e-08
3.16017e-08
4.16635e-08
5.2814e-08
5.82805e-08
7.32106e-08
1.08643e-09
2.09183e-09
1.89764e-09
1.79143e-09
4.97407e-09
8.66793e-09
1.25934e-08
2.04059e-14
7.72032e-14
1.74495e-12
2.61246e-11
1.45372e-10
2.14174e-10
3.31348e-10
6.80797e-16
2.96351e-15
6.64402e-14
2.8284e-13
1.49028e-12
5.01774e-12
1.2845e-11
3.93687e-15
3.89958e-14
1.44037e-13
5.68292e-13
9.03246e-13
4.0306e-13
7.13896e-14
9.477e-14
3.97662e-13
3.62943e-12
5.22637e-12
2.93848e-11
4.65785e-12
2.12688e-13
1.28063e-09
1.03486e-09
1.11118e-09
2.95777e-09
6.86468e-09
6.86091e-09
6.68161e-09
9.57031e-09
1.77167e-08
2.0335e-08
2.03267e-08
2.36523e-08
2.41242e-08
2.67524e-08
1.3725e-09
1.33574e-09
9.83524e-10
1.00028e-09
2.66198e-09
4.16195e-09
3.189e-09
2.24964e-14
6.04684e-14
2.4917e-13
1.74095e-12
7.02297e-12
7.62044e-12
6.86513e-11
6.61228e-16
1.22057e-15
4.64181e-15
2.84769e-13
1.28405e-12
5.18251e-12
1.40112e-11
4.35039e-15
3.39611e-14
1.43951e-13
3.90392e-13
1.00637e-12
7.59003e-14
8.56334e-15
1.07908e-13
7.31868e-13
2.05659e-12
4.93722e-12
1.4321e-11
2.54021e-12
2.31023e-13
7.04852e-10
5.0525e-10
5.20056e-10
1.01193e-09
3.14938e-09
2.60985e-09
7.63299e-10
7.49233e-09
1.02364e-08
1.03841e-08
1.2211e-08
1.59017e-08
1.62249e-08
1.19399e-08
8.93481e-10
7.44997e-10
5.60249e-10
5.46687e-10
9.7044e-10
1.55688e-09
1.41944e-09
8.80097e-15
1.3553e-14
5.76385e-14
2.01782e-13
5.72299e-13
2.69261e-14
1.58878e-14
4.10119e-16
2.71044e-16
1.14612e-15
3.82042e-15
1.01932e-14
3.20759e-16
1.16616e-16
1.51931e-17
4.31e-17
5.80417e-17
1.51065e-16
4.06565e-16
1.83619e-16
7.03916e-18
1.90613e-15
1.97096e-15