/*--------------------------------*- C++ -*----------------------------------*\
  =========                 |
  \\      /  F ield         | OpenFOAM: The Open Source CFD Toolbox
   \\    /   O peration     | Website:  https://openfoam.org
    \\  /    A nd           | Version:  6
     \\/     M anipulation  |
\*---------------------------------------------------------------------------*/
FoamFile
{
    version     2.0;
    format      ascii;
    class       volScalarField;
    location    "0.01";
    object      p;
}
// * * * * * * * * * * * * * * * * * * * * * * * * * * * * * * * * * * * * * //

dimensions      [1 -1 -2 0 0 0 0];

internalField   nonuniform List<scalar> 
3773
(
42050.9
42050.9
42050.8
42050.8
42050.8
42050.8
42050.8
101435
101435
101435
101435
101435
101435
101435
136974
136974
136974
136974
136974
136974
136974
148827
148827
148827
148827
148827
148827
148827
136973
136973
136973
136973
136973
136973
136973
101432
101432
101432
101432
101432
101432
101432
42048.9
42048.8
42048.8
42048.8
42048.8
42048.8
42048.8
42050.2
42050.2
42050.2
42050.1
42050.1
42050.1
42050.1
101434
101434
101434
101434
101434
101434
101434
136974
136974
136974
136974
136974
136974
136974
148827
148827
148827
148827
148827
148827
148827
136973
136973
136973
136973
136973
136973
136973
101432
101432
101432
101432
101432
101432
101431
42048.1
42048.1
42048.1
42048.1
42048.1
42048.1
42048.1
42049.5
42049.5
42049.4
42049.3
42049.4
42049.4
42049.4
101434
101434
101434
101434
101434
101434
101434
136974
136974
136974
136974
136974
136974
136974
148827
148827
148827
148827
148827
148827
148827
136973
136973
136973
136973
136973
136973
136973
101432
101432
101432
101431
101431
101431
101431
42047.4
42047.4
42047.4
42047.4
42047.4
42047.4
42047.4
42048.9
42048.8
42048.8
42048.7
42048.8
42048.8
42048.8
101433
101434
101434
101434
101434
101433
101433
136974
136974
136974
136974
136974
136974
136974
148827
148827
148827
148827
148827
148827
148827
136972
136973
136973
136972
136972
136972
136972
101431
101431
101431
101431
101431
101431
101431
42046.8
42046.8
42046.8
42046.8
42046.8
42046.8
42046.8
42048.4
42048.3
42048.3
42048.2
42048.2
42048.2
42048.3
101433
101433
101433
101433
101433
101433
101433
136974
136974
136974
136974
136974
136974
136974
148827
148827
148827
148827
148827
148827
148827
136972
136972
136972
136972
136972
136972
136972
101431
101431
101431
101431
101431
101430
101430
42046.3
42046.3
42046.3
42046.3
42046.3
42046.3
42046.3
42048
42047.9
42047.9
42047.8
42047.8
42047.7
42047.8
101433
101433
101433
101433
101433
101433
101433
136974
136974
136974
136974
136974
136974
136974
148827
148827
148827
148827
148827
148827
148827
136972
136972
136972
136972
136972
136972
136972
101430
101430
101430
101430
101430
101430
101430
42045.8
42045.8
42045.8
42045.8
42045.8
42045.8
42045.8
42047.7
42047.7
42047.7
42047.6
42047.5
42047.5
42047.5
101432
101432
101433
101433
101433
101432
101432
136974
136974
136974
136974
136974
136974
136974
148827
148827
148827
148827
148827
148827
148827
136972
136972
136972
136972
136972
136972
136972
101430
101430
101430
101430
101430
101430
101430
42045.6
42045.6
42045.6
42045.6
42045.6
42045.6
42045.6
63404.8
63449.4
63411.1
63329.9
63113.2
62853.4
62830.7
149664
149672
149649
149516
149332
149215
149291
199848
199739
199681
199589
199553
199595
199702
216162
216079
216045
216026
216042
216083
216161
199300
199206
199183
199186
199234
199287
199374
149010
148895
148875
148852
148871
148934
149006
63204
63145.7
63095
63016.1
62930
62918.7
62946.2
62811.7
62835.1
62824.2
62756.4
62584.4
62399.9
62411.9
148796
148805
148829
148727
148540
148386
148506
199201
199121
199144
199094
199033
199038
199185
215726
215679
215700
215718
215738
215763
215842
198888
198755
198735
198774
198836
198870
198960
148554
148275
148162
148184
148238
148296
148375
62749.9
62642.5
62506.1
62395.1
62360.6
62413.3
62482.7
62241.9
62236.4
62272.6
62359.6
62377.1
62405.6
62429.8
148161
148132
148158
148111
148062
148068
148244
198644
198599
198648
198648
198657
198710
198816
215227
215248
215326
215392
215429
215456
215511
198282
198274
198335
198387
198434
198467
198561
147870
147673
147605
147624
147674
147742
147844
62130.1
61968.3
61866.4
61807.1
61786.9
61847.9
61918.3
61797.1
61768.5
61819.1
61984.9
62191.4
62348.4
62478.3
147818
147670
147651
147718
147805
148043
148306
198347
198239
198239
198278
198355
198451
198561
214900
214931
214988
215045
215092
215117
215155
197731
197792
197920
198024
198074
198092
198170
147015
146853
146975
147099
147201
147277
147396
61597.9
61459.6
61437.9
61403
61386.7
61421.2
61483.6
61599.4
61526
61465.8
61595.3
61779.4
61993.7
62188.3
147563
147442
147295
147293
147380
147610
147846
198186
198058
198003
197989
198010
198040
198136
214790
214785
214768
214743
214740
214753
214794
197498
197568
197631
197669
197725
197793
197851
146512
146423
146508
146700
146845
146932
146996
61259.3
61167.9
61241.5
61231.5
61236.2
61211.1
61235.1
61639.1
61494.2
61285.9
61220.4
61358.5
61577.9
61785.6
147418
147184
146890
146774
146794
146937
147188
197957
197865
197787
197745
197714
197694
197722
214557
214580
214606
214600
214542
214527
214563
197421
197448
197473
197494
197541
197602
197648
146459
146441
146459
146484
146610
146731
146769
61173.2
61075.7
61065.8
61137.1
61151.1
61137.4
61127.3
61818.6
61687.9
61412.6
61266.3
61365.2
61550.9
61666.9
147321
147095
146828
146691
146647
146774
146970
197703
197650
197639
197638
197657
197677
197645
214376
214425
214474
214500
214467
214442
214451
197379
197400
197420
197394
197375
197393
197446
146605
146468
146421
146372
146436
146525
146599
61407.4
61177.5
60937.1
60962.2
61070.2
61089.2
61077.1
62565.7
62263.5
62094.3
61990.5
62027.8
61975.5
61998.4
147654
147492
147361
147210
147092
147170
147326
197781
197822
197868
197919
197907
197951
198040
214512
214517
214498
214448
214401
214335
214304
197826
197748
197562
197284
197125
197045
196993
147149
146778
146458
146195
146106
146106
146140
62059.6
61554.8
60974.4
60685.4
60676.1
60714.9
60747.3
62529.7
62168.5
61685.2
61470.9
61541.8
61618.6
61707.5
147317
147247
147079
147028
146966
147091
147357
197498
197552
197636
197654
197511
197395
197617
214228
214197
214189
214132
214030
213889
213853
197534
197332
197118
196949
196824
196724
196658
146936
146419
145997
145784
145788
145836
145879
61823.9
61175.9
60716.8
60521.2
60527.8
60584.8
60620.4
62091.5
61351.7
61163.2
61255.1
61320.7
61424.7
61481.8
146751
146642
146829
146799
146754
146895
147279
197150
197178
197213
197105
196878
196830
197169
213892
213785
213716
213605
213515
213458
213477
197173
196770
196614
196534
196479
196451
196441
146915
146191
145682
145479
145519
145650
145739
62046.3
61307.5
60783.9
60541.5
60475.5
60552.7
60613.2
61692.3
60853.2
60927.5
61038.2
60985.6
60994.2
61096
146640
146486
146498
146263
146006
146187
146628
196990
196982
196808
196485
196305
196400
196719
213581
213444
213312
213187
213165
213230
213279
197024
196459
196235
196230
196282
196344
196375
147205
146257
145584
145340
145361
145524
145636
62477.2
61676.6
61038.6
60655.5
60481.8
60500
60565.6
62300.3
61538.7
60710.8
60027
59999.7
60244.3
60524.7
146936
146899
146337
144946
144682
145035
145623
196887
196943
196698
196159
195936
196025
196293
213277
213141
213038
213025
213091
213174
213198
197108
196434
196039
196074
196236
196336
196367
147918
146718
145783
145346
145279
145396
145448
62714.5
61986.9
61484.8
60894.1
60490.4
60346
60408.5
64133.5
63059.6
60911
59197.3
59304
59779.8
60109.5
147691
147750
146217
144142
144135
144484
144881
196792
196787
196522
196059
195969
196035
196159
212966
212809
212839
212995
213173
213259
213278
196995
196347
196174
196273
196410
196459
196427
148571
147269
146198
145581
145424
145338
145179
62540.2
61993.2
61781
61413.8
60863.8
60362.4
60089.6
63300.8
63127.8
63663.2
61975.5
60496.8
60295.5
60129.4
147764
147871
147416
145874
145157
145065
145069
196092
196169
196329
195979
196016
196210
196338
211786
212257
212665
212843
212968
213018
212860
196097
195966
196153
196437
196631
196558
195937
148100
146524
145767
145858
146319
145844
144269
62419.2
61937.9
60986.3
60641.6
61600.7
61829.4
59661.6
62119.3
62614
62466.7
62081.9
62038
62182.3
61959.1
147464
147448
147202
147108
146907
147053
147191
197615
197651
197654
197730
197797
197882
197853
214377
214406
214421
214400
214387
214389
214355
197551
197499
197454
197355
197230
197173
197143
147122
146666
146567
146416
146362
146383
146463
62268.5
61823.4
61234.9
60918.2
60940.1
60983.1
61002.6
62146.8
62697.3
62580.3
62144.4
62064.3
62200.8
61975.9
147483
147504
147250
147155
146948
147107
147246
197622
197654
197651
197740
197816
197918
197871
214376
214403
214412
214382
214372
214379
214340
197559
197509
197454
197328
197201
197144
197113
147203
146700
146577
146417
146352
146363
146441
62345.8
61894.9
61240
60905.6
60921.3
60969.1
60994.5
62161.1
62655.1
62697.3
62191.3
62072.6
62190.7
61998.4
147497
147555
147285
147196
146992
147163
147315
197639
197670
197655
197753
197838
197957
197895
214380
214404
214409
214376
214364
214373
214339
197569
197515
197456
197302
197177
197118
197102
147289
146737
146573
146399
146333
146342
146419
62416
61955.6
61238.8
60888.6
60903.8
60956.4
60983.5
62160.6
62508.7
62820.1
62282.1
62111.6
62199.2
62034.1
147505
147585
147324
147238
147041
147211
147378
197656
197688
197666
197768
197861
197999
197924
214389
214412
214411
214377
214362
214369
214347
197586
197526
197461
197288
197163
197097
197096
147348
146751
146562
146378
146312
146320
146395
62521.7
62030.9
61267.2
60868.7
60887.2
60944.8
60968.8
62159.1
62332.3
62956.7
62448.3
62182.1
62244.4
62081
147513
147595
147362
147275
147080
147234
147418
197668
197700
197684
197787
197879
198048
197955
214399
214421
214416
214380
214362
214365
214353
197607
197546
197469
197283
197151
197081
197086
147374
146737
146555
146360
146292
146299
146371
62702
62150.7
61330.3
60847.5
60870.3
60931.1
60954.4
62175.3
62178.7
63035.2
62606.1
62304.1
62335.5
62136.7
147527
147605
147393
147309
147093
147227
147431
197676
197708
197707
197805
197894
198097
197982
214410
214431
214422
214385
214364
214361
214357
197632
197571
197480
197284
197139
197071
197075
147385
146703
146559
146344
146276
146280
146345
62846.7
62221.8
61364.4
60826
60851.7
60916.2
60943.2
62209.5
62104.8
62945.6
62612.5
62393.9
62394.1
62173.1
147547
147617
147397
147317
147093
147226
147426
197686
197718
197729
197825
197902
198122
198001
214424
214442
214431
214391
214367
214357
214354
197660
197599
197493
197287
197133
197065
197062
147373
146669
146555
146329
146259
146261
146319
62795.3
62154.8
61314.7
60806.4
60831.4
60898.9
60929.2
61651.9
65042.8
68265.7
67579.6
64964.5
62254.8
61571.2
145622
149555
153282
151058
148421
146221
145253
194781
196240
197107
196308
195926
195943
195569
209742
211942
212762
212532
212691
212785
212125
194266
195456
195920
196284
196762
197197
197623
146640
145833
146061
146105
146926
149014
149958
62459.2
62096
60963.4
61135.1
63857.4
66528.1
66306.9
60823.6
64172.6
68318.8
69028.9
66383.8
62871.4
61478.9
144917
149530
153967
152814
149647
146775
145338
194411
196264
197398
196728
196079
195879
195506
209762
211958
212600
212542
212717
212722
212126
193973
195222
195733
196132
196728
197327
198022
145596
145469
145882
145933
147143
149887
151486
61398.9
61361.1
60928.2
61459.7
63863.1
66807.4
67844.2
59827.2
63233.8
67804.4
69343.1
66858.4
63255.6
61303.6
144293
149179
153632
153146
150303
147360
145562
194121
196282
197655
197252
196440
195891
195488
210133
212106
212551
212733
212906
212768
212191
193828
194972
195542
196050
196755
197349
198007
144611
145002
145703
146256
147599
149801
151698
60452.2
60571.7
60809.6
61829.9
63811.2
66384.5
67616.5
59213.2
62597.3
67113.1
69155.2
66822.6
63403.5
61295
143561
148559
153113
152838
150483
147780
145875
194040
196446
197995
197808
196872
196115
195507
210602
212371
212747
213052
213186
212914
212180
193762
194830
195435
196095
196870
197319
197835
143961
144563
145530
146905
148119
149634
151630
60002.7
60162.3
60752.6
62062.1
63782
65762.5
67278.7
59124.6
62502.3
66988
69158.4
66742.8
63444.4
61290.9
143257
148354
153070
152847
150553
148068
146205
194174
196764
198344
198285
197270
196447
195583
211152
212698
213072
213406
213500
213121
212209
193771
194865
195484
196304
197084
197281
197596
143653
144349
145483
147388
148610
149565
151496
59702.5
59978.2
60811
62255.5
63732.8
65308.7
67357.2
59305.3
62829.2
67314.2
69476.6
66875.4
63512.9
61330.2
143405
148713
153515
153235
150655
148171
146329
194495
197105
198636
198576
197547
196703
195745
211633
212947
213394
213692
213791
213336
212355
193848
194929
195611
196533
197277
197286
197496
143468
144289
145623
147776
148937
149572
151416
59497.3
59856.6
60861.1
62385
63706.8
65125.1
67436.2
59516.2
63171.7
67710.4
69801.4
67092.2
63592.8
61489.2
143734
149211
154021
153743
150787
148232
146334
194871
197386
198917
198785
197773
196870
195923
211977
213074
213628
213869
214033
213492
212602
193926
194922
195694
196650
197383
197293
197522
143312
144237
145741
148003
149074
149607
151375
59430.4
59821.1
60902.3
62446.1
63725.6
65142.3
67557.4
63073.4
63068.6
62971.7
63896.2
67058
73344.3
82456.7
145225
145367
145852
146379
147210
149616
153833
193117
193184
193435
193015
191827
190018
188221
210193
210259
209838
208703
206867
204347
201445
198486
198467
198041
197165
195875
194309
192686
153552
154264
154084
154084
154958
156767
159794
68273.8
68238.1
68304.3
69264.9
71668.4
75714.8
81947.9
61653.8
61648.7
61804.8
62625.9
64918
69831.9
77805.9
144890
144864
144997
145368
146139
147889
151297
193949
193623
193538
193076
191820
190010
188025
210796
210249
209622
208544
206782
204373
201506
198175
198071
197669
196974
195864
194300
192624
152292
152904
153288
153526
154079
155553
158016
67083.4
66706.8
67050.4
68352.3
70829.1
74217.8
78943.1
60863.1
60842.2
61114.8
61743
63041.6
65849
71316.6
144773
144539
144501
144661
145057
145930
147920
194372
193848
193568
193095
191852
190055
187943
211120
210339
209505
208429
206749
204466
201645
198048
197871
197544
197115
196044
194391
192639
152382
152869
153320
153307
153585
154966
156764
66827.4
66515.5
66822.5
68227
70906
74031.1
77166.6
60746.9
60685.3
60979.2
61556
62436.2
63914.6
66712.6
144998
144600
144388
144392
144526
144799
145426
194574
193944
193400
192871
191801
190126
187969
211227
210458
209518
208348
206646
204386
201525
197889
197662
197192
196520
195496
194154
192759
152373
152849
153158
153343
154051
155443
157007
67012.7
67038.2
67563.5
69234.6
71850.8
74803.4
77320.7
60762.3
60714.5
60977.4
61595
62407.2
63582.1
65199.8
145354
144937
144617
144448
144462
144581
144376
194608
193931
193290
192634
191578
190010
188043
211245
210530
209577
208307
206506
203942
200680
197625
197406
196848
195958
194826
193503
192102
152258
152728
153181
153739
154716
156014
157218
67833.7
67920
68625.3
70352.7
72773.4
75406.9
77561.5
60825.2
60767.1
60939
61607.7
62666.9
64160.7
65866
145434
145008
144742
144605
144567
144523
143954
194623
193907
193232
192458
191346
189607
187193
211352
210644
209710
208367
206386
203187
198758
197443
197194
196605
195649
194359
192553
190458
152316
152859
153312
153959
154943
156000
156712
68395
68922.6
69701.6
71177.9
73239.8
75517.4
77150.5
61209.7
61071.8
61207.1
61931.8
63301.2
65008.5
66554.2
145459
145152
144941
144878
144897
144788
143936
194737
193983
193255
192419
191204
189116
185330
211537
210853
209911
208563
206401
202727
196014
197406
197147
196557
195612
194229
192055
188410
152319
152872
153469
154191
155117
155953
155802
68741
69459.7
70285.4
71546.1
73289.6
75319.1
76516.2
82656.9
74372.1
66986.1
62600.9
60739.7
60548.1
61173.7
148770
144853
142425
141605
141959
142853
144077
181948
183378
185070
186902
188934
191035
192534
193185
196179
198822
201006
202643
203625
204194
185161
187207
189078
190575
191552
191745
191333
150789
146741
144786
144448
144679
145207
146029
80669.9
71468.2
65223.6
62466.1
61884.4
62243.3
62783.5
79682.4
70681
64238.4
60965.5
59623.2
59484.4
59943.2
146872
143228
141071
140306
140839
142000
143054
181824
183351
184936
186616
188529
190634
192293
193420
196407
198887
200935
202639
204089
205723
185093
187167
188902
190268
191248
191695
192073
148743
145285
143731
143655
144142
144695
145110
76544.5
67981.4
63067.7
61366.9
61038.9
61260.5
61550.2
73976.6
65157.6
60932.2
59074.8
58432.1
58402.6
58756.1
144330
141298
139782
139649
140316
141298
142290
182021
183556
184889
186284
188040
190232
192032
193823
196728
198995
200996
202834
204659
206789
185032
186985
188649
189828
190675
191415
192284
145410
142956
142154
142542
143282
143872
144155
70368.7
63690.5
60864.4
60258.6
60189.3
60273.7
60382.7
67612.5
61536.2
59179.8
58198.2
57896.5
57965.9
58318.8
141845
139684
138987
139175
139743
140566
141541
182281
183937
185005
185896
187597
189888
191778
193972
196791
199025
201155
203286
205370
207598
184840
186494
187790
189078
190141
191180
192254
142122
140908
140867
141605
142470
143018
143407
65147.5
61070.8
59967.2
59816
59756
59729.6
59828
64330.8
60429.1
58762.1
58050
57918.3
58052.2
58363.8
139773
138812
138893
139336
139776
140375
141330
182100
183517
184916
186052
187820
189929
191760
193163
196408
199114
201509
203843
206151
208303
183850
185443
186844
188277
189657
190942
192086
139767
139680
140248
141102
141898
142505
142978
61860.2
60025.4
59510.8
59350.2
59314.7
59383.8
59523.4
63097.8
60543.1
58980.5
58206
58133
58228.3
58470.2
138839
138614
138893
139360
139890
140637
141568
180460
182314
184306
186177
188195
190217
192028
191122
195686
199196
201966
204435
206781
208806
182017
184101
185971
187696
189274
190706
191952
138554
138925
139667
140570
141399
142074
142617
60122.7
59401.6
58971.6
58823.7
58900.3
59099.3
59307.5
60384.7
60665
59606.1
58864.6
58564
58478.7
58639.7
140096
139308
139155
139453
140108
140992
141925
178188
181638
184033
186315
188506
190563
192386
188373
195287
199342
202365
204917
207206
209146
179624
183210
185493
187407
189058
190583
191918
137989
138530
139275
140159
141040
141817
142414
59479.3
59062.5
58685.4
58553.6
58703.8
58995.3
59260.8
99147.4
101979
101034
98125.2
94499.5
90959
87736.7
171317
171050
169333
165650
160975
156516
152651
184821
183680
182335
181078
180340
180364
180955
194777
193320
191205
189507
188805
189303
190717
187138
186222
184385
182916
182423
182800
183711
178245
174814
169479
165266
161948
158779
155170
105098
102353
99738.7
98151.7
95838.3
92320.5
87726.1
97116.1
97730
97085.7
94920.1
91630.8
88899.8
86359.6
169615
168107
165218
161534
157592
153867
150508
183786
182741
181203
179928
179371
179591
180488
194534
193014
190641
188697
188038
188834
190723
185497
184549
183032
181940
181787
182305
183394
174022
170745
166532
163092
159835
156527
152923
101553
99734.9
98363.3
96811
93693.3
89716.1
84349.6
95511.7
94173.6
92482.3
90354.8
87577.3
85439.2
82278.8
167302
164302
160072
156207
153151
150600
147800
182523
181377
179866
178849
178639
179245
180422
194012
192320
189807
187775
187172
188267
190735
183339
182464
181314
180538
180654
181607
183104
167360
165085
162138
159108
155785
152376
148898
95906.8
95557.4
95112.7
93403.4
89685
85014
78844.9
91625.5
89608.1
87327.4
85107.6
82946.3
80663.3
75881.6
162152
158464
154112
151102
149124
147724
145175
180052
179169
178125
177721
178276
179416
180660
193451
191687
188869
186583
185853
187395
190632
180588
179864
179035
178801
179573
181098
182803
160275
158783
156533
153719
150543
147366
144489
89610.8
89855.9
89770.3
87827.8
83954.2
78956.3
72485.6
86007.6
84576.5
82474.4
80306.6
78099.9
75395
70884.3
155710
152617
149153
147277
146159
144956
142549
177022
176401
175886
176348
177954
179755
181106
192935
190778
187340
184625
184053
186419
189770
177254
176718
176186
176545
178201
180398
182253
153185
152312
150865
148679
146230
143552
141096
83701.2
83732.3
83354
81110.8
77580.7
72944.1
67245.2
79689
79311.3
77996.1
76134.6
73509.8
71155.3
68421.9
148730
147318
145327
144450
143360
142410
140952
173772
173220
173258
174557
176681
178097
179177
191177
188611
184676
182042
181791
183489
186497
173447
173082
172793
173670
175881
178095
180102
146857
146274
145508
144552
143299
141161
139052
78807.3
77704.7
76690.3
74971.6
72404.8
68436
63741.7
73131.6
73721.4
73161.2
71789.9
68877.4
67110.6
66642.6
141665
141779
140980
140717
139381
139483
140530
170286
169828
170386
172226
172982
172212
172818
188623
185461
181068
178009
176480
176208
178688
169767
169363
169183
170516
172194
172510
173739
141361
140705
140722
140558
139837
138948
137328
74548.3
72207.7
71064.2
70708.1
68518.9
65568.6
61324.6
54014.7
53835.1
54090.7
53738.3
54115.4
54244
53786.9
122348
121562
120741
120174
119869
120053
120782
156390
155904
154998
153238
149883
145757
142422
169594
167301
163921
159995
155219
149593
143342
156320
155546
154327
152673
149895
145836
141476
125199
124427
123361
122444
121675
121160
120802
57540.4
57509.9
56890.4
56171.6
55668.6
55160.6
55151.1
47287.3
47170.8
47014.7
47400.3
47793.1
47926.5
47976.8
109240
108898
108885
109298
109441
109102
109089
138751
138542
138282
137979
137374
136739
136607
148032
147408
146522
145656
144978
144458
143691
136996
136859
136729
136622
136410
136115
135716
105177
105452
105839
106188
106491
106728
106970
44242
44653.7
44940.1
45278.5
45831.2
46339.2
46698.2
43740
43864.6
44030.2
44117.3
44082.7
44048.2
44005.9
100274
100668
101156
101710
101922
101461
101107
127740
127848
128307
129122
129699
129804
129961
135713
135678
135834
136222
136819
137475
137629
124607
124679
124944
125507
126126
126578
126691
94011.7
94178.4
94446.3
94740.9
94983.5
95179.6
95306.9
40728.2
40708.2
40727.1
40710.4
40672.6
40638.8
40614.8
40505.2
40543.6
40586.8
40627.7
40641.7
40594.4
40557.8
91905.9
92019.6
92306.3
92515.8
92599.6
92528.1
92416.3
120167
120152
120298
120617
120942
121148
121266
128605
128628
128776
129049
129371
129665
129745
117977
118042
118220
118528
118828
119016
119057
88525.1
88588.1
88697.1
88819.9
88955.7
89069.2
89148.7
38586.7
38654.6
38669
38645.4
38667.4
38648.9
38599.2
39366.6
39373.1
39382.5
39391.5
39394.6
39410.7
39415.8
88129.4
88103.3
88072.4
88065.4
88098.9
88140.6
88176.1
115052
114945
114843
114882
114925
114926
114967
123710
123585
123483
123443
123450
123487
123442
114564
114541
114540
114553
114567
114556
114449
87142.3
87163.6
87166.7
87177.1
87202.3
87203.3
87193.2
38277.5
38239.5
38239
38272.5
38246
38250.8
38289.5
40093.5
40093.8
40095.5
40097.7
40096.2
40095.3
40091.9
87699.2
87674.3
87664.5
87633.6
87591.4
87530.4
87493.3
111511
111451
111366
111317
111236
111099
111121
119200
118970
118774
118629
118521
118486
118287
112089
112015
111996
111973
111909
111898
111800
87931.9
87926
87934.4
87939.5
87943.4
87936.2
87922
39639.3
39553.4
39541.9
39597.6
39564.8
39595.7
39692.3
48940.5
48944.4
48948.8
48957.1
48967.1
48978.7
48987.1
86713.5
86732.4
86764.5
86794.3
86807.2
86799.1
86789.4
106385
106390
106408
106469
106507
106450
106505
112963
112768
112693
112627
112529
112563
112300
107029
106960
106991
107048
107018
107057
107033
87291.8
87274.9
87283.1
87310.4
87311
87325.2
87357.7
49268.1
49294.4
49298.6
49282.5
49300.8
49299.2
49273.1
90413.9
96068
100828
104491
106484
106490
103683
158910
163578
168065
171734
173891
174354
173634
187190
186711
186637
187066
187998
189064
189749
199000
197246
196103
196266
197580
199160
200082
191457
190670
190392
190675
191380
192367
193104
163816
167584
171474
175059
177568
178347
178096
88941.9
94659.9
99686.9
103610
106161
106671
104374
85927.8
92047.5
96686.1
100123
101696
101077
100084
155688
159854
163845
167339
169690
170564
171230
186635
185853
185564
185809
186569
187571
188549
198952
196976
195588
195464
196772
198720
200115
191287
190349
189826
189833
190339
191389
192353
161463
164943
168431
171669
174056
175458
176440
85236.8
90934.3
95944.2
99875.9
102137
102402
101757
79056.3
85771.1
90323.2
93522
95523
96678.9
97531.2
151144
154506
157904
161381
164604
167351
169850
186140
184889
184191
184187
184815
185853
186939
198830
196474
194900
194568
195718
197933
199741
191270
190212
189419
189075
189379
190343
191309
159276
162076
164799
167463
170167
172953
175523
81851.4
86719.4
91292.7
94952.8
97217.2
98775.9
100148
72574.8
78934.7
83375.2
86784.1
89612
92128.6
93928.3
147236
149653
152452
155717
159042
162888
166607
185945
184260
182890
182380
182784
183802
184745
198431
195526
193635
193384
194707
197021
198841
191372
190197
189225
188499
188392
188974
189689
158428
159966
161796
163780
166169
169368
172742
80355
83499.3
86876
90035.4
92615.5
95026.7
97513.2
69111.3
74397.1
78657.6
82054.5
84879.8
87269.4
89031.1
144655
146294
148700
151678
154461
157815
161154
185765
183602
181657
180414
180320
181051
181751
197218
193713
191380
191518
193271
195698
197520
190848
189687
188577
187545
186932
187024
187514
157951
158604
159409
160805
162681
165492
168675
79529.6
81166.3
83363
86295.2
89164.3
91697.5
94103.3
68791.7
73075.4
76373.2
79331.8
81681
83529.3
83792.5
143185
144723
146812
149156
150863
152945
154967
184630
182441
180049
178103
177294
177558
178389
194119
190740
188817
188712
190500
193232
195077
188642
187382
186323
185313
184415
184284
184960
156311
156308
156833
158132
159429
161663
163894
77809.2
78276.7
79822.6
83381
86644.5
88935
90270.5
68355.9
71979.1
74037.1
76374.9
77827.9
79246.2
77788.4
142010
144067
144586
145853
146545
148016
148533
179420
178386
177427
175375
173899
173732
174738
186503
183793
183736
184591
186732
189861
192002
182736
181856
182146
182005
181103
180857
181779
153240
153010
153531
154351
155185
157407
158540
75250.9
74755.5
75644.2
79421.2
82529.4
84302.7
84797.6
56968.7
56558.2
56866.3
56878
57161.5
57017.3
57241.4
125912
126565
126843
127269
127864
128546
129028
149681
153745
157015
158996
159942
160544
160975
152426
158165
163097
167015
170053
172704
174460
155213
159010
162707
165221
166503
167377
167923
136997
137799
138108
138012
138053
138423
138793
63905
63563.9
63048.2
62458.4
62159
61952.9
61317.9
48056.4
47714.7
47484
47182.8
47025.5
46942.8
47043.7
110024
110007
110150
109930
109563
109378
109316
140877
141105
141128
141040
141016
141100
141218
150371
151048
151476
151905
152397
153017
153464
145813
146182
146451
146520
146391
146427
146601
118302
118366
118348
118360
118242
117990
118033
53185.4
52991.5
52891.1
52678.6
52449.3
52287.5
52401.2
41633.3
41604.5
41572.8
41498.8
41438.5
41312.1
41198.1
97395.5
97319
97147.8
96866.2
96512.3
96123
95857.2
129588
129382
128841
128161
127663
127391
127297
140643
140508
139924
139307
138917
138788
138839
132542
132376
131954
131321
130707
130339
130232
101826
101811
101753
101576
101330
100976
100695
43967.6
44087.2
44024.7
43981.2
43923.7
43849.4
43786.1
39084.9
39031.7
39045.3
39147
39164.9
39146.4
39091
90124
90033.3
89982.1
89915.7
89803.5
89740.5
89748.8
119656
119644
119478
119236
119052
118981
118990
129713
129741
129589
129436
129337
129320
129358
120402
120411
120369
120244
120056
119947
119931
91392.9
91350.5
91292.5
91224.1
91108
91023.4
91014.2
39861.2
39889.6
39897.1
39941.5
39986.6
39986.9
39959.3
38553.3
38580.4
38564.3
38513.2
38493.2
38486.4
38509.6
87618.8
87614.1
87614.4
87641.7
87663.3
87675
87682.6
114596
114688
114698
114762
114844
114959
115077
122873
123036
123101
123230
123436
123682
123886
114110
114253
114362
114484
114583
114662
114708
87553.6
87581.9
87603.2
87634.9
87663.3
87684.1
87679.4
39158.5
39149.3
39133.8
39116.5
39077.2
39053.3
39058
39801.1
39867.5
39848.1
39728.9
39665.9
39680.8
39755.5
88420.7
88414.5
88405.4
88398.2
88403.7
88414.6
88408.5
112514
112631
112582
112610
112637
112691
112782
119047
119294
119232
119288
119452
119689
119944
111948
112052
112070
112139
112167
112202
112255
88177.2
88173.6
88163.5
88141.7
88118.7
88122.2
88128.4
40273.3
40249.3
40203
40130
40023.2
39977.7
40017
49238.4
49218.2
49229.9
49268.8
49283.2
49280.1
49264.7
87932.5
87933.5
87897.3
87825.9
87761.8
87716.6
87691.7
108452
108528
108393
108289
108189
108127
108127
114437
114706
114491
114489
114508
114574
114741
108217
108253
108183
108137
108008
107944
107956
87845.9
87825.6
87787.3
87724.1
87637.7
87584.4
87577
49087.2
49093.4
49105.5
49125.4
49158.2
49166.8
49148.3
)
;

boundaryField
{
    fuel
    {
        type            zeroGradient;
    }
    primary_air
    {
        type            zeroGradient;
    }
    Secondary_air_RHS
    {
        type            zeroGradient;
    }
    Secondary_air_LHS
    {
        type            zeroGradient;
    }
    outlet
    {
        type            totalPressure;
        rho             rho;
        psi             none;
        gamma           1;
        p0              uniform 100000;
        value           nonuniform List<scalar> 
98
(
45075.8
76698.9
100000
100000
100000
76414
44976.2
44848.4
76468.3
100000
100000
100000
76352.8
44937.3
44826.1
76456.7
100000
100000
100000
76370.2
44914.5
45012.5
76605.2
100000
100000
100000
76434.7
44874.7
45021.9
76451.6
100000
100000
100000
76438.7
44925.8
45023.3
76354.1
100000
100000
100000
76267.5
44962.5
44864.6
76353.9
100000
100000
100000
75960.7
44922.1
44829.8
75222.4
100000
100000
100000
75778.9
44784.7
44805.1
75319.1
100000
100000
100000
75905.6
44959.8
44809.7
75424.9
100000
100000
100000
75998.1
44945
44840.9
75525.1
100000
100000
100000
75924
44771.9
44821.2
75606.1
100000
100000
100000
76036.8
44983.6
44844.7
75574.1
100000
100000
100000
76053.9
44993.6
44848.3
75542.1
100000
100000
100000
76020.4
44822.3
)
;
    }
    stove_body
    {
        type            zeroGradient;
    }
    frontAndBack
    {
        type            empty;
    }
}


// ************************************************************************* //
