/*--------------------------------*- C++ -*----------------------------------*\
  =========                 |
  \\      /  F ield         | OpenFOAM: The Open Source CFD Toolbox
   \\    /   O peration     | Website:  https://openfoam.org
    \\  /    A nd           | Version:  6
     \\/     M anipulation  |
\*---------------------------------------------------------------------------*/
FoamFile
{
    version     2.0;
    format      ascii;
    class       surfaceScalarField;
    location    "0.01";
    object      phi;
}
// * * * * * * * * * * * * * * * * * * * * * * * * * * * * * * * * * * * * * //

dimensions      [1 0 -1 0 0 0 0];

internalField   nonuniform List<scalar> 
10143
(
-8.05977e-08
-4.04335e-05
4.59365e-05
-2.25443e-07
-3.98715e-05
4.60155e-05
9.56461e-08
-3.9924e-05
4.56625e-05
3.17193e-07
-3.97104e-05
4.55423e-05
1.29097e-07
-3.93914e-05
4.57124e-05
-1.02215e-08
-3.9591e-05
4.5762e-05
-4.00533e-05
4.53502e-05
-4.61941e-07
-1.43846e-05
-1.47112e-05
4.15899e-07
-1.41704e-05
-1.59373e-05
-2.54034e-07
-1.39982e-05
-1.4487e-05
-1.55493e-07
-1.40351e-05
-1.50463e-05
2.56172e-07
-1.39542e-05
-1.501e-05
-3.48354e-07
-1.40845e-05
-1.39799e-05
-1.44876e-05
-1.4999e-05
4.0068e-07
-4.91712e-06
3.01125e-06
5.44907e-07
-5.00752e-06
3.60086e-06
-1.55425e-07
-5.42202e-06
5.34549e-06
-5.31136e-07
-5.34166e-06
4.88782e-06
-2.88408e-08
-5.18705e-06
3.81495e-06
-3.78966e-07
-5.30156e-06
4.45924e-06
-4.68661e-06
2.69168e-06
2.01788e-09
4.90459e-06
3.17113e-06
1.97682e-07
4.87252e-06
2.87214e-06
-2.62676e-07
5.26548e-06
2.7053e-06
-7.76995e-07
5.35236e-06
2.75663e-06
-8.70058e-07
5.16621e-06
2.67329e-06
-6.14148e-07
5.28173e-06
2.0751e-06
4.78069e-06
2.90708e-06
-1.09603e-07
1.48628e-05
3.03588e-06
-1.05994e-07
1.49414e-05
2.75798e-06
-1.67453e-07
1.45147e-05
3.91136e-06
-2.84378e-07
1.4177e-05
4.39698e-06
1.46182e-07
1.44852e-05
3.2934e-06
-2.82948e-07
1.46022e-05
4.15879e-06
1.48206e-05
2.51833e-06
2.26046e-07
4.06198e-05
-1.50723e-05
6.75336e-07
4.04152e-05
-1.50973e-05
-1.06492e-07
4.0226e-05
-1.40038e-05
-1.25893e-07
3.98017e-05
-1.47401e-05
5.07391e-07
3.98372e-05
-1.50966e-05
-1.15062e-07
4.01628e-05
-1.3887e-05
4.05432e-05
-1.48818e-05
1.6514e-07
4.57113e-05
9.5774e-08
4.58793e-05
1.62469e-07
4.59433e-05
1.91895e-07
4.58433e-05
5.98167e-08
4.59247e-05
4.36306e-08
4.6028e-05
4.57829e-05
-8.77098e-08
-1.04383e-05
6.72745e-05
-2.2658e-08
-1.13214e-05
6.87217e-05
1.65751e-07
-1.09951e-05
6.80207e-05
4.19005e-07
-1.09739e-05
6.76602e-05
5.6198e-08
-1.00544e-05
6.71392e-05
-1.43211e-07
-1.03401e-05
6.72229e-05
-1.07807e-05
6.65319e-05
-1.05301e-06
2.42081e-06
-2.69957e-05
-1.28366e-07
2.36776e-07
-2.91285e-05
-1.68093e-07
8.77965e-07
-2.71338e-05
5.57469e-07
6.80723e-07
-2.8294e-05
8.6672e-07
1.72043e-06
-2.79209e-05
3.0321e-07
2.05036e-06
-2.65056e-05
2.10376e-06
-2.81612e-05
7.09227e-07
1.45259e-06
1.22639e-06
3.01759e-07
1.65389e-06
1.04651e-06
-1.12735e-07
3.41687e-07
4.54584e-06
-9.64535e-08
4.73929e-07
3.32974e-06
3.70432e-07
8.36069e-07
2.29097e-06
-8.2919e-08
1.31907e-06
3.99675e-06
1.75546e-06
9.53041e-07
8.91248e-08
-1.62661e-06
3.66505e-06
6.42122e-07
-1.73836e-06
3.0985e-06
-2.87388e-07
-1.15282e-06
2.57329e-06
-1.18383e-06
-9.19732e-07
2.50018e-06
-1.35881e-06
-8.56466e-07
1.97597e-06
-8.77887e-07
-1.08838e-06
1.38779e-06
-1.74053e-06
2.99912e-06
-1.52011e-07
-1.73709e-06
1.35752e-06
-4.89442e-07
-1.38275e-06
7.26245e-07
-1.03101e-07
-1.8982e-06
2.28937e-06
1.16459e-07
-1.41773e-06
2.797e-06
5.86867e-07
-9.89697e-07
1.04676e-06
6.04602e-08
-5.99748e-07
2.38399e-06
-1.69179e-06
5.47645e-07
-1.90973e-07
1.16272e-05
-2.87771e-05
2.66244e-07
1.06058e-05
-2.80681e-05
-2.51578e-07
1.12797e-05
-2.73492e-05
3.3167e-07
1.09932e-05
-2.86756e-05
9.73873e-07
1.10799e-05
-2.85392e-05
5.22651e-07
1.15942e-05
-2.62928e-05
1.16488e-05
-2.82188e-05
3.53433e-07
6.72303e-05
2.68591e-07
6.76603e-05
3.70999e-07
6.79959e-05
8.65984e-08
6.76058e-05
-1.17037e-07
6.81663e-05
-4.1094e-08
6.86512e-05
6.77197e-05
-3.85471e-07
1.18999e-05
6.64994e-05
1.22982e-07
1.05355e-05
6.80247e-05
4.85039e-07
1.07576e-05
6.73578e-05
1.06824e-06
1.08328e-05
6.66307e-05
5.93007e-07
1.15463e-05
6.63036e-05
4.39797e-08
1.14774e-05
6.65448e-05
1.17025e-05
6.56028e-05
-1.01517e-06
4.64385e-06
-1.98906e-05
-7.73079e-08
1.32122e-06
-2.18953e-05
2.16195e-07
1.55618e-06
-1.92756e-05
8.18586e-07
1.48756e-06
-2.05722e-05
5.94116e-07
3.07584e-06
-2.06748e-05
3.49398e-07
3.48307e-06
-1.98e-05
4.05189e-06
-2.12835e-05
8.53157e-07
2.29661e-06
3.04892e-07
3.088e-07
2.63228e-06
-1.9452e-06
-4.45837e-08
1.35689e-06
2.89238e-06
-1.13391e-07
1.37463e-06
1.30838e-06
1.92941e-07
2.26888e-06
4.40993e-07
-8.09123e-09
3.67208e-06
1.65858e-06
3.20388e-06
-5.72245e-07
-3.3169e-08
-2.79706e-06
6.08744e-06
6.45883e-07
-3.3318e-06
5.57786e-06
-3.89772e-07
-1.92249e-06
4.12771e-06
-1.29184e-06
-1.79646e-06
3.82208e-06
-1.34786e-06
-2.03784e-06
3.55897e-06
-7.38819e-07
-2.72063e-06
4.35512e-06
-3.12341e-06
5.86589e-06
-1.49895e-07
-3.65583e-06
4.10224e-08
-6.30385e-07
-2.83343e-06
-1.66256e-06
1.45427e-07
-4.22265e-06
1.40765e-06
3.47043e-11
-1.76403e-06
6.60274e-07
3.50419e-07
-4.08607e-06
3.05018e-07
2.73731e-07
-3.86999e-06
1.21184e-06
-3.96849e-06
-7.06891e-07
-3.13871e-07
-1.0917e-05
-2.22302e-05
3.28316e-07
-1.07063e-05
-2.2038e-05
-4.35448e-07
-1.13187e-05
-2.10794e-05
5.93418e-07
-1.10228e-05
-2.16421e-05
3.75058e-07
-1.17228e-05
-2.22102e-05
2.52214e-07
-1.12387e-05
-2.01741e-05
-1.11177e-05
-2.18515e-05
3.23546e-07
6.68818e-05
-1.98663e-08
6.79803e-05
-5.46493e-08
6.73787e-05
-1.55914e-07
6.73749e-05
-2.74646e-07
6.71163e-05
-1.00455e-07
6.77317e-05
6.75217e-05
-5.06704e-07
1.80226e-05
5.45342e-05
2.05448e-07
1.55793e-05
5.60656e-05
6.15454e-07
1.54236e-05
5.58493e-05
1.13607e-06
1.55687e-05
5.48492e-05
9.1156e-07
1.70559e-05
5.42039e-05
5.11269e-07
1.70777e-05
5.48635e-05
1.781e-05
5.3906e-05
-6.8723e-08
7.27503e-06
-1.19841e-05
-1.90051e-07
4.97912e-06
-1.42339e-05
2.75627e-07
4.36763e-06
-1.16804e-05
2.83861e-07
4.89256e-06
-1.29264e-05
7.74062e-08
6.01836e-06
-1.25003e-05
5.40728e-08
5.86472e-06
-1.16017e-05
6.72375e-06
-1.29319e-05
8.8036e-07
1.99686e-06
2.06822e-06
3.90584e-07
1.84652e-06
-7.77508e-07
-3.88418e-08
2.32926e-06
2.94184e-06
-1.14656e-07
2.24595e-06
1.57545e-06
2.45477e-08
1.94524e-06
1.79112e-06
-2.70124e-08
3.06598e-06
1.92415e-06
2.64764e-06
8.88347e-07
-4.17364e-08
-2.29376e-06
7.77641e-06
5.60721e-07
-2.37653e-06
6.45067e-06
-4.72097e-07
-5.56449e-09
4.80243e-06
-1.3321e-06
-2.93003e-07
4.53333e-06
-1.17024e-06
-2.58463e-06
5.20639e-06
-6.3636e-07
-3.0775e-06
7.18663e-06
-2.65836e-06
7.87727e-06
-9.28587e-08
-6.22154e-06
1.51879e-06
-6.3972e-07
-6.02024e-06
-5.25053e-08
2.03667e-07
-6.04011e-06
4.04112e-06
1.39907e-07
-4.32698e-06
2.30934e-06
1.46522e-07
-6.87824e-06
1.93292e-06
3.11398e-07
-7.35545e-06
2.64856e-06
-6.58322e-06
9.41832e-07
2.68494e-08
-1.72642e-05
-1.38725e-05
2.93027e-07
-1.66072e-05
-1.46613e-05
-3.37302e-07
-1.71549e-05
-1.24741e-05
9.46567e-07
-1.7273e-05
-1.28639e-05
4.13546e-08
-1.72222e-05
-1.43062e-05
-3.10285e-07
-1.6827e-05
-1.36629e-05
-1.73971e-05
-1.40468e-05
-1.68662e-08
5.55471e-05
-2.04692e-07
5.68211e-05
-4.01549e-07
5.55368e-05
-3.60094e-07
5.54143e-05
-2.09621e-07
5.4522e-05
-3.41924e-08
5.56236e-05
5.60353e-05
-4.94454e-07
1.99039e-05
3.72449e-05
3.57904e-07
1.74212e-05
3.94127e-05
4.6588e-07
1.77952e-05
3.9517e-05
1.07768e-06
1.77793e-05
3.79718e-05
1.10515e-06
1.91891e-05
3.65692e-05
7.05103e-07
1.93025e-05
3.77136e-05
1.98687e-05
3.68849e-05
6.4295e-07
7.65796e-06
-4.03396e-06
-3.19015e-07
6.82365e-06
-6.30007e-06
4.19731e-07
6.37589e-06
-4.6166e-06
3.87859e-08
6.71113e-06
-5.12753e-06
-2.89078e-07
7.6598e-06
-4.56031e-06
-2.42676e-07
7.62733e-06
-3.91164e-06
7.62868e-06
-4.57782e-06
9.23773e-07
1.36267e-06
4.80257e-06
3.02788e-07
2.07143e-06
2.01573e-06
5.09862e-08
2.28452e-06
4.71947e-06
4.48154e-09
2.17043e-06
3.57876e-06
-1.56749e-07
2.5682e-06
4.36757e-06
3.20658e-08
1.90994e-06
4.83723e-06
2.09409e-06
3.81222e-06
-2.34493e-07
-1.93336e-06
8.73707e-06
3.59041e-07
-2.31392e-06
7.55607e-06
-5.12653e-07
-1.24184e-06
6.53873e-06
-1.18719e-06
-1.50504e-06
6.23539e-06
-7.80113e-07
-2.47989e-06
7.16862e-06
-6.21169e-07
-2.05412e-06
8.22905e-06
-1.92555e-06
8.69742e-06
3.17629e-09
-7.23577e-06
4.21467e-06
-5.37241e-07
-7.28252e-06
2.80553e-06
1.74341e-07
-7.07723e-06
6.56128e-06
2.27414e-07
-7.0312e-06
5.16964e-06
-4.25075e-08
-6.59514e-06
3.70475e-06
2.04366e-07
-7.00672e-06
4.78082e-06
-7.178e-06
3.79083e-06
2.91446e-07
-1.95175e-05
-5.42292e-06
7.48236e-08
-1.87193e-05
-6.78946e-06
1.00024e-07
-1.90304e-05
-4.37548e-06
7.95985e-07
-1.90458e-05
-5.43126e-06
-3.19965e-07
-1.83944e-05
-5.03646e-06
-4.81498e-07
-1.83686e-05
-5.90627e-06
-1.95563e-05
-5.68443e-06
-2.02461e-08
3.82882e-05
-4.47422e-07
4.03706e-05
-3.7926e-07
3.81959e-05
-6.53519e-07
3.83444e-05
5.85942e-08
3.69536e-05
-2.7274e-08
3.91287e-05
3.87188e-05
-3.99001e-07
1.74798e-05
2.1458e-05
6.38002e-07
1.6339e-05
2.30794e-05
2.00355e-07
1.797e-05
2.31203e-05
7.49798e-07
1.59915e-05
2.23494e-05
9.70726e-07
1.59969e-05
2.12567e-05
8.3746e-07
1.69565e-05
2.18049e-05
1.78509e-05
2.11744e-05
6.76423e-07
6.56073e-06
2.79939e-06
-6.10498e-07
6.75502e-06
1.00609e-06
6.72647e-07
6.09125e-06
2.10615e-06
1.53212e-08
6.62192e-06
1.38919e-06
-7.14198e-07
6.93774e-06
1.69333e-06
-3.26957e-07
6.46472e-06
2.48405e-06
7.08367e-06
2.38836e-06
1.03438e-06
-7.34381e-07
8.60211e-06
8.49968e-08
8.14358e-07
6.39846e-06
1.1608e-07
7.76594e-08
8.2229e-06
1.08539e-07
2.72629e-07
7.45547e-06
-2.27955e-07
1.58823e-06
7.5162e-06
-8.57144e-09
3.46436e-07
8.25272e-06
6.15835e-07
7.73834e-06
-4.98383e-07
-4.28365e-08
6.09005e-06
2.35525e-07
-1.51651e-06
6.57415e-06
-5.30692e-07
-1.01012e-06
5.85264e-06
-1.08349e-06
-1.31485e-06
5.82701e-06
-6.70267e-07
-8.51336e-07
6.63251e-06
-7.21597e-07
1.87185e-07
5.89305e-06
-2.69938e-07
6.40507e-06
2.63413e-07
-6.51408e-06
7.94656e-06
-4.8079e-07
-6.35848e-06
5.89269e-06
1.59454e-07
-6.36219e-06
8.79222e-06
2.63948e-09
-6.26746e-06
7.79923e-06
-9.12439e-08
-6.55184e-06
7.03152e-06
9.4336e-08
-5.94389e-06
8.23842e-06
-6.57025e-06
7.69808e-06
2.37233e-07
-1.74093e-05
1.85979e-06
7.44281e-08
-1.75322e-05
6.68945e-07
4.42285e-07
-1.66767e-05
1.91786e-06
9.92076e-07
-1.73904e-05
1.2585e-06
-7.08279e-07
-1.3904e-05
8.59434e-07
-1.94473e-07
-1.78587e-05
1.71719e-06
-1.77382e-05
1.8679e-06
1.08337e-07
2.20778e-05
-5.6566e-07
2.45619e-05
-3.01017e-07
2.21755e-05
-8.38461e-07
2.24334e-05
2.92856e-07
2.27547e-05
-5.99908e-08
2.26186e-05
2.22595e-05
-5.31118e-07
1.93686e-05
8.5014e-07
1.93113e-05
9.19026e-08
2.12835e-05
7.95201e-07
1.91361e-05
1.01132e-06
1.84863e-05
1.06723e-06
1.91395e-05
1.96135e-05
6.46152e-07
9.49213e-06
-6.64567e-07
9.44607e-06
1.20297e-06
9.14289e-06
3.10499e-07
9.45712e-06
-8.37827e-07
9.46376e-06
-9.48784e-08
8.87856e-06
9.85573e-06
1.3093e-06
3.31612e-06
-7.54162e-08
3.73006e-06
3.27948e-07
3.36063e-06
3.17715e-07
3.40978e-06
1.83397e-08
3.66488e-06
-4.65117e-08
3.78387e-06
3.89843e-06
-5.05872e-07
-3.40169e-06
1.67606e-07
-3.58732e-06
-6.16706e-07
-3.20475e-06
-1.11639e-06
-3.47215e-06
-8.33627e-07
-3.16215e-06
-8.89812e-07
-3.57909e-06
-3.75288e-06
4.37928e-07
-9.33449e-06
-6.38956e-07
-9.63802e-06
2.81361e-07
-8.71689e-06
1.05144e-07
-9.04706e-06
2.28946e-07
-9.12714e-06
1.16995e-07
-8.5898e-06
-9.5252e-06
-2.16367e-07
-1.92723e-05
2.73828e-07
-2.30111e-05
6.07794e-07
-1.91572e-05
8.56599e-07
-2.02867e-05
-1.06983e-06
-1.92225e-05
1.01063e-07
-2.02463e-05
-1.96203e-05
1.53161e-07
-8.65741e-07
-4.48194e-07
-9.51218e-07
2.58035e-07
3.84903e-09
-0.00300249
0.00310156
-0.000164193
-0.00147428
0.00297024
-0.00454422
0.000484934
0.00306852
-0.00504642
0.00282054
0.00315638
-0.00550896
0.00497572
0.0027817
-0.00498071
0.00384147
0.00203062
-0.000941637
0.00144024
0.00237481
-0.00357936
0.00477277
0.00181315
-0.00218506
0.00512748
-0.00371696
0.00258458
0.0054884
-0.0072832
0.00677186
0.0057519
-0.00692111
0.00915214
0.00555788
-0.00533148
0.0067975
0.00495698
-0.00068139
0.00444838
0.00377686
-0.00276197
0.00320498
0.00435911
-0.00189757
0.00246972
0.00166912
0.000666874
0.00163258
0.00116047
0.00365163
0.00155203
0.00106213
0.00497613
0.00260668
0.00151739
0.00414891
0.00324376
0.00250095
0.0038606
0.00483567
0.000507639
-0.00294359
0.00553506
0.000756773
-0.00233677
0.00438667
0.000220401
-0.00210892
0.0040406
-0.000814709
-0.00170781
0.00401088
-0.000915964
-0.00159679
0.00409969
-0.000433976
-0.0018355
0.00448167
-0.00226903
0.00564631
-0.00259522
-0.00465978
0.00438407
-0.00290545
-0.00424697
0.00220597
-0.00194429
-0.00462255
0.00151337
-0.000270165
-0.00479594
0.00136103
0.00137177
-0.00465867
0.0013967
0.00213133
-0.00457534
0.00199171
-0.00454065
0.00454928
-0.00174053
-0.00375472
0.000949116
-0.000196326
-0.00362289
-0.00210543
0.000843893
-0.00343675
-0.00221408
0.0017137
-0.00315647
-0.00251514
0.0033176
-0.0026625
-0.00361612
0.00375912
-0.0023716
-0.00264571
-0.00275493
0.00202986
-5.18936e-06
-0.00356329
0.00200075
-0.0054658
0.00378103
-0.00509644
0.00455289
-0.00383144
0.00435394
-0.00240763
0.00362965
-0.00164147
0.000860899
-0.00277289
0.00284276
-0.000278465
-0.00284912
0.00137726
-0.00586079
-0.00216221
0.00202833
-0.00773022
-0.00137712
0.00228664
-0.00857454
0.000448476
0.00183822
-0.00861791
0.0012732
0.00194198
-0.00372594
0.00163715
0.0019553
-0.00214322
0.00343532
0.00328542
-0.000488919
0.00359121
-0.00757424
0.000569649
0.00312382
-0.00952584
0.00125123
0.00373897
-0.00924501
0.00241513
0.00336661
-0.00840838
0.00282857
0.00294009
-0.0023098
0.00299349
0.00516514
-0.00172977
0.00237483
0.00723249
-0.00129271
0.00117831
0.0035236
0.000122575
0.000170131
0.00258972
0.00220256
-0.000130317
0.00267505
0.00314037
0.000544774
0.00325565
0.00232707
0.00138533
0.00478476
0.00263174
0.00757624
0.00151262
-0.00180408
0.00803031
0.00147045
-0.000984545
0.00636128
0.000641533
-0.00069636
0.0054394
-0.000800882
-0.00027652
0.00531912
-0.00159345
-0.000289954
0.00542008
-0.00165812
-0.000520591
0.00621815
-0.00133574
0.00776423
-0.000865147
-0.0035445
0.00701756
-0.00147766
-0.00246678
0.00423626
-0.00161593
-0.00280577
0.0036419
-0.00091386
-0.00318248
0.00345304
3.07241e-07
-0.00291437
0.00305564
0.000497068
-0.00272409
0.0037068
-0.00326377
0.00714585
0.00289481
-0.00244206
-0.00289559
0.00465265
-0.00228069
-0.00397899
0.00354205
-0.00168678
-0.00234735
0.00223462
-0.00178285
-0.00272762
0.00210558
-0.00182744
-0.00464413
0.00275839
-0.00181695
-0.00416931
-0.00247038
0.00405066
0.00297993
-0.00884855
0.00475878
-0.00944965
0.00577264
-0.00770945
0.00584118
-0.00557641
0.00502578
-0.00334749
0.00349529
-0.00190987
0.00188036
-0.00193569
0.00226039
-0.000555083
-0.00259026
0.000830897
-0.0059988
-0.00233833
0.00122742
-0.00910109
-0.00219407
0.00154532
-0.0101561
-0.00199124
0.00177343
-0.0104835
-0.00059179
0.00277338
-0.00772035
0.00246051
-0.00117448
-0.00129307
0.00379145
0.003194
-0.00143599
0.00363412
-0.00986438
-0.00358641
0.00274287
-0.008957
-0.0044805
0.00233525
-0.00945085
-0.00274779
0.0015053
-0.0100287
4.94058e-05
0.00168779
-0.00411123
0.00291135
0.00473172
-0.000575552
0.00249372
0.00929545
0.00101249
0.00152841
0.00414202
0.00180024
0.000688096
0.00383142
0.00238712
8.59751e-05
0.0042317
0.0020081
0.000771701
0.0042326
0.00138199
0.00155541
0.0055131
0.00218625
0.00985567
0.00107627
-0.000908937
0.0100991
0.00126785
-0.000966562
0.00840253
0.000810876
-0.00096197
0.00728322
-0.000578951
-0.000159802
0.00678983
-0.00156319
0.000155679
0.00681302
-0.00158293
-5.68616e-05
0.00764425
-0.00102822
0.00917144
0.000702854
-0.00394042
0.00949835
-0.000199297
-0.00278044
0.00687912
-0.00167201
-0.00203321
0.00599026
-0.00232026
-0.00153835
0.00531495
-0.00184903
-0.00203232
0.0046864
-0.000813633
-0.00238217
0.00502889
-0.00351159
0.00897706
0.0056194
-0.000220809
-0.0115756
0.00715664
-0.000194507
-0.0076586
0.00712468
-0.000398075
-0.00386038
0.00625215
-0.000900317
-0.00272001
0.00386347
-0.000969808
-0.0035013
0.00239232
-0.00110381
-0.00399499
-0.00173203
0.00492524
0.00221189
-0.0112677
0.00345015
-0.0108706
0.00419421
-0.00882392
0.00436922
-0.00660254
0.0039099
-0.00383357
0.00253053
-0.00163234
0.00269293
-0.00115089
0.00131117
-0.000638068
-0.00181572
8.48783e-05
-0.00535396
-0.00139622
0.000198405
-0.009666
-0.00140105
0.00060393
-0.0107106
-0.00248892
0.00174282
-0.0110484
-0.00219424
0.00208974
-0.00992706
0.00189751
-0.00508636
-0.000645141
0.00418351
0.00121109
-0.00466016
0.00289864
-0.00860219
-0.0074384
0.00139558
-0.007482
-0.00794757
0.000848048
-0.00930448
-0.00640572
0.0010972
-0.0107433
-0.00298704
0.00245489
-0.00754491
0.00332203
0.000453838
0.00166615
0.00251825
0.00947905
0.00265289
0.00151986
0.00463411
0.00289292
0.000574183
0.00437797
0.0019424
0.000571064
0.00536722
0.000281258
0.00147702
0.00541053
-0.000214539
0.00179297
0.00669597
0.00157896
0.0115694
0.000444781
0.000320469
0.0113866
0.000662934
-0.000493617
0.00990539
0.000339405
-0.00108933
0.00904756
-0.000806376
-0.000181933
0.00859727
-0.00135924
0.000185401
0.00851742
-0.00124604
-0.000164064
0.00925073
-0.00136742
0.010563
0.00140355
-0.00194357
0.0104115
-0.00035508
-0.0011004
0.00921408
-0.0020878
-0.00159795
0.0081025
-0.00305573
-0.00108983
0.00701209
-0.00292284
-0.00108545
0.00567454
-0.00183428
-0.00189427
0.00558233
-0.00351337
0.00932324
0.00333685
0.00051346
-0.0173041
0.00470569
0.000409821
-0.0104159
0.00571484
-0.000235659
-0.00598479
0.00720992
-0.000546585
-0.00457437
0.00561207
8.58527e-05
-0.00315883
0.00231764
-0.000101615
-0.00262462
-0.000669329
0.0046516
0.00132897
-0.0120847
0.00242525
-0.0115654
0.00283547
-0.00944811
0.00232758
-0.00659097
0.00199085
-0.00339198
0.0009346
-0.000696476
0.00297067
-0.000332712
0.000738678
-0.0010393
0.000403494
-0.000887148
-0.00518983
0.00128688
-0.000107372
-0.0104407
0.00107227
0.000402221
-0.0108633
-0.000266136
0.000851853
-0.0105068
-0.00144458
0.00129875
-0.00995234
0.00094197
-0.00731817
0.000274539
0.00379762
-0.00199467
-0.00501166
0.00192346
-0.00610412
-0.00783197
0.00141183
-0.00621133
-0.00900887
0.000564341
-0.00825418
-0.00879013
0.000570829
-0.0104898
-0.00551387
0.00260923
-0.0117066
0.00371704
-0.00735033
0.00348658
0.00198877
0.00794508
0.00352517
0.000709023
0.00578603
0.00293089
0.000308409
0.00600596
0.000712676
0.000729893
0.00728949
-0.00227901
0.00128748
0.00753262
-0.00244869
0.00126969
0.00815388
0.0012949
0.0116211
0.000269241
0.0010997
0.0116367
-8.74798e-05
-0.000218445
0.010904
-0.000581714
-0.00066972
0.0103094
-0.000994796
-0.000371485
0.00995244
-0.00126577
-0.000180381
0.0100648
-0.00147144
-0.000267396
0.0107098
-0.00154507
0.0115516
0.000871351
0.00105592
0.00958926
-0.000935277
0.00157194
0.00920354
-0.00249944
0.000278346
0.00864149
-0.00360456
-0.000764303
0.00832719
-0.00317194
-0.0015459
0.00641087
-0.00231464
-0.00166883
0.00589624
-0.00297842
0.0082944
0.000651074
0.00104351
-0.0181947
0.00147592
0.000409255
-0.0103131
0.00232588
0.000477567
-0.00706728
0.00420412
-0.000672635
-0.00643299
0.00361969
8.45758e-05
-0.00418247
0.00103884
3.69862e-05
-0.0018439
-0.000142711
0.00284931
0.00153245
-0.0125619
0.00219095
-0.011831
0.00276025
-0.00957367
0.00114827
-0.00564859
0.0005413
-0.00268744
-0.000264139
0.000127887
0.00260423
-0.000213478
0.000862628
-0.00167969
0.00135185
-0.000550917
-0.00615903
0.00256924
-0.00100368
-0.0106701
0.0022955
0.00022264
-0.0108264
0.00190098
0.000380197
-0.0105131
1.11095e-05
0.00135871
-0.00939851
9.91091e-05
-0.00730332
-0.00101936
0.00268776
-0.0027181
-0.00340307
0.00125602
-0.00551426
-0.00572962
0.000750763
-0.00568085
-0.00738164
0.000355762
-0.00674621
-0.00683513
-0.00077417
-0.00988314
-0.00395554
0.000226958
-0.0133567
0.00158818
-0.0125882
0.00344055
0.00055993
0.00670753
0.00411219
0.000112195
0.00606934
0.00303533
0.000328736
0.00734059
0.000278722
0.000970868
0.00927205
-0.00265592
0.000589293
0.00888547
-0.00281721
0.000279648
0.00802648
0.000764614
0.00950784
-0.000278062
0.00116834
0.0110587
-0.000600039
0.000553123
0.0106424
-0.000878886
0.000541087
0.0102846
-0.000531238
0.000549471
0.00985614
-0.00113831
0.000503881
0.010514
-0.00142759
4.85656e-06
0.0108697
-0.000577542
0.0110059
-0.000224146
0.00208181
0.00865204
-0.00168711
0.00219494
0.00898464
-0.00320821
0.001346
0.00930023
-0.00396986
0.000178637
0.00935709
-0.00348961
-0.000664655
0.0069411
-0.00241337
-0.0013872
0.00585133
-0.00199951
0.00694256
0.000129879
0.00184527
-0.0181745
0.00149911
0.00164536
-0.0112697
0.00225526
0.000597161
-0.00727316
0.00222376
-0.000819537
-0.0054824
0.00155701
-0.000328247
-0.00383529
0.000335432
-0.00041553
-0.00162644
-0.000221325
0.00119603
0.00147167
-0.0121484
0.00263389
-0.011334
0.00268629
-0.0089285
0.00076842
-0.0045082
-0.000191879
-0.00205756
-0.000657385
0.000165309
0.00175362
-0.00091085
0.00129009
-0.0020121
0.00154067
-0.000501679
-0.00794845
0.00340036
-0.00176231
-0.010766
0.00378026
-0.000939252
-0.0102749
0.00333607
-0.000459303
-0.00961593
0.00170077
0.00039021
-0.00817481
-5.60546e-05
-0.00547079
-0.00109426
0.00212849
-0.00241732
-0.00176619
0.00100235
-0.00635576
-0.00330182
-0.000811903
-0.00516351
-0.00422845
-0.00150205
-0.00535558
-0.00412877
-0.0022315
-0.00833477
-0.00182682
-0.00170219
-0.013575
-0.00094844
-0.0134998
0.00268041
-0.000396851
0.00663775
0.00337727
0.000134762
0.00606232
0.00110987
0.000969655
0.00767369
-0.000935449
0.0012935
0.00834018
-0.00298483
0.000942752
0.00752391
-0.00195302
0.000895061
0.00408748
0.00184482
0.00454564
-0.000872506
0.000322213
0.0110478
-0.000945099
0.00025462
0.010515
-0.000638373
0.000448192
0.0103837
-0.000463562
0.000273229
0.0104976
-0.000841373
0.00072254
0.0109038
-0.000997802
0.000661271
0.010978
0.000515959
0.0111034
-0.000206561
0.00246187
0.00648526
-0.00116446
0.00252443
0.00751025
-0.00234695
0.00138803
0.00949065
-0.00258883
4.63548e-05
0.00973265
-0.00291407
-0.000459074
0.00839508
-0.00203214
-0.00119061
0.00668623
-0.00200916
0.00722675
0.00117697
0.00202832
-0.0189732
0.00410402
0.00251651
-0.0141795
0.00440728
0.0011982
-0.00746361
0.00243243
-0.000397896
-0.00311622
0.000937456
-0.000809118
-0.00200594
8.85498e-05
-0.000622151
-0.00133834
-0.000661454
-7.44855e-05
0.00133245
-0.0114325
0.00307069
-0.0105615
0.00357017
-0.00819563
0.00193399
-0.00318787
-4.90282e-05
-0.000843464
-0.000384315
-0.000111441
0.000714596
0.00251957
0.00246232
-0.00635847
0.00157148
0.00447987
0.00212493
-0.0137087
0.0095502
0.00497704
0.00106387
-0.0115929
0.010063
0.00497908
0.0012949
-0.00992992
0.00869529
0.0041907
0.00145444
-0.00848684
0.00784663
0.00205522
0.00244744
-0.00658561
0.00630836
0.00221813
-0.00330333
0.00318326
0.000607679
0.00181066
-0.000763794
0.000764561
0.000559731
0.000779029
-0.00518406
0.00659795
-0.00105625
0.000171983
-0.00225279
0.00476681
-0.00110125
-0.00164745
-0.00205589
0.00503784
0.0015255
-0.00307097
-0.00564002
0.00750505
0.000802296
-0.00102161
-0.00954746
0.013761
0.000508432
-0.010588
0.0131986
0.00124195
-0.000204704
0.0069127
-0.00617658
0.000765663
-0.000150409
0.00718361
-0.00585769
-0.000705578
4.61353e-06
0.00807866
-0.00655572
-0.00383575
0.000410558
0.00878275
-0.00785339
-0.00677172
0.00086487
0.00545403
-0.00648246
-0.00493461
0.00166571
-0.00254425
-0.00177575
0.00231078
-0.00611121
-0.000312752
-0.000303624
-0.000593597
0.0108842
-0.0103326
-0.000239233
-0.00113147
0.0106652
-0.00992878
-0.000133883
-0.000775836
0.0108558
-0.0103226
-0.000312266
-7.4119e-05
0.0112754
-0.0106978
-0.000926768
0.000667092
0.0115115
-0.0107668
-0.00105347
0.000813321
0.0114621
-0.0106371
0.000850059
0.0105093
-0.0102267
0.00460603
0.000187777
-0.00186595
-0.00359195
0.0040715
0.00310769
0.00262939
-0.00641073
0.00136401
0.00156908
0.00841714
-0.00817207
-5.15298e-05
0.000246719
0.00975106
-0.00878435
-0.000544636
-0.000276264
0.00882886
-0.00742242
-0.000403191
-0.000639866
0.00846163
-0.00714447
-0.000879191
0.00837849
-0.00702392
0.00167072
-0.00186162
-0.019002
0.0194175
0.00574256
-0.00206579
-0.0149155
0.0160628
0.0075618
-0.00152958
-0.00675691
0.00810479
0.00676203
-0.000248227
-0.00150938
0.00276621
0.00527377
-2.64854e-05
2.8758e-05
0.00119284
0.00299512
0.000173363
0.000674625
0.000797561
0.000702331
0.00258405
-0.00113249
0.000499676
-0.0122489
0.00986873
0.00139772
-0.0125866
0.00964874
0.0014851
-0.00896528
0.00741566
0.00108929
-0.00153071
0.00172921
0.00114071
0.000306014
-0.000374807
0.0003878
0.00184363
-0.000919294
0.002464
-0.00136689
0.00454262
0.00278634
-0.0133376
0.00457179
0.00152051
-0.0151485
0.00517849
-0.00133669
-0.0107927
0.00479928
-0.00061841
-0.00888223
0.00344495
1.13137e-05
-0.00710954
0.00107978
0.000843884
-0.00502887
0.000543259
-0.00274393
0.00130541
0.00200585
-0.00117034
0.0017288
0.00104427
-0.00510315
-0.00111234
-0.000356856
-0.000436518
-3.88743e-05
-0.00194879
-0.00181296
0.0021889
-0.000892463
-0.0068877
0.00215776
0.00126333
-0.0099634
0.00213385
-0.00999678
0.000414247
7.54503e-05
0.00839239
-0.000167218
0.000198587
0.00851434
-0.00311701
0.000954261
0.0095935
-0.00639557
0.00126969
0.00876649
-0.00541319
0.00107655
0.00258462
-0.00296242
0.000659284
-0.00417226
0.00158988
-0.00837292
-0.000219396
-0.000654007
0.0116808
-0.000161284
-0.00138604
0.0120153
0.00017298
-0.00121073
0.0125842
0.00032094
-0.000955603
0.01329
-0.000252477
-5.00067e-05
0.0131614
-0.00105938
0.000160001
0.0126468
-0.000122332
0.010989
0.00465364
0.000321397
-0.00732409
0.00699247
0.00187608
-0.00280354
0.0050756
0.00182426
0.00730503
0.00203158
0.000607761
0.0111785
0.00055959
-0.000317777
0.0104887
0.000156955
-0.00071601
0.00965904
-0.00101909
0.00938468
0.000848879
-0.00032435
-0.0191146
0.00449879
-0.0011391
-0.0154401
0.00704875
0.00010105
-0.00750203
0.00623403
0.000310626
-0.000355065
0.00444192
-3.47611e-07
0.00151028
0.00217843
9.63587e-05
0.00208974
0.000387116
0.00337041
-0.000705675
-0.0117748
-0.00194096
-0.0124197
-0.00105121
-0.00972047
0.00021899
-0.00247027
-9.4133e-05
0.000629694
1.97838e-05
0.00180628
0.00283708
0.00189741
0.00216337
-0.0174329
0.00112795
0.000766877
-0.0150599
0.00309711
-0.00222604
-0.0104202
0.00363385
-0.00114534
-0.00823714
0.00221076
5.72775e-07
-0.00564719
0.00060702
-0.000201071
-0.00318927
-0.000703726
-0.00139337
0.00177707
0.00191487
-0.00257075
0.00113955
0.00148317
-0.00526278
0.00266908
0.00183857
-0.00603713
0.00827731
0.00134311
-0.0097702
0.00973825
0.00206359
-0.0103737
0.00736984
0.00227936
-0.010091
0.0037091
-0.00705762
-0.000861532
0.00127966
0.00983655
-0.00210078
0.000975841
0.0101843
-0.00375921
0.00173058
0.0113169
-0.00325743
0.000505679
0.00912141
-0.00121968
-0.000678039
0.0033809
-0.000551387
-0.00214141
-0.000446678
0.000626735
-0.00591685
0.000303175
-0.000134885
0.0127179
-0.000526921
8.21255e-05
0.0136561
0.000766432
-0.00126469
0.0141915
0.00134308
-0.00168953
0.0148469
0.000574011
-0.00129106
0.0144855
-0.00162522
-0.00095761
0.0135223
-0.00202922
0.0118083
0.00342515
-0.000625705
-0.0100943
0.00554455
-0.000193673
-0.00439492
0.0071037
0.000758362
0.00382232
0.00485432
0.000936891
0.010768
0.00249256
-6.81588e-05
0.0115409
0.00116291
-0.00059267
0.0104925
-0.00162731
0.0100595
-0.000220894
-0.00220994
-0.0171507
-0.000508622
-0.00160481
-0.0136363
0.00221948
-0.00106405
-0.0083369
0.00453525
-0.000521637
-0.0012018
0.00378408
-1.71531e-05
0.00219162
0.00214955
0.000670932
0.00243636
0.000312971
0.00361995
-0.00303819
-0.0108347
-0.0047353
-0.012246
-0.00435035
-0.0111104
-0.00124379
-0.00609281
-0.000541369
-9.02036e-05
-7.56071e-05
0.00199775
0.00304247
-0.00234726
0.00200416
-0.0171526
-0.001889
-0.000910752
-0.0146135
0.00236526
-0.00326909
-0.0112633
0.00409544
-0.00285672
-0.00701572
0.00354671
-0.00182896
-0.00318243
0.00150902
-0.00109576
-1.16918e-05
-0.0013992
0.00152773
0.0029239
0.00120546
-0.00460396
0.00377248
0.00095161
-0.00819052
0.0110026
0.00125846
-0.0178196
0.0149837
0.000724672
-0.0172583
0.0137157
0.000240063
-0.0110963
0.0097871
0.00139951
-0.00865185
0.0041355
-0.00282627
-0.0013861
0.00237501
0.0100299
-0.00236804
0.00168657
0.0103666
-0.00173925
0.000817811
0.0111174
-0.000366289
-0.00110143
0.00960855
-2.86738e-05
-0.00322588
0.00648354
0.000637006
-0.00406379
0.00425158
9.35956e-05
-0.00133575
0.00217596
8.18913e-05
0.0128613
0.000874282
0.00265543
0.0139496
0.00176718
-0.000492358
0.0145597
0.00230765
-0.00167539
0.0148588
0.000384011
-0.00144829
0.0145863
-0.00219403
-0.00161518
0.0135427
-0.00203699
0.0115753
0.00218404
-0.00317191
-0.00898725
0.00420831
-0.00212759
-0.00152683
0.00671695
-0.00036237
0.00138247
0.00678788
0.00125196
0.0078201
0.00389855
0.00136935
0.0115565
0.0014244
0.00045365
0.0108262
-0.000668495
0.0100734
-0.00224813
-0.00325661
-0.0147728
-0.00495825
-0.0013127
-0.0116787
-0.00428601
-0.000919495
-0.008419
0.000857863
-0.000794421
-0.00434605
0.00272258
-0.000225919
0.00187479
0.00170942
0.00114797
0.00276793
0.000512889
0.00431298
-0.00519197
-0.00882047
-0.00745592
-0.0112796
-0.00763497
-0.0118113
-0.00412225
-0.0103561
-0.000733274
-0.00365494
-0.000181353
0.00265904
0.00344763
-0.00449013
0.00283812
-0.0155612
-0.00259935
-0.00143001
-0.0150988
0.0024568
-0.00449085
-0.0118544
0.00433071
-0.00303788
-0.0057191
0.00327404
-0.000942463
-0.00106
0.00099591
-0.000184003
0.00248449
-0.00109176
0.00362561
0.00552495
-0.000628403
-0.00626757
0.0115461
0.000205643
-0.0157565
0.0141768
-0.000203315
-0.0246875
0.0135629
-0.00217858
-0.0174891
0.0114929
-0.00221464
-0.00775724
0.00738683
0.000420057
-0.00517165
0.00263423
0.000864204
-0.00398427
0.00316216
0.0102705
-0.00320607
0.00253841
0.00733782
0.000975192
0.00153377
0.00528859
0.000741414
5.59955e-05
0.00770608
-0.000388415
-0.00250354
0.00790497
0.000773422
-0.00307041
0.00653439
-0.000212497
0.00223205
0.00276466
-0.000331277
0.0135702
0.00143597
0.00300954
0.0148452
0.00145556
0.00117677
0.0149646
0.00196272
0.000186404
0.014262
0.000455769
-0.000370332
0.0139959
-0.00137536
-0.000926482
0.0132342
-0.00164849
0.0115412
0.00156011
-0.00605891
-0.00480197
0.00454438
-0.00345024
0.00198178
0.00562791
-0.000946864
0.0025867
0.0066275
0.00158886
0.00543175
0.00525929
0.00244695