/*--------------------------------*- C++ -*----------------------------------*\
  =========                 |
  \\      /  F ield         | OpenFOAM: The Open Source CFD Toolbox
   \\    /   O peration     | Website:  https://openfoam.org
    \\  /    A nd           | Version:  6
     \\/     M anipulation  |
\*---------------------------------------------------------------------------*/
FoamFile
{
    version     2.0;
    format      ascii;
    class       volScalarField;
    location    "0.01";
    object      T;
}
// * * * * * * * * * * * * * * * * * * * * * * * * * * * * * * * * * * * * * //

dimensions      [0 0 0 1 0 0 0];

internalField   nonuniform List<scalar> 
3773
(
288.478
287.526
287.55
287.526
287.397
287.607
288.631
289.323
288.774
289.007
288.853
288.683
288.965
289.325
307.795
309.279
309.321
309.302
309.267
309.334
307.811
313.439
313.671
313.675
313.666
313.67
313.726
313.462
307.844
307.992
309.381
309.317
309.306
309.327
307.861
289.501
289.71
289.183
288.787
288.787
289.176
289.45
288.77
288.467
288
287.63
287.673
287.885
288.84
266.281
262.585
262.508
262.741
262.801
263.585
267.28
271.762
275.841
276.11
275.923
275.48
276.179
272.66
313.805
312.087
312.397
312.449
312.622
312.004
313.917
325.166
325.332
325.583
325.627
325.638
325.437
325.677
314.142
314.228
312.633
312.664
312.698
312.6
314.231
272.52
272.736
276.092
275.392
275.87
276.502
272.626
268.587
265.47
265.527
265.18
264.364
264.609
268.794
237.04
233.006
232.368
232.5
233.813
235.001
237.595
261.405
268.545
267.341
266.895
264.697
265.67
261.506
314.458
312.317
314.136
314.342
313.676
311.602
314.064
326.331
325.452
326.209
326.652
326.66
325.449
326.208
314.336
312.656
312.6
313.45
314.075
312.899
314.136
261.941
264.821
265.975
263.505
266.23
267.394
261.857
238.938
235.941
235.611
235.714
234.416
235.124
238.842
221.423
221.494
220.332
220.511
220.266
220.677
221.547
259.163
269.002
268.109
267.716
262.976
263.359
259.145
314.071
312.3
312.928
313
313.574
311.303
313.822
326.39
325.824
326.207
326.549
326.281
325.683
326.25
314.036
311.11
313.873
315.285
313.741
311.751
313.793
259.445
263.416
263.566
261.556
264.633
266.186
259.406
222.046
220.923
220.885
219.438
220.629
221.6
222.078
216.572
218.246
217.666
217.539
216.433
216.197
216.529
258.936
266.936
266.109
266.225
263.51
263.425
258.979
314.261
311.91
311.646
312.538
312.083
310.54
314.159
326.468
325.766
326.082
326.092
325.827
325.684
326.429
314.149
311.185
312.833
313.822
313.217
311.381
314.138
259.203
263.884
263.271
263.424
264.1
264.961
259.147
216.649
216.569
216.473
215.436
217.044
217.105
216.653
215.937
217.119
216.157
217.084
216.309
215.817
215.863
262.026
267.578
267.602
268.45
267.337
267.268
261.574
315.197
311.708
312.012
311.504
311.115
310.879
314.758
326.718
325.867
325.689
325.88
325.47
326.254
326.675
314.917
311.876
311.667
311.909
311.722
312.412
314.851
262.133
267.274
267.479
268.067
268.996
266.312
261.867
215.964
215.542
216.02
214.952
217.173
216.264
215.899
212.786
211.395
211.868
213.112
212.827
212.768
212.837
262.512
264.139
261.817
263.26
263.543
263.967
262.458
312.997
313.196
311.758
312.328
311.433
312.648
311.862
331.405
332.568
332.339
332.339
332.859
331.316
332.917
312.968
317.271
312.797
311.754
318.438
313.08
311.935
262.881
254.308
263.865
263.081
257.119
263.426
262.676
213.037
211.787
212.82
212.13
211.618
212.898
212.924
329.591
329.929
330.602
329.884
327.007
325.251
323.959
326.333
323.953
327.717
329.518
328.479
328.31
324.796
316.532
322.644
324.531
327.963
327.212
325.788
318.123
310.9
320.991
325.9
331.834
326.394
321.694
310.9
306.71
315.677
318.597
320.248
319.237
316.895
307.643
313.624
317.577
321.188
323.358
323.698
321.775
320.818
319.222
325.695
326.383
325.079
323.71
324.378
325.036
328.41
330.613
332.346
331.74
325.653
313.313
320.066
322.972
313.61
327.58
329.062
323.558
319.711
321.661
313.037
316.8
322.133
327.891
324.531
321.789
315.303
311.028
322.011
331.764
342.819
332.715
322.287
311.458
304.179
312.851
317.746
320.07
317.157
311.688
302.549
312.964
312.195
316.097
322.168
323.826
318.205
318.045
335.556
335.502
334.187
330.707
326.794
325.535
324.88
319.241
331.175
334.71
335.074
328.457
316.187
316.575
313.219
317.941
328.176
323.162
311.465
306.586
317.274
303.427
305.099
316.908
324.18
320.954
315.444
310.218
311.245
321.179
334.447
345.791
336.712
324.383
312.619
295.989
306.534
315.827
318.117
315.216
303.642
294.818
314.774
309.345
307.353
313.731
320.49
320.941
309.712
339.073
337.169
335.301
331.804
328.686
326.844
323.934
316.559
332.792
338.534
338.504
337.471
330.426
314.069
295.678
329.39
328.315
320.429
310.736
303.648
302.617
293.375
302.697
315.289
321.194
318.725
304.946
298.556
313.827
321.337
334.991
344.826
338.233
324.472
314.955
296.209
301.664
315.098
317.764
314.631
301.846
291.88
332.271
325.188
317.58
315.415
317.003
323.27
300.931
339.082
337.003
335.524
331.42
327.624
326.595
321.481
324.406
333.601
339.594
339.632
339.178
336.167
327.635
309.368
331.006
328.989
324.69
321.579
317.702
308.922
293.954
301.752
315.15
321.146
316.247
299.545
294.178
316.587
323.624
336.414
343.179
337.546
324.51
315.912
295.464
300.249
315.815
318.621
315.239
303.04
292.85
334.263
326.663
327.654
326.023
322.859
324.267
301.67
339.314
337.081
335.615
331.659
328.319
326.657
314.623
328.4
334.794
339.782
340.652
341.054
341.198
334.824
326.112
333.881
332.311
330.653
330.268
332.21
330.159
300.945
306.201
317.044
321.722
315.433
299.556
295.872
322.092
328.606
339.209
343.583
338.457
327.368
320.078
300.579
303.016
318.726
320.44
317.109
308.655
298.935
333.993
325.937
328.684
331.212
330.429
329.269
315.891
339.888
337.361
336.335
333.214
330.73
326.564
313.543
331.176
339.552
340.259
340.688
341.13
341.863
339.493
332.026
334.268
332.99
332.882
332.319
336.241
337.802
308.086
314.286
318.804
324.379
317.226
303.608
299.209
334.451
336.277
341.686
345.754
341.447
333.111
325.096
306.028
310.993
321.564
322.745
321.073
319.739
311.949
338.56
332.632
330.699
331.733
332.403
331.868
325.662
341.202
339.414
337.102
334.832
331.957
329.523
318.777
332.758
345.572
346.088
345.523
345.492
345.204
343.543
333.823
339.075
338.384
337.52
336.654
344.037
346.793
320.854
321.092
323.959
327.603
320.389
321.658
327.264
340.702
341.772
346.233
349.733
345.378
336.795
332.628
323.946
320.221
323.443
329.023
326.479
324.446
321.521
345.613
340.694
335.651
334.182
334.225
334.752
332.689
345.12
342.902
337.734
333.261
331.525
331.878
328.886
346.436
348.62
346.935
345.706
345.374
345.165
344.144
331.027
339.312
336.535
334.94
340.42
346.83
348.374
322.462
323.971
328.048
328.129
326.955
337.175
345.039
343.271
344.477
346.758
349.456
345.977
340.716
336.804
337.657
330.589
325.951
330.142
330.141
327.097
322.624
346.827
343.623
338.465
335.208
335.309
336.266
331.54
344.618
342.583
336.266
331.682
331.964
330.99
326.414
351.37
349.682
348.119
347.645
346.608
346.009
345.061
328.759
340.131
341.441
343.93
345.339
347.463
349.255
322.645
328.577
331.087
330.202
335.414
344.569
348.361
343.101
346.088
346.183
349.016
347.397
342.007
337.638
347.402
340.844
329.582
330.515
332.528
329.746
325.195
348.585
345.552
339.95
336.147
335.918
335.948
330.398
346.428
344.096
337.26
332.18
329.366
330.004
325.127
346.804
347.516
351.743
350.563
348.597
347.686
347.065
327.52
339.837
347.127
348.363
348.149
348.314
349.295
322.934
330.9
333.614
334.501
340.628
344.744
348.629
341.575
345.686
347.016
348.723
347.654
341.836
337.313
349.705
345.623
334.062
331.207
332.581
331.964
325.524
349.695
346.544
341.14
337.667
336.4
336.497
325.579
348.248
346.264
342.354
333.904
328.139
326.918
319.363
347.767
350.314
354.174
351.785
348.681
347.766
347.281
329.803
339.788
348.48
348.409
347.922
348.312
349.285
326.357
332.272
333.703
333.614
341.297
343.988
348.398
338.487
343.253
346.895
350.091
348.639
341.26
336.479
350.426
346.598
339.982
332.257
332.273
332.112
326.457
350.794
347.744
343.329
340.895
337.813
336.352
324.776
349.281
348.236
344.225
342.116
332.658
326.837
316.456
354.438
352.712
353.364
351.691
348.603
347.262
347.261
336.767
344.304
352.718
349.52
346.884
347.581
349.527
330.072
340.295
342.825
336.247
338.958
341.306
346.853
338.034
342.707
346.686
349.01
348.986
340.908
335.674
351.102
348.719
345.773
338.314
333.099
332.552
328.324
352.351
352.795
349.872
346.359
342.837
339.472
328.381
351.294
351.538
350.837
344.475
339.193
332.002
318.034
356.779
351.399
345.448
349.48
350.723
350.49
350.485
349.842
352.573
350.993
355.631
354.327
350.675
349.733
339.633
351.541
352.687
352.237
350.979
347.152
345.661
339.803
343.817
347.843
349.95
349.514
341.734
337.11
351.348
350.77
347.81
346.482
344.836
344.446
343.96
354.123
354.21
352.372
351.248
348.507
345.007
342.948
348.115
351.676
354.276
351.085
347.3
338.885
335.598
335.102
345.617
343.934
343.38
343.441
344.309
342.835
332.758
333.652
333.639
334.071
333.286
340.161
341.532
313.529
316.989
319.989
324.912
317.78
305.988
303.846
334.877
336.771
341.206
344.73
341.447
334.278
325.618
311.65
313.498
321.974
323.569
321.57
320.458
317.289
342.392
336.763
333.004
331.897
332.08
332.065
330.372
344.029
341.767
337.511
335.008
332.685
331.611
324.226
335.152
345.903
344.244
343.554
343.575
344.396
343.047
333.095
335.489
334.765
334.839
333.895
341.263
342.425
313.914
317.407
320.364
325.142
318
306.966
305.752
335.16
337.018
341.353
344.912
341.759
334.569
325.949
312.185
313.665
322.104
323.892
321.793
320.575
317.456
342.947
337.462
333.615
332.905
333.022
332.653
330.071
344.104
341.894
337.521
334.966
332.724
331.938
325.624
335.153
346.067
344.786
343.927
343.735
344.508
343.107
333.866
336.383
335.252
335.196
334.126
341.759
343.183
314.391
317.623
320.555
325.423
318.385
308.134
306.838
335.443
337.517
341.646
345.277
342.422
334.948
326.837
312.634
313.949
322.253
324.019
321.937
320.942
317.62
343.478
337.795
333.965
333.147
333.271
332.676
330.993
344.25
342.198
337.507
334.679
332.665
332.036
326.538
335.416
345.9
345.061
344.11
343.908
344.554
343.348
334.52
337.604
335.817
335.523
334.268
342.548
343.939
314.838
318.066
321.128
325.625
318.64
309.046
308.861
335.821
337.866
341.965
345.711
342.943
335.192
327.448
313.226
314.099
322.329
324.296
322.496
321.114
317.849
343.993
338.373
334.245
333.203
333.172
332.484
331.497
344.421
342.369
337.538
334.309
332.568
332.045
327.734
334.853
345.581
345.723
344.826
344.261
344.745
343.454
334.232
338.288
336.283
336.099
334.606
342.933
345.176
315.101
318.377
321.389
326.274
318.764
310.098
309.894
336.636
338.508
342.201
346.01
343.427
335.434
327.64
314.103
314.373
322.499
324.492
322.915
321.571
318.1
344.474
338.735
334.548
333.243
333.045
332.99
331.677
344.949
342.803
337.866
333.971
332.549
332.156
328.068
333.155
345.209
346.019
345.175
344.729
345.068
343.568
333.236
338.676
337.058
336.675
335.194
343.749
345.603
315.901
318.987
322.302
326.841
318.76
310.848
310.935
336.826
338.779
342.324
346.389
343.713
335.517
328.322
314.71
314.596
322.575
325.015
323.259
321.871
318.353
344.902
339.336
334.814
333.51
332.903
333.1
331.521
345.159
342.997
338
333.499
332.48
332.233
328.666
331.058
345.008
346.122
345.4
345.192
345.232
343.714
332.921
339.125
337.796
337.096
335.701
344.129
346.456
316.294
319.219
322.707
327.166
318.914
313.453
312.12
337.395
339.402
342.453
346.581
344.098
335.878
328.854
316.338
314.887
322.882
325.48
324.088
322.428
318.469
345.345
339.706
335.157
333.835
333.409
333.645
330.933
345.187
343.018
337.995
333.343
332.51
332.567
329.314
328.073
338.024
348.768
333.505
329.435
323.187
319.319
348.89
351.204
350.924
349.969
346.687
345.273
341.486
351.962
353.803
353.43
354.555
353.563
353.267
346.708
340.403
344.642
347.937
350.748
349.744
342.879
337.317
351.568
352.414
354.153
354.695
357.059
357.958
359.671
348.042
353.126
356.925
360.316
358.107
350.289
344.672
322.17
328.112
333.488
341.312
347.662
348.831
332.805
331.665
340.005
353.424
343.418
341.023
334.165
332.021
348.986
351.693
354.211
350.543
349.682
347.195
343.72
355.446
354.719
353.966
354.617
353.624
352.996
348.752
341.028
345.124
348.114
351.024
349.831
343.289
337.969
351.661
352.834
353.887
353.354
352.896
353.565
362.131
346.731
349.74
351.813
357.188
356.295
359.463
355.426
331.74
329.238
331.878
335.859
340.773
343.912
355.91
341.241
344.25
354.31
358.48
350.711
347.357
345.483
352.057
354.208
356.977
354.36
352.994
350.478
349.804
355.641
354.99
354.845
354.367
353.938
352.879
349.901
342.173
346.125
348.564
351.376
349.954
343.921
339.013
351.881
352.863
353.701
353.721
353.034
350.67
353.026
349.381
349.942
351.638
353.533
353.954
355.086
357.965
343.566
335.147
334.827
337.453
340.768
342.806
351.417
349.65
350.237
354.978
360.226
357.899
355.004
353.647
354.781
356.178
358.675
357.933
356.175
355.397
355.051
355.398
355.279
355.213
354.999
354.222
352.81
351.984
342.618
347.376
349.034
351.658
350.055
344.518
339.793
352.348
353.034
353.673
353.777
353.379
352.142
352.839
353.921
352.492
352.766
353.98
354.302
355.287
356.321
353.165
345.353
342.678
343.181
345.687
345.89
348.122
350.823
352.249
357.178
361.564
360.347
355.906
353.834
355.573
357.256
358.856
358.644
357.102
355.632
355.392
355.174
355.877
355.046
355.288
354.382
353.283
352.351
343.264
348.524
349.462
352.044
350.313
345.713
339.9
351.367
353.645
354.074
354.013
353.241
352.464
352.46
356.762
354.594
353.659
354.469
354.63
354.959
356.148
354.388
350.309
345.678
345.525
346.284
347.351
349.165
353.903
354.998
359.64
361.989
359.504
357.472
354.836
357.449
358.748
359.085
359.156
358.272
357.01
356.341
354.613
355.847
355.471
355.362
354.319
353.772
351.451
345.536
349.604
350.016
352.432
350.378
347.88
340.956
351.097
353.484
353.85
353.777
352.768
352.059
351.254
357.307
356.335
355.644
356.226
356.586
356.391
356.732
351.706
350.394
350.555
350.453
350.036
349.264
350.998
351.471
354.555
358.25
359.963
354.598
352.528
352.048
356.925
357.957
358.698
358.932
355.714
354.658
354.416
353.732
354.72
356.039
355.349
353.973
353.48
351.044
346.564
350.01
350.458
352.171
350.042
349.159
342.77
351.103
352.956
353.163
353.238
352.524
352.264
350.418
356.004
356.366
356.526
357.114
356.418
356.675
358.098
349.96
349.886
350.982
352.539
352.887
354.069
356.217
319.647
320.306
319.858
321.757
325.535
333.142
342.473
340.585
340.349
340.549
340.291
340.624
342.535
348.787
346.449
347.712
358.645
359.787
360.202
360.084
359.724
340.591
356.332
360.155
360.82
360.983
360.829
360.324
359.25
358.974
358.944
359.859
360.293
360.193
359.872
344.316
345.008
344.47
344.141
344.392
347.403
349.686
331.508
331.701
329.837
329.994
332.26
337.196
343.628
331.772
332.009
331.043
331.781
333.333
338.848
344.148
342.901
342.299
342.443
342.733
343.394
344.609
346.942
347.112
347.255
351.494
358.667
358.526
357.799
357.702
340.365
347.134
354.733
358.39
359.086
358.846
358.311
361.631
361.229
361.167
360.926
360.364
360.221
359.542
355.238
354.323
353.103
352.01
351.243
351.353
352.624
346.754
347.511
346.808
348.048
348.143
347.3
349.182
347.328
347.786
347.473
346.761
346.378
346.207
344.85
349.348
349.034
349.285
348.987
349.117
350.134
350.883
347.585
347.383
347.771
354.412
358.337
358.039
357.627
340.306
343.081
345.634
349.51
353.184
354.801
355.043
357.035
357.923
358.36
359.52
361.645
361.247
360.076
359.767
360.549
361.326
360.648
360.73
360.642
359.056
359.211
361.346
362.13
362.392
363.482
363.966
357.484
353.89
354.313
354.374
354.986
356.476
357.523
347.944
354.827
354.954
355.025
355.261
355.268
355.725
356.177
350.53
349.623
348.307
348.792
352.934
357.356
357.808
340.717
341.491
342.682
343.639
345.039
347.65
348.856
353.823
353.971
354.35
355.06
356.881
358.95
359.775
356.495
357.463
357.951
359.382
360.427
362.367
363.824
348.983
350.719
352.227
354.874
359.283
365.224
366.822
353.902
353.75
354.109
354.772
355.67
358.167
355.872
355.143
355.085
355.131
355.315
354.468
355.038
357.423
351.988
351.298
350.748
349.504
349.65
350.772
355.233
340.573
341.129
341.406
342.092
342.546
342.999
343.766
352.734
353.076
353.348
353.463
353.702
354.424
355.665
356.874
357.5
357.767
358.098
358.851
360.174
362.443
350.605
350.478
351.678
354.851
358.477
364.148
367.727
354.004
354.063
354.593
355.308
356.546
359.297
359.57
355.835
355.224
354.895
354.823
354.939
354.951
354.659
351.197
350.864
350.688
350.217
350.054
349.158
349.432
340.975
340.927
340.861
340.604
340.472
339.964
339.567
350.047
349.884
350.118
350.436
351.039
350.953
351.434
356.635
356.927
357.263
357.685
358.314
359.364
360.436
351.487
351.661
352.898
355.568
358.846
362.866
366.805
352.451
352.576
353.139
354.496
356.73
360.065
361.229
354.16
354.212
354.306
354.485
355.067
355.171
354.417
350.64
350.127
350.011
349.802
349.506
348.76
346.458
342.346
341.631
341.403
340.66
340.06
338.582
336.421
351.034
352.495
353.286
354.585
355.374
354.466
351.402
358.946
359.676
360.507
361.268
361.799
362.39
361.308
356.47
358.004
360.387
362.294
364.033
365.87
365.651
343.772
337.596
331.882
321.451
319.871
320.347
322.694
346.953
344.699
342.802
342.306
343.188
344.415
345.993
357.697
357.548
357.353
357.446
357.326
357.186
356.358
355.944
356.904
357.2
357.237
356.265
352.141
343.473
358.386
358.456
358.822
359.466
360.274
356.712
351.411
348.675
344.831
341.795
341.902
343
343.727
344.188
342.539
328.942
323.947
320.872
320.146
320.431
321.767
346.312
340.343
334.338
329.995
328.106
327.893
330.047
348.438
345.944
344.482
343.469
343.923
344.705
346.161
356.068
355.88
355.972
356.025
355.991
356.241
356.432
354.173
354.726
354.847
354.494
351.581
347.795
343.078
357.685
357.726
358.32
359.149
357.065
352.748
351.27
348.07
346.713
344.054
344.075
345.203
346.057
346.287
339.872
336.787
332.065
328.977
329.122
330.949
333.171
339.849
338.659
339.314
339.265
339.935
340.2
342.16
352.285
350.753
349.056
349.12
349.624
349.696
350.617
356.167
356.038
356.3
356.43
356.412
356.504
356.771
351.077
351.133
350.139
349.077
347.711
344.795
343.111
356.625
357.147
357.558
353.89
351.805
351.075
350.99
348.52
347.354
347.01
347.678
348.621
348.923
349.72
337.606
342.454
342.177
343.324
345.636
346.831
347.129
339.716
343.766
348.035
348.818
349.052
350.021
350.667
356.538
353.667
353.346
353.61
354.255
354.313
354.919
356.483
356.524
356.313
355.666
355.747
355.935
355.705
347.267
346.668
345.074
344.435
343.982
343.137
343.005
356.822
354.008
351.378
350.405
350.246
350.769
351.199
352.817
352.076
351.761
352.05
352.373
352.462
352.875
339.653
352.199
353.895
355.269
355.541
355.447
354.488
342.069
350.017
348.418
350.08
352.01
352.739
352.875
355.475
354.731
355.049
356.341
356.626
356.506
356.551
354.324
353.076
352.092
351.975
352.743
353.486
353.804
342.724
342.416
342.307
342.728
342.811
343.226
343.39
350.396
348.992
348.889
349.525
349.783
350.501
350.783
356.856
356.609
356.581
356.871
357.048
357.153
357.042
345.786
354.739
354.269
354.019
354.47
354.913
355.568
347.786
349.125
349.279
349.619
350.345
351.639
351.625
353.24
353.714
354.401
354.982
355.134
355.298
355.405
347.932
347.47
348.096
348.581
349.449
350.966
351.782
338.419
339.751
340.256
341.525
342.08
343.08
343.663
346.882
348.209
348.61
349.415
349.841
350.235
350.875
355.821
356.151
356.571
356.841
357.049
357.263
357.282
350.449
353.018
352.631
352.365
351.983
352.187
352.258
347.215
347.376
347.801
347.235
346.948
347.019
348.39
350.249
349.584
349.736
350.694
351.817
352.567
353.849
343.411
345.093
346.155
347.706
349.355
350.457
351.375
335.684
338.364
340.728
341.733
343.418
344.335
345.645
344.951
346.917
347.618
348.122
348.832
349.446
350.487
353.236
353.744
354.4
354.856
355.266
355.564
355.826
352.212
351.091
350.587
350.31
350.379
350.152
350.204
364.612
362.112
363.197
360.626
357.96
355.511
349.633
366.23
358.555
358.388
356.322
355.05
351.967
349.79
363.672
360.598
359.293
358.764
358.491
357.795
357.674
357.986
356.631
355.015
354.291
353.833
353.91
354.967
359.05
359.005
358.489
358.02
357.924
358.043
358.376
358.172
357.907
356.108
354.941
354.475
353.11
350.211
364.786
363.412
360.587
358.846
357.506
354.353
347.156
360.058
358.404
360.177
358.402
359.098
356.526
352.55
354.893
352.801
351.987
352.138
351.929
351.327
349.308
359.75
358.7
357.566
355.999
355.901
355.911
356.105
357.734
356.227
353.682
352.339
351.713
351.771
352.704
357.009
357.213
357.165
356.879
357.047
357.243
357.707
353.342
354.642
355.129
354.701
354.326
352.694
351.47
359.476
362.463
361.39
358.36
356.776
350.768
344.87
356.462
352.303
355.122
353.99
357.825
355.271
339.848
347.624
347.457
349.937
351.953
355.296
355.536
354.606
356.721
356.553
355.916
355.346
355.355
355.56
355.857
356.712
354.249
352.268
351.022
350.514
350.534
350.721
355.028
355.321
355.926
355.841
355.892
356.104
356.671
345.217
349.18
351.709
350.898
351.723
351.357
350.649
351.15
354.035
356.041
351.139
347.781
339.585
332.644
353.672
347.783
350.482
347.503
353.407
347.553
331.448
344.619
345.783
352.292
358.786
359.145
358.772
357.176
353.082
353.356
353.596
354.341
355.015
355.866
356.396
355.757
353.414
350.897
349.197
348.38
347.883
347.946
352.827
353.245
352.825
352.911
353.643
354.603
355.991
341.287
344.705
346.707
348.336
353.156
353.704
354.35
343.082
349.133
349.89
346.081
340.825
335.029
329.535
348.194
340.338
344.473
342.263
349.321
338.003
324.717
338.371
342.944
355.87
360.306
359.297
356.799
354.954
351.351
351.79
353.317
354.667
356.124
356.23
355.249
354.69
350.354
348.108
345.873
344.447
343.741
343.44
351.412
350.613
351.224
351.913
354.539
355.643
354.491
333.594
339.867
341.524
347.739
357.543
357.822
357.206
342.863
344.416
345.443
343.135
339.248
333.183
327.862
342.931
336.709
340.26
337.699
342.527
332.639
323.964
334.248
341.692
360.732
359.359
356.445
354.391
353.558
348.239
349.849
351.888
352.418
353.709
351.35
348.423
352.31
349.529
347.064
343.832
341.448
338.601
337.978
348.635
349.158
349.381
349.321
350.924
349.665
347.113
331.305
334.62
338.862
347.507
359.676
357.943
355.969
342.207
342.007
343.531
339.323
338.31
329.255
328.67
335.326
331.281
336.323
333.243
338.932
329.093
323.545
330.98
338.617
361.249
357.855
352.06
350.609
350.143
346.927
346.429
348.257
348.14
344.945
341.488
341.467
350.022
342.821
339.513
335.459
332.638
330.865
331.19
347.282
345.272
345.083
346.304
345.957
342.104
341.894
330.184
331.892
336.84
345.019
358.168
354.705
354.312
340.323
340.218
338.828
332.936
337.124
325.118
327.109
327.743
327.285
328.613
329.912
328.17
324.618
314.447
324.505
332.673
346.572
352.347
338.945
336.738
326.611
335.92
339.663
339.926
342.136
338.281
337.683
336.839
332.004
335.879
335.851
335.016
333.562
330.887
324.936
335.968
335.261
333.913
334.283
335.422
335.034
327.808
326.928
324.091
329.388
330.124
332.257
331.33
335.847
336.783
333.485
331.272
328.882
323.995
321.888
321.929
301.831
296.472
299.004
300.075
309.872
298.149
303.897
316.316
323.71
334.05
337.105
333.296
328.04
316.363
332.313
331.671
328.986
327.163
325.085
327.795
333.506
325.511
325.012
325.745
326.133
326.546
326.656
324.741
333.375
332.676
331.039
330.749
332.047
332.937
330.504
314.134
316.107
317.915
319.945
319.924
319.474
320.72
303.478
294.276
294.42
301.722
301.435
303.149
303.293
292.021
291.928
291.774
292.731
292.061
292.529
293.257
310.492
311.303
311.462
311.736
313.667
311.738
312.395
329.251
329.564
327.55
326.64
323.48
325.859
329.796
316.235
315.729
317.581
319.715
320.938
322.008
322.005
326.478
325.925
324.918
325.53
326.521
327.287
327.441
309.384
308.411
308.455
309.504
310.598
309.857
312.346
288.587
286.73
287.901
287.635
287.8
288.096
288.902
285.438
285.427
285.615
286.668
285.789
286.767
286.422
308.637
307.37
306.855
306.161
306.804
305.579
306.994
327.363
326.092
325.338
325.024
320.946
323.74
325.53
312.264
311.796
314.439
315.802
316.829
317.553
317.782
321.877
320.481
319.337
320.402
321.678
322.246
320.05
304.502
302.371
302.923
305.803
307.814
306.984
305.672
279.458
279.676
278.896
280.575
280.018
280.081
280.429
281.055
280.981
281.035
281.292
281.135
281.236
281.365
303.982
304.033
303.777
303.66
304.126
303.242
303.66
322.916
321.734
320.773
320.214
315.257
318.923
321.155
308.178
307.478
309.203
310.199
311.234
312.16
312.139
320.041
319.245
317.718
318.259
319.48
320.229
319.046
303.338
300.872
301.159
304.024
302.808
302.765
303.694
278.1
277.644
277.612
277.927
277.576
277.604
278.089
280.489
280.453
280.467
280.616
280.489
280.635
280.546
303.314
303.291
303.11
302.914
303.207
302.585
302.996
322.257
321.256
320.064
319.37
314.946
318.48
320.565
305.887
305.21
306.421
307.445
308.583
309.699
309.738
319.783
319.635
317.848
317.656
318.835
319.737
319.311
303.009
301.988
302.19
303.235
302.491
302.492
303.012
279.122
278.647
278.419
279.222
278.62
278.642
279.119
292.669
292.669
292.666
292.157
292.663
292.156
292.663
305.182
305.169
305.094
305.012
305.214
304.958
305.118
316.374
315.157
312.988
312.487
309.541
312.27
313.204
291.008
290.527
290.683
292.164
293.632
294.944
295.067
313.051
312.777
310.798
309.995
310.49
311.784
313.129
305.205
305.162
305.247
305.315
305.228
305.206
305.235
292.153
292.156
292.413
292.15
292.156
292.156
292.147
350.757
354.159
361.037
363.413
367.692
366.635
367.578
351.252
355.05
357.848
359.549
362.119
361.089
364.914
359.592
359.985
360.179
360.701
361.671
361.722
363.631
359.94
359.577
359.471
359.706
360.435
361.454
361.169
359.663
359.597
360.381
361.283
361.9
362.34
364.004
353.242
354.622
357.928
359.211
361.334
361.338
365.14
350.973
353.841
358.455
362.798
365.791
365.273
366.637
349.399
352.433
357.001
358.556
362.418
360.677
365.915
349.988
351.137
352.109
352.251
353.859
355.778
364.528
357.482
357.302
357.409
357.761
359.731
360.59
363.241
357.208
356.799
356.772
357.084
358.088
360.322
361.151
358.707
358.526
358.964
359.316
360.032
361.589
363.082
354.637
355.364
356.068
356.325
356.241
357.414
362.118
354.164
355.575
358.133
360.651
363.174
363.478
365.873
343.044
346.04
351.413
350.79
354.994
355.696
358.201
351.889
352.06
352.09
349.133
348.222
348.336
351.733
357.631
356.727
356.181
356.084
356.617
357.912
359.704
355.002
355.071
355.275
355.706
356.603
358.486
360.11
359.758
359.33
358.955
358.563
358.628
359.008
359.919
359.138
359.627
358.141
355.861
354.029
352.555
354.803
355.227
355.607
356.202
355.981
360.568
361.152
362.22
339.9
338.469
346.366
341.614
349.507
348.441
355.569
357.932
357.549
357.425
351.154
346.761
344.699
347.076
357.558
356.094
355.245
354.809
355.169
355.997
356.34
350.288
351.105
352.853
354.076
355.561
357.976
359.694
361.433
360.374
359.501
357.842
357.402
357.391
357.477
362.675
363.172
363.287
358.769
354.654
349.977
350.938
359.006
353.768
354.237
350.768
356.144
355.382
361.629
338.909
329.798
340.221
334.231
342.923
342.859
350.755
358.157
358.716
359.526
355.314
346.248
342.714
344.086
357.488
356.957
355.769
354.173
353.233
353.726
354.987
345.63
345.893
346.891
348.952
350.85
354.584
358.518
357.881
359.825
360.902
359.004
356.826
355.356
355.885
363.177
363.873
364.902
362.62
356.023
348.21
347.921
359.011
352.175
353.299
348.343
353.654
350.033
359.68
342.263
328.384
338.362
332.117
339.423
339.51
346.317
354.895
357.02
360.002
356.405
345.098
338.123
336.33
350.392
352.277
352.78
352.475
351.682
351.579
351.762
339.869
340.943
343.14
347.173
349.45
353.123
355.801
351.424
353.371
359.027
357.704
354.312
353.955
354.137
362.298
362.752
365.131
364.163
356.571
344.457
343.633
352.669
344.66
349.249
344.94
349.756
343.384
354.414
343.62
328.8
337.753
331.821
337.936
335.23
340.328
354.663
357.075
359.691
355.371
343.022
335.918
333.185
343.853
345.025
348.067
349.139
347.915
347.738
349.723
332.361
332.561
333.992
337.947
341.503
345.626
353.694
349.851
348.815
350.506
353.645
352.467
350.24
350.345
361.394
361.913
364.69
364.076
356.057
340.593
340.049
343.798
339.991
345.476
336.513
342.495
336.818
343.419
327.285
326.907
327.291
329.883
333.393
324.644
333.477
338.375
333.137
336.755
335.944
330.596
331.377
328.954
328.729
334.695
337.129
337.549
338.548
340.078
338.153
327.192
331.694
332.934
335.559
337.248
334.829
334.065
340.159
344.627
344.788
341.811
338.678
341.192
342.814
352.095
350.806
349.601
343.801
334.626
334.786
333.807
336.418
333.386
329.041
323.944
329.735
330.676
336.785
303.528
305.492
302.329
303.354
302.9
304.389
303.998
321.222
321.568
322.168
321.057
320.84
319.995
314.34
327.261
330.009
330.098
330.069
329.69
330.846
332.192
326.688
328.705
328.072
327.731
327.244
329.054
328.563
334.836
333.872
331.659
330.974
333.664
336.729
337.795
322.402
323.865
324.693
322.883
319.983
321.405
322.873
314.736
316.061
314.624
312.265
312.94
312.672
316.314
290.37
289.784
289.768
287.196
288.776
289.56
289.035
311.593
310.771
312.409
312.885
308.195
307.82
307.974
323.288
324.974
324.642
323.323
327.109
327.709
328.042
322.335
322.87
320.816
318.425
318.138
319.481
318.202
329.443
330.198
326.871
328.303
330.223
327.547
327.998
316.174
315.749
316.186
314.556
313.245
314.683
315.1
296.92
293.248
296.231
295.524
295.522
295.148
296.663
281.6
281.336
280.971
280.126
281.115
279.666
281.185
308.023
307.747
308.201
305.086
304.313
304.1
304.566
314.895
320.075
316.976
317.279
318.538
318.725
318.261
316.57
317.003
315.734
313.786
311.856
313.494
312.64
322.652
324.713
323.787
320.774
318.63
320.949
322.121
306.264
306.559
306.828
308.947
307.65
307.364
308.402
282.353
284.676
284.923
283.736
282.145
284.308
282.731
278.23
278.305
278.233
278.19
278.181
278.168
278.556
301.893
304.882
304.401
302.033
301.85
301.866
302.787
312.974
315.135
315.893
316.422
317.548
317.631
316.935
310.81
311.759
311.587
309.783
306.844
308.209
307.985
319.727
321.95
321.455
318.336
315.814
319.499
318.921
303.758
303.48
303.633
303.715
301.986
301.859
303.52
279.983
279.985
280.06
280.117
279.727
279.557
280.275
279.136
279.366
279.321
279.01
278.899
278.87
279.518
302.574
303.767
303.764
302.559
302.551
302.539
302.607
313.935
314.722
316.676
317.308
318.369
318.373
317.761
309.045
310.001
310.023
307.923
304.97
306.157
305.976
320.904
322.249
321.402
318.034
317.642
320.065
318.568
302.797
302.853
302.981
303.057
302.146