/*--------------------------------*- C++ -*----------------------------------*\
  =========                 |
  \\      /  F ield         | OpenFOAM: The Open Source CFD Toolbox
   \\    /   O peration     | Website:  https://openfoam.org
    \\  /    A nd           | Version:  6
     \\/     M anipulation  |
\*---------------------------------------------------------------------------*/
FoamFile
{
    version     2.0;
    format      ascii;
    class       volVectorField;
    location    "0.01";
    object      U;
}
// * * * * * * * * * * * * * * * * * * * * * * * * * * * * * * * * * * * * * //

dimensions      [0 1 -1 0 0 0 0];

internalField   nonuniform List<vector> 
3773
(
(40.2872 -0.025959 0.479127)
(40.1288 -0.0110295 0.472778)
(40.1759 0.000182692 0.468118)
(40.1573 0.013329 0.466915)
(40.1077 0.00815486 0.473937)
(40.1442 0.00392947 0.485561)
(40.273 0.023834 0.48872)
(10.5802 0.020538 -0.0766845)
(10.5214 -0.0471304 -0.0795662)
(10.5555 -0.0288135 -0.0641632)
(10.54 0.0109236 -0.0651916)
(10.5184 0.0190938 -0.0608359)
(10.539 0.0287955 -0.04234)
(10.5694 -0.0181832 -0.0393668)
(4.25828 0.0351489 0.0345175)
(4.24844 -0.0036378 0.0418036)
(4.25191 -0.0240077 0.0529267)
(4.25182 0.00414427 0.0511784)
(4.25345 0.00964715 0.0494934)
(4.24941 0.00449493 0.0587972)
(4.2577 -0.0151092 0.0493928)
(-0.000118345 0.00586852 0.0502388)
(-0.000119807 0.011182 0.0514422)
(-0.000122715 0.0113349 0.0499648)
(-0.000127336 -0.0119932 0.0486763)
(-0.000130264 -0.0245768 0.0464439)
(-0.000134236 -0.0233455 0.0409763)
(-0.000136615 -0.0156209 0.0438106)
(-4.25939 0.0261564 0.0375946)
(-4.25065 -0.0143846 0.0389885)
(-4.25464 -0.0275165 0.0442022)
(-4.25509 0.00525862 0.0466248)
(-4.25384 0.0115218 0.0448758)
(-4.25348 0.00504483 0.0543133)
(-4.25842 -0.0134617 0.0443337)
(-10.5754 0.0247806 -0.0856777)
(-10.5579 -0.0386622 -0.0788116)
(-10.5521 -0.0213153 -0.0619505)
(-10.5278 0.0126033 -0.0647617)
(-10.5171 0.0222359 -0.0622585)
(-10.5466 0.0394118 -0.0437134)
(-10.5733 -0.0122132 -0.0399527)
(-40.2713 -0.0123179 0.482832)
(-40.1286 0.00469671 0.477265)
(-40.1883 0.00886391 0.483472)
(-40.1534 0.013857 0.485353)
(-40.1263 0.00439804 0.479684)
(-40.1716 0.00418505 0.490886)
(-40.2789 0.0227649 0.501344)
(34.5595 -0.0383817 0.937769)
(33.7665 0.00565421 0.943257)
(33.7472 0.0120068 0.937444)
(33.7721 0.0125729 0.933907)
(33.7921 0.00379374 0.921473)
(33.919 -0.00799297 0.915211)
(34.6982 0.0310423 0.917774)
(8.71644 0.00324334 -0.236891)
(8.81752 -0.0577667 -0.240255)
(8.83163 -0.0365161 -0.220754)
(8.82263 0.0165772 -0.225891)
(8.80511 0.0377513 -0.226578)
(8.83025 0.0473005 -0.203249)
(8.74287 -0.0003728 -0.206579)
(3.73697 0.0439605 -0.0105952)
(3.72562 -0.00347995 -0.00356198)
(3.73313 -0.0296983 0.0232179)
(3.73049 0.00634104 0.0174572)
(3.72823 0.0231362 0.0115691)
(3.73641 0.015115 0.0286081)
(3.73688 -0.0194078 0.00902975)
(-0.000106846 0.00820141 0.0269145)
(-0.000107658 0.0161222 0.0255318)
(-0.000109911 0.0160153 0.023099)
(-0.000113895 -0.0152259 0.0220078)
(-0.000115752 -0.0326038 0.0178977)
(-0.00011923 -0.0285023 0.00943541)
(-0.000122003 -0.0176731 0.0164715)
(-3.74051 0.0327031 -0.0104395)
(-3.72889 -0.0197897 -0.00951427)
(-3.73293 -0.0340294 0.0047978)
(-3.7316 0.00880548 0.00911264)
(-3.72823 0.0246507 0.00239979)
(-3.73488 0.0151543 0.0184994)
(-3.74032 -0.01737 0.00165027)
(-8.73847 0.0163655 -0.252927)
(-8.71367 -0.046022 -0.236072)
(-8.82891 -0.0335532 -0.22589)
(-8.80286 0.0124456 -0.235858)
(-8.81642 0.0361763 -0.226465)
(-8.84044 0.0549555 -0.197091)
(-8.74157 0.00294291 -0.206235)
(-34.8842 -0.0202906 0.924886)
(-34.2893 0.0215137 0.925164)
(-34.2169 0.0213934 0.931144)
(-34.1119 0.0137536 0.914214)
(-34.0066 -0.00249549 0.932338)
(-34.0503 -0.0119489 0.93135)
(-34.9227 0.026737 0.92785)
(29.0003 -0.0702678 1.34417)
(28.1945 0.00578172 1.32301)
(28.0933 0.0260917 1.29629)
(28.1102 0.0315342 1.28849)
(28.3354 0.0231934 1.29416)
(28.5287 0.00234794 1.31392)
(29.0928 0.0615593 1.33342)
(8.37596 -0.0126205 -0.12276)
(8.56433 -0.0463617 -0.151673)
(8.52648 -0.0257078 -0.134042)
(8.512 0.0152757 -0.143127)
(8.44454 0.0388993 -0.136032)
(8.47692 0.0420054 -0.126784)
(8.37967 0.0103543 -0.136899)
(3.71472 0.042877 0.015998)
(3.6786 -0.000618889 0.00510166)
(3.70245 -0.0270126 0.0319132)
(3.70405 0.00239613 0.0225792)
(3.69567 0.0247477 0.0147269)
(3.67122 0.0174935 0.0241367)
(3.71047 -0.0227845 0.00498458)
(-0.000109215 0.0090668 0.0356365)
(-0.000112124 0.0138674 0.0314461)
(-0.000112623 0.0137073 0.0244334)
(-0.000116637 -0.0159122 0.0233808)
(-0.000115124 -0.0343214 0.0206116)
(-0.000118405 -0.0266843 0.0205704)
(-0.000121944 -0.0168672 0.0298072)
(-3.71411 0.0317728 0.0112488)
(-3.68219 -0.0198607 0.00262203)
(-3.68299 -0.0327898 0.0188957)
(-3.69338 0.00684356 0.0175792)
(-3.70026 0.025057 0.00836928)
(-3.68752 0.0167432 0.0148175)
(-3.71168 -0.0194837 0.00222975)
(-8.39336 0.000934785 -0.133322)
(-8.45079 -0.0368344 -0.137963)
(-8.48647 -0.0294941 -0.132321)
(-8.40748 0.00412054 -0.130863)
(-8.49377 0.0344128 -0.146208)
(-8.53157 0.0435103 -0.130754)
(-8.39097 0.00769229 -0.139777)
(-29.3041 -0.047274 1.36477)
(-28.7086 0.0171412 1.34459)
(-28.6181 0.00732655 1.32793)
(-28.6299 -0.00167348 1.33906)
(-28.4201 -0.0149829 1.31298)
(-28.5288 -0.0208051 1.33707)
(-29.2929 0.0457247 1.37247)
(26.1951 -0.0885129 1.0325)
(26.0056 0.00628093 1.02738)
(25.8543 0.0269324 1.01939)
(25.8767 0.0353985 1.00631)
(25.8626 0.0317962 1.01394)
(25.9309 0.0125977 1.03012)
(26.222 0.0814266 1.03503)
(8.28972 -0.0101742 -0.107018)
(8.56863 -0.0346469 -0.140034)
(8.53937 -0.0259651 -0.117809)
(8.52701 0.00600135 -0.128999)
(8.37644 0.0323823 -0.117448)
(8.38935 0.0359165 -0.113177)
(8.28952 0.0104209 -0.120878)
(3.7091 0.0392816 0.0155807)
(3.67631 0.00208089 -0.00246192)
(3.68386 -0.0243809 0.0273416)
(3.68462 -0.00075318 0.0178239)
(3.69129 0.025396 0.01459)
(3.66455 0.0157152 0.0165541)
(3.70619 -0.0249041 0.00525961)
(-0.000112808 0.0103681 0.04576)
(-0.000115184 0.01323 0.0398491)
(-0.000114389 0.0105165 0.0307389)
(-0.000117498 -0.0165119 0.0282573)
(-0.000116146 -0.0330297 0.029432)
(-0.000118808 -0.0246068 0.0380887)
(-0.000122507 -0.0163005 0.0443844)
(-3.70894 0.029216 0.0104011)
(-3.66241 -0.0169205 -0.000112949)
(-3.69499 -0.0289645 0.0237595)
(-3.71161 0.00503173 0.0148502)
(-3.69352 0.0267649 0.0121489)
(-3.67021 0.0167909 0.0162743)
(-3.70606 -0.0217148 0.00340801)
(-8.2995 -0.00304973 -0.118057)
(-8.39145 -0.0298083 -0.124548)
(-8.39618 -0.0260798 -0.115595)
(-8.33115 0.00295907 -0.122152)
(-8.42979 0.0377419 -0.128791)
(-8.47988 0.0356705 -0.125086)
(-8.29838 0.00406132 -0.124649)
(-26.3048 -0.0689786 1.06355)
(-25.9848 0.00783306 1.06457)
(-25.9606 -0.000428873 1.04323)
(-25.7782 -0.0155879 1.02164)
(-25.9154 -0.0201454 1.03085)
(-26.0378 -0.0181055 1.04639)
(-26.3098 0.0646659 1.0752)
(25.3495 -0.0886046 0.697435)
(25.3897 0.00800778 0.736465)
(25.3145 0.0263716 0.719072)
(25.3009 0.0310929 0.704011)
(25.1657 0.0350421 0.680586)
(25.1423 0.0165729 0.696722)
(25.348 0.0868707 0.692864)
(8.27771 -0.003932 -0.0491364)
(8.49923 -0.0265858 -0.0649336)
(8.47204 -0.0234143 -0.0524314)
(8.47577 0.00049806 -0.0552409)
(8.38952 0.0293146 -0.0554072)
(8.38721 0.031909 -0.0514136)
(8.27928 0.00588787 -0.0590472)
(3.7113 0.035159 0.0276579)
(3.6717 0.00355486 0.00859359)
(3.66844 -0.0211458 0.034188)
(3.67896 -0.00236565 0.0242335)
(3.67362 0.0265533 0.0269804)
(3.65546 0.01338 0.0275423)
(3.71013 -0.0256889 0.0200389)
(-0.00011647 0.00849626 0.0544854)
(-0.000114674 0.00982052 0.0454402)
(-0.000113102 0.00700713 0.0371009)
(-0.000114929 -0.0155118 0.0347399)
(-0.000117579 -0.0279278 0.0400422)
(-0.000119183 -0.0214014 0.0493256)
(-0.000123049 -0.0142078 0.0527657)
(-3.71022 0.0266317 0.0230677)
(-3.66331 -0.0135324 0.0136616)
(-3.68264 -0.0267699 0.040485)
(-3.69431 0.00299614 0.0297093)
(-3.68721 0.0274069 0.0229762)
(-3.66562 0.0139636 0.0284445)
(-3.71011 -0.0242031 0.0181525)
(-8.28672 -0.00145058 -0.0621387)
(-8.40199 -0.0243591 -0.0749392)
(-8.38226 -0.0230534 -0.0519344)
(-8.3871 0.00334852 -0.0632674)
(-8.4084 0.0342135 -0.0613367)
(-8.43643 0.0304816 -0.06249)
(-8.28496 -0.000751062 -0.063238)
(-25.3698 -0.0741661 0.713538)
(-25.1951 0.00459943 0.727463)
(-25.1779 -0.00304577 0.706455)
(-25.0579 -0.020891 0.700465)
(-25.2411 -0.0226965 0.689949)
(-25.2545 -0.0129672 0.720411)
(-25.3709 0.0730189 0.725828)
(25.2284 -0.0782991 0.374157)
(25.2063 0.0162855 0.416156)
(25.0956 0.0234115 0.422818)
(25.2014 0.0209201 0.396475)
(25.1125 0.027206 0.366983)
(25.0558 0.0177897 0.379282)
(25.22 0.0862575 0.368961)
(8.37514 0.000153602 -0.000438001)
(8.51891 -0.0252568 -0.00363287)
(8.51912 -0.0185811 0.0178628)
(8.54615 0.000118844 0.0147101)
(8.51078 0.0220019 0.0156722)
(8.50892 0.0279111 0.0183894)
(8.36087 0.000243363 0.0108037)
(3.72216 0.0309311 0.0597822)
(3.66929 0.00517005 0.0419811)
(3.67266 -0.0176904 0.0612287)
(3.66671 -0.00325885 0.0557568)
(3.66216 0.0259248 0.059986)
(3.65939 0.011351 0.0608268)
(3.71702 -0.0274468 0.0545034)
(-0.00011963 0.00505148 0.0575275)
(-0.000115811 0.00498137 0.0540987)
(-0.000112783 0.00535527 0.0466769)
(-0.000113865 -0.0143163 0.0449248)
(-0.00011833 -0.0261259 0.0496034)
(-0.000118757 -0.0207429 0.0507238)
(-0.00012337 -0.0123551 0.0568078)
(-3.7191 0.0244281 0.0540192)
(-3.67143 -0.00897761 0.0403524)
(-3.66886 -0.0226516 0.0682098)
(-3.67174 -0.00211168 0.0623054)
(-3.66954 0.0244686 0.0549242)
(-3.67768 0.0118213 0.0598559)
(-3.71837 -0.0257332 0.0552274)
(-8.37892 -0.000659807 -0.00938552)
(-8.50913 -0.0188355 -0.0130413)
(-8.51553 -0.016882 0.0117125)
(-8.5342 0.00412108 0.0110691)
(-8.56393 0.0368595 0.00904595)
(-8.47854 0.0260949 0.00939596)
(-8.37046 -0.0048676 0.000833926)
(-25.2366 -0.0698678 0.386663)
(-25.0239 0.00546004 0.422591)
(-25.0801 -0.00676101 0.383427)
(-24.9559 -0.0208051 0.391851)
(-25.2129 -0.0209362 0.384002)
(-25.108 -0.0104226 0.401486)
(-25.2293 0.0733402 0.389511)
(24.696 -0.0802191 0.283131)
(24.5345 0.0213453 0.303582)
(24.5907 0.0227646 0.300882)
(24.734 0.0184444 0.300056)
(24.7004 0.0277577 0.285792)
(24.6947 0.0229131 0.294145)
(24.702 0.0903593 0.283027)
(8.35739 -0.0019968 0.00198336)
(8.40923 -0.0224893 0.00654304)
(8.33516 -0.0131749 0.0286502)
(8.38123 0.00337339 0.02344)
(8.39026 0.0263334 0.0233191)
(8.40372 0.0323152 0.031523)
(8.35577 0.000362243 0.0223959)
(3.68446 0.0328016 0.0228705)
(3.68682 0.00551014 0.00716568)
(3.66986 -0.016909 0.0216079)
(3.67659 -0.002247 0.0210802)
(3.66606 0.0344939 0.0215098)
(3.68036 0.0148422 0.0234581)
(3.67111 -0.0345157 0.0194966)
(-0.000122396 0.00685955 -0.00189157)
(-0.00011969 0.00408796 -0.000890262)
(-0.00011566 0.00429055 -0.00620558)
(-0.000115359 -0.0157063 -0.0073841)
(-0.000122925 -0.0302441 -0.00472166)
(-0.000120793 -0.0225051 -0.00713384)
(-0.000125338 -0.0148393 -0.00220484)
(-3.68434 0.0249701 0.0160099)
(-3.73501 -0.00992478 -0.000456975)
(-3.68232 -0.0217337 0.0223357)
(-3.67007 -0.00292949 0.0192707)
(-3.74876 0.0329809 0.0179133)
(-3.68569 0.0180252 0.024032)
(-3.67223 -0.0317668 0.0216969)
(-8.36939 -0.0021015 -0.0013017)
(-8.09642 -0.0188934 0.0205017)
(-8.40071 -0.0135564 0.0220299)
(-8.37574 0.00230574 0.0241156)
(-8.186 0.0343792 0.0258259)
(-8.38674 0.0253507 0.0219845)
(-8.36295 -0.00559637 0.0110599)
(-24.7261 -0.0684499 0.293623)
(-24.5814 3.59847e-05 0.31962)
(-24.7014 -0.0156999 0.294363)
(-24.6217 -0.0220235 0.296138)
(-24.5585 -0.0250487 0.305142)
(-24.711 -0.0122859 0.294503)
(-24.713 0.0795701 0.290402)
(37.5667 -15.2005 -18.221)
(37.5709 -8.75419 -38.0003)
(37.715 -2.41965 -40.652)
(37.6474 5.86086 -44.4199)
(37.3667 15.6009 -40.3989)
(37.2641 24.5339 -27.1974)
(37.114 22.8258 -1.02696)
(10.1045 -17.2169 -16.1443)
(10.0163 -3.71475 -28.1264)
(10.1418 2.07348 -31.8574)
(10.2056 7.38746 -32.8442)
(10.2005 16.8439 -28.9153)
(10.2252 17.263 -22.4387)
(10.1126 19.2468 -8.04796)
(3.5775 -10.7 -1.12901)
(3.64581 -3.713 -12.9064)
(3.6689 -0.0897242 -14.8812)
(3.71587 3.5948 -15.8732)
(3.71892 6.72591 -13.506)
(3.70862 7.12694 -10.5525)
(3.61754 11.4623 0.100353)
(-0.0267637 -3.20975 3.27408)
(-0.0268514 0.559095 0.98077)
(-0.0255345 1.05225 0.778905)
(-0.020978 -0.588338 1.13464)
(-0.0163845 -1.51706 0.704565)
(-0.0155924 -0.615233 0.947796)
(-0.0160092 3.25991 3.23235)
(-3.50991 -9.36617 0.334637)
(-3.61693 -3.95752 -8.36425)
(-3.65143 -3.42467 -11.1158)
(-3.67153 -2.05166 -11.5904)
(-3.65892 0.780329 -10.7139)
(-3.62879 2.80872 -8.52212)
(-3.51948 8.02353 0.609519)
(-9.7278 -13.8044 -13.8333)
(-9.85393 0.760758 -22.0142)
(-9.97272 1.82699 -24.7468)
(-10.0496 2.96518 -23.6958)
(-10.07 5.00819 -22.4442)
(-10.0034 5.52896 -20.1198)
(-9.97234 14.6481 -11.5114)
(-36.3739 -11.5712 -14.218)
(-37.122 7.8038 -34.3066)
(-37.1973 17.991 -36.3623)
(-37.0501 20.3518 -31.9797)
(-36.9243 23.466 -24.6729)
(-37.0177 18.7801 -20.9896)
(-37.1272 17.2456 -9.41692)
(37.5465 -14.1518 -2.9807)
(37.659 -12.5973 -44.1144)
(37.9778 -13.6571 -55.0493)
(37.901 -9.58198 -60.1322)
(37.2554 -10.2349 -57.5619)
(35.9414 3.97633 -14.673)
(36.7092 20.3042 11.6908)
(10.057 -18.8333 8.14214)
(9.7434 2.82815 -13.994)
(10.198 0.147632 -28.62)
(10.2539 1.5195 -27.5697)
(10.0936 1.88246 -22.8656)
(10.0012 2.48068 -2.761)
(10.064 18.3091 10.9437)
(3.57261 -10.5367 10.0948)
(3.6158 -0.726338 7.40099)
(3.67734 -0.855997 5.82825)
(3.75168 1.84292 5.92636)
(3.72361 4.24626 6.29552)
(3.69963 3.14528 9.25448)
(3.62001 10.3906 10.6576)
(-0.0153029 -1.45907 13.6928)
(-0.0185774 2.16801 11.8085)
(-0.0213433 2.22585 10.8391)
(-0.0172245 -0.125749 11.1461)
(-0.0103138 -2.50798 10.8683)
(-0.00852885 -2.36306 11.605)
(-0.0110409 1.38553 13.3649)
(-3.48982 -8.14946 10.4135)
(-3.6056 -0.574001 7.96679)
(-3.67078 -2.315 6.69618)
(-3.69732 -1.98716 6.48927)
(-3.66058 -0.681151 5.78732)
(-3.5947 -0.671989 6.47641)
(-3.48519 7.34919 10.7688)
(-9.74121 -10.7367 4.11394)
(-9.72217 12.7548 -6.76748)
(-9.86065 10.6048 -6.30666)
(-10.0697 5.21656 -9.25823)
(-10.1255 5.68048 -14.4794)
(-9.92992 1.30233 -9.82482)
(-9.93477 14.2794 9.25398)
(-38.2617 3.40979 -51.0453)
(-38.2294 20.7258 -63.2155)
(-38.1137 29.613 -53.7757)
(-37.8212 29.5197 -39.2825)
(-37.4498 30.5841 -24.6664)
(-37.2991 20.5524 -15.9328)
(-37.2107 16.8365 8.86266)
(36.6501 -7.01932 -0.361559)
(37.9087 -13.3249 -46.7739)
(38.3734 -12.5696 -66.8873)
(38.3492 -11.3844 -74.0056)
(37.6048 -15.1736 -73.1857)
(36.2065 -10.9361 -37.8351)
(36.2798 14.6995 17.6652)
(9.79974 -13.7441 15.0195)
(9.93252 3.37706 -27.1828)
(10.2527 -6.55751 -30.6171)
(10.0831 -8.88904 -30.6138)
(9.7074 -11.4069 -30.076)
(9.58134 -5.01199 -12.6101)
(9.91256 16.6314 20.3258)
(3.48314 -8.16839 21.4476)
(3.50666 2.04521 11.1598)
(3.64374 2.19457 10.0125)
(3.73353 2.88542 10.3044)
(3.70102 3.34423 10.8409)
(3.63673 1.30271 13.3355)
(3.5683 9.50743 21.8961)
(-0.0178317 -0.634662 19.1227)
(-0.0164633 2.16648 16.2572)
(-0.0165148 1.86828 14.6533)
(-0.0142433 0.384091 14.5092)
(-0.0118906 -2.28482 14.2994)
(-0.0124523 -2.53361 15.6904)
(-0.0125998 0.254141 18.2283)
(-3.41836 -4.91357 20.5931)
(-3.55307 1.6027 13.4089)
(-3.66719 -1.67283 12.5449)
(-3.69437 -3.32132 11.6025)
(-3.65961 -3.11916 10.3063)
(-3.52322 -2.52061 11.7242)
(-3.41614 3.93814 19.7533)
(-9.82259 1.65848 -15.6649)
(-9.6822 12.3998 -10.998)
(-9.6449 16.7858 -4.96726)
(-9.84251 14.0634 -6.41111)
(-10.0601 13.6701 -13.259)
(-10.0618 2.79698 -13.9778)
(-9.72761 9.78645 17.6299)
(-38.7324 4.71319 -87.279)
(-38.6003 13.6241 -84.7208)
(-38.4521 21.1363 -68.9848)
(-38.1513 22.1287 -51.0653)
(-37.8837 25.9222 -31.0295)
(-37.65 15.3928 -17.0575)
(-37.289 13.2875 16.0602)
(36.4927 0.710062 -0.506373)
(38.2436 -13.5591 -43.2605)
(38.9704 -7.71022 -72.276)
(38.8996 -7.06012 -80.4143)
(38.6796 -9.6291 -81.1804)
(37.8559 -14.8347 -67.2771)
(35.9374 -0.633234 -19.9893)
(9.28506 -3.08807 14.1505)
(10.321 -4.94562 -29.0943)
(10.2602 -15.0059 -23.7564)
(9.98542 -17.4841 -26.6027)
(9.68234 -17.1299 -27.8938)
(9.47198 -9.60882 -4.28012)
(9.42452 7.09879 18.6814)
(3.37117 -2.69992 23.7794)
(3.4925 3.9673 10.54)
(3.64131 4.1825 10.0375)
(3.70778 3.97058 12.3132)
(3.67751 1.9558 12.745)
(3.50573 -1.35937 15.8995)
(3.41643 5.76291 26.9508)
(-0.0305471 -0.207148 23.1573)
(-0.0227236 1.36601 19.8091)
(-0.0169009 0.999349 17.9297)
(-0.0138575 -0.402935 17.0584)
(-0.0150326 -1.84973 17.2558)
(-0.0184541 -2.36082 18.6847)
(-0.0194425 -0.0947193 21.48)
(-3.4579 -1.13981 21.4196)
(-3.53108 1.76262 18.1994)
(-3.68258 -1.75539 16.8929)
(-3.70707 -5.05711 14.7809)
(-3.66761 -4.40945 12.6549)
(-3.51477 -3.39354 12.3358)
(-3.39154 0.501037 21.3304)
(-10.3979 -1.17959 -57.2165)
(-10.2268 8.17285 -36.2036)
(-10.0173 12.3438 -15.4894)
(-9.95526 14.3071 -7.38357)
(-9.99258 15.8315 -6.70634)
(-10.1737 8.44531 -9.18276)
(-9.4839 4.69897 17.395)
(-38.9058 -3.28397 -94.871)
(-38.6518 9.86282 -90.4893)
(-38.5506 16.2771 -71.7856)
(-38.2209 13.2539 -50.766)
(-37.8363 14.8911 -27.7572)
(-37.7429 6.91215 -8.99575)
(-37.1412 6.93784 23.5882)
(37.4583 1.77866 -5.6589)
(38.4224 -8.89706 -39.1874)
(39.1569 6.42322 -82.1186)
(39.1632 7.3647 -89.1434)
(39.0054 5.90516 -89.9222)
(38.589 -4.65027 -85.7309)
(37.4417 -2.44245 -56.6675)
(9.73339 7.07812 -4.67466)
(10.3913 -10.0772 -23.2373)
(10.354 -14.545 -21.8439)
(10.187 -19.6787 -29.6021)
(10.057 -19.3205 -34.9581)
(9.92911 -14.6839 -35.5349)
(9.64632 -2.03261 -11.0032)
(3.38642 2.80275 18.1149)
(3.48819 4.94453 11.2954)
(3.65013 4.90239 11.0395)
(3.71817 3.91088 13.6581)
(3.65707 -1.01848 13.5347)
(3.45246 -4.72742 15.9058)
(3.3781 0.648421 25.5917)
(-0.0344623 0.37212 23.4571)
(-0.0251103 0.646186 21.0375)
(-0.0198555 -0.405251 20.7464)
(-0.0173968 -1.24636 20.8865)
(-0.0152344 -1.90862 19.8868)
(-0.0126767 -2.23165 20.4134)
(-0.0142398 -0.884404 22.5041)
(-3.46904 0.0524935 21.33)
(-3.53276 1.14197 19.602)
(-3.7093 -2.75454 17.9853)
(-3.72985 -5.67393 16.6623)
(-3.67943 -5.29838 13.4342)
(-3.52994 -3.52652 12.5194)
(-3.41023 -1.88606 18.6195)
(-10.4858 -7.27284 -60.531)
(-10.3054 5.05671 -34.6357)
(-10.3429 4.18016 -24.7964)
(-10.2841 7.73034 -22.2773)
(-10.1943 10.3475 -12.7947)
(-10.2477 7.3026 -6.64551)
(-9.53408 -0.865588 10.1483)
(-39.0187 -3.09232 -100.812)
(-38.7461 11.4591 -95.1256)
(-38.4094 16.6954 -76.6258)
(-38.2797 9.82988 -48.244)
(-37.8566 7.19614 -20.9363)
(-37.7743 -0.058867 1.82468)
(-36.3707 1.08244 23.514)
(37.8728 -6.51344 -13.2614)
(38.5068 -5.48537 -48.3762)
(38.9235 15.1681 -91.9736)
(39.3131 12.5902 -96.1147)
(39.2917 12.6738 -93.3609)
(39.2479 10.8848 -87.8111)
(38.3463 -1.6187 -62.8829)
(10.2447 -2.15116 -12.1418)
(10.4924 -8.4765 -21.2862)
(10.5053 -10.5735 -23.9036)
(10.4629 -15.5687 -29.927)
(10.3916 -15.9831 -38.0567)
(10.4241 -11.7884 -47.7986)
(10.3237 0.149806 -43.4112)
(3.46551 3.1092 14.7849)
(3.53987 5.21605 12.9002)
(3.68392 6.05943 14.4808)
(3.7517 4.4971 17.4322)
(3.6676 -2.84563 18.3649)
(3.47626 -4.90182 16.6843)
(3.42671 -2.04053 20.705)
(-0.0273341 -0.0474721 25.0765)
(-0.0217064 -0.497615 24.1465)
(-0.0168671 -0.77716 23.3523)
(-0.0136823 -0.958866 22.7599)
(-0.00930588 -1.76445 23.1774)
(-0.00477534 -1.79781 24.078)
(-0.00372693 -1.07268 25.0124)
(-3.5199 0.267793 19.7456)
(-3.55043 -0.343159 20.0299)
(-3.73279 -4.11135 20.8616)
(-3.75739 -7.15559 19.5821)
(-3.70287 -5.60353 14.2472)
(-3.59481 -3.72122 13.0358)
(-3.48415 -2.6085 16.6246)
(-10.5135 -8.36222 -60.0625)
(-10.2951 5.78797 -31.5214)
(-10.3889 3.44423 -23.6735)
(-10.4603 5.95419 -22.8438)
(-10.4404 5.51927 -16.2529)
(-10.4093 4.76972 -6.75328)
(-9.99233 -1.18278 5.16867)
(-38.8781 -3.64683 -103.258)
(-38.6912 13.3843 -95.7768)
(-38.654 17.9584 -77.8514)
(-38.4747 10.319 -44.4758)
(-38.1583 4.304 -20.1196)
(-37.7463 -3.6766 3.20133)
(-36.2418 -0.143694 18.9066)
(38.0468 -11.9837 -18.7346)
(38.7828 -5.40518 -63.5069)
(38.7502 17.7703 -95.6512)
(39.0259 20.5497 -97.685)
(39.0003 19.9232 -94.742)
(39.1294 18.6276 -84.4708)
(38.8817 3.41458 -63.269)
(10.3987 -6.12287 -14.0124)
(10.4723 -6.15403 -24.4622)
(10.4902 -5.50837 -23.5289)
(10.5107 -7.43754 -23.9436)
(10.4721 -10.7789 -32.4627)
(10.5638 -5.83474 -47.3404)
(10.5612 -0.000985532 -46.447)
(3.54461 2.04752 14.7596)
(3.63478 3.51005 13.0186)
(3.70778 5.00267 14.8658)
(3.78982 2.2143 19.8549)
(3.69902 -3.68823 17.7238)
(3.53204 -4.45683 13.1869)
(3.47644 -0.284578 10.2624)
(-0.0171716 -0.616947 25.2487)
(-0.013369 -1.42241 24.234)
(-0.0118654 -1.29741 24.6535)
(-0.0133809 -0.620254 25.4518)
(-0.0152952 -1.12281 25.4208)
(-0.0150567 -1.46415 24.9126)
(-0.0102735 -0.866963 24.654)
(-3.57472 -0.124204 15.3874)
(-3.63778 -0.251042 18.5319)
(-3.76557 -3.26059 20.93)
(-3.79237 -6.16984 20.4866)
(-3.76148 -4.2225 15.3433)
(-3.73772 -2.44032 14.2676)
(-3.63755 -1.7407 16.1893)
(-10.6194 -7.75665 -63.4458)
(-10.4834 10.3178 -42.7515)
(-10.4643 9.92467 -27.2522)
(-10.5103 7.0215 -18.9355)
(-10.5184 4.95479 -15.2166)
(-10.4904 3.05911 -8.50292)
(-10.299 1.96392 0.184631)
(-38.7574 -5.02171 -104.051)
(-38.6696 14.4906 -95.9457)
(-38.8325 18.2151 -77.2148)
(-38.6559 22.0627 -36.3035)
(-38.3354 5.77993 -17.079)
(-38.0698 -1.10796 -2.23962)
(-36.866 0.971317 10.9978)
(37.9744 -8.5882 -14.5592)
(39.5074 24.8826 -96.4837)
(39.3454 28.183 -85.6393)
(39.3031 32.1526 -73.5828)
(39.1817 28.1297 -64.4863)
(39.4566 19.3248 -51.4617)
(39.2335 4.21199 -24.7678)
(10.3927 -6.80587 -3.23547)
(10.5793 0.774099 -15.7807)
(10.6076 -1.25996 -15.5237)
(10.5754 -3.70473 -18.5547)
(10.5667 0.779798 -26.0408)
(10.8372 9.10551 -43.6155)
(10.9182 5.44945 -44.6444)
(3.68058 0.973207 13.3604)
(3.69208 2.06958 13.7599)
(3.73232 0.414825 15.3252)
(3.78054 -2.51664 17.652)
(3.70168 -10.4508 13.9842)
(3.70627 -10.2726 -4.04272)
(3.76059 -4.26133 -16.1053)
(0.00246387 -0.471532 22.3147)
(-0.00400883 -0.529813 22.1907)
(-0.0167449 -0.265582 23.1958)
(-0.0351013 -0.272391 24.6096)
(-0.0426533 -1.05485 24.6543)
(-0.0482198 -1.99964 23.4357)
(-0.0550453 -1.12436 20.9535)
(-3.74709 5.97658 -4.94421)
(-3.72324 8.06567 7.41044)
(-3.78368 3.89983 16.3784)
(-3.86659 0.228896 19.6341)
(-3.83889 -0.782038 17.4223)
(-3.80989 -0.833513 16.7433)
(-3.77557 0.151362 16.6831)
(-10.8373 -11.0296 -68.0537)
(-10.6914 10.9034 -54.7498)
(-10.6384 16.9176 -25.2097)
(-10.622 20.339 -7.40321)
(-10.6146 15.5077 -4.63688)
(-10.6161 10.6451 -3.574)
(-10.5332 8.71058 3.89515)
(-39.3895 -13.8647 -89.4555)
(-39.5593 -4.2742 -89.7731)
(-39.1398 -8.38442 -64.4481)
(-38.6582 19.8937 -12.1705)
(-38.4281 10.4649 3.20595)
(-38.4337 5.26097 15.3153)
(-38.0579 5.28023 19.4529)
(39.2612 21.5597 -74.3008)
(39.7862 22.4097 -112.263)
(39.3419 27.3221 -89.4365)
(39.5768 32.0107 -75.6021)
(39.5827 27.8317 -65.8003)
(39.7461 14.3877 -50.8314)
(39.5644 2.87203 -27.344)
(10.3054 -4.15931 -1.07567)
(10.5804 4.39548 -11.314)
(10.5654 -0.761882 4.47766)
(10.5418 -6.29056 5.64559)
(10.697 4.29317 -17.2389)
(10.8792 12.6013 -35.9982)
(10.9228 12.2501 -37.9031)
(3.71171 -0.084902 16.1759)
(3.73042 1.45115 17.3185)
(3.7864 -1.28787 19.7774)
(3.78214 -10.1026 20.2041)
(3.77398 -14.0286 5.65276)
(3.87681 -4.62708 -14.9092)
(3.94462 1.45428 -23.431)
(0.00191665 -0.455847 24.1631)
(-0.0119759 -0.13934 24.349)
(-0.0284239 0.250478 25.441)
(-0.0390106 0.431741 26.8429)
(-0.0376661 -0.323838 26.6064)
(-0.0362722 -1.37894 25.4765)
(-0.0512446 -1.108 22.2908)
(-3.90638 1.90851 -13.0795)
(-3.85695 10.1466 -0.527317)
(-3.8311 13.2781 19.3672)
(-3.89745 4.88826 23.4381)
(-3.89101 1.00697 21.1217)
(-3.84359 0.348421 20.0986)
(-3.79018 0.745234 19.0161)
(-10.8735 -15.8358 -66.2046)
(-10.864 7.83008 -53.3903)
(-10.7343 16.1954 -21.6423)
(-10.6684 19.408 -1.97808)
(-10.6638 14.2181 4.694)
(-10.6737 7.73696 6.32214)
(-10.5063 7.9552 9.147)
(-39.2752 -17.1543 -96.106)
(-39.4992 -15.0226 -97.8282)
(-38.9277 -18.0778 -70.9075)
(-38.4433 12.7792 -10.2001)
(-38.4942 3.90414 5.53029)
(-38.3631 -0.333029 17.3669)
(-37.8195 6.43898 24.0384)
(39.7852 22.614 -141.754)
(40.0554 -7.90066 -131.051)
(39.9963 14.7614 -87.343)
(39.9075 23.0377 -66.4292)
(39.9604 24.7109 -44.2899)
(39.9117 9.46238 -23.4486)
(39.8363 8.48329 -12.3942)
(10.2819 0.894294 -5.38295)
(10.7075 2.5989 -18.4982)
(10.7489 1.92252 1.19413)
(10.8054 7.831 -10.2004)
(10.8194 24.6666 -25.2506)
(10.8255 25.7449 -31.3856)
(10.9105 23.4226 -26.6178)
(3.73754 -1.43447 21.681)
(3.80503 0.0676746 21.4494)
(3.81946 -4.35971 25.2446)
(3.79453 -9.63737 21.3054)
(3.86465 -7.64232 2.96048)
(3.95994 -0.186428 -10.0789)
(3.9752 12.0791 -20.5035)
(0.00122255 -0.0540629 28.0555)
(-0.0224653 -0.570236 29.0667)
(-0.0330192 0.651102 30.4701)
(-0.0317467 1.18827 32.3394)
(-0.0221063 0.929591 31.266)
(-0.0206378 -0.0708281 29.6938)
(-0.0391375 -0.648932 25.7897)
(-4.0084 -4.83271 -27.4713)
(-3.97705 7.18549 -17.3378)
(-3.87409 15.6146 13.5551)
(-3.89123 11.1065 27.5444)
(-3.91354 4.71622 26.4056)
(-3.87189 2.45991 23.3935)
(-3.81466 2.51649 22.6729)
(-10.8848 -18.8812 -67.5483)
(-10.8878 0.0989615 -55.9031)
(-10.7786 1.97506 -32.0307)
(-10.687 13.7995 -1.51777)
(-10.6807 12.6256 6.8739)
(-10.6485 6.5396 9.31436)
(-10.4684 7.92942 13.154)
(-39.5512 -32.4557 -89.0668)
(-39.4959 -31.9826 -97.7523)
(-38.9087 -32.7239 -83.124)
(-38.4235 -6.07748 -28.1358)
(-38.1348 3.68573 6.6978)
(-38.1529 -3.94304 15.6023)
(-37.6111 7.2525 25.3616)
(39.6989 -21.5406 -155.601)
(40.0988 -31.6891 -132.894)
(40.7248 12.9897 -88.5564)
(40.0483 21.2674 -60.928)
(40.0616 28.1948 -32.5097)
(40.1471 15.1696 -8.8409)
(40.102 14.0241 7.756)
(10.2696 3.65899 -12.2404)
(10.7386 3.086 -21.1635)
(10.9106 18.5043 -44.0043)
(10.855 33.1233 -53.77)
(10.8922 37.1093 -41.4726)
(10.9328 31.5841 -34.0515)
(10.9702 26.5872 -15.057)
(3.73108 -1.08592 24.8975)
(3.822 -1.30871 26.5358)
(3.84902 -3.83597 27.5391)
(3.86556 -5.5144 20.3554)
(3.95962 -1.34153 11.4274)
(3.99841 -2.02896 8.5686)
(4.01452 19.7365 -7.36001)
(0.00184616 0.888729 30.8477)
(-0.0288044 1.95528 33.141)
(-0.0317053 2.79399 33.0534)
(-0.0141899 3.34426 34.726)
(-0.00127444 2.00245 34.4926)
(-0.0030323 -1.46919 31.5742)
(-0.0185311 -0.379894 27.1777)
(-4.00611 -15.1014 -26.8161)
(-4.01706 6.0726 -8.98074)
(-3.92011 15.104 0.985662)
(-3.88791 14.4237 23.8755)
(-3.90082 8.73418 29.8107)
(-3.89264 2.80041 26.8217)
(-3.80696 2.99712 25.3311)
(-10.8611 -26.2314 -53.9085)
(-10.858 -10.3438 -43.0331)
(-10.7748 -11.6793 -30.1061)
(-10.711 -0.786402 -9.5541)
(-10.6806 9.37964 6.99642)
(-10.6553 5.93245 8.2084)
(-10.3196 6.80257 14.8703)
(-39.575 -36.1636 -74.9437)
(-39.3839 -43.8737 -94.2409)
(-39.1703 -47.3264 -95.9177)
(-38.4753 -38.1087 -73.7064)
(-37.9406 -0.549516 -10.1201)
(-37.7362 -2.7186 17.7167)
(-36.8929 6.20217 26.4113)
(39.6621 -48.3975 -131.578)
(40.3476 -39.4369 -125.354)
(41.0934 10.8701 -111.477)
(40.5781 25.3318 -63.3872)
(40.3478 29.2032 -28.5521)
(40.2817 13.6348 1.68502)
(40.2104 15.6028 16.9179)
(10.2429 -4.17007 -16.449)
(10.5974 30.1528 -37.6252)
(10.9324 30.4198 -83.1221)
(11.0161 31.2005 -69.8318)
(11.1112 34.6974 -42.3259)
(11.0859 26.48 -32.874)
(11.0609 26.2486 -7.44346)
(3.73434 -4.6358 27.157)
(3.78846 -6.55956 26.8706)
(3.84027 -1.99483 27.7009)
(3.93408 -1.38358 24.8905)
(4.05051 -1.62467 19.7616)
(4.06295 -3.58672 12.9761)
(4.07727 20.5638 2.26806)
(0.0118832 1.74116 33.2127)
(-0.0278784 2.92459 35.1248)
(-0.0364544 3.07246 36.3204)
(-0.00478293 3.59024 35.5026)
(0.0166134 2.06307 34.2212)
(0.0168903 -1.55886 31.699)
(0.00398223 -0.934046 28.1259)
(-3.95181 -20.6149 -14.1398)
(-3.98337 7.3712 4.88211)
(-3.96211 12.2255 4.96164)
(-3.89121 14.0553 13.6135)
(-3.89596 10.996 27.5853)
(-3.89389 6.31958 28.4332)
(-3.81772 3.26633 25.1584)
(-10.8345 -30.1806 -39.5952)
(-10.8301 -28.0024 -32.5464)
(-10.7786 -25.1454 -23.8298)
(-10.7749 -20.6927 -20.7651)
(-10.7252 3.22766 4.62957)
(-10.6795 6.38284 12.5866)
(-10.3171 3.97799 19.8002)
(-39.7577 -43.445 -58.9274)
(-39.5639 -57.8913 -84.4594)
(-38.7052 -62.3168 -91.718)
(-39.0501 -60.1844 -94.083)
(-38.3748 -40.0516 -59.0357)
(-37.7573 9.45776 20.0632)
(-36.5486 3.07187 32.3127)
(39.3365 -52.0402 -99.0072)
(39.3069 -65.8999 -122.019)
(40.2559 -62.5974 -129.737)
(41.0991 0.896958 -82.323)
(40.6672 8.94509 -26.9649)
(40.2578 -5.35217 14.2078)
(40.1172 9.64022 30.2789)
(10.2454 -14.8158 -23.87)
(10.4534 49.6716 -75.7817)
(11.0628 -7.79296 -101.388)
(11.2615 4.59325 -62.8873)
(11.176 10.3902 -21.7823)
(11.1406 8.28778 -17.763)
(11.1525 20.1369 -2.83556)
(3.72268 -11.4104 25.6255)
(3.81895 -8.37099 9.31221)
(3.93981 7.43887 -0.00444255)
(4.00814 5.22431 23.5624)
(4.05556 2.91103 26.9691)
(4.06469 -0.0292489 21.5105)
(4.11112 16.9044 8.20089)
(0.0109217 -1.14791 36.3794)
(-0.0240779 2.04612 36.7405)
(-0.0192438 1.54139 36.6442)
(0.0118965 2.26202 36.5316)
(0.0244574 1.16305 35.5124)
(0.0229307 -0.835696 32.1953)
(0.0143374 1.35091 29.6156)
(-3.90132 -24.9625 4.29765)
(-3.95553 7.34185 14.2149)
(-3.98846 12.216 13.9191)
(-3.93693 10.9054 14.8167)
(-3.89693 10.8655 20.9257)
(-3.8993 10.7409 23.8999)
(-3.85682 7.3954 26.3515)
(-10.815 -41.4214 -20.6638)
(-10.8249 -50.1202 -32.5123)
(-10.8483 -55.1465 -33.3524)
(-10.8776 -52.5897 -31.8017)
(-10.8343 -37.1088 -24.0181)
(-10.7913 4.06974 -4.3338)
(-10.4453 7.72587 29.1914)
(-40.3319 -31.4186 -31.3064)
(-40.2638 -57.6052 -66.0847)
(-39.4316 -70.4199 -88.0051)
(-38.5168 -78.3942 -92.9055)
(-38.4298 -77.7961 -93.7948)
(-38.3099 -45.4934 -32.9562)
(-36.6481 12.313 43.8338)
(40.081 -59.1922 -65.4908)
(39.0017 -93.2586 -110.855)
(38.0688 -140.39 -108.525)
(39.5588 -144.517 -68.682)
(40.4246 -88.34 -32.649)
(40.5118 -59.5011 -3.53782)
(40.4724 -32.2201 15.2242)
(10.6769 -2.01931 -13.8551)
(10.6424 39.1387 -79.3542)
(10.631 -111.805 -91.4287)
(11.0477 -44.6959 -50.9301)
(11.2158 -15.5039 -26.199)
(11.1454 -10.1195 -0.137885)
(11.1428 12.7333 32.2161)
(3.76801 -12.5993 24.1025)
(3.91137 19.4746 -38.3558)
(3.96233 6.44505 -39.1515)
(4.07386 22.5108 -35.9919)
(4.11528 31.8913 -16.0639)
(4.07733 18.7967 -2.67453)
(4.04561 17.2289 28.1371)
(0.000274639 -1.27853 55.2614)
(-0.0111699 -2.25731 39.8181)
(-0.00978745 -2.73632 34.8359)
(0.0254769 -1.80465 37.9504)
(0.0340997 1.92715 35.9867)
(0.0189707 1.37407 31.1523)
(-0.0215246 0.0650585 38.3082)
(-3.86205 -23.5026 34.1533)
(-3.98301 -22.6216 7.55002)
(-4.02203 -24.6785 6.39207)
(-4.01082 -18.5047 3.96384)