/*--------------------------------*- C++ -*----------------------------------*\
  =========                 |
  \\      /  F ield         | OpenFOAM: The Open Source CFD Toolbox
   \\    /   O peration     | Website:  https://openfoam.org
    \\  /    A nd           | Version:  6
     \\/     M anipulation  |
\*---------------------------------------------------------------------------*/
FoamFile
{
    version     2.0;
    format      ascii;
    class       volScalarField;
    location    "0.01";
    object      O2;
}
// * * * * * * * * * * * * * * * * * * * * * * * * * * * * * * * * * * * * * //

dimensions      [0 0 0 0 0 0 0];

internalField   nonuniform List<scalar> 
3773
(
0
0
0
0
0
0
0
0
0
0
0
0
0
0
0
0
0
0
0
0
0
0
0
0
0
0
0
0
0
0
0
0
0
0
0
0
0
0
0
0
0
0
0
0
0
0
0
0
0
0
0
0
0
0
0
0
0
0
0
0
0
0
0
0
0
0
0
0
0
0
0
0
0
0
0
0
0
0
0
0
0
0
0
0
0
0
0
0
0
0
0
0
0
0
0
0
0
0
0
0
0
0
0
0
0
0
0
0
0
0
0
0
0
0
0
0
0
0
0
0
0
0
0
0
0
0
0
0
0
0
0
0
0
0
0
0
0
0
0
0
0
0
0
0
0
0
0
0
0
0
0
0
0
0
0
0
0
0
0
0
0
0
0
0
0
0
0
0
0
0
0
0
0
0
0
0
0
0
0
0
0
0
0
0
0
0
0
0
0
0
0
0
0
0
0
0
0
0
0
0
0
0
0
0
0
0
0
0
0
0
0
0
0
0
0
0
0
0
0
0
0
0
0
0
0
0
0
0
0
0
0
0
0
0
0
0
0
0
0
0
0
0
0
0
0
0
0
0
0
0
0
0
0
0
0
0
0
0
0
0
0
0
0
0
0
0
0
0
0
0
0
0
0
0
0
0
0
0
0
0
0
0
0
0
0
0
0
0
0
0
0
0
0
0
0
0
0
0
0
0
0
0
0
0
0
0
0
0
0
0
0
0
0
0
0
0
0
0
0
0
0
0
0
0
0
0
0
0
0
0
0
0
0
0
0
0
0
0
0
0
0
0
0
0.00164348
0.000727804
0.000648701
0.000620202
0.000619083
0.000776886
0.00168527
0.00230581
0.00139526
0.000961008
0.000806777
0.000859265
0.00123021
0.00239066
0.00373814
0.00320948
0.00294374
0.00297312
0.00274709
0.0029164
0.00361426
0.00857995
0.0081765
0.0086658
0.0105062
0.00917282
0.00822046
0.00853555
0.00545513
0.00427979
0.00394468
0.00383746
0.00380995
0.00415173
0.00542984
0.00273376
0.00157928
0.00132245
0.00128715
0.00123497
0.00132667
0.00242684
0.00206874
0.000986284
0.000796859
0.000811078
0.000943084
0.00105725
0.00197528
0.000708769
2.77917e-06
9.70438e-07
1.26673e-06
4.04578e-06
3.20945e-05
0.000765021
0.00116372
2.23366e-05
4.69985e-05
1.04688e-05
1.37516e-05
5.14015e-05
0.00101149
0.00329928
0.00215597
0.00211116
0.00280571
0.00206875
0.00201573
0.00294324
0.00660709
0.00624651
0.00667196
0.00775427
0.00700483
0.00627537
0.006528
0.00474602
0.00245992
0.00168719
0.00151075
0.00170155
0.00226833
0.00460084
0.00115014
0.000322194
0.000113871
2.30901e-05
7.24024e-06
1.44108e-05
0.000846531
0.000120451
5.03974e-05
2.85769e-05
1.86972e-05
1.29168e-05
6.59183e-06
0.000321653
0.000431538
2.82772e-06
1.00071e-06
1.14164e-06
3.34617e-06
3.62135e-05
0.000487811
0.00083779
0.000155791
7.93209e-05
1.73431e-05
5.32011e-05
0.000164645
0.000686677
0.0033451
0.0016803
0.00133591
0.00155581
0.00111176
0.00144282
0.00296857
0.00521301
0.0044913
0.00448217
0.00416581
0.0045621
0.00457677
0.00526052
0.00309677
0.00167291
0.0011455
0.00104245
0.000950933
0.00124117
0.00288657
0.000358937
0.000366082
0.00025074
9.3704e-05
1.77273e-05
1.32661e-05
0.000494086
3.73637e-06
5.08136e-06
4.38192e-06
4.92969e-06
4.64839e-06
2.4677e-06
7.43399e-05
0.000431006
4.35541e-06
1.13069e-06
1.12205e-06
1.09684e-06
4.28002e-06
3.08008e-05
0.000831035
0.000361086
8.20716e-05
1.84911e-05
9.09348e-05
0.000248805
0.000529668
0.0032184
0.00141689
0.000842968
0.000548997
0.00068649
0.00120513
0.00295816
0.00439249
0.00332513
0.00218174
0.00266646
0.00250968
0.00276298
0.00373761
0.00227709
0.00109734
0.000685955
0.00074783
0.000666516
0.000854432
0.0015292
5.60403e-05
7.08914e-05
6.49953e-05
5.58801e-05
2.77767e-05
4.41342e-06
0.000228053
3.80534e-06
5.35528e-06
3.48723e-06
2.70536e-06
7.78869e-07
2.53618e-07
1.93121e-05
7.55141e-06
1.58206e-06
1.4212e-06
1.55918e-06
1.27997e-06
5.39078e-07
3.53702e-08
0.000444454
0.000113883
1.47083e-05
1.16646e-05
3.90406e-05
8.23755e-05
0.000214007
0.00203628
0.000904317
0.000471694
0.000325045
0.000435659
0.000811704
0.00209931
0.00263809
0.00180217
0.00143017
0.00161712
0.00145091
0.00178941
0.00199974
0.00155625
0.000805184
0.000520077
0.000400302
0.000349484
0.000518876
0.000941701
9.1434e-05
9.31648e-05
3.70683e-05
1.04303e-05
3.34752e-06
1.31113e-06
8.5274e-05
5.01748e-06
6.53337e-06
4.66382e-06
1.9834e-06
6.71124e-07
1.80099e-07
3.87058e-06
9.85936e-08
1.25326e-06
2.16629e-06
2.17308e-06
2.10795e-06
8.40347e-07
3.3393e-08
4.22342e-07
4.54252e-06
6.33149e-06
8.13209e-06
1.0722e-05
9.83052e-06
2.26084e-07
0.00121982
0.000713345
0.000394739
0.000230354
0.00035291
0.000649036
0.00119019
0.00142893
0.00121398
0.00115851
0.00114166
0.00111839
0.00127289
0.00136417
0.000943038
0.000581
0.000373179
0.000278263
0.00016424
0.000172109
0.000317964
9.34318e-05
0.000101098
6.42835e-05
1.47256e-05
5.28831e-06
1.43591e-06
6.56542e-06
4.60898e-06
7.41939e-06
5.03051e-06
2.46276e-06
1.12875e-06
1.79539e-07
8.5104e-07
0
1.27794e-06
2.42827e-06
2.46044e-06
2.40619e-06
9.84857e-07
0
1.45294e-06
1.36043e-05
2.47765e-05
2.40956e-05
2.62458e-05
2.72884e-05
0
0.000675682
0.000411657
0.000225043
0.000152378
0.000190952
0.000394132
0.000834762
0.00110189
0.000779406
0.000603945
0.000668097
0.000553532
0.000743158
0.000990632
0.000459869
0.000303142
0.000198965
0.000154892
9.84214e-05
0.000116473
0.0001592
1.62382e-05
2.67421e-05
2.82213e-05
2.08432e-05
8.36968e-06
3.83747e-06
2.92855e-07
0
1.36988e-06
2.6218e-06
3.01817e-06
2.46566e-06
9.37556e-07
3.60031e-07
0
1.95958e-08
4.23111e-08
1.27267e-07
5.60906e-08
1.15806e-08
3.04657e-09
3.87794e-07
1.36645e-06
7.11831e-06
8.77074e-06
3.44091e-06
2.76175e-08
1.1768e-08
0
7.22447e-05
8.12065e-05
6.86946e-05
5.01788e-05
2.15687e-05
0
6.80999e-05
0.000408665
0.000354876
0.000432104
0.000303604
0.000271025
2.08017e-07
0
2.20565e-05
4.64539e-05
6.49077e-05
4.57104e-05
5.2933e-05
0
9.64548e-10
1.61892e-06
2.70509e-06
3.32343e-06
2.87877e-06
1.17967e-06
4.49581e-08
3.51291e-09
3.17328e-09
1.1209e-08
5.22152e-08
9.2085e-08
4.42428e-07
0
2.43407e-09
3.56125e-08
6.60489e-08
1.53548e-07
4.77903e-08
7.56432e-09
1.71702e-09
2.60898e-07
1.45192e-06
4.77563e-06
4.68706e-06
5.27322e-07
3.8259e-08
1.18461e-08
1.65413e-08
3.12413e-05
3.26051e-05
2.22149e-05
9.59932e-06
1.72211e-06
1.68301e-09
1.0682e-05
0.000188194
0.000163687
0.000169609
0.000158772
0.000136945
3.90188e-09
4.39683e-08
2.2245e-06
1.41287e-05
2.45875e-05
2.30645e-05
2.54918e-05
1.09032e-07
8.78983e-10
1.49804e-07
9.90403e-07
1.40604e-06
1.00388e-06
3.66196e-07
7.88544e-08
1.05384e-09
4.23973e-09
1.83286e-08
1.19731e-07
1.28679e-07
8.01253e-08
3.2118e-09
2.8256e-09
7.5183e-09
3.58624e-08
3.40516e-08
2.64081e-08
1.03066e-08
4.79823e-09
8.25576e-08
2.73991e-07
9.7683e-07
6.10036e-07
1.87328e-07
6.80192e-08
2.3449e-08
2.77291e-08
1.07945e-05
1.24291e-05
8.73683e-06
2.65832e-06
2.28512e-07
4.34753e-09
2.37708e-06
7.08791e-05
7.41551e-05
9.0892e-05
7.3681e-05
5.36951e-05
2.34061e-08
1.53292e-08
6.13043e-07
3.94253e-06
9.49303e-06
8.88959e-06
1.01206e-05
4.58165e-07
1.04197e-09
1.98909e-08
1.50592e-07
4.48531e-07
2.27584e-07
1.10477e-07
4.15895e-08
1.96592e-09
5.74142e-09
7.77665e-09
1.13188e-08
3.34029e-08
2.73834e-08
3.25513e-09
1.42174e-09
8.22853e-10
1.61702e-08
4.04543e-08
4.1993e-08
2.54495e-08
8.15821e-09
2.23106e-08
2.65052e-07
3.64345e-07
2.10131e-07
1.78666e-07
1.08948e-07
2.96123e-08
2.53928e-07
3.97207e-06
5.173e-06
5.80284e-06
4.74582e-06
3.50332e-06
5.61988e-09
4.77816e-07
4.57157e-05
3.70466e-05
5.15191e-05
3.50686e-05
2.13607e-05
3.36589e-08
2.713e-09
4.38381e-06
1.62806e-06
4.06688e-06
4.37448e-06
3.6024e-06
3.39182e-07
2.72737e-09
1.20975e-08
4.96881e-08
2.31176e-07
2.89028e-07
7.25264e-08
1.66074e-08
2.32694e-09
6.98007e-09
9.21235e-09
9.35143e-09
9.65363e-09
1.66659e-08
1.85159e-09
1.50258e-09
9.35477e-10
9.24889e-09
5.18649e-08
5.94831e-08
3.54746e-08
1.17771e-08
3.52774e-08
1.29393e-07
1.21555e-07
2.05663e-07
2.66736e-07
1.44546e-07
4.79683e-08
2.68167e-07
1.2517e-06
2.02699e-06
3.8429e-06
4.178e-06
2.853e-06
6.93301e-09
9.35486e-08
1.44575e-05
2.15388e-05
2.81164e-05
1.6514e-05
1.3597e-05
3.55435e-08
1.50226e-09
1.85892e-06
2.12899e-06
1.93028e-06
2.1492e-06
1.84182e-06
3.16103e-07
6.24297e-09
2.0676e-08
7.92716e-08
2.50111e-07
3.48119e-07
2.59952e-07
4.77184e-08
2.44752e-09
7.43914e-09
1.18283e-08
1.31515e-08
1.71691e-08
3.59331e-08
5.31584e-09
1.79561e-09
1.31112e-09
6.77556e-09
1.69248e-08
1.63679e-08
5.25227e-09
5.81987e-09
2.03354e-08
1.45314e-08
2.68662e-08
5.10871e-08
1.89475e-07
8.55483e-08
3.02421e-08
9.35738e-08
1.54696e-07
5.20248e-07
1.04029e-06
2.05915e-06
1.35047e-06
7.12885e-08
6.1224e-08
7.84588e-06
1.1102e-05
1.3237e-05
9.80113e-06
5.9057e-06
8.72436e-08
2.64222e-09
9.79019e-07
9.41285e-07
5.54895e-07
8.09372e-07
8.50062e-07
2.96577e-07
9.49226e-09
2.18699e-08
7.2217e-08
1.28974e-07
2.11106e-07
2.42577e-07
1.00618e-07
1.80626e-09
5.64675e-09
1.03663e-08
1.38002e-08
1.56274e-08
2.35756e-08
2.60258e-08
2.17358e-10
1.43306e-09
2.04326e-09
3.96989e-09
7.5197e-09
1.49591e-09
2.2673e-09
6.58919e-09
3.98835e-09
4.00628e-09
8.95779e-09
1.92033e-07
7.7552e-08
5.21772e-09
1.28725e-08
3.36975e-08
8.72439e-08
8.03222e-08
7.18856e-07
6.40142e-07
1.47463e-07
2.85791e-07
3.17604e-06
4.72916e-06
6.00474e-06
5.45582e-06
3.28335e-06
2.27215e-07
1.26579e-08
6.22781e-08
5.75123e-08
1.01741e-07
1.68114e-07
2.06027e-07
9.99199e-08
2.6753e-09
5.56808e-09
1.17681e-08
2.1549e-08
2.96889e-08
3.91159e-08
4.20847e-08
5.10983e-10
1.40821e-09
5.64949e-09
7.48964e-09
6.35136e-09
5.97954e-09
1.32666e-08
0
6.31169e-07
1.21434e-06
1.70382e-06
1.39049e-06
7.07145e-07
0
0
2.78498e-05
2.87048e-05
2.86059e-05
2.28898e-05
1.60726e-05
0
4.44608e-05
0.000213898
0.000197372
0.000135944
0.000168132
0.000227079
0.000340086
0.000710037
0.00058098
0.000570418
0.000617658
0.000525098
0.000528088
0.000538465
0
8.89883e-05
0.000125223
0.000101346
5.79884e-05
5.64171e-05
0
0
9.93768e-06
1.73795e-05
2.91259e-05
1.72208e-05
1.23403e-05
0
0
5.56638e-07
9.95091e-07
3.59707e-06
3.82669e-06
4.7018e-06
0
0
1.99925e-07
7.73202e-07
1.17058e-06
9.01964e-07
2.72841e-07
0
0
1.85688e-05
1.8308e-05
2.24713e-05
1.82467e-05
9.87464e-06
0
0
0.000201235
0.000186235
0.000126915
0.000155125
0.000190378
0.00010758
0.000664636
0.000578603
0.000563467
0.000610233
0.00051549
0.000476551
0.000496455
0
8.27102e-05
0.000120983
9.95132e-05
5.76844e-05
5.49298e-05
0
0
8.86459e-06
1.27316e-05
1.91177e-05
1.20473e-05
9.38131e-06
0
0
3.89628e-07
6.30381e-07
2.47848e-06
2.4909e-06
2.46758e-06
0
0
7.43154e-08
6.44753e-07
9.99813e-07
7.38652e-07
1.77858e-07
0
0
1.58301e-05
1.57553e-05
2.06632e-05
1.66779e-05
7.614e-06
0
0
0.000180713
0.000167582
0.000115505
0.000147916
0.000149858
0
0.000572895
0.000573651
0.000551838
0.000594632
0.000493085
0.00045885
0.000411517
0
7.95411e-05
0.00011654
9.47639e-05
5.63161e-05
5.15808e-05
0
0
7.4849e-06
1.12144e-05
1.5847e-05
1.05378e-05
9.0991e-06
0
0
3.16581e-07
5.13996e-07
2.19726e-06
2.16502e-06
2.23897e-06
0
0
6.83382e-08
4.72795e-07
7.92277e-07
6.44261e-07
1.48847e-07
0
0
1.32691e-05
1.51674e-05
1.92073e-05
1.49157e-05
4.79547e-06
0
0
0.000169284
0.000156009
0.000107122
0.000133836
0.000127784
0
0.000520074
0.000566816
0.000533994
0.00058029
0.000480334
0.00044812
0.000300597
0
7.35859e-05
0.000106682
9.01456e-05
5.51035e-05
5.22848e-05
0
0
6.86206e-06
9.97321e-06
1.23944e-05
1.0195e-05
9.79584e-06
0
0
2.38947e-07
4.09363e-07
2.12899e-06
2.24326e-06
2.76532e-06
0
0
6.21929e-08
2.99087e-07
6.87509e-07
6.13023e-07
1.29333e-07
0
0
8.00737e-06
1.43931e-05
1.70699e-05
1.29291e-05
2.8846e-06
0
0
0.000151789
0.000146682
0.000103261
0.000128616
0.000106901
0
0.000410421
0.00056387
0.000524057
0.000567371
0.000456352
0.000426731
0.000243606
0
7.03846e-05
0.000102162
8.57428e-05
5.5645e-05
5.58078e-05
0
0
5.48367e-06
9.12986e-06
1.12131e-05
1.06444e-05
9.16885e-06
0
0
2.04152e-07
3.70428e-07
1.75888e-06
2.50193e-06
2.15316e-06
0
0
5.05107e-08
1.88924e-07
4.20183e-07
3.66898e-07
6.34266e-08
0
0
5.27974e-06
1.40605e-05
1.37155e-05
1.07452e-05
9.413e-07
0
0
0.000147441
0.00014413
0.000103111
0.000122417
8.79126e-05
0
0.000356
0.000559702
0.000503124
0.000546808
0.000442977
0.000410182
0.000107757
0
6.31576e-05
9.18905e-05
8.08956e-05
5.92614e-05
6.25799e-05
0
0
4.7393e-06
7.67279e-06
1.10981e-05
1.08373e-05
9.27564e-06
0
0
1.11878e-07
1.96291e-07
6.10278e-07
2.64702e-06
2.2177e-06
0
0
4.39502e-10
2.87896e-08
2.45219e-07
1.89932e-07
2.45007e-08
0
0
2.94846e-06
1.04588e-05
1.15538e-05
8.24771e-06
0
0
0
0.000135579
0.000138539
0.000101463
0.000115971
7.02171e-05
0
0.000233819
0.000559412
0.000495075
0.000533788
0.000413576
0.000385999
9.26324e-06
0
6.1688e-05
8.98667e-05
8.11279e-05
5.94043e-05
6.34139e-05
0
0
3.76521e-06
5.82995e-06
7.83153e-06
8.0656e-06
6.93025e-06
0
0
4.36747e-08
4.5174e-08
8.80133e-08
1.99299e-06
2.78372e-06
0
1.19523e-11
1.19275e-09
2.051e-09
1.77934e-09
9.65433e-10
6.27993e-10
6.10598e-11
4.96698e-12
7.93528e-11
7.60762e-09
2.05536e-08
2.29921e-08
1.60798e-08
1.64694e-09
4.06539e-10
1.5511e-07
3.29068e-07
2.56082e-07
1.92941e-07
3.67089e-07
1.4785e-07
2.73881e-07
1.45088e-06
2.57967e-06
3.69393e-06
3.40782e-06
2.80559e-06
2.9003e-07
1.7176e-08
5.15199e-08
7.99918e-08
1.40151e-07
1.55481e-07
1.53636e-07
9.65654e-10
2.71853e-10
1.06762e-09
7.70014e-10
5.86906e-09
8.84692e-09
3.37294e-09
3.83262e-11
1.94521e-11
1.74516e-10
7.44125e-10
9.05398e-10
6.03515e-10
9.34106e-11
3.13696e-11
7.50588e-11
1.04483e-09
1.09271e-09
9.05403e-10
9.34741e-10
6.19059e-10
1.19772e-10
1.1382e-11
2.97905e-10
6.2043e-09
9.79997e-09
1.118e-08
1.00986e-08
1.89865e-09
1.07519e-08
1.56247e-07
1.84211e-07
2.3036e-07
8.0653e-08
1.92735e-07
1.40958e-07
2.94077e-07
1.20461e-06
2.37824e-06
3.36646e-06
2.41207e-06
2.17384e-06
3.48272e-07
2.44883e-08
6.88826e-08
1.19823e-07
2.14689e-07
2.09698e-07
2.75696e-07
8.48525e-10
2.99077e-10
1.52387e-09
1.77414e-09
5.40281e-09
9.08003e-09
4.22061e-09
1.01233e-10
1.33811e-11
1.02233e-10
1.99842e-10
4.86705e-10
4.58838e-10
3.28257e-10
1.08529e-10
4.22048e-10
1.33977e-09
1.77053e-09
1.7286e-09
1.49532e-09
1.27803e-09
5.42811e-10
6.50288e-11
2.02995e-10
5.97239e-09
9.3152e-09
1.06219e-08
8.87922e-09
5.7502e-09
3.10367e-08
1.45344e-07
1.49378e-07
3.08873e-07
1.21679e-07
7.90944e-08
1.01728e-07
3.06421e-07
9.53595e-07
2.10996e-06
2.92292e-06
1.7834e-06
1.89816e-06
4.62802e-07
3.98841e-08
1.23992e-07
1.973e-07
3.66011e-07
2.24578e-07
2.83909e-07
8.70452e-08
9.3139e-10
3.25028e-09
7.3096e-09
7.01606e-09
6.06155e-09
3.98901e-09
2.33931e-09
4.13445e-11
1.49479e-10
6.55168e-10
9.07911e-10
7.87116e-10
6.45281e-10
3.09063e-10
5.70166e-10
1.44275e-09
1.87087e-09
1.59314e-09
1.24114e-09
1.34476e-09
1.48386e-09
7.83984e-11
2.16064e-10
5.41562e-09
8.27851e-09
9.80027e-09
6.87705e-09
6.49268e-09
8.88773e-08
1.20408e-07
1.66573e-07
3.06027e-07
2.17425e-07
6.78831e-08
6.38185e-08
3.46496e-07
8.10767e-07
1.81643e-06
2.25254e-06
1.4143e-06
1.3313e-06
4.66857e-07
5.15123e-08
1.39821e-07
2.61567e-07
3.77195e-07
2.1788e-07
1.9384e-07
8.14902e-08
2.36149e-09
4.18796e-09
7.71466e-09
1.042e-08
8.92153e-09
6.7357e-09
3.93698e-09
3.30651e-10
3.78167e-10
8.08749e-10
1.27806e-09
1.36558e-09
1.17582e-09
8.58586e-10
8.07566e-10
1.40083e-09
1.65564e-09
8.53438e-10
8.00759e-10
1.28246e-09
1.36732e-09
1.73015e-10
3.7719e-10
4.21853e-09
5.25688e-09
4.45481e-09
4.81986e-09
4.60276e-09
7.5998e-08
7.85302e-08
1.36342e-07
2.02373e-07
1.66653e-07
9.46613e-08
4.55818e-08
3.52011e-07
5.98984e-07
1.3297e-06
1.67858e-06
1.1005e-06
9.39485e-07
4.29748e-07
5.27947e-08
1.03163e-07
2.02166e-07
2.60205e-07
1.72819e-07
1.47481e-07
8.37076e-08
2.65211e-09
2.97996e-09
4.47161e-09
5.91562e-09
5.47741e-09
4.42819e-09
3.10393e-09
1.82073e-10
2.41319e-10
4.54552e-10
9.05985e-10
9.22851e-10
9.83894e-10
8.60821e-10
9.23794e-10
1.25025e-09
1.03842e-09
5.19263e-10
3.91769e-10
5.46985e-10
6.63811e-10
4.04786e-10
7.80364e-10
3.69159e-09
2.57111e-09
1.73031e-09
1.91959e-09
2.43526e-09
5.39547e-08
4.55393e-08
6.33818e-08
1.00174e-07
1.0131e-07
8.61402e-08
5.19436e-08
3.0974e-07
3.5674e-07
6.99306e-07
7.80175e-07
6.12122e-07
4.83375e-07
3.00397e-07
6.48621e-08
6.98494e-08
1.30261e-07
1.55732e-07
1.00975e-07
7.18761e-08
5.56314e-08
1.09673e-09
1.19811e-09
1.83256e-09
3.22078e-09
2.7869e-09
1.94217e-09
1.28146e-09
4.94027e-11
8.31464e-11
2.48701e-10
3.69605e-10
5.62268e-10
5.66402e-10
6.15952e-10
8.04938e-10
8.27304e-10
6.299e-10
4.28971e-10
2.91504e-10
2.32083e-10
1.88088e-10
7.26172e-10
9.25638e-10
2.17945e-09
1.58336e-09
1.00123e-09
6.62886e-10
6.52596e-10
3.25778e-08
2.27223e-08
3.80334e-08
5.63242e-08
5.47872e-08
3.67074e-08
3.29089e-08
1.80415e-07
2.00607e-07
3.70793e-07
3.70259e-07
2.48112e-07
1.2454e-07
1.34317e-07
4.83042e-08
5.27717e-08
8.25953e-08
8.59502e-08
4.94023e-08
2.30833e-08
2.84384e-08
1.6241e-10
2.52959e-10
4.28999e-10
5.13098e-10
2.83224e-10
2.63543e-10
2.10564e-10
5.34207e-11
6.36576e-11
1.04747e-10
1.25764e-10
1.84131e-10
2.63217e-10
3.16255e-10
1.1421e-11
3.11756e-12
2.70797e-12
2.43998e-12
2.44352e-12
2.38074e-12
2.09702e-12
6.68772e-10
8.19922e-11
6.86609e-11
2.74629e-12
1.1419e-12
1.15194e-12
1.12059e-12
9.55778e-08
3.52888e-08
8.3849e-09
2.32086e-10
1.69321e-12
4.06876e-12
7.11495e-12
1.98733e-07
4.71959e-09
1.81213e-09
3.06458e-10
9.55544e-11
3.3013e-11
7.91592e-11
3.22152e-11
3.08346e-11
3.00519e-11
2.39616e-11
1.3822e-11
2.07514e-12
7.45811e-13
9.58385e-12
8.42275e-12
6.70804e-12
4.44114e-12
3.41255e-12
2.067e-12
1.45e-12
1.12486e-11
1.16247e-11
1.21685e-11
1.0681e-11
8.35295e-12
3.96475e-12
1.9879e-12
3.11889e-11
1.8064e-11
1.60234e-11
1.58247e-11
1.34489e-11
1.16224e-11
7.82031e-12
6.99995e-10
2.57028e-10
1.79667e-11
6.9034e-12
6.73209e-12
6.90085e-12
6.6721e-12
7.77513e-08
5.12844e-08
1.25928e-08
5.36324e-11
6.92725e-12
1.74979e-11
3.42157e-11
2.46602e-07
9.59466e-08
3.45281e-08
1.26298e-08
4.95404e-09
2.96208e-09
2.72815e-09
3.79502e-10
4.13003e-10
3.55282e-10
2.95551e-10
2.17985e-10
3.6927e-11
4.12913e-12
1.43091e-10
1.1614e-10
7.39181e-11
4.39912e-11
3.09928e-11
2.82783e-11
1.52921e-11
6.39094e-11
7.34003e-11
7.92377e-11
8.39374e-11
7.65201e-11
5.97995e-11
1.96428e-11
2.41599e-10
8.26323e-11
6.94379e-11
6.83377e-11
6.15182e-11
3.09641e-11
1.59677e-11
2.82303e-09
1.23258e-09
4.03986e-10
9.17998e-11
4.62808e-11
4.71966e-11
4.61908e-11
8.22569e-08
5.19812e-08
2.80712e-08
2.2949e-09
1.53984e-11
2.77049e-11
4.63279e-11
2.99577e-07
2.06544e-07
1.08934e-07
6.72779e-08
3.93177e-08
2.38625e-08
1.59477e-08
3.80072e-08
2.12843e-08
1.33184e-08
7.08292e-09
3.98408e-09
4.8427e-10
2.24334e-11
1.25628e-09
8.66382e-10
5.57687e-10
2.65129e-10
8.19765e-11
9.87677e-11
9.98404e-11
1.94058e-10
1.33457e-10
1.00726e-10
1.62839e-10
1.7146e-10
1.51007e-10
1.20904e-10
1.04277e-09
4.22159e-10
1.9277e-10
1.62401e-10
1.50646e-10
1.03372e-10
3.64184e-11
4.99772e-09
2.95078e-09
1.78311e-09
4.4712e-10
1.12473e-10
1.28841e-10
1.22039e-10
5.90583e-08
4.68017e-08
3.62004e-08
2.06004e-08
4.19365e-09
3.13517e-11
5.05359e-11
3.50963e-07
2.4813e-07
1.68434e-07
1.05259e-07
7.34364e-08
4.59889e-08
2.96844e-08
5.8823e-08
3.56906e-08
2.49384e-08
1.42837e-08
7.03136e-09
2.75723e-09
7.95618e-10
2.644e-09
2.11964e-09
1.84265e-09
1.30728e-09
8.94017e-10
6.29196e-10
3.43057e-10
6.51252e-10
5.13343e-10
4.2684e-10
3.95761e-10
3.44707e-10
3.3855e-10
2.476e-10
7.16866e-10
4.22823e-10
3.66276e-10
3.7157e-10
3.4919e-10
2.04729e-10
8.23946e-11
3.09722e-09
2.25874e-09
2.64579e-09
2.0835e-09
1.23357e-09
5.22836e-10
2.64184e-10
3.6806e-08
3.31171e-08
2.56084e-08
2.01957e-08
1.38393e-08
6.27366e-09
1.39868e-09
3.28877e-07
2.59441e-07
1.90763e-07
1.26914e-07
8.47954e-08
7.05825e-08
5.30349e-08
6.06265e-08
4.84669e-08
3.17153e-08
2.26145e-08
1.3532e-08
9.57074e-09
4.3342e-09
2.54237e-09
2.18055e-09
1.90068e-09
1.53706e-09
1.36514e-09
1.02969e-09
6.81455e-10
7.85484e-10
7.12714e-10
6.23793e-10
5.80782e-10
5.20682e-10
4.70632e-10
3.45908e-10
5.37135e-10
5.59182e-10
5.86151e-10
5.55246e-10
4.3352e-10
2.32588e-10
1.07209e-10
2.43863e-09
2.30374e-09
2.12723e-09
1.83932e-09
1.33903e-09
9.3422e-10
7.13564e-10
2.84237e-08
2.3187e-08
1.8052e-08
1.53515e-08
1.30184e-08
8.11488e-09
5.93613e-09
2.36421e-07
2.16021e-07
1.69435e-07
1.26082e-07
9.25174e-08
6.90629e-08
5.92282e-08
5.61707e-08
4.66692e-08
3.31954e-08
2.17978e-08
1.3993e-08
9.54031e-09
6.72564e-09
1.04428e-09
9.23876e-10
8.13949e-10
7.91537e-10
7.77488e-10
7.24842e-10
5.97274e-10
6.05458e-10
5.73209e-10
5.32288e-10
4.86062e-10
4.48652e-10
3.85239e-10
3.13921e-10
1.93576e-10
2.03554e-10
1.99544e-10
1.84532e-10
1.5904e-10
1.37408e-10
8.77105e-11
6.47382e-10
6.60763e-10
6.45945e-10
6.03988e-10
5.58059e-10
5.38869e-10
5.23505e-10
2.31352e-08
1.93892e-08
1.558e-08
1.21474e-08
1.04294e-08
7.72886e-09
6.93414e-09
1.13684e-07
1.06053e-07
8.66232e-08
7.79258e-08
5.88944e-08
4.8855e-08
4.51014e-08
2.55056e-08
1.87202e-08
1.21693e-08
6.3249e-09
3.17677e-09
3.37735e-09
3.66725e-09
1.92848e-10
1.34548e-10
1.35044e-10
2.45623e-10
3.44775e-10
3.64768e-10
3.6338e-10
3.01036e-10
2.47437e-10
1.20984e-10
2.16049e-10
2.44641e-10
2.51963e-10
2.21958e-10
2.86962e-12
8.5107e-12
8.6453e-12
8.65546e-12
8.05083e-12
7.70912e-12
6.88243e-12
8.74343e-13
1.40604e-12
1.78252e-12
1.84013e-12
1.72148e-12
1.6208e-12
1.65982e-12
2.90658e-12
1.81829e-12
1.57662e-12
1.11085e-12
7.97588e-13
7.20981e-12
1.30327e-11
1.96776e-10
2.16636e-10
4.19124e-10
6.85316e-10
2.94574e-09
2.10035e-08
1.83739e-07
5.9779e-12
4.07694e-12
3.17954e-12
1.29882e-12
2.46099e-12
3.02919e-09
8.385e-09
1.815e-13
4.12835e-13
4.73919e-13
4.47883e-13
4.29447e-13
1.00456e-12
2.50675e-11
1.14229e-12
2.03284e-12
2.08931e-12
2.03988e-12
1.97505e-12
1.83211e-12
1.9419e-12
1.42216e-11
3.29238e-11
3.80963e-11
4.78832e-11
4.57643e-11
4.39232e-11
3.56385e-11
3.53264e-12
5.67403e-12
7.2973e-12
8.16316e-12
7.56731e-12
7.99076e-12
9.04245e-12
1.02671e-11
8.3545e-12
6.97181e-12
5.40357e-12
4.973e-12
2.01592e-10
1.68288e-10
2.82456e-09
3.53097e-09
7.23649e-09
1.26519e-08
3.13707e-08
9.15063e-08
1.9668e-07
2.34171e-11
1.13192e-11
7.50951e-12
2.94722e-12
1.61664e-09
5.36329e-09
9.32767e-09
2.11868e-12
2.71887e-12
2.63573e-12
2.23391e-12
2.47203e-11
6.17212e-11
1.11652e-10
5.85344e-12
9.36833e-12
9.75976e-12
9.23583e-12
8.78916e-12
7.40913e-12
8.06375e-12
4.04706e-11
9.64932e-11
1.29637e-10
1.2506e-10
1.16476e-10
1.09533e-10
8.65048e-11
1.58076e-11
2.15443e-11
2.81346e-11
2.77689e-11
2.51066e-11
2.65872e-11
6.45408e-11
4.56708e-11
3.89165e-11
2.75459e-11
2.72294e-11
4.15004e-11
3.36868e-09
1.38007e-08
1.03477e-08
1.41386e-08
2.49652e-08
4.33088e-08
8.05666e-08
1.48664e-07
2.13552e-07
2.09391e-11
9.3574e-12
2.21325e-10
2.49841e-09
6.25553e-09
1.02235e-08
1.51558e-08
1.12877e-11
1.12258e-11
1.32444e-11
4.94125e-11
8.71307e-11
2.53807e-10
4.10846e-10
9.45395e-12
2.23436e-11
2.52876e-11
2.46977e-11
2.1068e-11
2.07566e-11
2.63797e-11
6.51709e-11
1.85215e-10
1.81063e-10
1.37099e-10
5.73112e-11
6.83624e-11
7.03256e-11
4.19025e-11
5.7322e-11
5.58406e-11
5.04881e-11
8.86196e-11
1.18107e-10
6.50576e-11
1.47968e-09
3.33117e-09
4.29067e-09
6.45486e-09
1.54597e-08
2.48678e-08
3.85643e-08
2.69244e-08
3.83117e-08
4.61709e-08
7.78369e-08
1.15632e-07
1.56657e-07
1.89913e-07
1.06513e-10
1.79252e-09
4.58249e-09
7.10854e-09
1.02537e-08
1.93866e-08
2.47198e-08
6.24048e-11
7.0905e-11
2.01724e-10
2.37163e-10
2.77279e-10
4.3842e-10
7.77724e-10
1.49165e-11
3.98535e-11
4.55816e-11
3.9671e-11
5.23921e-11
9.11244e-11
1.11668e-10
1.26784e-10
2.66412e-10
2.58561e-10
1.89641e-10
1.83959e-10
2.07601e-10
2.6056e-10
7.84149e-11
9.07893e-11
5.51622e-11
4.82943e-11
5.31473e-11
6.75813e-11
7.99192e-11
7.35367e-09
9.53934e-09
1.69393e-08
2.48351e-08
3.43901e-08
4.35629e-08
5.80779e-08
3.77058e-08
4.79746e-08
7.04504e-08
8.53333e-08
1.24505e-07
1.55085e-07
1.89763e-07
1.73265e-09
4.52092e-09
6.43378e-09
9.49387e-09
1.57919e-08
2.20357e-08
2.6979e-08
1.35867e-10
2.02552e-10
3.74636e-10
5.01104e-10
5.62433e-10
6.22339e-10
1.06959e-09
2.84919e-11
6.608e-11
8.22445e-11
9.59571e-11
1.05051e-10
1.05417e-10
1.49418e-10
1.62539e-10
3.90123e-10
4.28017e-10
4.2349e-10
4.54926e-10
5.18473e-10
6.74136e-10
1.85442e-10
2.04971e-10
2.08831e-10
2.366e-10
2.73992e-10
2.92066e-10
3.64665e-10
1.60677e-08
1.83999e-08
2.54542e-08
3.07563e-08
3.9701e-08
4.68975e-08
5.22196e-08
5.60365e-08
6.48751e-08
8.89934e-08
1.02364e-07
1.35529e-07
1.62229e-07
2.10701e-07
5.4896e-09
7.55855e-09
1.18175e-08
1.69839e-08
2.1936e-08
3.21461e-08
4.02607e-08
4.1279e-10
4.06952e-10
4.18083e-10
3.97873e-10
5.03445e-10
6.05547e-10
7.94361e-10
4.42911e-11
8.83017e-11
1.02462e-10
1.23507e-10
1.346e-10
1.09554e-10
6.53423e-11
1.79529e-10
4.19706e-10
5.2459e-10
5.691e-10
6.07712e-10
7.07257e-10
7.49256e-10
4.09847e-10
4.53106e-10
4.92726e-10
5.66816e-10
6.29967e-10
6.62327e-10
7.07388e-10
1.6733e-08
1.82161e-08
2.28518e-08
2.50723e-08
2.91696e-08
3.18514e-08
3.33633e-08
5.22215e-08
6.17771e-08
7.39275e-08
9.2851e-08
1.07932e-07
1.28538e-07
1.46821e-07
7.55536e-09
8.62678e-09
1.30438e-08
1.69546e-08
2.41302e-08
3.22842e-08
3.72732e-08
2.43761e-10
2.07643e-10
2.00477e-10
1.65505e-10
1.64866e-10
1.88049e-10
2.59631e-10
5.33363e-11
4.89373e-11
4.94626e-11
4.89909e-11
5.09576e-11
5.56685e-11
5.80848e-11
3.20838e-14
5.81061e-14
1.2183e-13
1.89502e-13
3.41263e-13
4.42222e-13
5.99306e-13
1.77867e-14
9.50629e-14
3.52073e-13
5.02094e-13
8.07884e-13
7.87211e-13
7.78465e-13
4.79906e-12
1.01226e-11
1.1873e-11
1.04766e-11
7.61113e-12
5.14064e-12
3.49781e-12
3.03299e-11
6.17718e-11
7.5515e-11
8.93159e-11
1.01178e-10
1.27388e-10
1.49925e-10
7.47771e-12
1.20136e-11
1.30629e-11
1.22552e-11
9.86442e-12
9.28957e-12
8.10639e-12
8.32554e-15
7.88438e-15
8.4728e-15
1.47367e-14
2.54455e-14
4.12764e-14
8.82459e-14
3.86498e-15
5.96373e-15
1.22567e-14
5.03769e-14
7.81745e-14
1.63649e-13
3.7317e-13
1.78864e-14
7.58431e-14
2.59852e-13
6.50881e-13
7.91887e-13
1.28052e-12
1.33475e-12
3.1387e-14
3.90606e-13
1.37724e-12
2.39032e-12
3.0489e-12
2.93023e-12
2.92598e-12
1.66977e-11
4.21463e-11
8.49001e-11
7.43573e-11
4.23407e-11
2.35427e-11
1.51144e-11
1.54922e-10
4.17746e-10
7.79233e-10
1.18516e-09
1.47645e-09
1.83777e-09
2.53062e-09
2.93107e-11
5.59315e-11
7.89947e-11
7.11918e-11
5.44468e-11
5.28546e-11
4.06827e-11
1.69026e-14
2.03785e-14
2.93372e-14
1.24865e-13
3.48362e-13
5.75475e-13
1.10124e-12
4.76499e-15
1.99794e-14
5.53723e-14
1.84647e-13
3.59355e-13
9.93428e-13
2.21293e-12
2.51038e-14
8.18163e-14
3.68101e-13
9.60178e-13
1.2638e-12
1.72476e-12
1.52192e-12
1.20791e-13
1.18776e-12
2.41306e-12
6.80775e-12
1.07679e-11
1.0267e-11
1.15971e-11
3.53769e-11
1.08992e-10
2.48803e-10
1.25703e-10
6.39766e-11
3.76081e-11
4.55021e-11
3.22456e-10
1.22677e-09
2.2218e-09
3.4371e-09
4.63825e-09
5.90767e-09
7.59544e-09
5.83099e-11
1.72383e-10
2.54089e-10
2.50643e-10
1.15122e-10
6.412e-11
4.0959e-11
2.06779e-14
3.27531e-14
9.80789e-14
7.68961e-13
2.58567e-12
3.83385e-12
7.5052e-12
4.91134e-15
2.57139e-14
8.55143e-14
3.39892e-13
7.14234e-13
2.50046e-12
6.0253e-12
3.30447e-14
1.04788e-13
4.60211e-13
1.1061e-12
1.66836e-12
2.20262e-12
1.52808e-12
2.13234e-13
2.45915e-12
9.53018e-12
3.14604e-11
2.65301e-11
2.68171e-11
3.69016e-11
5.04582e-11
1.69561e-10
3.62725e-10
1.88913e-10
6.91287e-11
8.06055e-11
6.29655e-10
4.42016e-10
2.2274e-09
5.49577e-09
9.79187e-09
1.26108e-08
1.63752e-08
2.16155e-08
7.35025e-11
2.37437e-10
4.66833e-10
4.69072e-10
2.26544e-10
1.02675e-10
4.07204e-11
2.33225e-14
5.30428e-14
2.78088e-13
4.01997e-12
1.99001e-11
3.21588e-11
5.82636e-11
4.4537e-15
2.60161e-14
8.82586e-14
4.02315e-13
1.13491e-12
4.62045e-12
7.8657e-12
3.59671e-14
1.14671e-13
5.33948e-13
1.23409e-12
1.86588e-12
2.503e-12
1.42028e-12
2.7578e-13
3.75754e-12
3.10512e-11
5.00531e-11
4.0376e-11
4.77235e-11
7.12586e-11
1.39671e-10
4.15874e-10
5.46114e-10
3.10823e-10
7.90562e-10
1.75431e-09
3.50211e-09
1.47332e-09
5.79772e-09
1.27319e-08
1.67154e-08
1.99911e-08
2.44827e-08
3.15972e-08
1.8695e-10
4.97693e-10
9.78436e-10
3.74496e-10
1.52216e-10
1.59739e-10
4.90595e-10
2.98711e-14
7.26282e-14
6.4765e-13
1.44495e-11
5.12936e-11
1.16971e-10
1.61561e-10
4.11595e-15
2.23999e-14
8.59729e-14
4.32541e-13
1.53424e-12
5.48938e-12
9.35857e-12
3.73311e-14
1.21923e-13
5.69924e-13
1.30298e-12
2.00601e-12
2.7992e-12
1.35414e-12
3.48344e-13
6.66812e-12
5.76655e-11
9.56416e-11
1.27129e-10
1.77708e-10
1.95192e-10
2.81168e-10
9.33903e-10
5.83849e-10
5.08766e-10
2.79189e-09
7.40009e-09
1.10925e-08
2.31304e-09
1.04088e-08
1.74056e-08
2.10507e-08
2.76273e-08
3.36073e-08
3.98423e-08
3.29087e-10
1.10873e-09
1.64645e-09
3.66969e-10
2.39801e-10
8.34451e-10
2.86793e-09
3.25725e-14
8.83621e-14
7.66861e-13
2.4808e-11
8.85131e-11
2.05244e-10
3.67874e-10
4.01159e-15
2.14602e-14
8.12383e-14
4.88491e-13
1.99372e-12
6.50777e-12
1.23357e-11
3.5574e-14
1.23943e-13
5.9081e-13
1.34575e-12
2.20833e-12
2.92583e-12
1.35463e-12
3.81721e-13
8.12353e-12
9.76981e-11
1.89243e-10
2.75611e-10
3.07197e-10
3.46235e-10
6.94784e-10
1.33462e-09
1.29833e-09
4.2393e-09
8.85888e-09
1.13296e-08
1.35728e-08
6.16822e-09
1.56176e-08
2.35656e-08
2.90378e-08
3.49845e-08
3.87209e-08
4.78195e-08
7.95919e-10
1.61012e-09
1.55461e-09
7.92439e-10
2.20165e-09
3.80056e-09
5.4423e-09
3.50779e-14
9.26916e-14
5.83821e-13
2.48523e-11
9.73641e-11
2.2106e-10
2.55119e-10
3.95701e-15
2.24667e-14
7.93869e-14
5.39575e-13
2.17447e-12
6.79187e-12
1.53656e-11
1.38666e-14
1.26546e-13
4.89055e-13
1.38098e-12
2.65008e-12
3.73664e-12
1.35546e-12
2.48013e-13
9.97853e-13
1.59155e-11
3.73405e-11
1.27856e-10
8.55031e-11
6.83022e-12
6.52342e-10
6.30077e-10
6.41127e-10
1.76123e-09
4.05632e-09
4.32547e-09
3.75355e-09
6.6919e-09
1.28966e-08
1.44715e-08
1.39438e-08
1.62127e-08
1.72266e-08
1.65646e-08
8.99476e-10
9.29479e-10
7.63563e-10
5.34201e-10
1.24174e-09
1.63124e-09
1.52245e-09
4.14891e-14
1.013e-13
2.15593e-13
5.12006e-13
3.27115e-12
5.1926e-11
4.80143e-11
4.03724e-15
1.48691e-14
8.41821e-14
4.41465e-13
2.33411e-12
7.1355e-12
7.28387e-12
1.52192e-14
1.27543e-13
5.04066e-13
1.17146e-12
2.76557e-12
1.21231e-12
8.95468e-14
3.09944e-13
1.76458e-12
4.82668e-12
1.28295e-11
2.92589e-11
1.36815e-11
1.05478e-12
2.84895e-10
2.37413e-10
2.51886e-10
5.01975e-10
1.54865e-09
1.70713e-09
1.19505e-09
4.9379e-09
6.95486e-09
7.28988e-09
8.2532e-09
1.02311e-08
9.85967e-09
8.02055e-09
5.13888e-10
4.06451e-10
3.82784e-10
3.23839e-10
4.73075e-10
6.93344e-10
7.74807e-10
3.90372e-14
1.06563e-13
1.86548e-13
1.27055e-13
4.92459e-13
8.39068e-13
2.19908e-12
1.84423e-15
2.19744e-15