/*--------------------------------*- C++ -*----------------------------------*\
  =========                 |
  \\      /  F ield         | OpenFOAM: The Open Source CFD Toolbox
   \\    /   O peration     | Website:  https://openfoam.org
    \\  /    A nd           | Version:  6
     \\/     M anipulation  |
\*---------------------------------------------------------------------------*/
FoamFile
{
    version     2.0;
    format      ascii;
    class       volScalarField;
    location    "0.01";
    object      p;
}
// * * * * * * * * * * * * * * * * * * * * * * * * * * * * * * * * * * * * * //

dimensions      [1 -1 -2 0 0 0 0];

internalField   nonuniform List<scalar> 
3773
(
42055.2
42055.2
42055.1
42055.1
42055.1
42055.2
42055.1
101462
101462
101462
101463
101463
101462
101462
137085
137085
137086
137086
137086
137086
137086
148921
148921
148921
148921
148921
148921
148921
137085
137085
137085
137085
137085
137085
137085
101461
101461
101461
101461
101461
101461
101460
42053.5
42053.4
42053.3
42053.2
42053.3
42053.4
42053.5
42053.1
42053
42053
42053
42053
42053.1
42053
101459
101460
101460
101460
101460
101460
101459
137086
137086
137086
137086
137086
137086
137086
148922
148922
148921
148921
148921
148921
148922
137085
137085
137085
137086
137086
137085
137085
101458
101458
101459
101459
101458
101458
101458
42051.4
42051.3
42051.2
42051.1
42051.2
42051.3
42051.4
42049.1
42049
42048.9
42048.8
42048.9
42049.1
42049.2
101455
101455
101455
101456
101456
101455
101455
137086
137086
137086
137086
137086
137086
137086
148923
148923
148922
148922
148922
148923
148923
137085
137085
137086
137086
137086
137086
137085
101453
101454
101454
101454
101454
101453
101453
42047.7
42047.5
42047.2
42047.2
42047.2
42047.4
42047.6
42044
42043.7
42043.5
42043.4
42043.6
42043.9
42044.1
101449
101449
101450
101450
101450
101449
101449
137086
137086
137086
137086
137086
137086
137086
148924
148924
148924
148924
148924
148924
148924
137085
137085
137086
137086
137086
137086
137085
101448
101448
101448
101448
101448
101448
101447
42042.8
42042.4
42042.1
42041.9
42042.1
42042.4
42042.7
42038.8
42038.6
42038.3
42038.1
42038.3
42038.8
42039.1
101443
101443
101444
101444
101444
101443
101443
137085
137086
137086
137086
137086
137086
137086
148926
148925
148925
148925
148925
148925
148926
137085
137085
137086
137086
137086
137086
137085
101441
101442
101442
101442
101442
101442
101441
42037.9
42037.5
42037
42036.8
42037
42037.5
42037.8
42035.2
42035.1
42034.7
42034.4
42034.7
42035.2
42035.6
101438
101438
101438
101439
101438
101438
101437
137085
137086
137086
137086
137086
137086
137086
148927
148927
148926
148926
148926
148927
148927
137085
137085
137086
137086
137086
137085
137085
101436
101437
101437
101437
101437
101437
101436
42034.5
42034.1
42033.5
42033.3
42033.6
42034.1
42034.4
42033.7
42033.6
42033.2
42032.9
42033.1
42033.6
42034.1
101435
101435
101435
101435
101435
101435
101434
137085
137086
137086
137086
137086
137086
137086
148927
148927
148927
148927
148927
148927
148927
137085
137085
137086
137086
137085
137085
137085
101433
101434
101434
101434
101434
101434
101433
42033
42032.7
42032
42031.8
42032.1
42032.6
42032.9
62969.6
63080.8
63209.7
63252.5
63168.5
62984.8
62840.2
148548
148492
148654
148772
148733
148604
148573
198471
198359
198339
198350
198414
198459
198575
214674
214587
214555
214558
214595
214641
214732
198226
198091
198017
197993
198021
198074
198169
148212
148052
147984
147926
147920
147980
148045
62912.4
62854.2
62791.1
62684.2
62570.5
62544.6
62564
62241.9
62336.9
62531
62595.7
62505.7
62311
62172
147511
147472
147710
147846
147837
147656
147643
197949
197809
197820
197870
197934
197942
198078
214411
214313
214291
214313
214360
214416
214527
197823
197662
197591
197596
197672
197738
197854
147607
147318
147196
147205
147282
147367
147432
62371.4
62250.6
62132.8
62019.2
61981.7
62039.1
62107.3
61731.6
61734.8
61913.2
61981.3
61988.4
61953.2
61971.7
147052
146942
147137
147238
147191
147029
147147
197723
197627
197618
197623
197606
197591
197678
214172
214143
214156
214176
214180
214192
214245
197296
197259
197289
197328
197380
197427
197513
146885
146692
146637
146670
146779
146848
146906
61737.2
61605.9
61548.8
61502.8
61462.6
61506.2
61571.6
61683.6
61570.3
61535.3
61566.3
61654.2
61785.7
61963.8
147156
146948
146934
146912
146825
146849
147110
197716
197597
197544
197464
197378
197378
197483
213937
213959
214008
214025
214004
213968
213983
196816
196875
197005
197119
197181
197203
197255
146144
146034
146128
146310
146471
146518
146571
61236.1
61166.4
61215.2
61271.1
61204.8
61171.6
61196.3
61776.7
61639.1
61370.5
61302.6
61363.9
61519.3
61780.8
147287
147052
146830
146739
146685
146763
146970
197604
197445
197369
197330
197281
197270
197394
213724
213772
213836
213876
213868
213830
213839
196634
196712
196826
196932
197018
197070
197100
145772
145695
145846
146054
146202
146290
146330
61016.9
60966.7
61052.6
61083.8
61054.6
61014.4
61022.6
61680
61530.8
61241.3
61136.5
61093.6
61237.7
61508
146911
146665
146485
146422
146438
146486
146626
197222
197144
197121
197186
197236
197208
197253
213624
213667
213718
213763
213772
213754
213740
196692
196724
196735
196757
196816
196872
196915
145750
145697
145709
145818
145943
146077
146135
60939.3
60848.5
60895.7
60872
60919.5
60936.1
60951.3
61471.5
61446
61290.4
61140.3
61107.1
61173.2
61268.2
146458
146267
146182
146132
146192
146260
146232
196915
196871
196908
196983
197063
197101
197132
213639
213635
213644
213652
213625
213632
213621
196902
196812
196691
196624
196658
196723
196769
145942
145730
145617
145557
145730
145934
146056
61084.8
60866.9
60711.8
60664.1
60783.5
60895.4
60940.1
61069.4
61070
61507
61548.8
61427.6
61303.9
61282.2
146305
146096
146281
146323
146350
146590
146727
197089
197010
196982
197021
197100
197284
197456
213825
213742
213643
213628
213654
213707
213763
197051
196989
196808
196726
196717
196760
196779
146609
146127
145798
145646
145704
145816
145904
61850.9
61444.6
60930.5
60528.1
60494.2
60609.1
60691.6
61055.6
60925.5
61044.4
61204.6
61221.2
61272.2
61361.2
146329
146025
146026
146076
146189
146462
146838
196889
196876
196904
196888
196924
196988
197191
213412
213410
213446
213460
213432
213405
213486
196722
196649
196560
196499
196450
196424
196441
146346
145848
145513
145353
145376
145427
145454
61676
61071.5
60579.2
60315.9
60300.6
60335.4
60370.5
61439.8
61240.7
61059
61181.2
61380.8
61538.5
61659
146197
146045
145977
146003
146162
146610
147213
196492
196577
196691
196590
196437
196469
196870
212989
212982
213059
213032
212928
212828
212877
196472
196264
196201
196156
196019
195866
195794
146320
145701
145304
145096
145007
144959
144913
61823.8
61122.2
60582.6
60277.8
60179.4
60156.1
60148.6
61330.2
61910.3
61223.6
61113.5
61385.7
61561.9
61692.5
145725
146074
146052
145907
146053
146487
147100
196159
196234
196412
196235
195942
195937
196356
212803
212703
212731
212684
212494
212317
212312
196412
196011
195871
195871
195736
195522
195388
146504
145725
145185
144893
144757
144727
144700
62112.7
61392.3
60730.1
60311.3
60156
60128.5
60189.9
60918.2
61601
60553.8
60569.7
60746.2
60894
61078.2
145378
145550
145685
145643
145415
145547
146074
196095
196072
196260
196049
195673
195519
195738
212654
212582
212610
212597
212395
212163
212073
196381
195841
195598
195635
195645
195556
195520
146982
145934
145139
144717
144675
144789
144868
62350.8
61690.1
61149.2
60539.6
60226.4
60178.2
60294.5
60930.5
60892.3
59919
59892.9
59874.6
60046.3
60250.2
145169
145206
145437
145152
144247
144154
144633
195948
196024
196241
196139
195552
195137
195120
212214
212259
212450
212583
212507
212266
212071
196205
195578
195339
195449
195710
195833
195815
147800
146432
145174
144626
144709
144888
144851
62372
61845.9
61429.9
60944.5
60597.4
60296.5
60005.5
62051.8
64385.3
62598.5
60648.2
59999.7
59771.3
59649
145343
146840
147715
145663
144136
143677
143913
195233
195861
196358
196049
195538
195093
194837
211156
211642
212046
212296
212455
212312
211836
195805
195357
195183
195340
195772
195973
195376
148019
146200
144826
144644
145147
145185
143847
62518.7
61849.6
60651.8
60105.9
60945.1
61307.6
59247
61401.6
62353.7
62387.2
61954.3
61737.6
61493.6
61459.5
146558
146687
146580
146373
146365
146515
146365
196874
196894
196917
196985
197133
197383
197223
213639
213613
213533
213545
213584
213675
213657
196983
196845
196730
196672
196589
196659
196673
146252
145951
146016
145802
145779
145899
146002
61997
61575.4
61058.3
60751.8
60743.2
60848.9
60935.6
61373.4
62416.8
62513
62037.5
61777.8
61501.5
61476.2
146566
146742
146622
146401
146389
146570
146398
196890
196885
196912
196968
197141
197407
197223
213641
213600
213518
213524
213575
213671
213657
196974
196851
196733
196654
196575
196644
196665
146310
145986
146044
145827
145785
145894
145997
62064.7
61645.9
61076.6
60746.8
60734.2
60842.5
60933.3
61325.6
62394.2
62635
62098.4
61803
61518.3
61482.4
146563
146777
146666
146424
146416
146632
146439
196913
196885
196905
196949
197148
197441
197241
213648
213597
213513
213515
213572
213674
213674
196966
196851
196733
196632
196569
196630
196675
146383
146022
146043
145833
145782
145886
145994
62118.3
61712.3
61090.3
60745.5
60723.2
60836.3
60924.6
61261.9
62301.1
62799.6
62182.4
61863.9
61568.1
61479.5
146558
146816
146709
146463
146438
146651
146487
196927
196902
196900
196940
197151
197490
197275
213659
213599
213514
213514
213573
213680
213700
196967
196848
196731
196622
196571
196623
196691
146440
146047
146030
145824
145777
145878
145990
62205.8
61804.6
61134.1
60756
60708.9
60829
60916
61182.7
62185.2
62902.6
62305.6
61980.2
61647.4
61466.8
146551
146844
146742
146513
146449
146615
146522
196939
196924
196893
196947
197149
197546
197316
213673
213606
213519
213517
213575
213684
213723
196974
196850
196732
196621
196576
196623
196702
146488
146049
146016
145810
145773
145872
145984
62336.7
61922.1
61219.9
60775.9
60689.7
60818.4
60909.9
61101.3
62065.7
62846.7
62392.3
62080.1
61701.4
61444.1
146538
146827
146788
146547
146456
146565
146525
196955
196941
196889
196968
197146
197601
197356
213691
213620
213528
213523
213579
213685
213738
196986
196862
196736
196628
196582
196632
196709
146542
146024
146014
145804
145774
145868
145979
62442.2
61993.9
61281.4
60774.5
60667.1
60805.7
60899
61070.2
61913.5
62689.1
62334.8
62043.2
61655.3
61416.9
146515
146744
146799
146551
146452
146548
146518
196972
196953
196895
196979
197142
197619
197387
213710
213637
213540
213534
213587
213687
213742
197000
196883
196746
196641
196594
196644
196713
146577
145997
146006
145801
145771
145864
145972
62393.5
61941.5
61245.4
60741.3
60644.4
60790
60880.9
69011.1
70662.6
66324.1
62228.4
60600.4
60134.4
60169.7
148945
153944
153270
147350
144656
143830
143671
194780
197280
197634
195943
195376
195027
193819
209341
211423
211923
211866
212257
212254
211089
193536
194668
194757
195026
195699
196523
196734
145456
144902
144780
145008
145727
147876
149414
61687.2
61211.3
60390.9
60568.3
62674.2
65256.8
66035.8
69968.1
70833
66134.2
62455.1
60710.2
60004.3
59729.4
149833
155373
154041
147746
144810
143917
143444
194635
197778
198035
196047
195359
195049
193934
209328
211415
211814
211867
212223
212220
211185
193180
194398
194576
194879
195645
196662
197107
144217
144385
144736
144820
145866
148780
150609
60538.4
60673.3
60385.1
60825.4
62722.8
65529.4
67541.6
69219.1
69680
65484.6
62466.2
60836
59945.6
59414
149651
155163
153848
147731
144918
144011
143327
194547
198141
198303
196230
195362
195035
194176
209703
211528
211871
212052
212300
212249
211416
193069
194156
194458
194878
195742
196768
197184
143189
143944
144737
145066
146341
148857
150702
59585.9
60017.2
60407
61190.1
62820.1
65355.8
67265.4
67858.4
68039.1
64912.7
62348.8
60894.9
59989
59381.4
148853
154218
152965
147423
145001
144126
143379
194664
198346
198504
196450
195416
194990
194268
210052
211700
212140
212345
212481
212366
211636
193104
194000
194438
195003
195946
196866
197205
142764
143640
144683
145614
146913
148882
150733
59328.1
59786.4
60440.4
61401.9
62924.7
65051.4
66879
67232.3
67236.4
64603.4
62293
60914.6
60068.7
59414.5
148609
153537
152334
147428
145143
144297
143562
195022
198555
198718
196728
195557
194992
194265
210318
211851
212467
212675
212753
212545
211858
193085
193972
194555
195243
196190
196995
197321
142891
143667
144858
146168
147414
148910
150774
59486.9
59891.4
60611.9
61650.8
63062.8
64887.6
66931.6
67628.5
67312.5
64582.8
62303.6
60950.8
60137.4
59443.5
149143
153796
152349
147569
145218
144391
143652
195470
198851
198986
197011
195724
195038
194281
210517
211930
212742
212985
213044
212745
212086
193076
193988
194720
195511
196431
197135
197439
143186
143880
145194
146683
147817
149059
150988
59696.1
60059.2
60824.6
61906.9
63170.8
64810.9
67077.3
68520.7
67885
64761.7
62365.9
61015.8
60208
59506.4
149985
154441
152787
147810
145269
144472
143747
195821
199115
199279
197234
195868
195094
194320
210697
211957
212930
213197
213285
212895
212332
193095
193969
194826
195662
196605
197228
197576
143408
144064
145433
146997
148021
149214
151163
59878.3
60195.3
60990.6
62078.6
63233
64850.9
67258.6
61401.7
61372.8
61497.5
62817.9
66348.3
72870.1
81899.4
143576
143422
143827
144488
145613
147963
152499
190982
191157
191532
191327
190289
188554
186989
208836
208743
208245
207203
205521
203151
200528
197546
197650
197488
196990
196165
195108
193843
153424
154228
154768
155459
156588
158496
161494
69221
69312.2
69474.9
70427.4
72581.4
76410.1
82441
60182.8
60236.8
60491.8
61520.6
64027.4
69225.1
77275.9
142925
142802
142959
143404
144326
146272
149790
191979
191632
191744
191429
190227
188413
186625
209420
208738
208101
207124
205498
203198
200578
197274
197255
197049
196765
196250
195243
193698
152108
153181
154260
155197
156137
157341
159353
67977.5
67781.9
68243.1
69587.7
71902.7
75047.4
79568.6
59368.9
59462.6
59809.2
60512.2
61844.9
64811.1
70661.3
142596
142359
142360
142613
143085
144078
146280
192649
192011
191877
191495
190247
188381
186370
209938
208986
208145
207128
205558
203404
200750
197128
196992
196835
196751
196537
195387
193549
152072
152960
154223
155514
156099
156499
157553
67527.7
67531.7
67928.3
69397.9
71920.8
74708.5
77650.7
59231.7
59282.4
59622.1
60208.7
61027.7
62446.9
65646.7
142673
142313
142196
142289
142441
142796
143743
193019
192319
191889
191443
190245
188425
186304
210389
209409
208370
207205
205578
203372
200632
197045
196803
196561
196302
195807
194743
193359
152212
153109
154157
155224
155825
156406
157291
67618
68006.7
68643.3
70121.2
72376.1
74988.3
77432.3
59224
59278.4
59616.3
60171.3
60903.7
61962.9
63518.7
142861
142511
142350
142320
142340
142498
142820
193196
192533
191871
191196
190103
188501
186406
210733
209832
208711
207357
205486
202955
199826
197101
196716
196270
195754
194921
193700
192327
152261
153154
153942
154670
155443
156247
156902
68148.2
68781.9
69555
70775.8
72680.2
75138.3
77386
59242.3
59279.8
59621.5
60199.7
61016.1
62210.3
63303.7
142875
142533
142405
142395
142403
142428
142454
193249
192574
191843
191051
189950
188224
185821
210989
210138
209036
207539
205441
202245
197967
197145
196772
196217
195431
194249
192490
190367
152429
153170
153610
154024
154870
155712
156059
68658.4
69517.7
70195.4
71084.5
72667.4
74887.9
76824.5
59371.5
59482.7
59844
60470.1
61393.4
62552.7
63553.3
142923
142589
142532
142598
142607
142542
142217
193236
192579
191829
191005
189846
187859
184252
211186
210379
209289
207765
205488
201827
195334
197263
196857
196229
195325
193972
191880
188262
152483
153105
153355
153752
154655
155446
155169
68993.5
69924
70416
71130.1
72546.5
74514.2
76114.6
85524.5
76694.3
69092.6
64581.3
63387.9
64490.5
66392.9
151435
147688
145286
144422
144693
145758
146960
183270
184773
186433
188195
190125
191896
193184
192891
195772
198577
201021
202900
204094
204697
183278
185063
186881
188198
189008
189324
189454
151858
147478
144547
142874
142115
142333
143424
81861.7
73476.1
65746.2
61928.2
60551.1
60648.4
61295.9
82227.3
72929
66410.7
62810.1
61895.2
62967.1
65278
149599
146262
144079
143272
143681
144898
146462
182892
184282
185991
188102
190304
191993
193017
193063
195927
198606
201010
202983
204480
206015
183345
185247
186994
188322
189150
189658
190472
149379
145512
143201
142284
142003
142229
142748
77133.2
68997.9
63377.7
60702.1
59685.9
59698.2
60144.3
76820.9
68359.9
63726.9
61157.2
60483.4
61456.7
64045
147368
144635
142902
142351
142809
143963
145773
182794
183875
185513
187901
190544
192051
192739
193420
196159
198732
201153
203325
205145
206963
183509
185510
187226
188481
189251
190056
191092
145348
142862
141636
141464
141699
142013
142270
69606.5
63894.1
61064.7
59774.9
59115.1
58891.1
59109.5
72046.8
66149
62766.5
60751
60109.2
60665.1
62957.7
145200
143208
142130
141828
142250
143328
145122
182947
183771
185372
187639
189954
191368
192517
193673
196319
198935
201557
203865
205841
207656
183783
185751
187145
188441
189446
190463
191537
141630
140963
140864
141159
141679
142046
142312
62898.5
60577.6
60135.9
59756.7
59319.7
58943.8
58961.3
69979.1
65814.8
62985.2
61178.7
60546.5
61128.9
63174.8
143323
142413
141854
141640
142075
143264
145108
182042
183318
185164
187306
189331
191014
192476
192952
196137
199198
202057
204477
206517
208154
183819
185585
187066
188475
189758
190920
191868
139355
140242
140971
141555
142044
142413
142632
58859.3
59192.2
59830.2
59895.3
59643.6
59318.2
59243.8
69460.8
66146.8
63582.9
61918.2
61525.4
62408.4
64274.4
142250
141994
141704
141750
142446
143762
145588
179751
182135
184762
187104
189132
190984
192737
191061
195665
199504
202566
205024
207006
208513
182714
184980
186906
188573
190047
191249
192088
138594
140136
141356
142097
142543
142812
142975
58052
58921.9
59769.9
60043.1
59899.4
59656.9
59533.1
66811.8
66586.9
64481.2
63012.6
62779.7
63735.5
65343.6
142601
142418
142056
142148
143107
144672
146495
177091
181405
184582
187148
189279
191221
193019
188330
195392
199800
203017
205466
207351
208746
180772
184472
186763
188608
190169
191399
192203
138384
140132
141513
142344
142782
143049
143224
58997.7
59037.1
59803.3
60157.3
60048.7
59783.5
59680.6
99876.1
102504
101981
99691.8
96470.2
93296.8
90456.3
171602
171725
170780
167455
163235
158985
155184
186412
185283
184128
182899
182149
181952
182267
194001
192716
190866
189245
188471
188965
190577
187386
186171
184073
182244
181270
181397
182086
183927
180200
174854
169861
165403
161026
156648
111390
108838
105996
102459
98755.4
94457.3
89305.8
97896.2
98701.5
98603.6
96953.8
93697.6
91192.8
88928.9
170232
168820
166503
163460
159806
156226
153045
185475
184241
182824
181751
181260
181352
181884
194124
192570
190529
188800
188033
188719
190562
185764
184512
182796
181232
180486
180854
181840
177374
174248
170094
165755
161750
157781
153727
105694
104277
102210
98620.5
94642.1
90182.4
84800.8
96701.8
95828.1
94507.8
92597.6
89815.5
87938.7
85203.9
168875
165822
161877
158452
155383
152959
150480
184349
183136
181725
180850
180667
181037
181834
194074
192423
190184
188315
187490
188349
190700
182984
182047
180794
179646
179370
180165
181563
167775
165832
162660
158969
155479
152085
148637
97711.1
96865.3
94919.7
91676.1
87570
82530.8
76745.2
93404.8
91684.9
89562.5
87484.6
85512
83702.4
79816.2
164529
160481
156281
153477
151366
150024
148014
182272
181412
180507
180116
180389
180980
181992
193751
192083
189574
187432
186589
187891
190710
179591
178963
178176
177662
178085
179553
181457
158711
157151
154701
151680
148554
145619
143217
90324.6
89347.3
87402.1
84082.7
79938.9
74703.4
68753.4
88023.8
86673.3
84647.8
82726.6
81058.9
79031.4
75419
158792
154999
151617
149662
148351
147346
145414
179649
179139
178961
179432
180165
180884
181433
193483
191331
188189
185647
184853
186712
189785
176232
175722
175243
175372
176656
178859
181379
152195
150896
148618
145985
143152
140549
139306
85869.9
84528.3
81466.5
78534
74354
68858.5
63160
81855.1
81449.9
80105.8
78528.6
76529.6
75026
73545
152432
150565
148496
147002
145523
144449
143240
176718
176345
176664
177707
178283
178356
178484
191763
189214
185529
183041
182519
183795
186602
172638
172423
172148
172826
174896
177654
180235
147735
146407
144080
141821
139367
137687
137598
84303.3
81942.1
78279
74229.3
68936
64206.3
60535.2
75178.4
75834.7
75275.2
74240.6
71784
70832.7
71816.4
145826
145810
144663
143741
141342
140578
142049
173298
173000
173768
174844
173696
171687
171832
189153
185947
181714
178835
177127
176559
178866
168864
168848
168898
170283
172230
173142
174817
143586
141283
139469
137785
136672
136024
136468
81182.2
77548.9
73382.9
68472.6
64080.2
61706.5
60413.3
56086.5
55651.7
55935.6
55694.1
55857.8
55769.3
55201
126406
125753
125041
124392
123570
122794
123009
158658
158031
156930
154905
150990
146226
142488
169968
167615
164169
160318
155661
150104
143776
156491
155989
155220
154106
151861
148174
143933
122527
122225
122327
122863
123597
123641
123385
53073.2
53545.7
54253
55128.4
56659.6
57648.8
58149.3
48807.4
48904.5
48751.6
48986.3
49349.4
49452.9
49341.6
112906
112616
112664
112917
113108
112808
112389
142170
141895
141678
141500
141037
140420
140119
149574
148981
148186
147516
146996
146607
145905
137338
137224
137109
136996
136863
136655
136264
104976
105265
105665
105960
106253
106482
106517
45022.8
45391.3
45852.6
46343
46744.6
47030.5
47271.5
44851.9
44949.1
45095
45122
45083.1
45061.6
45065.9
102781
103068
103355
103668
103825
103715
103521
130917
130949
131279
132034
132885
133501
133871
137511
137513
137727
138245
138995
139772
140014
125106
125200
125453
125877
126450
127044
127252
93715.8
93929.7
94150.3
94412.7
94662
94851.2
94933.6
40260.7
40247.7
40287.3
40389.4
40559.8
40603.1
40538
41163.2
41171.6
41188.7
41221.6
41222
41165.4
41127.5
93499.5
93619.9
93874.6
94126.3
94270.1
94276.4
94241.7
122152
122175
122320
122639
123024
123313
123505
130026
130010
130067
130253
130514
130766
130799
118340
118352
118471
118648
118837
118986
118999
88331.4
88340.5
88322.7
88355.5
88436
88550.8
88656.5
38418.9
38378.6
38299.3
38208.8
38182.2
38244.4
38341.9
39310.3
39330.8
39354.6
39359.1
39347.6
39354.5
39349.5
88456.4
88426.9
88370.5
88305.2
88247.7
88222.9
88216.5
115894
115789
115639
115525
115444
115330
115278
124605
124434
124191
123984
123837
123709
123508
115038
114916
114831
114722
114636
114634
114543
87007
86977
86950.9
86920.9
86929.3
86942.5
86953.7
38010.6
38017.1
38042.3
38100
38079.8
38086
38060.1
39926.3
39923.4
39922.4
39921.4
39920.6
39921.2
39919.2
87158
87155
87146.3
87134.8
87116.9
87099.8
87086.5
111284
111252
111182
111110
111033
110949
110866
119456
119241
119019
118830
118738
118747
118475
112412
112314
112310
112292
112254
112309
112190
88051.8
88056.4
88051.3
88063.1
88094.9
88107.8
88102
39416.7
39458.9
39549.7
39670.9
39683.7
39686.3
39643.8
48948.8
48947.7
48943.5
48938
48938.9
48937.9
48942.3
86394.5
86416.7
86455.1
86490.5
86515.5
86525.8
86527.8
106101
106073
106102
106149
106158
106197
106150
112934
112784
112746
112702
112679
112883
112585
107237
107234
107354
107486
107544
107629
107524
87422.4
87460.3
87532.4
87624.1
87687.9
87705.9
87689.3
49367.2
49362.8
49346.8
49312.4
49302.6
49282.5
49297.4
89322.4
94720
99364.2
102650
104211
104075
101376
157425
161768
165749
168789
170602
171040
170499
186154
185669
185414
185672
186499
187582
188308
198267
196504
195291
195386
196623
198305
199494
192689
191924
191525
191498
191834
192474
193195
165202
168572
171838
174657
176577
176898
176369
89297.3
94818.9
99529.4
102957
104785
104814
102522
84992.4
90685.3
95284.8
98632.6
99944.6
99184.5
98093.5
154217
158203
161885
164890
166750
167568
168335
185463
184778
184426
184603
185316
186278
187166
198246
196327
194853
194744
196056
197914
199231
192349
191434
190856
190611
190790
191473
192312
162540
165759
168837
171408
173079
173909
174736
85862.8
91517.1
96308.5
99921.9
101383
100926
99877.8
78393.7
84661.4
89268.5
92528.4
94314.3
95408.6
96357.1
149724
153249
156750
159969
162440
164830
167233
184813
183747
183111
183081
183684
184633
185575
198125
195890
194319
194010
195191
197208
198740
192147
191093
190269
189803
189852
190464
191135
159901
162627
165266
167599
169639
171776
173899
82526
87700
92197.2
95507
97055.8
97816.8
98263.5
71914.4
78206.7
82793.6
86339.6
88933.1
91270.3
93612.1
145947
148754
151950
155351
157883
161087
164466
184450
182977
181780
181305
181654
182536
183434
197721
194973
193177
192939
194207
196298
197812
192030
190863
189880
189123
188860
189134
189496
158445
160105
162053
163917
165809
168280
171155
80699.4
84323.5
87736.8
90410.6
92442
94174.2
95681.6
67870.3
73377.5
78050.7
81848.3
84538.1
87163.1
89244.4
143755
145791
148506
151470
153511
156367
159466
184160
182220
180551
179470
179288
179893
180570
196539
193235
191096
191212
192788
195007
196621
191096
189998
189051
188113
187375
187153
187195
157350
158222
159416
160750
162147
163975
166554
79587.5
81484.3
83698
86011.5
88216.9
90238.8
91842.1
66619.4
71388.8
75376.6
78880.1
81182.9
83209.3
83949
142547
144500
146539
148284
149479
151366
153492
183292
181127
178942
177232
176466
176620
177282
193568
190448
188673
188673
190291
192794
194476
188619
187452
186589
185759
184775
184368
184450
155678
155927
156775
157846
158506
159551
161322
77939.7
78261.6
79619
82186.1
84622.4
86573.9
87380.4
65626.7
69897.1
72741
75740.4
77285.2
78669.7
77810.6
141228
143500
143837
144633
145039
146502
147171
178479
177415
176369
174514
173218
173004
173761
186383
183966
183998
184868
186874
189755
191704
182966
181965
182284
182369
181420
180987
181441
153159
153072
153690
154454
154394
155344
156208
75342.8
74660.6
75609.7
78727.3
81035.9
82766.6
82320
56089.5
56029.6
56315.8
56229.2
56653.4
56409
56039
125630
126146
126403
126813
127371
127820
128087
149978
153802
156820
158747
159732
160327
160740
153939
159522
164326
168248
171266
173730
175361
156671
160213
163780
166263
167458
168353
169047
138585
139091
139456
139625
139934
140316
140671
65897.6
65512.8
64908.5
64493.1
64634
64582.4
64683.6
47671.8
47302.1
46998.5
46638.7
46439.8
46407.9
46597.7
109056
108932
108969
108809
108653
108515
108401
140579
140807
140844
140821
140854
140916
140994
151153
151752
152171
152663
153162
153739
154181
146565
146940
147417
147741
147736
147733
147860
118546
118687
118890
119113
119337
119272
119136
53072.2
52901.5
52717.9
52431.7
52256.9
52169.8
52261.4
41245.8
41204.8
41156.9
41120.6
41082.7
40993.7
40920.3
96553.6
96451.6
96266.9
96063.1
95834.1
95586.2
95399.5
129136
128970
128558
128025
127564
127301
127215
141070
140908
140327
139708
139277
139114
139135
133198
132990
132601
132032
131452
131157
131053
102158
102160
102188
102093
101884
101686
101473
44085.2
44242.4
44313.3
44393.6
44388.5
44304.5
44228.9
39124.2
39079.5
39073.4
39073.7
39096.9
39092.6
39036
89894
89809.5
89722
89623.2
89551.3
89509.3
89498.8
119744
119694
119515
119283
119094
119013
119013
130047
130041
129829
129592
129403
129320
129323
120995
120935
120770
120522
120271
120114
120058
91821
91730.4
91592.5
91480
91388.6
91239.8
91221.1
40152.9
40147
40171.7
40209.4
40240.3
40265
40283.6
38675.4
38701
38681.3
38702.2
38671.5
38667.8
38700
87692.8
87660
87636.2
87608
87609.2
87609.4
87601.2
114640
114669
114618
114609
114651
114726
114799
122681
122833
122874
122962
123121
123342
123534
114123
114244
114316
114386
114449
114479
114546
87749
87742
87723.3
87701.5
87686.1
87679
87672.6
39359.3
39351.8
39352.6
39361.1
39342.2
39333.8
39325.1
39867.9
39934.8
39927.2
39930.9
39860.6
39864.4
39946.3
88453.5
88448.9
88452.9
88435.4
88423.7
88417.5
88415.9
112374
112458
112411
112400
112387
112412
112481
118675
118926
118892
118963
119144
119403
119663
111818
111925
111953
112019
112064
112111
112198
88256.1
88252.8
88240.9
88216.9
88197.2
88206.1
88212.2
40407.2
40391.4
40364.9
40331.5
40273
40253.8
40267.1
49225.1
49207.2
49214.9
49209.9
49228
49225.3
49200.7
87961.7
87979.3
87974.8
87931.2
87868
87835.7
87840.5
108431
108516
108455
108387
108271
108220
108265
114302
114579
114415
114456
114526
114626
114808
108274
108310
108254
108230
108159
108147
108166
87898.4
87885.1
87859.2
87814.8
87761.7
87749.6
87742.5
49053.7
49057
49060.6
49066.8
49086.3
49083.2
49060.7
)
;

boundaryField
{
    fuel
    {
        type            zeroGradient;
    }
    primary_air
    {
        type            zeroGradient;
    }
    Secondary_air_RHS
    {
        type            zeroGradient;
    }
    Secondary_air_LHS
    {
        type            zeroGradient;
    }
    outlet
    {
        type            totalPressure;
        rho             rho;
        psi             none;
        gamma           1;
        p0              uniform 100000;
        value           nonuniform List<scalar> 
98
(
45087.6
76693.1
100000
100000
100000
76513.3
45003.8
44857.5
76464.3
100000
100000
100000
76463.1
44970.5
45067.9
76596.2
100000
100000
100000
76498.6
44959.9
44867.5
76437.4
100000
100000
100000
76457.9
44932.3
45063.4
76533.8
100000
100000
100000
76512.9
44946.2
45067.7
76459.1
100000
100000
100000
76293.4
44985.6
44896.4
76260.4
100000
100000
100000
76127.8
44977.1
44747.6
75053.1
100000
100000
100000
75993.4
44917.1
44713.5
75096
100000
100000
100000
76063.3
44923.4
44711.7
75278
100000
100000
100000
76261.3
44924.2
44719.1
75328.9
100000
100000
100000
76180.5
44741.4
44679.6
75372.3
100000
100000
100000
76265.7
44987.9
44703.6
75334.9
100000
100000
100000
76210.2
44958.7
44705.4
75363.8
100000
100000
100000
76332.2
45008.2
)
;
    }
    stove_body
    {
        type            zeroGradient;
    }
    frontAndBack
    {
        type            empty;
    }
}


// ************************************************************************* //
