/*--------------------------------*- C++ -*----------------------------------*\
  =========                 |
  \\      /  F ield         | OpenFOAM: The Open Source CFD Toolbox
   \\    /   O peration     | Website:  https://openfoam.org
    \\  /    A nd           | Version:  6
     \\/     M anipulation  |
\*---------------------------------------------------------------------------*/
FoamFile
{
    version     2.0;
    format      ascii;
    class       surfaceScalarField;
    location    "0.01";
    object      phi;
}
// * * * * * * * * * * * * * * * * * * * * * * * * * * * * * * * * * * * * * //

dimensions      [1 0 -1 0 0 0 0];

internalField   nonuniform List<scalar> 
10143
(
-5.79454e-08
-4.25955e-05
4.8254e-05
-1.50559e-07
-4.19955e-05
4.82721e-05
1.20836e-07
-4.21157e-05
4.8081e-05
2.95374e-07
-4.19433e-05
4.79651e-05
1.22405e-07
-4.1633e-05
4.80394e-05
1.50445e-08
-4.1813e-05
4.80694e-05
-4.22573e-05
4.77338e-05
-4.51949e-07
-1.51906e-05
-1.63287e-05
4.63044e-07
-1.49581e-05
-1.7453e-05
-2.15795e-07
-1.48016e-05
-1.59553e-05
-1.73159e-07
-1.48132e-05
-1.65259e-05
3.09962e-07
-1.46939e-05
-1.67531e-05
-2.85382e-07
-1.48129e-05
-1.56818e-05
-1.52328e-05
-1.66607e-05
3.87559e-07
-5.40319e-06
2.01271e-06
4.99943e-07
-5.50673e-06
2.70896e-06
-1.38358e-07
-5.89566e-06
4.22703e-06
-4.5338e-07
-5.81954e-06
3.76915e-06
-1.05211e-08
-5.66492e-06
2.86591e-06
-3.98528e-07
-5.78166e-06
3.56477e-06
-5.14213e-06
1.65164e-06
1.13339e-08
5.38133e-06
3.0159e-06
2.16139e-07
5.3511e-06
2.66858e-06
-2.25036e-07
5.74495e-06
2.47266e-06
-7.2547e-07
5.80631e-06
2.54969e-06
-8.60497e-07
5.58755e-06
2.56858e-06
-6.15632e-07
5.69646e-06
1.9468e-06
5.20237e-06
2.81122e-06
-5.73219e-08
1.5601e-05
2.02182e-06
-6.72307e-08
1.56727e-05
1.81349e-06
-1.77058e-07
1.52669e-05
2.93961e-06
-3.65209e-07
1.49249e-05
3.41635e-06
1.28042e-07
1.52365e-05
2.17648e-06
-2.14197e-07
1.53268e-05
3.04586e-06
1.5644e-05
1.51182e-06
1.4201e-07
4.28223e-05
-1.67186e-05
6.26073e-07
4.26095e-05
-1.68315e-05
-7.97144e-08
4.24922e-05
-1.5755e-05
-6.89529e-08
4.20836e-05
-1.6476e-05
5.41555e-07
4.206e-05
-1.66924e-05
-1.76567e-07
4.23182e-05
-1.53911e-05
4.27035e-05
-1.65598e-05
1.18305e-07
4.81435e-05
1.60829e-08
4.83022e-05
1.20398e-07
4.83715e-05
1.69094e-07
4.8236e-05
4.46777e-08
4.83228e-05
4.09013e-08
4.84088e-05
4.81612e-05
-5.76348e-08
-1.18935e-05
7.13961e-05
6.44415e-08
-1.29269e-05
7.29731e-05
1.88352e-07
-1.26297e-05
7.26545e-05
3.4214e-07
-1.26415e-05
7.23662e-05
2.72934e-08
-1.16312e-05
7.15677e-05
-1.14429e-07
-1.19438e-05
7.16099e-05
-1.22989e-05
7.08125e-05
-1.02587e-06
2.06698e-06
-2.95924e-05
-9.07378e-08
-2.62098e-07
-3.16219e-05
-1.45409e-07
3.82158e-07
-2.95499e-05
4.98839e-07
2.05433e-07
-3.06878e-05
9.22368e-07
1.45658e-06
-3.09011e-05
3.69498e-07
1.67569e-06
-2.93042e-05
1.78859e-06
-3.08099e-05
7.23897e-07
1.03163e-06
-4.0731e-07
2.33922e-07
1.23876e-06
-5.74188e-07
-8.16327e-08
-4.76456e-08
2.53717e-06
2.57484e-08
1.0857e-07
1.28782e-06
4.14511e-07
4.44059e-07
7.84788e-07
-1.15652e-07
9.23479e-07
2.41589e-06
1.36619e-06
-7.79651e-07
8.37639e-08
-1.22212e-06
3.56044e-06
6.58859e-07
-1.323e-06
2.88002e-06
-2.50683e-07
-7.29741e-07
2.29046e-06
-1.12122e-06
-5.42336e-07
2.30818e-06
-1.35292e-06
-5.42906e-07
2.02353e-06
-8.75989e-07
-7.37862e-07
1.317e-06
-1.3614e-06
2.97424e-06
-9.75772e-08
-1.43105e-06
-3.06697e-07
-4.84028e-07
-1.09366e-06
-7.50094e-07
-1.44343e-07
-1.3254e-06
5.19344e-07
-9.28791e-09
-1.01652e-06
1.1361e-06
5.56765e-07
-8.7282e-07
-7.19362e-07
1.37832e-07
-4.57467e-07
6.56721e-07
-1.32407e-06
-1.04256e-06
-2.94607e-07
1.31949e-05
-3.14273e-05
1.89559e-07
1.21175e-05
-3.08631e-05
-2.31895e-07
1.30181e-05
-3.01644e-05
4.27722e-07
1.25972e-05
-3.1525e-05
1.01278e-06
1.25848e-05
-3.12673e-05
4.11679e-07
1.3077e-05
-2.88457e-05
1.31446e-05
-3.10068e-05
3.04436e-07
7.16041e-05
1.83093e-07
7.20852e-05
3.28675e-07
7.26442e-05
6.05286e-08
7.21948e-05
-1.26226e-07
7.25923e-05
-6.41965e-08
7.29467e-05
7.19098e-05
-2.71543e-07
1.07085e-05
7.20197e-05
2.52598e-07
9.50765e-06
7.36405e-05
4.46826e-07
1.02127e-05
7.30905e-05
8.10426e-07
1.02108e-05
7.25702e-05
4.79055e-07
1.02339e-05
7.22385e-05
2.15631e-08
1.0152e-05
7.2483e-05
1.04811e-05
7.14235e-05
-9.73127e-07
4.32193e-06
-2.27824e-05
-5.55626e-09
1.22367e-06
-2.46201e-05
2.24201e-07
2.05033e-06
-2.19913e-05
6.45577e-07
2.10779e-06
-2.33567e-05
6.20484e-07
2.39529e-06
-2.37361e-05
4.02397e-07
2.983e-06
-2.27344e-05
3.78988e-06
-2.42061e-05
8.62946e-07
1.82929e-06
-1.59326e-06
1.84444e-07
2.31479e-06
-3.64965e-06
-2.12765e-08
9.92338e-07
1.09039e-06
9.42366e-08
1.05778e-06
-5.2672e-07
2.29926e-07
1.80629e-06
-1.56482e-06
-6.07394e-08
3.24527e-06
-3.70246e-07
2.71853e-06
-2.58083e-06
-5.75452e-08
-2.3093e-06
5.87468e-06
6.54807e-07
-2.85876e-06
5.33506e-06
-3.40214e-07
-1.51469e-06
3.78129e-06
-1.19162e-06
-1.40739e-06
3.61302e-06
-1.35572e-06
-1.74256e-06
3.71183e-06
-7.33163e-07
-2.32255e-06
4.20555e-06
-2.66359e-06
5.69412e-06
-6.30067e-08
-3.42508e-06
-1.8679e-06
-6.75637e-07
-2.19037e-06
-3.58399e-06
1.14277e-07
-3.99222e-06
-6.73625e-07
-1.4489e-07
-1.33252e-06
-1.37901e-06
3.31089e-07
-3.88444e-06
-1.93317e-06
3.66233e-07
-3.91593e-06
-6.40324e-07
-3.56011e-06
-2.54614e-06
-4.06569e-07
-9.67833e-06
-2.51819e-05
3.43885e-07
-9.37147e-06
-2.493e-05
-3.81304e-07
-1.00612e-05
-2.41886e-05
7.78213e-07
-9.81736e-06
-2.46103e-05
4.18189e-07
-1.04874e-05
-2.51801e-05
1.39008e-07
-1.01635e-05
-2.30315e-05
-9.85635e-06
-2.50039e-05
3.20349e-07
7.28592e-05
2.80315e-08
7.40798e-05
5.49795e-08
7.36112e-05
-7.94242e-08
7.3563e-05
-2.31974e-07
7.31942e-05
-1.94535e-07
7.35951e-05
7.32324e-05
-4.27215e-07
1.68201e-05
6.03509e-05
3.69414e-07
1.45478e-05
6.18133e-05
5.86896e-07
1.50479e-05
6.1293e-05
8.78634e-07
1.51687e-05
6.05505e-05
7.59542e-07
1.58613e-05
6.03168e-05
4.56007e-07
1.5817e-05
6.10981e-05
1.66213e-05
6.00529e-05
-8.04179e-08
7.01467e-06
-1.45637e-05
-9.55224e-08
4.67224e-06
-1.65448e-05
2.94547e-07
4.96641e-06
-1.41388e-05
1.47545e-07
5.57002e-06
-1.54668e-05
1.28716e-07
5.34197e-06
-1.48595e-05
9.5199e-08
5.58079e-06
-1.41549e-05
6.5706e-06
-1.55805e-05
9.09412e-07
1.58386e-06
2.04144e-07
2.73127e-07
1.61066e-06
-2.51428e-06
-2.46761e-08
1.93448e-06
1.79323e-06
6.62369e-08
1.95748e-06
2.91747e-07
6.95035e-08
1.31327e-06
-2.6101e-07
-7.15463e-08
2.75654e-06
-1.36139e-07
2.22994e-06
-1.03167e-06
-7.26186e-08
-1.92656e-06
7.58683e-06
5.53166e-07
-2.15465e-06
6.47838e-06
-4.01866e-07
2.77588e-07
4.39521e-06
-1.17682e-06
-1.79599e-08
4.36442e-06
-1.22755e-06
-1.99471e-06
5.0661e-06
-6.35366e-07
-2.74105e-06
7.03961e-06
-2.30012e-06
7.67369e-06
-1.01658e-08
-6.05947e-06
-3.64894e-07
-7.00986e-07
-5.47909e-06
-2.23743e-06
1.79442e-07
-6.14104e-06
2.14864e-06
-3.54065e-08
-4.12308e-06
3.36898e-07
1.9451e-07
-7.01297e-06
4.5237e-08
4.03041e-07
-7.33799e-06
9.55224e-07
-6.2509e-06
-8.72026e-07
-4.81109e-08
-1.60374e-05
-1.65501e-05
3.63231e-07
-1.52629e-05
-1.71515e-05
-3.61784e-07
-1.59027e-05
-1.55102e-05
1.078e-06
-1.6121e-05
-1.55057e-05
1.63257e-08
-1.62688e-05
-1.6891e-05
-3.34764e-07
-1.58728e-05
-1.62008e-05
-1.61637e-05
-1.68727e-05
1.97202e-08
6.1939e-05
-5.60747e-08
6.33033e-05
-2.4659e-07
6.20654e-05
-2.32167e-07
6.19317e-05
-1.90395e-07
6.08297e-05
-1.01695e-07
6.17596e-05
6.21255e-05
-4.83435e-07
1.85674e-05
4.20652e-05
5.055e-07
1.60437e-05
4.40031e-05
4.5639e-07
1.64887e-05
4.39731e-05
9.07041e-07
1.65335e-05
4.26028e-05
9.64275e-07
1.78477e-05
4.15338e-05
6.3327e-07
1.78761e-05
4.29372e-05
1.85776e-05
4.19405e-05
5.94005e-07
7.47689e-06
-5.91646e-06
-2.49284e-07
6.29198e-06
-7.71368e-06
3.94857e-07
6.23787e-06
-6.27205e-06
-5.06002e-09
6.47796e-06
-6.76058e-06
-2.60336e-07
7.49185e-06
-6.24995e-06
-2.32806e-07
7.56308e-06
-5.90874e-06
7.58535e-06
-6.63679e-06
9.64481e-07
1.02918e-06
3.28035e-06
2.99953e-07
1.65467e-06
4.49665e-07
3.45877e-08
2.39757e-06
3.50175e-06
6.05008e-08
2.00084e-06
2.30439e-06
-1.04906e-07
2.02805e-06
2.83649e-06
1.22416e-08
1.67313e-06
3.18541e-06
1.80776e-06
2.30589e-06
-2.30992e-07
-1.70047e-06
8.68912e-06
2.84503e-07
-2.02349e-06
7.65234e-06
-4.09752e-07
-9.69558e-07
6.43493e-06
-1.02325e-06
-1.22496e-06
6.18578e-06
-8.33227e-07
-1.98146e-06
6.86222e-06
-6.28851e-07
-1.78015e-06
8.19217e-06
-1.68745e-06
8.64207e-06
4.82055e-08
-7.15726e-06
2.65752e-06
-5.52363e-07
-7.12635e-06
1.03705e-06
1.31944e-07
-6.90188e-06
4.96135e-06
6.12358e-08
-6.88653e-06
3.60603e-06
2.6493e-08
-6.87753e-06
2.53481e-06
2.76276e-07
-6.84473e-06
3.42077e-06
-7.04082e-06
2.36041e-06
2.75978e-07
-1.8192e-05
-7.50441e-06
1.11566e-07
-1.72302e-05
-8.814e-06
5.21199e-08
-1.74378e-05
-6.77437e-06
8.93294e-07
-1.77744e-05
-7.39894e-06
-3.33107e-07
-1.73872e-05
-6.9992e-06
-4.34818e-07
-1.71713e-05
-7.70777e-06
-1.82601e-05
-7.83557e-06
2.42627e-08
4.36275e-05
-2.59101e-07
4.57949e-05
-2.08956e-07
4.3854e-05
-5.42648e-07
4.37282e-05
4.86495e-08
4.19174e-05
-3.04114e-08
4.40459e-05
4.37593e-05
-4.45279e-07
1.62051e-05
2.41679e-05
7.63502e-07
1.46894e-05
2.56286e-05
2.14471e-07
1.64033e-05
2.56514e-05
6.59685e-07
1.45111e-05
2.49416e-05
8.76631e-07
1.45845e-05
2.40681e-05
7.46246e-07
1.57586e-05
2.47427e-05
1.65616e-05
2.40093e-05
6.99233e-07
6.49357e-06
1.83533e-06
-5.65312e-07
6.67113e-06
2.11674e-07
6.23748e-07
6.14476e-06
1.16143e-06
-3.05649e-08
6.66186e-06
4.66258e-07
-7.35069e-07
7.01427e-06
7.01332e-07
-3.31918e-07
6.53259e-06
1.36498e-06
7.03659e-06
1.29785e-06
1.06069e-06
-1.0481e-06
7.77625e-06
1.50381e-07
3.90425e-07
5.60084e-06
8.51111e-08
2.98399e-07
7.3485e-06
1.13496e-07
1.30788e-07
6.71313e-06
-1.99512e-07
1.2997e-06
6.71892e-06
-3.13824e-09
6.31588e-08
7.39448e-06
3.37351e-07
6.90397e-06
-4.82045e-07
2.1712e-07
6.08283e-06
1.33058e-07
-1.0469e-06
6.53536e-06
-4.22325e-07
-7.33309e-07
6.05476e-06
-9.60353e-07
-1.02196e-06
5.89249e-06
-6.7782e-07
-6.84839e-07
6.57857e-06
-7.3321e-07
4.3927e-07
5.89991e-06
-1.3476e-08
6.41669e-06
2.79998e-07
-6.49875e-06
7.0803e-06
-4.7575e-07
-6.22845e-06
4.94954e-06
1.26322e-07
-6.31865e-06
7.8809e-06
-9.81652e-08
-6.18223e-06
6.92558e-06
-6.65151e-08
-6.49768e-06
6.30906e-06
1.53639e-07
-5.82276e-06
7.47909e-06
-6.43458e-06
6.90186e-06
2.3261e-07
-1.62058e-05
7.62342e-07
2.78267e-08
-1.61559e-05
-4.12555e-07
4.12976e-07
-1.56344e-05
6.89592e-07
1.08069e-06
-1.61501e-05
2.49587e-07
-7.07192e-07
-1.24596e-05
-2.58164e-07
-1.84645e-07
-1.63875e-05
7.45668e-07
-1.64861e-05
7.66984e-07
1.70859e-07
2.50807e-05
-3.63634e-07
2.76685e-05
-1.89483e-07
2.53563e-05
-8.01498e-07
2.54579e-05
2.57948e-07
2.56051e-05
-2.17512e-08
2.53583e-05
2.51008e-05
-5.92771e-07
1.80045e-05
9.58842e-07
1.7548e-05
1.09657e-07
1.9653e-05
7.21298e-07
1.75524e-05
9.28104e-07
1.70974e-05
9.61659e-07
1.79733e-05
1.82231e-05
7.05497e-07
9.51329e-06
-6.36411e-07
9.38271e-06
1.14346e-06
9.14272e-06
2.48324e-07
9.43755e-06
-8.75619e-07
9.49441e-06
-9.3777e-08
8.93104e-06
9.85532e-06
1.3567e-06
3.00345e-06
-1.89522e-08
3.42401e-06
3.20118e-07
3.07984e-06
3.21184e-07
3.11906e-06
3.89173e-08
3.37732e-06
-3.39095e-08
3.49326e-06
3.60627e-06
-4.97066e-07
-3.1131e-06
9.87757e-08
-3.27156e-06
-5.30319e-07
-2.90796e-06
-1.00938e-06
-3.19851e-06
-8.34476e-07
-2.8736e-06
-8.99037e-07
-3.31319e-06
-3.48635e-06
4.38494e-07
-9.38722e-06
-6.38015e-07
-9.69194e-06
2.41507e-07
-8.80827e-06
1.99192e-08
-9.10127e-06
2.55581e-07
-9.10038e-06
1.62832e-07
-8.53155e-06
-9.45671e-06
-2.32436e-07
-1.79831e-05
2.23669e-07
-2.17439e-05
6.02783e-07
-1.81314e-05
9.76679e-07
-1.90119e-05
-1.04405e-06
-1.78399e-05
7.72865e-08
-1.86951e-05
-1.8271e-05
2.35417e-07
-6.52907e-07
-3.30156e-07
-9.06092e-07
2.2567e-07
3.27212e-08
-0.00394093
0.00247039
0.00147681
-0.00339489
0.0032615
-0.00379551
-0.00183475
0.00355977
-0.00510911
0.000633639
0.00318933
-0.00565259
0.00320415
0.00322138
-0.00581393
0.00395546
0.00286655
-0.00364867
0.0022214
0.00167259
-0.00587535
0.00446534
0.00392554
-0.00707322
0.00484252
-0.000369901
-0.00335774
0.00584666
-0.00598975
0.00217425
0.00579427
-0.00811738
0.00602351
0.0060242
-0.00666208
0.00594744
0.00541464
-0.00249187
0.00476502
0.00337355
-0.0044385
0.00349772
0.0055788
-0.00496068
0.00281665
0.00257098
-0.00278284
0.00204774
0.0016531
0.00066944
0.000740207
0.00164373
0.00343533
0.00181542
0.00148657
0.00376947
0.00286624
0.00221925
0.00367375
0.00495479
0.000327656
-0.00322677
0.0062995
0.000732832
-0.00270198
0.00500161
0.000722365
-0.00258421
0.00451284
-0.000767088
-0.00243448
0.00447366
-0.00109159
-0.00236664
0.00436627
-0.000484953
-0.00244316
0.0046247
-0.00275667
0.00592077
-0.00257796
-0.0048952
0.00431431
-0.00297276
-0.0044475
0.00216305
-0.00199314
-0.00482731
0.00132464
-0.000310147
-0.0050722
0.00102525
0.00131731
-0.0049623
0.00106178
0.00206949
-0.00482369
0.00174622
-0.0047758
0.00434227
-0.00188197
-0.00373252
0.000881775
-0.000586984
-0.00365244
-0.00195798
0.000631853
-0.00349027
-0.00247317
0.00150683
-0.00322078
-0.00266291
0.00318331
-0.00275267
-0.00382352
0.00370631
-0.00243992
-0.0028049
-0.00279838
0.00191357
-0.000101103
-0.00348322
0.00182183
-0.00544044
0.00369496
-0.0052707
0.00481332
-0.00426611
0.00446533
-0.00236818
0.00361889
-0.00159337
0.000820527
-0.00271756
0.00246792
0.00168151
-0.0029569
0.00210779
-0.00568003
-0.00241352
0.00274634
-0.00840715
-0.00104018
0.00216086
-0.0091851
0.000138233
0.00225351
-0.00923134
0.00162132
0.00228724
-0.00736364
0.0019104
0.00138715
-0.00249989
0.00253742
0.00630387
-0.00328203
0.00285637
-0.000374274
-0.00120824
0.00310924
-0.00842872
0.000465068
0.0025265
-0.0101858
0.00184159
0.00342627
-0.00925271
0.00298319
0.00315667
-0.00449938
0.00316882
0.0051484
-0.00273063
0.00242849
0.00846458
-0.00366603
0.000838757
0.00545947
-0.00220876
-0.000300467
0.00354703
0.000244642
-0.00137282
0.00304448
0.00252395
-0.000376439
0.00304711
0.00219887
0.000847133
0.00489696
0.00247577
0.00800536
0.0016395
-0.00186829
0.00872829
0.00158735
-0.00117753
0.00678972
0.000982043
-0.00109144
0.00556696
-0.000813944
-0.000837199
0.00539305
-0.00166234
-0.000891821
0.00542603
-0.00178044
-0.000941499
0.00635381
-0.00160191
0.00813018
-0.000509315
-0.00369528
0.00676552
-0.00107241
-0.00251036
0.00406852
-0.00137123
-0.00281009
0.00328081
-0.000964889
-0.0033473
0.00311435
-0.000228589
-0.00318306
0.00267217
0.000321535
-0.00291633
0.00329785
-0.0035042
0.00688283
0.00299893
-0.00240632
-0.00313887
0.00476821
-0.00240798
-0.00366135
0.00408484
-0.00181597
-0.0028116
0.00242118
-0.0015175
-0.00286367
0.00222352
-0.00187394
-0.00490044
0.00285493
-0.00180194
-0.00438502
-0.00253707
0.00401893
0.00280365
-0.00855674
0.00444418
-0.00940589
0.00558951
-0.00815597
0.00593561
-0.00606127
0.00518013
-0.00341028
0.00363903
-0.00182465
0.00193689
-0.00180987
0.00200473
0.00144145
-0.00159635
0.000523825
-0.00643184
-0.00112721
0.00162214
-0.010446
-0.000812379
0.00169701
-0.0111767
-0.000958732
0.00209587
-0.0111216
-0.000504464
0.00248316
-0.0102111
0.00242155
-0.00153458
-0.0013515
0.00247884
0.00719511
-0.000585546
0.00187495
-0.00255299
0.000717229
0.00155608
-0.00953863
-0.000265284
0.00216041
-0.00966506
-0.00103064
0.00260346
-0.00910645
0.000518501
0.00187307
-0.00520331
0.00268603
0.00559777
-0.00198157
0.00240102
0.0107294
-0.00256812
0.00154311
0.00641451
-0.00211907
0.000350353
0.0042823
0.000537691
-0.000759701
0.00331483
0.00185692
0.000359414
0.00400446
0.00162129
0.0011319
0.00605985
0.00192469
0.010718
0.00127602
-0.000760551
0.0104114
0.00145997
-0.000591865
0.0084501
0.00110756
-0.000952406
0.0069028
-0.000539018
-0.000527222
0.00652148
-0.00146286
-0.000351466
0.00679447
-0.00165975
-0.000458842
0.00786848
-0.00124443
0.00944652
0.00102287
-0.00379735
0.00909501
0.000367523
-0.00258355
0.00676204
-0.00117529
-0.00192288
0.0057004
-0.00225101
-0.00140142
0.00496065
-0.00197301
-0.0022091
0.00419612
-0.000890626
-0.00265432
0.00446736
-0.00358006
0.00851808
0.00559268
-0.000341971
-0.0114188
0.00709632
-0.000386501
-0.00682121
0.00748895
-0.000601582
-0.0043143
0.00603985
-0.000317762
-0.00266903
0.00369872
-0.00107541
-0.00378787
0.00215664
-0.00119943
-0.00421948
-0.0018236
0.00477894
0.00205377
-0.010897
0.00301792
-0.0107316
0.00365763
-0.00938266
0.00416013
-0.00688175
0.00381975
-0.00414632
0.00248387
-0.00169404
0.00260275
0.000166844
0.00126525
2.43294e-05
0.000202195
0.000505782
-0.006966
0.000643851
0.000860565
-0.0116909
0.000460461
0.000946697
-0.0119144
-0.000512065
0.00129632
-0.011418
-0.00201111
0.00208044
-0.0107493
0.00186622
-0.00533858
0.000822218
0.00249999
0.00543498
0.00129488
0.00234406
-0.00468205
0.000549656
0.00157316
-0.00930942
-0.00281675
0.00192351
-0.00729627
-0.00407554
0.00159835
-0.00818576
-0.00259446
0.00206741
-0.00634506
0.00270698
0.00250355
-0.000534028
0.0022014
0.0119163
-0.000780738
0.0021235
0.0070575
-0.00062442
0.00134023
0.00443449
0.0006192
0.000348872
0.00363037
0.000399249
0.00109981
0.00471883
9.16559e-06
0.00157228
0.00709365
0.00115397
0.0125628
7.03651e-05
0.000830319
0.0114317
0.000366629
0.000128016
0.00988684
0.00043577
-0.000699302
0.00861343
-0.000660991
-0.000372864
0.00809791
-0.00134047
4.74335e-05
0.0082728
-0.00118307
-0.000277827
0.00926549
-0.00159467
0.0106528
0.00168242
-0.00175964
0.0102399
0.000438589
-0.00102079
0.00919058
-0.00124369
-0.00135013
0.00796046
-0.00273748
-0.0007787
0.00669989
-0.00293375
-0.00102784
0.00529627
-0.00189157
-0.00203528
0.00505905
-0.00364633
0.0086319
0.00311479
0.000336264
-0.0164581
0.00451449
0.000229865
-0.00925672
0.00575922
-0.000251617
-0.00631057
0.00661662
0.000367793
-0.00448438
0.0051733
-0.000165337
-0.00324907
0.00190439
-0.000296845
-0.00277457
-0.000839834
0.00408417
0.00116547
-0.0117087
0.00205485
-0.0113739
0.00235344
-0.00992913
0.00256306
-0.00674334
0.0019715
-0.00373397
0.000903503
-0.000967922
0.0026363
0.00148624
0.000783317
-0.0022009
0.00136345
0.000742203
-0.00749557
0.00132179
0.000293777
-0.0119478
0.0014072
-0.000116369
-0.0118719
0.00098209
0.0001439
-0.0111204
-0.000431104
0.000826779
-0.0101219
0.00106934
-0.00675754
0.00394334
0.00300997
-0.000339986
0.00324437
0.00301429
-0.00590109
-0.00246242
0.00244373
-0.00562938
-0.00600061
0.00114591
-0.00502243
-0.0065231
0.00138311
-0.00868726
-0.00495115
0.00257918
-0.00933967
0.00298151
-0.0041053
0.00234991
0.00218955
0.010862
0.0030107
0.00153269
0.00812325
0.00188896
0.00164054
0.00639958
-0.00045604
0.00099453
0.00608609
-0.00227917
0.00102764
0.0067808
-0.00208646
0.000942009
0.00858043
0.00102176
0.0127063
-0.000208363
0.00145338
0.0120305
-0.0002874
0.000163947
0.0110557
3.73756e-05
-0.000380728
0.0101022
-0.000304295
-0.000422892
0.00967265
-0.000897826
-0.000231341
0.00988393
-0.00130932
-0.000254168
0.0105409
-0.00152759
0.0115037
0.00106573
0.000985075
0.00966373
-0.000413334
0.00136415
0.00940723
-0.00195162
0.000343372
0.00869967
-0.00336655
-0.000778752
0.00834996
-0.00320894
-0.0015595
0.00634521
-0.00244063
-0.00169368
0.00554582
-0.00313249
0.00766218
0.000638418
0.00100975
-0.0171803
0.00149509
0.000398136
-0.00924337
0.00191968
0.00070408
-0.00706804
0.00354024
-0.000236542
-0.00644007
0.00319962
-0.0001878
-0.00416125
0.000773825
-0.000226087
-0.00182221
-0.00038592
0.00208832
0.00134477
-0.0120744
0.00187721
-0.011528
0.00255227
-0.0099162
0.00182889
-0.00625663
0.000977644
-0.00306011
-1.65066e-07
-0.000247964
0.00219952
-0.00076949
0.00133786
-0.00265738
0.00028468
0.000132883
-0.00856331
0.00148553
-0.00155975
-0.0115805
0.00225101
-0.00145696
-0.0111932
0.00257945
-0.00108569
-0.0103908
0.000826936
0.000448668
-0.00884773
0.000509584
-0.00630367
0.00156469
0.00366888
-0.0038817
-0.000809675
0.00191537
-0.00515064
-0.00510332
0.000857345
-0.00366317
-0.00623044
0.000135107
-0.00541426
-0.00567653
-0.000136325
-0.0100319
-0.00274045
0.00021186
-0.0118996
0.00204554
-0.00819912
0.00386908
0.00193446
0.00897523
0.00469829
0.000419467
0.0088385
0.00254725
0.0010515
0.0082074
-0.000450308
0.000912331
0.0082165
-0.00252431
0.000530207
0.00803957
-0.00265134
-1.85492e-05
0.00886064
0.000912418
0.0112954
0.000251415
0.00153541
0.0117116
-0.000459654
0.000614561
0.0112457
-0.000398925
0.000585281
0.0102804
-0.000252771
0.000494872
0.00979133
-0.000649633
0.00033787
0.0102388
-0.0014054
-5.22452e-06
0.010873
-0.000493711
0.0110935
-2.50234e-05
0.00191612
0.00905512
-0.00133585
0.00183704
0.00935537
-0.00283201
0.00145858
0.00935567
-0.003755
1.98913e-05
0.00973292
-0.00338366
-0.000782905
0.00712773
-0.00238252
-0.00145792
0.00580834
-0.00205429
0.00661604
0.000199988
0.00177149
-0.0173397
0.00183978
0.0016305
-0.0106228
0.00208114
0.00125604
-0.00704913
0.00202539
-0.000761543
-0.00548229
0.00139741
-0.000394423
-0.0037717
0.000312801
-0.000599212
-0.00150915
-0.000433777
0.000727597
0.00130941
-0.0115183
0.00229428
-0.0109356
0.0028758
-0.00927843
0.00140132
-0.00553171
0.000423872
-0.00247375
-0.00028618
-0.000173324
0.00142766
-0.00225648
0.0014077
-0.00172353
-0.00030154
-0.000605845
-0.00980343
0.00183868
-0.00201115
-0.0116944
0.00280784
-0.00179899
-0.0103962
0.00322926
-0.00158502
-0.00925284
0.00216632
-0.000275911
-0.00756051
0.000170324
-0.00423253
-0.00257958
0.00243228
-0.00218959
-0.00415792
0.00051322
-0.00466371
-0.00445666
-0.000688318
-0.00464917
-0.00516539
-0.00116789
-0.00530737
-0.00476002
-0.00182733
-0.0102308
-0.00236421
-0.00157082
-0.0128835
2.852e-05
-0.0100548
0.00342965
8.15285e-05
0.00787122
0.00396146
4.84021e-05
0.00863523
0.00203672
0.00151743
0.00775726
-0.00102679
0.00141502
0.0086829
-0.00249406
0.000555629
0.00699347
-0.00221347
0.000513779
0.0062341
0.00236899
0.00655137
-0.000898121
0.000368209
0.0117696
-0.00120596
5.4007e-05
0.0111859
-0.000468518
7.46524e-05
0.0107241
6.61709e-05
-0.000117288
0.0106193
-0.000366587
-0.000156977
0.0112022
-0.00128788
0.000797166
0.0111957
0.000534312
0.0112072
-0.000295284
0.00227324
0.00724008
-0.000941218
0.0022465
0.00774525
-0.00208786
0.00143056
0.00922629
-0.00229403
-0.000108245
0.00993565
-0.00300586
-0.00047121
0.00814262
-0.00202369
-0.00127058
0.00683114
-0.00206342
0.00707723
0.00132455
0.00198476
-0.0182705
0.00444305
0.00239547
-0.0136455
0.00457867
0.00178336
-0.00738199
0.00206084
-0.000137635
-0.00285341
0.00084725
-0.000793246
-0.00216244
0.000277149
-0.000812049
-0.00135251
-0.000897401
-0.000153449
0.0010657
-0.0106114
0.00272937
-0.0102093
0.00381335
-0.00855213
0.00279181
-0.00464725
0.000854511
-0.00134169
4.58049e-05
-0.000197815
0.000489939
-0.00090802
0.000709631
0.000496808
-0.000289045
0.000648983
0.000881806
-0.0134405
0.0109382
0.00169044
0.0018739
-0.0141218
0.0112069
0.00252794
0.00142457
-0.0112277
0.00898332
0.00257575
0.00162393
-0.00936797
0.00764417
0.0012522
0.00205347
-0.00611929
0.0053336
0.00136404
-0.00354526
0.00343111
-0.00233594
0.00172209
0.00161759
-0.000322782
-0.00386354
-0.000151993
-0.00280347
0.00536492
-0.00287456
-0.00128904
-0.00311447
0.00525199
-0.00264605
-0.00166126
-0.0023103
0.00516301
-0.000976988
-0.00175137
-0.00832018
0.010073
-0.00165903
0.00106054
-0.0111879
0.0129183
0.0016109
-0.0116379
0.00999313
0.00162364
-3.61173e-05
0.00740634
-0.00728402
0.00106089
-0.000418512
0.00871491
-0.00806269
-0.000971939
-0.000545105
0.00915246
-0.00796967
-0.003917
-0.000191389
0.0089889
-0.00757418
-0.00632495
0.00037329
0.00669097
-0.00661546
-0.00463144
0.00148425
0.000970521
-0.0032089
0.00217538
-0.00194924
-0.00330265
-0.000205608
-0.000102413
0.0110914
-0.0109569
-0.0003531
-0.000692155
0.0109575
-0.0107228
-0.000468814
-0.000774727
0.0108186
-0.0106589
-0.000669949
-0.000326853
0.010999
-0.0108247
-0.00111322
0.000459924
0.0110799
-0.0109469
-0.000817282
0.000764034
0.0110849
-0.0109955
0.000730345
0.0105787
-0.0104315
0.00395049
0.000229034
-9.16631e-05
-0.00411384
0.00314594
0.00308596
0.00408939
-0.00701993
0.00111979
0.00122031
0.00829474
-0.00830113
-0.00014774
0.000127364
0.00942316
-0.00872839
-0.000686063
-0.000273398
0.00827098
-0.00705032
-0.000387483
-0.000605514
0.00824836
-0.00721724
-0.00100011
0.00803372
-0.00673958
0.00165254
-0.00194901
-0.0179307
0.0185689
0.00562449
-0.00194794
-0.0139576
0.0151235
0.0073278
-0.00142721
-0.00760728
0.00860523
0.00677288
-0.000181706
-0.00202787
0.00288884
0.00515554
0.000212982
-0.000221058
0.00134673
0.00304242
0.000122827
0.000570996
0.000880117
0.000515494
0.00265266
-0.00097254
0.000565149
-0.0114445
0.00896984
0.00185084
-0.012381
0.0091259
0.00218303
-0.00953028
0.00778161
0.00135881
-0.00260937
0.00323278
0.00140588
0.000282572
-0.000121303
0.000572253
0.00194381
-0.000952674
0.00267331
-0.00151332
-0.000241535
0.000434401
0.000287967
0.00159467
-0.00154144
-0.0138666
0.00167748
-0.000395167
-0.0138881
0.00207862
-0.000571831
-0.0110028
0.000559656
0.000407667
-0.00828806
-0.000669981
0.000292959
-0.00522988
-0.00040208
-0.00379304
-0.00161764
0.00165536
0.00212214
-0.0040982
-0.000366048
-0.00140322
-0.00414148
-0.00167557
-0.00177746
-0.0020122
-0.00245473
-0.0025756
0.000929629
-0.000825334
-0.0099679
0.00154747
0.00147611
-0.0129479
0.002479
-0.0129433
0.000989711
0.000154722
0.00797493
0.000310104
-0.000201871
0.00919635
-0.00214271
8.33941e-05
0.00977964
-0.00644298
0.000804906
0.00989909
-0.00783208
0.00128876
0.00593313
-0.00469476
0.00164821
-0.00217025
0.00177994
-0.00562824
-0.000365794
6.94907e-05
0.0114491
-0.000417786
-0.00102485
0.0115993
-0.000319979
-0.00122353
0.0117684
-0.0004249
-0.000863961
0.0125437
-0.00087296
-5.2376e-05
0.0126055
-0.000829901
0.000220831
0.0121974
-3.23029e-05
0.0114542
0.00436307
0.000379928
-0.00453269
0.00592797
0.00252075
-0.000850805
0.00429586
0.00166116
0.00704206
0.001637
0.000434417
0.0106799
0.000205038
-0.000345913
0.00998391
9.12995e-05
-0.000893614
0.00956926
-0.0012662
0.00946593
0.000895113
-0.000365398
-0.0180006
0.0047851
-0.000820492
-0.0144756
0.00677051
-4.56709e-05
-0.00784087
0.00596915
0.000467935
-0.00125112
0.00424463
0.000386854
0.000830101
0.00214704
4.65993e-05
0.00191044
0.000137914
0.003702
-0.000610112
-0.0111957
-0.00166568
-0.0121828
-0.00142001
-0.00985389
-0.000256522
-0.00331784
-0.000182918
0.000608245
4.98047e-05
0.00183393
0.00302228
0.00116788
0.00150889
-0.00236183
0.00275965
-0.00134298
-0.0141525
0.00294843
-0.000410503
-0.0137442
0.00178522
0.000267513
-0.010063
-0.000155492
0.000751861
-0.0070749
-0.000504293
-0.000123351
-0.00472028
-0.00117957
-0.00306282
-0.0006854
0.00234685
0.00218255
-0.00163733
0.000386507
-0.00200458
-0.000611756
-0.00052916
-0.00254118
0.00524823
-0.000287248
-0.00778462
0.00839319
0.000839388
-0.0131622
0.00697309
0.00245245
-0.0140954
0.0036977
-0.0107865
0.000443319
0.00147771
0.0084721
-0.000964899
0.000879211
0.0100515
-0.0042471
0.00111132
0.0113615
-0.00625954
0.000632078
0.0108945
-0.00508846
-9.46613e-05
0.00579927
-0.00304541
-0.00014378
-0.00133522
0.0010301
-0.00558795
0.000598921
0.0002096
0.0118986
7.53395e-05
-0.000204628
0.0129081
0.000212965
-0.00127131
0.0136426
0.000364359
-0.00154693
0.0142737
-0.000399998
-0.00113085
0.0142203
-0.00131807
-0.000988772
0.0138664
-0.00186965
0.0129688
0.00376899
-0.000187847
-0.00781093
0.00602535
0.000769215
-0.00387788
0.00670686
0.000883571
0.00430058
0.00446116
0.000510569
0.0108456
0.0021863
-0.000269299
0.0114206
0.000970718
-0.000801956
0.0107462
-0.00182292
0.0105859
0.000136289
-0.00186566
-0.016486
0.000651279
-0.00149406
-0.0127441
0.00258977
-0.000948956
-0.00795805
0.0045994
-0.000155496
-0.00259059
0.0038684
0.000348473
0.000992677
0.00229056
0.000704143
0.00211096
0.000313257
0.00412606
-0.00254206
-0.0105124
-0.00438931
-0.01185
-0.00442242
-0.010749
-0.0015942
-0.00628254
-0.000499978
-0.000114598
-5.19029e-05
0.00211983
0.00330259
0.00437564
0.00238063
-0.00861878
0.0045432
0.000693795
-0.0148988
0.00419872
-0.000501901
-0.0128708
0.00327702
-0.000547398
-0.00852368
0.00267069
-0.00092499
-0.00548113
0.00160805
-0.00129059
-0.00230162
-0.00153258
0.000197343
-0.000489807
0.0013391
0.00390327
0.00210118
0.000217426
-0.00399787
0.00746992
-0.000303561
-0.00794302
0.0134226
0.000765713
-0.0149832
0.0140787
0.000338915
-0.0150045
0.0104076
0.00150197
-0.0131625
0.00488956
-0.0066673
-0.00181036
0.00264734
0.00882945
-0.00250921
0.00143023
0.00934203
-0.00401509
0.00122008
0.0112375
-0.00343975
-0.000245339
0.0112437
-0.00232893
-0.0027
0.00782557
-0.0014299
-0.00330892
0.00281315
0.000182656
-0.00201744
0.00220338
8.28649e-05
0.0119825
0.00104167
0.00178579
0.0134443
0.00104546
-0.000118133
0.0146569
0.00177813
-0.00188354
0.0149289
0.000207792
-0.00194344
0.014873
-0.00183316
-0.00195444
0.0144499
-0.00218284
0.0133581
0.00307443
-0.00266339
-0.0081173
0.00489737
-0.00158088
-0.00224217
0.00713914
-0.00038424
0.0025333
0.00657927
0.000698632
0.00894771
0.003556
0.000857004
0.011687
0.00128192
6.40027e-05
0.0110274
-0.000824593
0.0104955
-0.0012054
-0.00297058
-0.0149248
-0.00299616
-0.00122601
-0.0112561
-0.00310246
-0.000704878
-0.00749502
0.000776615
-0.000825035
-0.00491854
0.00259574
-0.000330696
0.00035279
0.00163148
0.00102481
0.00208273
0.000527186
0.00449734
-0.0045388
-0.00889331
-0.00669915
-0.010871
-0.00686499
-0.0112048
-0.00407437
-0.00982183
-0.000850743
-0.00364235
-0.000224762
0.0024637
0.00348108
0.00757777
-0.000426582
-0.015809
0.00602
0.00153224
-0.0147144
0.00338958
-0.0013148
-0.00870279
0.00436917
-0.00300571
-0.00636216
0.00411907
-0.00207854
-0.00304335
0.00170253
-0.000828865
0.00107165
-0.00136995
0.00342739
-0.0025973
-0.00104489
0.00731423
0.00601626
-0.00218247
-0.00876223
0.015401
-0.0012137
-0.0172553
0.0179804
-0.00105129
-0.0193727
0.0167725
-0.00117786
-0.0145596
0.0111729
0.00147907
-0.00972923
0.0042747
-0.00101836
-0.00419106
0.0033788
0.00855923
-0.00443912
0.00172258
0.00542315
-0.00263795
0.00107351
0.00705039
-0.0018347
-0.000512173
0.0098576
-0.00192832
-0.00343229
0.0102561
-2.19497e-06
-0.00338071
0.00582162
-0.000274878
0.00260971
0.00228211
-0.000161524
0.0130367
0.00132084
0.00241071
0.0135404
0.00157778
0.00132212
0.0139741
0.00255515
-0.000791619
0.0140574
0.000708264
-0.00138033
0.0144478
-0.0013848
-0.00170412
0.0146049
-0.00202115
0.0134027
0.00216985
-0.00554575
-0.00479188
0.00431614
-0.00317335
0.00136328
0.00634669
-0.00057029
0.00264944
0.00745794
0.00134428
0.00591159
0.00560648