/*--------------------------------*- C++ -*----------------------------------*\
  =========                 |
  \\      /  F ield         | OpenFOAM: The Open Source CFD Toolbox
   \\    /   O peration     | Website:  https://openfoam.org
    \\  /    A nd           | Version:  6
     \\/     M anipulation  |
\*---------------------------------------------------------------------------*/
FoamFile
{
    version     2.0;
    format      ascii;
    class       volScalarField;
    location    "0.01";
    object      T;
}
// * * * * * * * * * * * * * * * * * * * * * * * * * * * * * * * * * * * * * //

dimensions      [0 0 0 1 0 0 0];

internalField   nonuniform List<scalar> 
3773
(
288.615
287.697
287.732
287.735
287.636
287.816
288.768
289.439
288.89
289.114
288.966
288.814
289.08
289.462
307.766
309.291
309.332
309.302
309.27
309.34
307.755
313.405
313.639
313.645
313.635
313.636
313.694
313.428
307.803
307.975
309.386
309.318
309.311
309.336
307.812
289.609
289.812
289.338
289.012
288.988
289.301
289.607
288.899
288.614
288.151
287.863
287.876
288.024
288.958
267.081
263.558
263.465
263.748
263.659
264.382
268.108
271.763
276.083
276.244
276.037
275.656
276.318
272.582
314.032
312.099
312.512
312.562
312.673
312.077
314.186
325.136
325.29
325.493
325.529
325.521
325.351
325.644
314.394
314.471
312.777
312.757
312.781
312.645
314.493
272.505
272.711
276.251
275.46
276.016
276.669
272.608
269.489
266.326
266.347
265.873
265.247
265.565
269.642
237.876
234.066
233.413
233.546
234.657
235.851
238.416
261.614
268.511
267.219
266.842
264.883
265.795
261.68
314.532
312.437
314.365
314.447
313.789
311.72
314.143
326.281
325.401
326.121
326.602
326.569
325.37
326.158
314.421
312.751
312.723
313.612
314.061
312.984
314.232
262.149
264.998
266.313
263.407
266.104
267.043
262.092
239.859
236.769
236.289
236.576
235.403
236.282
239.734
222.101
221.823
220.743
220.93
220.918
221.396
222.23
259.322
268.758
267.578
267.15
262.987
263.468
259.294
314.11
312.36
313.181
313.206
313.868
311.343
313.856
326.338
325.708
326.169
326.508
326.27
325.631
326.197
314.06
311.188
313.895
315.306
313.856
311.754
313.836
259.599
263.534
264.094
261.465
264.173
265.5
259.599
222.792
221.637
221.595
220.163
221.214
222.099
222.787
217.113
218.559
217.919
217.798
217.044
216.892
217.086
259.047
266.647
265.901
265.833
263.554
263.586
259.078
314.282
312.03
311.615
312.565
312.183
310.46
314.17
326.408
325.719
325.975
326.034
325.794
325.591
326.369
314.132
311.17
312.912
313.847
313.263
311.286
314.146
259.296
264.157
263.805
263.412
263.901
264.577
259.308
217.214
217.272
217.305
215.933
217.449
217.561
217.215
216.398
217.547
216.555
217.381
216.863
216.396
216.338
262.041
267.638
267.838
268.473
267.488
267.291
261.59
315.207
311.802
311.883
311.355
311.029
310.846
314.757
326.646
325.829
325.551
325.822
325.367
326.148
326.608
314.906
312.042
311.579
311.829
311.618
312.339
314.865
262.159
267.098
267.487
267.903
269.062
266.347
261.909
216.42
216.157
216.668
215.356
217.485
216.719
216.374
213.326
211.872
212.533
213.633
213.427
213.34
213.384
262.619
264.368
262.041
263.447
263.678
264.033
262.558
312.936
313.205
311.73
312.29
311.378
312.618
311.807
331.308
332.492
332.232
332.247
332.774
331.211
332.836
312.924
317.283
312.732
311.679
318.444
313.088
311.906
262.981
254.213
263.871
262.937
257.275
263.601
262.792
213.562
212.398
213.423
212.69
212.031
213.449
213.473
332.485
333.588
335.84
336.02
334.464
330.273
329.387
332.416
332.368
330.562
333.996
332.952
330.038
329.925
326.567
331.543
331.737
334.059
331.685
329.843
325.47
311.945
322.018
325.331
328.632
324.971
321.489
311.826
306.401
315.133
317.888
319.489
318.16
315.612
306.868
312.822
316.652
319.935
321.95
321.946
319.544
318.932
318.154
324.112
325.552
324.467
322.239
322.213
323.006
331.904
333.544
337.427
337.718
335.225
328.851
328.709
330.582
325.33
323.591
332.304
329.729
321.453
327.932
322.457
327.99
328.371
333.717
329.274
326.006
322.202
311.541
321.408
328.693
338.309
330.006
321.138
311.27
303.784
311.864
317.114
319.319
316.255
309.947
301.669
312.486
311.541
315.094
320.864
322.361
316.354
315.932
334.811
334.439
333.422
331.033
326.238
323.487
322.518
329.998
333.416
339.258
339.2
337.039
330.933
324.835
325.866
306.431
318.606
329.813
321.413
309.504
324.293
312.795
319.412
323.354
331.079
323.498
316.525
313.614
311.613
321.355
334.253
343.381
336.215
322.806
311.853
295.796
305.039
315.448
317.761
314.353
302.772
293.705
314.805
308.355
307.448
312.866
319.44
319.163
306.66
338.518
335.939
334.48
331.388
327.903
325.001
321.249
309.517
333.883
341.732
339.742
338.23
333.807
318.425
309.68
302.814
320.563
329.048
317.586
308.172
311.668
304.148
304.734
319.618
328.266
320.451
306.074
305.248
315.108
322.551
335.181
343.857
337.005
322.774
314.404
296.27
300.615
314.59
317.894
314.057
301.827
291.286
330.769
322.353
316.851
313.977
316.059
321.832
298.857
338.915
335.881
334.479
331.295
326.661
324.699
319.193
326.118
336.488
342.573
340.78
339.627
337.55
323.18
302.552
314.527
328.746
328.933
319.594
312.174
304.823
296.32
299.09
314.65
326.643
315.81
300.384
298.359
317.973
324.104
334.596
342.807
336.915
323.656
315.959
296.183
299.895
315.414
318.847
314.9
303.565
293.097
333.172
325.053
326.055
324.421
321.28
322.949
302.176
339.423
336.056
333.686
331.969
327.54
325.495
314.32
333.609
342.396
342.556
341.05
340.128
339.932
328.187
321.235
331.442
333.571
332.094
330.026
323.471
311.438
297.764
300.666
313.742
326.203
315.6
299.875
296.686
320.665
327.386
335.748
343.132
337.878
328.235
321.182
301.938
303.378
318.532
321.277
316.602
310.239
300.525
333.514
324.779
327.146
330.347
328.804
327.642
316.971
340.233
336.285
333.387
332.269
330.337
327.363
314.845
336.86
344.225
342.777
341.206
340.43
340.114
329.838
331.328
335.767
335.598
336.325
333.623
328.534
316.348
302.243
303.836
314.236
326.35
316.411
301.607
297.565
330.342
336.302
338.633
344.559
340.535
334.407
324.137
307.209
310.336
320.582
323.218
319.938
319.209
312.685
339.226
332.047
329.643
330.734
331.172
330.352
325.361
341.597
338.284
333.19
331.93
331.151
329.847
321.559
336.306
344.875
345.884
345.081
343.812
342.598
331.957
336.84
342.453
341.634
340.66
340.497
342.067
335.529
318.214
316.763
321.738
329.649
321.316
315.726
314.755
339.262
340.577
342.025
347.195
343.872
337.809
331.042
323.116
319.181
322.769
327.696
324.057
323.024
320.593
346.114
339.433
335.103
333.605
333.706
333.954
331.619
346.425
341.402
334.865
330.608
329.912
330.421
328.152
333.954
342.195
344.775
344.623
343.349
342.333
334.159
336.333
341.866
340.744
340.613
344.527
347.826
347.06
321.284
322.552
327.553
330.52
322.341
322.513
325.054
343.569
344.604
345.999
350.049
345.037
339.279
334.091
333.472
326.641
324.466
329.679
328.828
327.931
323.051
347.502
342.156
338.045
335.121
335.202
335.942
330.569
346.469
340.841
333.325
329.325
330.907
329.828
325.545
329.784
341.833
344.35
345.033
344.091
344.985
343.985
331.848
341.568
343.79
345.768
347.612
348.912
349.025
322.362
324.626
330.859
330.97
327.359
332.498
337.119
342.919
345.951
346.495
350.097
347.754
342.213
335.736
344.899
338.106
328.202
330.14
332.12
331.081
325.266
349.367
344.798
339.226
336.536
336.118
335.796
329.467
348.087
342.294
335.029
330.257
327.831
329.42
323.73
335.405
344.139
345.223
346.545
345.678
346.449
345.56
325.415
340.07
345.647
347.436
347.764
348.355
349.252
324.044
328.168
333.221
332.679
333.323
338.283
341.781
340.101
345.035
347.752
349.748
348.059
342.324
336.644
348.849
344.864
333.264
330.533
332.282
332.392
325.513
349.842
345.945
340.646
338.131
337.026
336.605
324.37
348.767
344.631
341.262
333.461
327.937
327.237
318.535
343.26
348.637
346.677
346.912
345.505
345.948
345.529
329.019
347.411
348.146
348.631
347.903
347.949
348.751
330.611
337.44
335.707
335.72
337.036
340.389
342.928
338.172
344.222
347.977
350.275
348.699
342.321
336.696
350.033
347.515
337.843
331.557
331.804
332.257
326.892
350.81
347.419
342.057
339.486
337.556
335.091
323.462
349.802
346.903
343.864
340.919
330.865
326.333
315.431
339.03
344.271
348.848
347.665
343.99
342.418
343.311
329.547
348.99
349.193
350.332
348.109
347.646
347.941
337.064
348.649
344.697
337.994
337.114
339.721
341.61
338.447
345.34
348.244
349.864
349.061
342.517
336.306
351.092
347.708
344.026
335.028
332.833
332.492
328.684
352.241
352.204
347.614
344.311
340.931
338.632
327.911
352.838
351.619
350.103
345.992
342.17
328.12
316.905
343.764
344.736
351.206
347.24
345.145
345.389
346.307
341.365
347.667
349.569
352.806
348.225
346.345
345.88
345.765
352.276
353.374
352.131
342.582
340.29
339.088
340.766
347.697
349.443
350.365
348.876
344.163
337.627
351.26
350.84
349.274
348.137
346.333
345.818
343.008
354.807
354.976
352.298
350.925
348.075
345.541
343.02
349.7
353.078
352.647
350.394
347.778
342.667
336.035
339.544
348.04
345.538
343.566
342.96
341.72
330.986
332.521
334.704
336.547
336.922
336.06
335.626
325.924
306.745
306.324
315.924
326.646
317.669
303.713
298.881
332.089
336.511
338.186
343.54
340.376
334.359
324.67
311.913
312.167
320.976
324.048
321.298
319.397
315.411
342.429
335.606
332.195
330.758
330.787
330.508
329.384
344.894
340.268
334.4
331.684
331.155
330.469
326.482
340.501
348.165
345.877
343.738
343.09
341.794
331.422
334.485
337.311
338.549
337.869
336.859
337.042
327.512
308.006
307.006
316.309
326.797
317.693
304.594
299.669
332.725
336.844
338.461
343.7
340.504
334.638
325.288
312.326
312.468
321.11
324.313
321.605
319.45
315.476
343.021
336.317
332.844
331.711
331.828
331.369
328.559
345
340.382
334.444
331.597
331.235
330.911
327.035
340.266
348.108
346.522
344.133
343.366
341.958
331.51
335.003
338.408
339.225
338.209
337.391
338.301
328.964
308.757
307.459
316.578
326.799
317.826
305.56
302.233
333.194
337.256
338.843
343.864
340.621
335.222
325.804
312.706
312.789
321.269
324.402
321.669
319.627
315.582
343.596
336.659
333.267
332.18
332.158
331.486
329.546
345.2
340.604
334.537
331.475
331.144
330.964
327.152
340.196
347.604
346.919
344.355
343.496
342.145
331.658
334.598
339.061
339.645
338.635
337.74
338.982
330.362
309.471
308.307
317.027
326.83
318.112
306.556
303.56
333.887
337.518
339.176
344.119
340.876
335.574
326.724
313.322
312.991
321.346
324.563
321.906
319.781
315.789
344.155
337.192
333.553
332.556
332.193
331.363
329.971
345.447
340.775
334.576
331.331
330.993
330.943
327.56
340.582
347.233
347.369
344.903
343.965
342.477
331.694
334.459
340.706
339.882
339.111
338.345
340.012
332.492
310.186
308.857
317.398
327.165
318.867
308.015
304.786
334.223
337.885
339.514
344.341
341.05
335.862
327.209
314.168
313.318
321.525
324.659
322.078
320.018
316.047
344.66
337.551
333.879
332.764
332.079
331.904
330.14
346.053
341.234
334.909
331.227
330.944
331.019
328.145
339.896
346.891
347.426
345.148
344.196
342.636
331.67
335.237
341.884
340.315
339.813
338.825
340.528
333.193
310.93
310.18
318.187
327.661
319.397
308.937
306.021
334.904
338.204
339.692
344.484
341.259
336.125
327.346
315.26
313.496
321.608
324.927
322.496
320.614
316.308
345.116
338.067
334.187
332.808
332.062
332.006
330.528
346.286
341.444
335.073
331.002
330.887
331.061
328.537
336.527
346.646
347.301
345.199
344.221
342.636
331.626
336.14
342.421
341.055
340.186
339.401
341.1
334.63
311.472
310.502
318.53
327.853
320.687
312.816
306.9
335.236
338.594
340.13
344.741
341.354
336.821
327.837
316.126
313.907
321.898
325.265
322.847
321.304
316.453
345.632
338.408
334.539
333.172
332.627
332.681
329.689
346.422
341.498
335.119
330.77
330.844
331.351
328.8
336.971
356.658
337.794
324.36
320.037
318.071
317.194
344.295
350.227
357.877
347.839
346.12
343.026
342.124
356.355
355.343
355.379
353.898
348.439
341.542
339.128
340.851
348.016
349.687
350.383
348.572
344
338.199
351.28
353.092
355.036
355.181
356.647
357.571
357.686
347.772
353.954
355.399
360.03
357.751
351.576
344.397
325.202
331.928
334.947
341.992
345.855
347.5
331.351
354.112
343.98
340.516
334.315
330.849
328.524
326.728
350.067
358.037
351.56
347.62
346.061
343.287
342.521
355.589
355.845
355.015
352.872
350.858
343.421
339.591
341.14
348.299
349.802
350.425
348.544
343.969
338.684
351.291
352.454
352.667
352.297
352.503
355.964
361.897
344.606
348.495
351.537
355.481
354.994
357.889
355.419
329.009
328.665
330.807
335.762
339.531
342.272
358.805
360.589
346.764
347.957
343.223
340.617
339.455
339.458
355.213
358.446
353.03
350.063
348.597
347.248
347.191
356.052
357.498
355.899
352.856
352.077
347.889
340.986
342.172
348.551
349.951
350.547
348.484
344.161
339.744
351.168
351.949
352.512
352.31
352.338
350.938
352.604
347.696
348.919
351.384
352.972
353.347
354.297
357.303
339.066
335.169
335.081
337.483
339.654
341.614
349.663
359.245
349.527
351.497
348.671
348.427
349.006
348.658
359.84
360.994
354.352
352.25
351.481
351.165
350.906
355.998
357.955
355.062
352.24
351.593
350.997
344.609
342.943
348.988
350.085
350.65
348.529
344.36
340.586
351.438
352.28
352.57
352.412
352.162
350.929
351.205
351.809
350.845
351.251
352.608
352.989
354.249
355.262
349.408
342.604
342.079
342.434
344.568
344.948
346.652
354.342
350.34
352.087
350.684
350.559
350.295
349.611
360.988
362.431
355.4
352.548
351.918
351.92
350.943
354.516
357.901
354.773
352.408
351.548
351
349.467
344.458
349.524
350.459
350.896
348.729
344.917
341.024
351.359
352.717
352.823
352.619
352.122
351.718
351.352
353.745
351.72
351.771
352.638
352.987
353.801
354.499
351.109
347.566
344.096
343.768
344.495
347.038
348.387
352.703
352.408
352.496
351.602
350.444
350.293
349.152
360.956
362.433
355.786
353.21
351.898
351.697
350.803
352.39
355.829
354.662
352.589
351.452
350.773
349.886
345.323
349.826
350.563
351.057
348.901
346.606
341.657
350.555
352.675
352.793
352.675
352.079
351.852
350.695
354.417
353.878
353.805
353.939
354.023
354.32
355.062
350.216
349.778
349.816
348.184
347.249
348.698
350.593
352.205
356.116
353.988
348.315
346.7
346.201
345.238
358.459
360.108
356.918
353.977
351.905
350.476
350.014
352.521
354.743
354.662
352.944
351.544
351.009
349.27
346.348
349.585
350.148
350.995
349.145
348.458
344.154
350.545
352.022
351.996
352.079
352.044
352.657
351.427
354.993
354.645
355.189
355.768
355.405
356.542
357.926
350.338
349.546
350.021
351.8
352.07
354.324
356.453
317.003
316.462
315.853
317.365
325.657
333.489
341.104
340.186
340.042
340.282
340.243
341.183
344.968
349.021
339.042
339.554
347.925
356.84
356.912
357.786
358.524
341.505
352.185
355.763
358.537
358.709
358.971
358.843
356.47
356.272
356.427
357.634
358.214
359.212
360.341
344.431
344.885
344.796
345.253
345.804
347.392
350.555
330.438
331.472
330.737
331.814
333.435
337.306
344.388
326.802
325.581
325.921
327.042
329.869
335.082
341.596
341.394
341.073
341.219
341.555
342.287
343.763
347.848
339.243
339.384
351.4
356.879
356.628
356.803
357.335
340.691
344
350.529
355.288
357.056
357.025
356.694
360.637
360.05
359.863
359.671
359.445
359.263
359.091
355.528
355.111
354.94
354.104
353.615
353.131
353.692
347.417
349.386
348.593
349.707
349.506
348.226
349.612
341.728
341.461
341.326
340.754
340.003
340.499
340.683
347.375
347.204
347.194
346.81
346.847
347.236
349.154
340.122
339.827
343.859
356.045
356.98
356.77
357.288
340.696
342.53
343.731
347.234
349.407
351.325
352.746
355.105
355.497
355.9
356.653
358.881
361.317
360.792
358.738
359.115
359.472
361.182
361.664
361.384
360.332
360.197
361.086
361.911
362.36
362.623
362.882
357.278
349.793
350.004
350.118
350.248
350.069
349.98
342.293
350.612
350.522
350.597
350.901
350.948
351.011
351.039
341.075
340.399
340.717
344.773
354.848
356.471
356.462
340.841
341.19
341.699
342.304
343.916
346.544
347.757
351.719
351.863
352.717
353.471
354.734
357.409
358.857
355.821
356.372
357.098
357.794
359.629
360.587
362.643
349.412
352.228
353.542
356.136
358.224
362.759
364.341
349.838
349.454
349.361
349.637
350.093
351.483
346.488
350.709
350.614
349.922
350.01
349.706
349.582
349.828
346.601
344.687
342.177
342.483
344.291
348.259
354.319
341.18
341.192
341.137
340.919
340.883
341.146
342.098
350.932
351.156
351.489
351.829
352.229
353.285
354.563
355.121
355.63
356.146
356.357
356.956
357.669
359.606
350.47
351.815
352.897
355.062
357.126
361.396
365
348.592
348.498
348.903
349.396
350.074
351.434
350.046
350.302
350.218
349.863
349.749
349.373
349.129
349.08
349.471
349.036
348.238
346.322
344.958
344.391
345.044
341.932
341.711
341.57
341.217
340.763
339.838
339.203
349.173
349.198
349.504
350.457
350.973
350.995
351.314
355.738
356.167
356.494
356.671
357.014
357.674
358.31
351.755
352.207
353.614
355.317
357.517
361.044
364.377
345.362
345.812
346.389
347.206
349.002
350.596
352.333
349.37
349.097
349.02
348.989
348.965
348.883
348.392
349.184
349.023
348.845
348.508
347.909
346.656
343.543
343.98
343.437
343.141
342.312
341.673
339.986
337.889
351.745
352.847
353.735
355.861
356.093
355.26
353.04
359.034
359.411
360.018
360.757
360.926
360.94
359.45
357.154
357.808
358.877
361.708
362.668
363.295
363.045
345.757
339.951
331.069
325.479
325.543
327.263
333.009
347.13
345.174
342.993
341.444
341.579
342.412
342.988
357.001
356.799
357.165
358.07
358.535
358.412
357.55
355.749
356.578
356.999
357.27
356.65
352.836
343.265
357.58
357.382
357.977
358.659
358.483
354.409
350.797
348.273
342.669
340.841
341.027
341.736
342.173
342.671
342.843
331.163
317.701
315.417
316.062
319.939
323.452
348.833
344.17
339.298
337.944
338.075
341.942
346.517
347.34
346.415
344.329
343.902
344.543
345.261
345.891
353.977
354.027
354.539
356.258
357.037
357.127
356.87
353.278
353.514
353.25
352.551
350.463
347.075
342.739
356.917
356.902
357.403
357.795
354.631
351.544
350.708
348.17
344.239
343.5
343.773
344.515
344.461
344.546
343.305
337.164
330.119
328.707
329.218
329.974
331.051
344.794
345.362
348.322
348.134
348.723
350.571
355.041
354.312
353.231
351.831
351.769
351.757
352.517
352.987
355.443
355.75
356.113
356.963
357.607
357.91
356.504
350.285
350.404
349.949
348.197
346.907
344.493
342.674
356.271
357.032
356.936
353.614
350.959
350.516
350.497
348.493
347.709
347.012
347.435
347.326
347.197
347.554
344.533
346.637
345.059
343.192
340.733
339.504
340.17
344.702
355.422
356.973
356.601
356.666
355.159
356.483
359.661
357.492
357.379
357.135
356.804
356.924
357.428
357.084
356.679
356.525
356.523
355.72
354.898
354.805
345.916
345.026
344.452
344.372
343.977
343.06
342.798
356.404
356.328
351.913
350.013
349.799
350.1
350.641
352.825
352.199
351.926
351.691
351.67
351.853
352.012
342.73
351.058
352.429
352.345
352.18
351.429
350.304
352.215
356.482
355.336
355.422
354.415
355.752
357.158
360.891
357.961
358.422
359.024
358.962
359.273
359.967
352.723
351.83
351.924
352.498
352.692
353.747
354.207
341.501
341.314
342.263
342.703
342.886
343.41
343.771
353.142
349.79
348.935
348.951
349.884
350.316
350.962
355.459
355.598
354.94
354.323
354.211
354.357
354.394
342.922
351.629
351.956
351.999
351.612
351.029
351.493
353.555
355.931
354.062
352.337
350.969
352.439
352.34
356.684
356.078
355.881
355.889
356.331
357.26
357.596
347.781
347.362
348.499
348.966
349.748
350.778
351.274
337.561
339.424
340.274
341.823
342.525
343.761
344.504
347.275
346.983
348.219
348.678
349.668
350.075
350.471
353.305
354.117
354.472
354.58
354.743
354.785
354.697
348.494
350.585
351.656
351.879
351.524
350.334
349.909
352.734
353.351
351.704
349.176
348.348
349.262
350.867
350.765
351.092
350.905
351.049
351.953
353.356
354.415
341.403
344.595
345.762
347.636
348.536
349.482
349.883
335.411
337.967
340.515
341.621
343.321
344.163
345.376
343.768
346.893
347.964
348.824
349.243
349.761
350.27
351.504
352.946
354.517
355.217
355.373
355.341
355.165
350.626
350.459
351.768
351.967
351.465
350.855
350.474
365.517
361.239
362.342
360.057
357.829
355.44
349.731
366.026
358.791
358.083
356.118
353.486
352.634
349.649
363.55
360.891
359.61
359.083
358.535
357.818
357.569
356.865
356.244
355.804
355.231
354.968
354.931
355.249
359.897
359.879
359.085
358.563
358.059
357.946
357.918
361.994
362.739
360.151
358.852
356.79
353.054
350.511
368.619
369.388
366.214
362.268
359.054
355.466
348.187
362.647
356.636
357.919
356.333
356.544
357.335
352.957
359.394
352.495
349.06
349.565
349.763
349.305
348.259
362.028
359.952
356.079
355.153
354.755
354.463
354.266
356.945
355.371
354.028
352.94
352.35
352.269
352.632
357.397
357.718
357.216
356.641
356.519
356.724
356.863
354.986
357.919
356.902
355.698
353.973
351.656
350.166
365.305
365.507
363.372
361.866
357.141
354.273
346.474
357.131
350.924
353.542
353.123
356.145
357.93
347.308
347.111
343.68
345.767
349.066
353.308
354.829
354.638
358.503
357.672
355.546
354.217
354.283
354.506
354.897
356.897
355.167
353.043
351.178
350.238
349.864
349.841
355.285
356.119
355.774
355.415
355.286
355.327
355.923
348.699
351.342
352.015
351.895
351.728
350.675
349.679
359.996
358.476
357.529
358.504
354.454
346.931
340.928
353.273
346.703
348.621
346.43
352.371
350.764
336.927
342.233
340.712
346.965
357.604
359.302
359.967
360.312
355.033
353.791
353.531
354.102
355.318
356.122
356.531
356.476
354.446
351.6
349.526
347.547
346.695
346.423
353.147
352.948
352.641
352.41
352.717
353.926
355.582
344.343
343.924
347.344
350.134
352.595
352.383
352.434
345.295
352.373
349.346
352.38
343.139
334.792
331.564
347.425
339.937
343.442
342.9
348.314
344.482
330.641
336.095
339.69
354.809
361.539
360.838
361.467
361.4
352.956
351.686
353.288
355.769
355.888
354.1
352.877
355.197
349.672
346.696
344.688
342.918
342.32
342.173
351.93
350.518
351.241
351.839
353.177
355.198
355.864
335.249
338.016
342.816
348.874
353.124
354.303
355.036
338.707
341.309
335.291
340.316
329.608
327.281
325.451
343.837
336.741
339.335
336.674
342.961
340.629
328.718
332.838
339.873
361.272
361.44
359.932
357.611
356.794
349.505
350.206
351.26
353.521
353.104
349.279
348.048
352.593
348.483
345.553
342.67
339.647
337.578
337.065
349.506
348.978
347.466
348.762
350.527
350.732
348.136
330.949
335.66
340.489
347.307
351.583
354.981
353.02
337.582
337.862
327.814
333.1
325.443
326.481
326.475
335.256
331.674
336.428
333.164
338.508
336.037
326.52
330.157
339.008
361.349
358.652
354.281
352.647
352.678
346.957
346.564
348.462
347.72
342.545
340.468
340.274
349.888
341.361
338.191
334.625
331.703
330.652
330.865
347.907
344.858
346.123
346.254
346.158
342.271
341.611
327.486
332.342
334.415
342.466
347.057
352.782
351.532
336.327
334.945
325.029
330.155
324.076
326.089
329.547
328.292
327.261
328.915
329.737
332.067
332.233
323.997
324.818
332.418
342.237
355.081
347.176
341.629
330.371
337.798
338.768
338.568
341.605
340.587
336.8
332.42
331.69
335.118
334.803
333.923
331.669
329.55
323.49
336.47
335.127
333.528
334.898
335.538
333.859
328.989
324.189
324.784
328.262
329.987
329.483
337.994
338.059
334.399
331.19
317.317
322.136
324.887
325.603
320.045
304.623
302.361
304.817
300.745
310.576
301.743
302.29
317.787
325.741
331.157
338.626
341.242
334.646
319.712
334.407
333.514
332.034
330.193
330.563
327.838
331.59
325.596
324.41
325.852
326.718
324.821
324.462
323.019
333.318
332.238
329.91
330.048
330.932
331.105
329.617
312.555
316.679
318.627
319.287
320.068
320.041
319.117
303.125
294.122
302.609
302.187
304.476
304.948
304.711
294.582
294.636
294.524
294.585
294.519
294.712
295.644
313.722
314.633
313.827
313.568
314.035
314.209
311.926
332.244
331.759
330.508
329.206
329.13
325.444
328.864
317.411
316.411
318.236
319.753
320.748
320.892
320.374
326.589
325.442
323.906
323.992
324.302
325.767
326.29
307.13
306.967
308.241
310.036
312.83
314.647
310.083
287.487
286.602
287.562
286.793
286.511
285.508
287.128
287.162
287.184
287.389
288.043
287.682
287.764
287.995
310.491
310.56
309.728
308.792
306.586
306.703
305.481
329.153
328.438
327.217
326.414
325.842
322.379
326.346
312.905
312.13
314.564
315.959
317.272
316.564
315.596
320.29
319.632
319.192
319.23
319.509
321.165
320.98
302.948
302.739
304.995
305.824
305.726
306.591
306.52
278.277
279.146
278.229
278.823
277.796
278.265
278.621
281.42
281.445
281.562
281.751
281.536
281.537
281.008
304.15
304.505
303.959
304.076
303.912
304.303
303.463
320.586
320.338
319.673
320.122
318.341
315.375
320.4
307.809
307.372
309.423
310.526
311.482
310.783
308.757
318.862
318.112
317.658
317.388
318.095
319.524
319.571
301.085
300.859
301.264
303.938
303.205
304.221
301.11
277.061
277.065
277.01
277.187
276.737
277.076
276.915
280.277
280.22
280.244
280.41
280.184
280.409
280.206
303.06
303.14
302.834
302.853
302.766
302.747
302.645
318.968
319.238
318.518
319.355
317.39
314.952
319.478
305.285
305.086
306.838
307.962
308.866
308.404
306.203
319.624
318.794
318.14
317.375
318.109
319.621
320.364
301.92
302.07
302.186
303.467
303.011
303.366
302.278
278.024
278.152
278.232
278.824
278.32
278.851
278.37
292.647
292.648
292.65
292.09
292.651
292.09
292.424
305.005
305.021
304.936
304.912
304.996
304.923
304.866
312.192
312.977
311.491
312.309
310.903
309.633
311.707
290.332
290.84
291.604
292.952
293.869
293.691
291.151
313.292
312.384
311.347
310.798
310.904
312.846
313.713
305.41
305.267
305.295
305.401
305.4
305.425
305.324
292.674
292.112
292.26
292.108
292.109
292.101
292.103
347.598
354.186
359.418
361.467
365.486
363.951
364.916
351.596
355.568
357.44
359.268
361.861
360.923
363.844
358.775
359.552
359.724
360.82
361.365
361.413
362.835
358.48
358.232
358.152
358.384
358.987
360.25
361.161
360.515
360.8
361.382
361.544
362.183
362.92
365.127
353.409
354.652
357.707
358.832
360.532
360.645
365.344
350.567
353.069
356.812
359.953
363.378
363.774
365.436
347.141
352.031
356.29
357.939
361.477
360.243
364.505
349.425
351.525
352.43
352.745
354.041
356.288
364.129
357.397
357.333
357.334
357.987
358.675
359.99
362.575
356.586
356.362
356.403
356.775
357.769
359.508
360.93
358.605
358.688
359.074
359.348
359.918
361.519
363.607
355.377
355.862
356.109
356.087
355.457
355.983
362.473
353.772
354.895
357.217
358.582
360.663
360.356
364.95
340.278
345.907
350.466
350.532
355.391
355.566
357.948
350.564
351.136
351.903
350.084
349.636
349.516
352.616
357.209
356.73
356.732
356.724
356.869
358.531
360.699
353.042
353.585
353.983
354.803
356.501
358.747
360.494
360.235
359.625
359.019
358.738
358.68
360.494
361.203
360.445
360.88
359.633
357.586
354.126
352.368
352.747
354.741
354.418
354.321
354.397
357.044
355.048
359.229
337.531
338.254
343.458
342.984
349.318
346.592
357.017
353.384
353.821
353.588
350.721
348.415
345.127
347.041
356.449
355.828
355.097
354.804
355.555
356.567
356.792
349.366
350.389
351.75
352.897
354.315
357.659
359.723
361.321
361.12
359.979
359.062
358.3
358.251
357.705
362.519
363.073
363.264
362.857
357.297
351.57
348.032
356.923
351.189
350.237
349.205
353.208
350.092
357.33
333.467
331.707
337.936
335.162
343.323
342.735
354.022
351.929
354.741
355.872
349.436
348.164
343.199
344.505
356.029
356.155
355.282
353.892
353.533
353.624
355.361
344.004
345.048
347.455
350.267
351.766
354.122
358.611
357.373
359.548
361.046
360.137
357.255
355.567
355.08
360.969
362.27
363.731
364.6
361.651
352.654
343.175
356.937
350.086
346.294
344.643
349.729
347.072
353.402
333.536
329.232
335.428
332.098
339.814
340.12
348.457
349.77
352.064
356.999
348.267
346.048
338.953
337.204
346.697
350.447
352.41
352.037
352.115
352.24
352.117
338.048
338.171
340.104
346.164
350.036
352.922
356.15
350.97
352.971
358.989
358.664
355.929
354.745
353.299
359.413
360.222
362.417
364.393
363.23
354.54
338.75
350.592
343.737
344.075
340.03
346.788
341.322
347.814
334.631
328.727
334.388
330.849
338.188
337.086
338.774
349.113
351.223
356.098
345.683
343.511
336.089
333.21
341.043
342.671
346.537
348.435
348.243
348.45
350.056
334.127
334.196
334.692
336.515
340.904
345.442
354.134
349.87
348.73
349.977
354.273
353.985
351.411
349.131
359.203
359.979
362.372
364.722
363.379
355.413
336.736
344.94
340.648
339.452
336.41
341.576
338.326
344.488
330.298
327.063
327.171
328.345
333.242
323.263
330.878
336.177
331.184
331.887
333.65
330.574
331.364
328.952
327.152
333.401
335.218
337.065
337.919
340.497
338.078
327.864
333.015
333.787
334.961
337.341
335.652
334.941
339.716
344.889
345.988
344.814
340.753
340.139
341.217
347.83
348.817
350.048
349.033
343.51
338.406
332.075
338.28
334.897
334.252
333.475
334.117
335.153
339.551
303.394
305.05
301.749
302.938
302.145
303.337
303.363
320.954
319.695
319.884
320.776
320.218
319.119
314.479
326.405
328.631
328.39
330.022
329.081
330.403
330.634
326.663
329.068
328.74
328.049
326.836
328.835
329.449
334.294
334.531
332.799
332.384
333.471
336.443
337.045
322.599
324.028
323.59
324.431
324.232
324.78
324.091
315.28
313.351
311.085
308.561
313.045
303.158
315.218
289.71
289.134
288.958
288.14
287.976
288.187
288.174
310.917
310.82
311.301
311.75
307.635
310.022
308.579
323.124
325.078
325.392
322.956
326.48
327.744
326.185
321.69
322.931
321.927
320.005
318.252
318.353
318.576
328.933
330.89
329.523
329.51
329.949
327.332
327.616
316.579
313.512
313.603
315.616
313.91
314.754
314.278
295.897
294.58
295.265
297.95
296.276
295.307
297.319
281.138
281.009
280.693
281.074
280.627
280.596
280.714
307.321
307.098
307.113
305.79
303.498
303.155
305.484
314.804
317.15
318.176
317.312
318.724
319.677
320.502
316.258
316.963
315.856
314.232
313.066
313.139
313.116
322.496
322.857
321.661
321.73
322.821
323.147
323.22
306.543
306.506
306.349
306.582
305.203
308.506
308.444
282.884
284.684
285.054
285.139
282.386
283.908
283.139
278.289
278.451
278.018
278.435
278.179
278.157
278.549
301.541
304.389
303.343
303.891
301.437
301.226
304.021
312.908
313.456
313.801
315.409
317.567
318.43
317.947
310.043
310.725
309.902
308.624
307.713
307.735
307.229
318.256
319.563
317.803
318.139
318.888
317.206
318.1
303.722
303.319
303.438
303.575
301.547
303.158
303.262
280.133
280.095
280.188
280.396
280
279.703
280.521
279.165
279.424
278.923
279.646
279.033
279.022
279.715
302.292
303.502
303.137
303.476
302.252
302.13
303.234
313.885
313.43
313.519
315.663
318.228
318.925
317.531
308.192
308.758
307.958
306.679
305.69
305.608
305.208
319.018
320.458
318.64
318.252
318.726
316.975
318.08
302.712
302.723
302.804
302.931
301.907