/*--------------------------------*- C++ -*----------------------------------*\
  =========                 |
  \\      /  F ield         | OpenFOAM: The Open Source CFD Toolbox
   \\    /   O peration     | Website:  https://openfoam.org
    \\  /    A nd           | Version:  6
     \\/     M anipulation  |
\*---------------------------------------------------------------------------*/
FoamFile
{
    version     2.0;
    format      ascii;
    class       volVectorField;
    location    "0.01";
    object      U;
}
// * * * * * * * * * * * * * * * * * * * * * * * * * * * * * * * * * * * * * //

dimensions      [0 1 -1 0 0 0 0];

internalField   nonuniform List<vector> 
3773
(
(41.3119 -0.0250701 0.50581)
(41.1706 -0.00828471 0.500571)
(41.2204 0.00304461 0.497595)
(41.2033 0.013631 0.496578)
(41.1547 0.00744843 0.501077)
(41.19 0.00462195 0.512904)
(41.295 0.0244824 0.516557)
(10.8639 0.0209997 -0.0851321)
(10.8029 -0.0463729 -0.0871347)
(10.8376 -0.0277804 -0.0715686)
(10.822 0.011158 -0.072821)
(10.8005 0.0196234 -0.0696716)
(10.8221 0.0302895 -0.0510065)
(10.8544 -0.0177333 -0.048404)
(4.37142 0.035095 0.0315411)
(4.36281 -0.00389985 0.0390706)
(4.36689 -0.0241237 0.0492633)
(4.36673 0.00490018 0.047538)
(4.36729 0.0104796 0.0465128)
(4.36363 0.00440795 0.0558669)
(4.37034 -0.0153847 0.0459181)
(-5.08573e-05 0.00579784 0.0498398)
(-5.04374e-05 0.0114459 0.0508598)
(-4.95596e-05 0.0119914 0.0492608)
(-4.36616e-05 -0.0112933 0.0480747)
(-3.76703e-05 -0.0241251 0.0461657)
(-7.03689e-05 -0.0233039 0.0405994)
(-9.80299e-05 -0.0156351 0.0436175)
(-4.37231 0.0268778 0.0346838)
(-4.36369 -0.0132001 0.036153)
(-4.36905 -0.0271736 0.0411246)
(-4.3691 0.00432187 0.0436012)
(-4.36772 0.0105329 0.0413943)
(-4.36739 0.00535929 0.0507177)
(-4.37115 -0.0129672 0.041113)
(-10.8596 0.0242051 -0.0944538)
(-10.8413 -0.040234 -0.0880514)
(-10.8378 -0.0215585 -0.0710599)
(-10.8151 0.0134609 -0.0740409)
(-10.8027 0.0232809 -0.0706828)
(-10.8297 0.0390899 -0.0514968)
(-10.8581 -0.0132642 -0.0492892)
(-41.294 -0.0135199 0.511885)
(-41.1538 0.000654 0.505787)
(-41.2316 0.0050913 0.512603)
(-41.2042 0.0118939 0.513783)
(-41.1694 0.00329175 0.508656)
(-41.209 0.00358602 0.520946)
(-41.2947 0.0224527 0.529179)
(35.6369 -0.0377563 1.00293)
(34.8299 0.00826674 1.00475)
(34.8152 0.0146783 1.00512)
(34.8515 0.0116242 1.00201)
(34.8514 0.00139245 0.988346)
(34.9696 -0.00803554 0.980914)
(35.7846 0.0316541 0.985087)
(8.95193 0.00392421 -0.254942)
(9.06317 -0.0569289 -0.258811)
(9.07407 -0.0359453 -0.238606)
(9.06421 0.0161702 -0.243727)
(9.0484 0.0378231 -0.24743)
(9.07295 0.0485737 -0.223163)
(8.97671 3.877e-05 -0.22517)
(3.83966 0.0442054 -0.0193408)
(3.82488 -0.0036381 -0.0118266)
(3.83357 -0.029814 0.0128533)
(3.83083 0.00753784 0.00693158)
(3.82855 0.0244111 0.00334047)
(3.83688 0.0151016 0.0202065)
(3.83992 -0.0198286 -0.000554737)
(-3.94826e-05 0.00795453 0.0261488)
(-3.958e-05 0.0162166 0.0241594)
(-3.88213e-05 0.0166508 0.0214573)
(-3.24845e-05 -0.0145727 0.0207213)
(-3.30442e-05 -0.0321825 0.0176964)
(-5.85832e-05 -0.0284623 0.00873591)
(-8.63996e-05 -0.0175858 0.0160539)
(-3.84354 0.0333552 -0.0192471)
(-3.83153 -0.0190384 -0.0176113)
(-3.83356 -0.0342006 -0.00419204)
(-3.83163 0.00731807 0.000343176)
(-3.82809 0.0232878 -0.00722841)
(-3.83493 0.0153003 0.00896437)
(-3.84352 -0.0169156 -0.00725284)
(-8.97439 0.0157436 -0.271376)
(-8.94848 -0.0476649 -0.255313)
(-9.07287 -0.034146 -0.245108)
(-9.04299 0.0137377 -0.256055)
(-9.05932 0.0376377 -0.246588)
(-9.08402 0.0541989 -0.217127)
(-8.97727 0.00133924 -0.225763)
(-35.9811 -0.0213156 0.992719)
(-35.3681 0.0183021 0.992939)
(-35.2754 0.0177796 0.999803)
(-35.1587 0.0116919 0.981511)
(-35.0767 -0.00378455 0.99817)
(-35.1201 -0.0122756 0.994134)
(-36.0117 0.0263237 0.994132)
(29.9136 -0.0686619 1.43783)
(29.1206 0.011338 1.41737)
(29.0136 0.0280318 1.39479)
(29.0332 0.025328 1.39028)
(29.2289 0.0157623 1.3917)
(29.4272 -0.000857873 1.4119)
(30.0076 0.0610982 1.43125)
(8.61184 -0.011778 -0.14238)
(8.79758 -0.0450056 -0.170665)
(8.75603 -0.0250108 -0.152343)
(8.74341 0.0136983 -0.161387)
(8.68105 0.0371475 -0.158095)
(8.71245 0.0426347 -0.147666)
(8.61451 0.0107121 -0.156913)
(3.81602 0.0431528 0.00407673)
(3.77998 -0.00136527 -0.00596766)
(3.8051 -0.0276736 0.0192533)
(3.80525 0.0043162 0.00963211)
(3.79682 0.0265449 0.00297942)
(3.77191 0.0172269 0.0122161)
(3.81184 -0.023391 -0.00743166)
(-2.9949e-05 0.00865264 0.0347379)
(-3.91645e-05 0.0137253 0.0300379)
(-3.51682e-05 0.0143649 0.0225206)
(-2.7735e-05 -0.01484 0.022092)
(-3.27624e-05 -0.0337452 0.0212516)
(-5.58367e-05 -0.0267184 0.0198598)
(-8.53209e-05 -0.0167413 0.0291974)
(-3.8155 0.0326517 -0.000764996)
(-3.78271 -0.0193206 -0.00859292)
(-3.78383 -0.0332893 0.00598261)
(-3.79482 0.0053593 0.00521555)
(-3.7998 0.0236226 -0.00500445)
(-3.78799 0.0170653 0.00280608)
(-3.81303 -0.0188573 -0.00917585)
(-8.62953 0.000378446 -0.153643)
(-8.68711 -0.0373911 -0.158914)
(-8.72916 -0.0288683 -0.154733)
(-8.63399 0.00703267 -0.151477)
(-8.72179 0.0365601 -0.165931)
(-8.75393 0.0425263 -0.148642)
(-8.62798 0.00614939 -0.161297)
(-30.2395 -0.0472373 1.46627)
(-29.6132 0.0184448 1.44494)
(-29.491 0.0103162 1.43017)
(-29.5389 0.00170816 1.44135)
(-29.3423 -0.0121219 1.41391)
(-29.4801 -0.0221582 1.43729)
(-30.2232 0.0446726 1.47002)
(26.9868 -0.0865885 1.12853)
(26.7499 0.0114064 1.12619)
(26.6031 0.0298985 1.11602)
(26.6289 0.0298644 1.10532)
(26.6415 0.0232072 1.11456)
(26.7192 0.00843496 1.13157)
(27.0152 0.0806812 1.13565)
(8.52216 -0.00971423 -0.126962)
(8.79541 -0.033547 -0.157302)
(8.75617 -0.0247331 -0.135134)
(8.7423 0.00491024 -0.147151)
(8.6062 0.0310305 -0.137535)
(8.62266 0.0365754 -0.133527)
(8.52162 0.0107272 -0.141247)
(3.81042 0.0397313 0.00293239)
(3.77695 0.00150128 -0.0138582)
(3.787 -0.0250325 0.0174137)
(3.78718 0.000838579 0.00748978)
(3.79511 0.0270411 0.00107909)
(3.76464 0.0155259 0.00308824)
(3.80736 -0.0254222 -0.00778672)
(-2.15564e-05 0.00989443 0.0445298)
(-3.59727e-05 0.0128728 0.0390769)
(-3.16999e-05 0.0111646 0.0282919)
(-2.42607e-05 -0.0147368 0.0270623)
(-3.37991e-05 -0.032546 0.029442)
(-5.45315e-05 -0.0250092 0.0371175)
(-8.57158e-05 -0.0162106 0.0431724)
(-3.80999 0.030115 -0.00237339)
(-3.76278 -0.0166644 -0.0137278)
(-3.79556 -0.0296495 0.0104719)
(-3.81255 0.00339918 0.00142121)
(-3.7951 0.0253541 -0.00167054)
(-3.76988 0.0176885 0.00454593)
(-3.80722 -0.021077 -0.00877842)
(-8.53198 -0.00350815 -0.138655)
(-8.62503 -0.0298901 -0.144569)
(-8.64343 -0.0255727 -0.13933)
(-8.55641 0.00456318 -0.142504)
(-8.64591 0.0385131 -0.148267)
(-8.68992 0.0349857 -0.143058)
(-8.53209 0.0034043 -0.146488)
(-27.1101 -0.0684881 1.16862)
(-26.7759 0.0112516 1.16947)
(-26.748 0.00494952 1.148)
(-26.5666 -0.00907343 1.12825)
(-26.6898 -0.0168113 1.1357)
(-26.807 -0.0200232 1.14917)
(-27.11 0.0633401 1.17581)
(26.0911 -0.087741 0.780311)
(26.1028 0.011739 0.815294)
(26.019 0.0290195 0.793842)
(26.0045 0.0275025 0.782997)
(25.9095 0.0285007 0.766711)
(25.8963 0.0124912 0.785798)
(26.0913 0.0859971 0.780393)
(8.50886 -0.00382978 -0.0657851)
(8.72309 -0.0260783 -0.0792556)
(8.69796 -0.022931 -0.0685926)
(8.69576 -1.80926e-05 -0.0712672)
(8.62149 0.0288049 -0.0702597)
(8.62292 0.0320924 -0.0685469)
(8.51014 0.00596268 -0.0764518)
(3.81307 0.0356922 0.0163209)
(3.77354 0.00406166 -0.00225116)
(3.76833 -0.0213544 0.0264539)
(3.77979 -0.00201505 0.0157849)
(3.77521 0.0273272 0.0151377)
(3.75443 0.0133918 0.0153795)
(3.81174 -0.0260343 0.00861806)
(-1.63644e-05 0.0082861 0.0537365)
(-3.20399e-05 0.00927815 0.0458405)
(-2.62939e-05 0.00728653 0.0353733)
(-1.96032e-05 -0.0133965 0.0339716)
(-3.71026e-05 -0.0273099 0.0386128)
(-5.54491e-05 -0.0218781 0.0487226)
(-8.78672e-05 -0.0141765 0.0518982)
(-3.8114 0.0271486 0.0115703)
(-3.76316 -0.0130736 0.00068527)
(-3.7841 -0.0272532 0.0290032)
(-3.79542 0.0013012 0.0179485)
(-3.78838 0.0262311 0.0126669)
(-3.76456 0.0149204 0.0183706)
(-3.81155 -0.023727 0.00730461)
(-8.51746 -0.0014849 -0.0796468)
(-8.64167 -0.0242256 -0.0923365)
(-8.63 -0.0227849 -0.0721014)
(-8.61713 0.00392288 -0.0806663)
(-8.63311 0.0347875 -0.0778366)
(-8.65553 0.0305754 -0.0793212)
(-8.51789 -0.000844646 -0.0818181)
(-26.1153 -0.0737161 0.805611)
(-25.9513 0.00855469 0.820429)
(-25.9512 0.00366917 0.802971)
(-25.7863 -0.0145731 0.791464)
(-25.9623 -0.0204571 0.777134)
(-25.982 -0.0140318 0.805881)
(-26.1159 0.0719942 0.812716)
(25.9553 -0.0791042 0.43158)
(25.927 0.0184036 0.467938)
(25.8104 0.0259869 0.47387)
(25.9082 0.0192423 0.449465)
(25.8471 0.0233445 0.425533)
(25.7908 0.0142916 0.441667)
(25.9484 0.085025 0.429271)
(8.60647 0.00050548 -0.0113794)
(8.7556 -0.0244251 -0.0132733)
(8.76164 -0.0188624 0.00683918)
(8.7825 -0.000670742 0.00395993)
(8.75029 0.0214043 0.0047334)
(8.74416 0.0276959 0.0062916)
(8.59193 0.000279568 -0.00124735)
(3.82456 0.0313694 0.0519137)
(3.77122 0.0060512 0.0339962)
(3.77195 -0.0173818 0.0544567)
(3.76555 -0.0034568 0.0490588)
(3.76164 0.0261426 0.0521184)
(3.75948 0.0113938 0.0524442)
(3.81914 -0.0276094 0.0464961)
(-1.49822e-05 0.00501356 0.0573569)
(-3.408e-05 0.00429591 0.0543868)
(-2.37813e-05 0.00541762 0.0470541)
(-1.90715e-05 -0.0124579 0.0450031)
(-4.32395e-05 -0.025394 0.0485108)
(-5.77254e-05 -0.0209581 0.0506131)
(-9.09592e-05 -0.0123164 0.0566944)
(-3.82105 0.0246736 0.0459925)
(-3.77415 -0.00867264 0.0313265)
(-3.76838 -0.0228128 0.0598544)
(-3.7714 -0.00316367 0.0541509)
(-3.76888 0.0237017 0.0485699)
(-3.77766 0.0123369 0.0527175)
(-3.82056 -0.0253274 0.0476978)
(-8.61065 -0.000626068 -0.0216044)
(-8.73771 -0.0191481 -0.0247289)
(-8.75037 -0.0175451 -0.00179426)
(-8.76395 0.00485848 -0.000612736)
(-8.80201 0.0373598 -0.00423572)
(-8.71319 0.0260019 -0.00267976)
(-8.60248 -0.00476927 -0.0116214)
(-25.9635 -0.0693054 0.450655)
(-25.7625 0.0102824 0.48885)
(-25.8239 -0.000386282 0.45291)
(-25.6672 -0.0174923 0.456403)
(-25.9206 -0.020547 0.441648)
(-25.8291 -0.0109937 0.456665)
(-25.9583 0.0735891 0.449892)
(25.4169 -0.0814846 0.304447)
(25.2432 0.0225618 0.323351)
(25.3236 0.0251912 0.320564)
(25.4541 0.0171363 0.31991)
(25.4291 0.0246187 0.308143)
(25.4198 0.0194055 0.317304)
(25.4237 0.0888666 0.305475)
(8.59162 -0.00131298 -0.00160526)
(8.64889 -0.0214749 0.00358358)
(8.57266 -0.0136472 0.0252314)
(8.6188 0.00220767 0.0198575)
(8.62637 0.025392 0.019736)
(8.63792 0.0319303 0.0275451)
(8.58975 0.000396071 0.0184174)
(3.78523 0.033372 0.0198465)
(3.78848 0.00656276 0.00411822)
(3.77056 -0.01638 0.0181024)
(3.7773 -0.00219111 0.0180532)
(3.76629 0.0346244 0.0183031)
(3.78132 0.0147951 0.0200272)
(3.77159 -0.0346961 0.0160814)
(-1.62776e-05 0.00685636 -0.00204356)
(-4.33934e-05 0.00354667 -0.00113218)
(-2.4233e-05 0.00446928 -0.0055734)
(-2.23997e-05 -0.0141015 -0.00724358)
(-5.43783e-05 -0.0296048 -0.00510109)
(-6.11396e-05 -0.0226253 -0.00721685)
(-9.42901e-05 -0.0147639 -0.00225585)
(-3.7852 0.0249991 0.0127867)
(-3.8379 -0.00982176 -0.00387736)
(-3.78276 -0.0219471 0.0187252)
(-3.77003 -0.00394526 0.0159411)
(-3.85187 0.0322979 0.0151537)
(-3.78714 0.0183821 0.0210505)
(-3.77291 -0.0314788 0.0186045)
(-8.60364 -0.00225767 -0.00546192)
(-8.3167 -0.0192129 0.016997)
(-8.6328 -0.0140789 0.0171836)
(-8.60224 0.00352485 0.0205224)
(-8.41703 0.0356229 0.0217073)
(-8.62393 0.0250246 0.018432)
(-8.59749 -0.00570982 0.00679615)
(-25.4457 -0.0674547 0.317252)
(-25.3071 0.00560557 0.344031)
(-25.4304 -0.00931317 0.319472)
(-25.343 -0.0187469 0.318921)
(-25.2604 -0.0244716 0.326949)
(-25.433 -0.0128266 0.315379)
(-25.4352 0.0799943 0.312675)
(38.8526 -23.2974 -9.45669)
(38.9304 -14.5021 -35.748)
(39.2004 -13.8223 -43.7946)
(39.2465 -2.84824 -46.279)
(39.0839 8.33406 -47.3381)
(38.6355 14.2691 -37.5874)
(38.5714 23.0154 -9.53174)
(10.5562 -20.8345 -12.4042)
(10.55 -14.1349 -31.092)
(10.4703 -8.64627 -32.9248)
(10.5577 -0.713598 -35.0804)
(10.5553 7.60229 -32.1371)
(10.4858 11.0987 -26.4547)
(10.5024 20.2424 -12.2092)
(3.79132 -13.3654 0.35832)
(3.85186 -8.06148 -13.7248)
(3.84571 -4.9009 -16.3328)
(3.86563 -1.88471 -17.8932)
(3.84159 2.53399 -16.3598)
(3.82747 5.49097 -14.0546)
(3.77922 12.9737 -0.829412)
(-0.0123882 -4.10669 3.53851)
(-0.0140661 0.26185 0.978072)
(-0.0170329 1.42 0.549996)
(-0.0190586 0.0788576 1.3199)
(-0.0207501 -1.80319 0.663789)
(-0.0201022 -0.867351 0.634855)
(-0.0205773 3.88745 3.17172)
(-3.58084 -9.38505 -0.00636506)
(-3.69077 -4.01131 -9.11342)
(-3.72793 -3.70139 -12.3992)
(-3.75142 -2.28425 -13.4511)
(-3.73763 0.953414 -12.3572)
(-3.7047 2.69274 -9.7301)
(-3.59951 8.04345 -0.196045)
(-9.95356 -14.1488 -13.7263)
(-10.0779 -0.0329052 -21.6811)
(-10.1898 1.36929 -24.6686)
(-10.268 2.57642 -24.1178)
(-10.2804 4.90366 -22.7283)
(-10.1964 5.09002 -19.9411)
(-10.1779 14.4777 -12.2207)
(-37.1836 -11.7309 -13.4292)
(-37.8723 6.69682 -33.2802)
(-38.0366 17.1991 -36.9129)
(-37.9219 21.2532 -33.3832)
(-37.7022 24.5519 -24.0302)
(-37.7444 19.0892 -20.2434)
(-37.8667 16.5926 -9.80053)
(38.9249 -21.6173 9.19216)
(38.9631 -8.08894 -41.3699)
(39.4976 -15.1316 -57.4382)
(39.5369 -8.43429 -65.1419)
(39.2853 -4.03721 -66.9477)
(38.5998 -5.41322 -46.6148)
(38.6277 22.0024 5.94457)
(10.5997 -21.6618 14.8457)
(10.4221 -1.08562 3.3856)
(10.3109 -3.31336 -24.9344)
(10.5557 -0.193588 -31.2383)
(10.5242 2.20432 -27.3354)
(10.2801 -1.097 -9.78497)
(10.5212 20.0625 11.041)
(3.7975 -12.3131 12.2539)
(3.86194 -3.77609 10.6663)
(3.85366 -4.35197 7.158)
(3.91025 -1.63782 8.29332)
(3.85953 2.21202 6.68487)
(3.83292 1.89826 9.42588)
(3.79202 11.9007 11.1735)
(-0.00639031 -1.99988 14.9063)
(-0.00766342 2.223 12.7193)
(-0.0122263 2.74487 11.5161)
(-0.015071 0.406943 11.7495)
(-0.0140752 -2.80501 10.9997)
(-0.0106583 -2.65679 11.8916)
(-0.0113151 1.79652 13.9658)
(-3.57652 -8.04211 10.3654)
(-3.68694 0.0692252 7.90973)
(-3.75726 -1.78316 6.45979)
(-3.78431 -1.89035 6.30288)
(-3.7447 -0.854985 5.49184)
(-3.66685 -1.11763 6.20553)
(-3.56657 7.34677 10.5754)
(-9.99453 -10.6104 3.67703)
(-9.9796 12.3531 -6.40858)
(-10.1016 11.937 -7.80594)
(-10.2955 6.0463 -9.91549)
(-10.3508 6.02726 -15.4286)
(-10.1363 1.49482 -10.7337)
(-10.1375 14.183 9.20226)
(-39.1762 2.63229 -50.5351)
(-39.1329 18.9199 -64.5077)
(-39.0384 29.3379 -57.0719)
(-38.8041 28.381 -44.5147)
(-38.3403 31.9154 -25.4166)
(-38.0389 21.7815 -15.5883)
(-37.9077 16.7097 8.98848)
(38.895 -18.3558 11.6014)
(39.0344 -3.86484 -50.2413)
(39.8992 -6.62987 -78.9928)
(39.8878 -5.85345 -84.5538)
(39.6375 -5.32672 -81.7508)
(38.886 -13.406 -67.83)
(38.1956 16.188 19.1806)
(10.5075 -21.9849 26.2588)
(9.88543 1.92889 -4.73696)
(10.2185 4.4427 -28.0307)
(10.5761 1.51151 -34.1708)
(10.3101 -4.76078 -31.3623)
(9.93836 -7.09978 -17.2846)
(10.419 18.6418 23.3474)
(3.70456 -11.386 24.8913)
(3.78907 -1.84537 16.445)
(3.82687 -3.43646 12.4357)
(3.91146 -1.07747 10.6955)
(3.82702 1.78548 11.3012)
(3.75337 0.201072 15.1291)
(3.71405 11.5377 24.1086)
(-0.0217124 -0.573248 20.632)
(-0.0192602 2.27796 17.4146)
(-0.0179025 2.55718 14.7423)
(-0.0164976 0.779545 14.4902)
(-0.0123889 -2.40459 14.7145)
(-0.00861027 -2.65822 16.3164)
(-0.00839005 0.384623 19.1237)
(-3.51993 -4.66447 19.8052)
(-3.64004 2.2804 13.0721)
(-3.76818 -0.724346 11.7109)
(-3.79306 -2.95657 10.6721)
(-3.74588 -3.15782 9.25038)
(-3.60462 -2.76185 10.5182)
(-3.49419 3.75832 19.0659)
(-10.1026 1.43509 -17.2173)
(-9.92363 12.1908 -9.53613)
(-9.90997 17.3253 -6.69948)
(-10.0786 14.6037 -7.0435)
(-10.2945 13.2557 -14.1919)
(-10.2818 2.30454 -14.5344)
(-9.89687 9.04204 17.4903)
(-39.6866 3.39352 -84.7033)
(-39.4495 12.5624 -83.6018)
(-39.2801 18.9979 -73.1919)
(-38.9094 18.6556 -53.9944)
(-38.7465 25.5318 -33.1892)
(-38.4095 16.0889 -17.4947)
(-37.9338 12.4172 16.4489)
(36.5389 -5.4565 21.6546)
(39.3062 0.379969 -48.9805)
(40.3207 4.15791 -87.5191)
(40.1089 0.941333 -92.7838)
(39.8582 2.50648 -89.2859)
(39.2619 -8.04989 -80.8199)
(37.3948 -2.507 -27.084)
(9.97256 -13.2796 28.6617)
(9.77502 5.1089 -1.8002)
(10.3313 6.35638 -28.2662)
(10.5957 -1.45218 -25.8294)
(10.2008 -12.8903 -23.3531)
(9.91034 -9.65528 -9.22529)
(9.99532 10.0995 20.9996)
(3.58388 -7.3881 29.2011)
(3.60723 0.569627 17.8416)
(3.78728 -1.27712 12.7312)
(3.88903 0.394808 8.71212)
(3.80697 0.433536 11.6934)
(3.63325 -1.68308 16.8538)
(3.60566 7.48392 29.9337)
(-0.0462626 -0.392363 23.7391)
(-0.0379947 1.08407 20.3027)
(-0.0294657 0.847056 17.6706)
(-0.019372 -0.342561 16.5075)
(-0.0107863 -1.98675 16.7481)
(-0.00924895 -2.1875 19.1104)
(-0.0116703 -0.042242 22.0618)
(-3.56081 -0.813606 20.9339)
(-3.61931 2.3876 18.2364)
(-3.78354 -0.154623 16.6009)
(-3.81049 -4.27196 14.1362)
(-3.75177 -4.11022 11.3172)
(-3.60054 -3.63596 10.9915)
(-3.47252 0.354438 20.0459)
(-10.6427 -2.5921 -54.9179)
(-10.4116 8.38675 -32.2101)
(-10.2623 11.7415 -16.9141)
(-10.1527 14.0064 -6.89043)
(-10.2047 15.0712 -7.63358)
(-10.4016 7.30431 -9.90983)
(-9.67725 3.70561 16.2384)
(-39.8848 -4.08757 -92.3158)
(-39.4842 9.24797 -89.0714)
(-39.2375 13.1479 -76.1691)
(-38.8687 12.9341 -51.7865)
(-38.6634 14.5223 -29.3029)
(-38.471 7.47716 -9.27931)
(-37.8179 5.59399 21.5309)
(38.4859 6.72917 -11.3598)
(39.7108 -0.900075 -53.0295)
(40.4921 6.61056 -96.6061)
(40.3183 5.73024 -96.9982)
(40.1093 10.3543 -91.5787)
(39.8122 4.27314 -87.6082)
(37.9519 2.89783 -51.791)
(9.72027 0.978245 11.469)
(10.1209 10.1894 -16.1718)
(10.6081 -0.474335 -24.7575)
(10.6032 -10.5806 -16.6378)
(10.2844 -14.6653 -23.4787)
(10.0509 -12.1084 -22.115)
(9.79775 -0.82966 -0.849797)
(3.4727 -1.27329 27.5778)
(3.52665 4.86209 17.5397)
(3.72753 4.04233 11.3394)
(3.87545 1.2693 10.2113)
(3.75178 -2.58892 12.259)
(3.56388 -4.68248 17.4174)
(3.5249 2.40286 28.4892)
(-0.0503814 -0.393606 24.5356)
(-0.0387646 -0.00312421 21.4322)
(-0.0296709 0.142052 19.5396)
(-0.0222607 -0.218154 19.6082)
(-0.0144981 -1.19494 19.7116)
(-0.0105331 -2.04798 20.4151)
(-0.015148 -0.700712 22.7539)
(-3.56572 0.240966 21.3482)
(-3.6217 1.38474 19.615)
(-3.8027 -1.54688 17.7563)
(-3.83275 -5.06659 16.0105)
(-3.77352 -5.29236 13.0778)
(-3.62772 -3.54892 11.5996)
(-3.5018 -2.21708 17.0245)
(-10.7339 -8.39666 -57.0591)
(-10.5232 5.81007 -31.0784)
(-10.5608 3.66479 -25.0025)
(-10.5068 6.26729 -21.4923)
(-10.4189 9.33839 -12.2932)
(-10.4775 6.69187 -6.76369)
(-9.80748 -1.86484 7.92947)
(-39.9013 -4.31638 -97.5889)
(-39.4356 11.2149 -93.2199)
(-39.0789 13.1041 -79.5004)
(-39.1335 12.7635 -51.7851)
(-38.7105 9.47741 -24.3053)
(-38.5886 1.4151 -1.13031)
(-37.2571 1.13426 20.5168)
(39.3271 -7.52394 -26.5376)
(40.179 -10.4744 -73.7754)
(40.2163 7.67047 -99.9363)
(40.0914 9.75133 -96.913)
(40.3399 14.189 -91.5811)
(40.2384 13.0632 -83.8941)
(38.6695 8.35406 -55.8571)
(10.3398 1.14073 -18.4581)
(10.6825 0.855711 -26.0231)
(10.7729 -10.3045 -16.16)
(10.7512 -12.7425 -19.4233)
(10.6716 -12.874 -35.5643)
(10.4386 -10.7804 -40.9723)
(10.0432 3.21732 -29.1984)
(3.5121 3.04039 18.8915)
(3.55804 6.46513 17.3669)
(3.73176 5.83732 14.5336)
(3.88563 2.62445 15.7118)
(3.75327 -3.20073 16.8067)
(3.5639 -4.69893 18.6314)
(3.52056 -1.3032 24.4844)
(-0.0277545 0.187409 25.778)
(-0.0224896 -0.185759 24.5224)
(-0.0211572 -0.153043 22.9173)
(-0.0240673 -0.0827275 22.2818)
(-0.0231397 -1.43446 22.6325)
(-0.0180155 -1.64506 23.5649)
(-0.0176771 -1.02359 24.9734)
(-3.62652 0.428966 20.2693)
(-3.65211 -0.206775 20.7381)
(-3.83477 -3.17876 21.0702)
(-3.87065 -6.56069 20.157)
(-3.80367 -5.59687 14.1226)
(-3.71706 -3.64545 12.3593)
(-3.59565 -2.53478 15.5357)
(-10.7645 -9.0768 -57.1875)
(-10.5453 6.65832 -28.5338)
(-10.6023 3.76348 -23.0393)
(-10.7164 5.35692 -23.2027)
(-10.6709 4.99605 -16.1863)
(-10.6359 4.34151 -6.49948)
(-10.2915 -0.774632 3.10561)
(-40.1113 -4.81095 -99.4228)
(-39.4023 13.669 -93.1734)
(-39.2702 13.5444 -79.8417)
(-39.3648 15.5743 -50.4639)
(-39.0801 7.22789 -23.3553)
(-38.7985 -1.54107 -0.617357)
(-37.3052 1.08456 16.0784)
(39.6967 -19.3239 -22.2866)
(40.165 -11.278 -82.9389)
(39.877 7.23 -104.582)
(39.8059 11.9721 -99.4496)
(40.1062 18.2718 -91.4547)
(40.0864 16.9386 -79.5775)
(38.9042 10.8114 -55.3992)
(10.6793 -7.43463 -17.3119)
(10.8136 -10.3352 -20.9979)
(10.8317 -9.59544 -18.8813)
(10.8824 -10.0276 -25.374)
(10.7906 -10.962 -36.5181)
(10.6049 -10.256 -42.9125)
(10.2202 1.77625 -33.1811)
(3.59453 1.90365 17.3134)
(3.62676 5.36359 17.96)
(3.75886 5.79052 15.8779)
(3.90703 1.64444 16.381)
(3.77256 -3.71142 16.3853)
(3.59514 -4.23128 14.6731)
(3.5531 -0.652467 14.6264)
(-0.000661798 -0.491784 26.6197)
(-0.00323284 -1.52247 25.8528)
(-0.0120346 -1.30092 25.4173)
(-0.020259 -0.747992 25.9193)
(-0.022588 -0.554833 25.9486)
(-0.0206763 -1.15914 25.6724)
(-0.019178 -0.790817 24.9592)
(-3.6865 -0.09653 16.2227)
(-3.73221 -0.37712 19.5932)
(-3.86617 -2.46145 21.1122)
(-3.91223 -5.67939 20.6126)
(-3.85478 -4.35872 15.242)
(-3.8319 -2.38721 14.0963)
(-3.74252 -1.73428 15.4172)
(-10.9315 -7.8438 -61.7399)
(-10.7721 11.4266 -42.0216)
(-10.7056 10.1485 -27.3717)
(-10.7774 6.84228 -20.7463)
(-10.7724 4.4474 -15.6276)
(-10.7229 2.84241 -8.94164)
(-10.557 2.78206 -1.88171)
(-40.1295 -6.25196 -99.5924)
(-39.5332 14.2984 -93.6505)
(-39.2925 13.628 -79.7786)
(-39.2616 26.9695 -48.4405)
(-39.2341 11.6457 -21.0816)
(-39.0872 1.27363 -5.60526)
(-38.1234 3.07315 7.03313)
(39.82 -24.1012 -1.54431)
(40.5293 15.1757 -105.317)
(40.737 7.00176 -101.271)
(40.5689 11.2897 -81.7748)
(40.5458 17.6293 -69.0811)
(40.5418 12.9485 -47.1685)
(39.2605 -4.29557 -27.1893)
(10.93 -11.9719 0.659589)
(11.115 -8.14943 -13.3861)
(10.9906 -6.89776 -20.0348)
(10.9719 -8.40911 -19.6594)
(10.9747 -3.9667 -34.8458)
(11.1019 1.65083 -46.2227)
(10.8783 -2.37538 -38.8252)
(3.79537 0.352803 14.3125)
(3.78662 2.94528 17.9734)
(3.83299 1.09865 18.2212)
(3.92354 -4.04004 17.9489)
(3.82426 -9.56438 12.9978)
(3.74426 -9.19629 3.07588)
(3.7242 -4.30371 -4.61323)
(-0.00210632 -0.2381 23.0883)
(-0.00111361 -0.659112 23.2431)
(-0.00969566 -0.660883 23.1768)
(-0.0167088 -0.800382 24.0892)
(-0.0214733 -1.44271 23.8132)
(-0.0287969 -1.88343 23.2979)
(-0.036434 -0.968682 21.656)
(-3.84218 5.08143 -4.6936)
(-3.81611 6.22012 8.23527)
(-3.87779 3.67036 15.7799)
(-3.94701 -0.026893 19.2799)
(-3.89732 -0.929886 16.3887)
(-3.87779 -1.18173 16.7076)
(-3.85046 0.164611 16.058)
(-11.1058 -10.6711 -64.9947)
(-10.9006 11.6057 -51.5094)
(-10.8476 16.4504 -29.6208)
(-10.8772 19.4301 -10.149)
(-10.8869 15.2797 -5.3157)
(-10.877 10.6706 -3.88394)
(-10.7815 8.52028 3.66477)
(-40.6953 -12.6089 -83.5002)
(-40.3417 -3.5912 -87.3877)
(-39.6987 -4.60602 -69.9508)
(-39.3575 19.187 -19.2031)
(-39.254 14.7968 1.5779)
(-39.2621 6.51229 14.2357)
(-38.9511 5.45623 20.3063)
(39.5853 -21.1446 1.11477)
(39.9198 16.0885 -113.512)
(40.5757 8.72089 -111.628)
(40.513 10.1331 -87.7486)
(40.4272 9.9897 -70.5694)
(40.3636 0.150127 -46.382)
(39.4815 -8.22676 -28.8428)
(10.8938 -9.79362 3.94198)
(11.0899 -7.39659 -2.97871)
(11.0416 -10.4637 -0.57325)
(11.0215 -12.0152 0.654484)
(11.1591 3.20338 -27.0461)
(11.2482 8.32956 -42.4733)
(11.1956 10.0725 -46.4175)
(3.81443 -0.937615 15.9964)
(3.8477 2.22405 19.4178)
(3.91372 -0.564606 21.147)
(3.94664 -6.37174 22.0324)
(3.83635 -15.2593 15.0293)
(3.82033 -9.65409 -2.02817)
(3.82786 -2.73737 -11.2632)
(-0.00933458 -0.423477 24.6957)
(-0.0128185 -0.772118 25.0949)
(-0.0194361 -0.491151 25.1536)
(-0.0222131 -0.33846 26.0936)
(-0.0266703 -1.30048 25.7195)
(-0.0312433 -1.79311 24.8699)
(-0.0409015 -0.941422 23.2475)
(-3.96421 3.03255 -4.66785)
(-3.91329 9.03971 6.23474)
(-3.91015 10.6316 19.42)
(-3.98887 4.45301 22.6277)
(-3.97235 0.521001 20.0704)
(-3.95465 -0.165804 19.7015)
(-3.90227 0.685148 18.8397)
(-11.1175 -15.2882 -62.5528)
(-11.0551 9.90268 -48.7759)
(-10.9948 15.6421 -23.5749)
(-10.9557 17.9937 -4.26074)
(-10.9578 13.3404 2.76379)
(-10.9707 8.01349 5.7399)
(-10.7862 7.96734 9.31432)
(-40.5822 -15.4064 -90.7712)
(-40.2812 -14.3399 -95.4186)
(-39.5785 -16.9337 -70.1075)
(-39.1898 6.38418 -15.3814)
(-39.3791 4.8728 6.41976)
(-39.2671 -0.165505 17.828)
(-38.7436 6.24822 25.1137)
(38.8429 -13.7016 2.33014)
(39.745 19.537 -111.992)
(40.5215 16.8495 -113.376)
(40.6592 15.4982 -90.059)
(40.5102 5.62599 -57.1828)
(40.6751 -1.78305 -31.9498)
(40.6454 0.0208504 -22.8668)
(10.6959 -9.57281 8.09183)
(11.0332 -3.35059 -5.2564)
(11.1474 -4.64696 -7.43544)
(11.1845 1.15337 -11.6277)
(11.1797 20.9401 -36.9954)
(11.157 23.9333 -44.3048)
(11.1526 23.2706 -37.8035)
(3.82392 -0.633339 20.471)
(3.85747 1.3 23.6044)
(3.93938 -3.75693 26.2005)
(3.93101 -10.7233 25.7264)
(3.87356 -13.7467 11.4789)
(3.90479 -4.26067 -10.5028)
(3.91761 2.65179 -16.3958)
(-0.00112457 0.441825 27.9043)
(-0.0177263 0.306502 28.0313)
(-0.0278136 0.699798 28.3777)
(-0.0248774 0.247115 30.9541)
(-0.023837 -0.51166 30.4575)
(-0.033818 -1.11636 28.9191)
(-0.0592347 -0.649897 27.0855)
(-4.081 -1.3431 -19.6934)
(-4.04128 7.66372 -12.0262)
(-3.95174 14.9803 13.6756)
(-3.98764 9.87575 26.8977)
(-4.01514 4.54796 25.1872)
(-4.0047 2.10533 23.6527)
(-3.94156 2.22974 23.2788)
(-11.1647 -18.0688 -64.2521)
(-11.1489 3.29912 -52.2617)
(-11.0426 4.39631 -31.6441)
(-11.0019 12.0437 -5.25098)
(-10.9887 13.0527 3.73552)
(-10.963 6.9262 8.30114)
(-10.7629 8.99631 14.5639)
(-40.7835 -28.1281 -87.6694)
(-40.3279 -28.4285 -95.3515)
(-39.7264 -31.0603 -82.5624)
(-39.2497 -11.9981 -35.7656)
(-38.9585 5.46866 5.67042)
(-39.1291 -4.18503 15.6257)
(-38.442 7.22083 27.1254)
(39.3046 30.7275 -25.7777)
(39.8378 20.078 -111.518)
(40.4265 22.6796 -107.789)
(40.6072 26.281 -72.8397)
(40.5537 21.8464 -45.6433)
(40.8397 10.2628 -25.9073)
(40.7819 15.0277 -5.44758)
(10.5042 -4.96487 13.117)
(10.9093 -3.40914 -3.2658)
(11.1573 6.24696 -9.73963)
(11.221 28.7807 -43.3471)
(11.0677 37.2634 -51.2244)
(11.0296 32.9108 -48.6805)
(11.1203 26.6871 -29.017)
(3.86891 -2.12221 23.9176)
(3.88974 -3.35051 26.3615)
(3.93952 -5.37019 28.3943)
(3.94344 -8.8769 26.1734)
(3.93879 -7.85366 14.9899)
(3.96272 -2.15722 2.43777)
(3.95747 11.3045 -10.0614)
(0.0141137 1.23256 29.0595)
(-0.0126181 2.17721 31.7114)
(-0.0308499 2.15707 33.5755)
(-0.0209232 2.34516 33.9756)
(-0.0117925 1.33591 33.6192)
(-0.0233522 -0.821245 32.7754)
(-0.0536178 -0.319733 30.024)
(-4.10812 -9.67157 -22.8775)
(-4.10994 6.52461 -11.4364)
(-4.01018 15.7636 3.4579)
(-3.99192 14.5963 23.9168)
(-4.0116 8.0128 29.5586)
(-4.00906 2.38303 26.9977)
(-3.92319 2.61288 26.5063)
(-11.1861 -24.6014 -53.8337)
(-11.1528 -5.78046 -41.05)
(-11.0682 -4.33842 -27.7665)
(-11.0401 -4.42905 -16.0867)
(-11.0144 10.2049 0.514441)
(-10.9782 6.05835 6.36524)
(-10.578 7.70336 16.467)
(-40.7197 -31.7908 -75.7319)
(-40.2803 -39.7126 -92.1746)
(-40.1925 -42.9067 -93.2812)
(-39.555 -36.3791 -71.0334)
(-38.9519 -1.32477 -11.0753)
(-38.7834 -2.79192 17.5844)
(-37.7054 6.1847 27.4224)
(40.0233 101.29 -120.898)
(40.3172 13.3308 -129.196)
(41.0445 20.6921 -102.49)
(40.9247 30.5051 -65.4975)
(40.7218 29.4932 -43.6604)
(40.897 16.5349 -16.1808)
(40.8647 16.762 7.5366)
(10.6734 -3.49617 18.2112)
(11.189 -7.61881 -19.1429)
(11.2737 32.204 -44.0159)
(11.2445 43.7196 -58.863)
(11.1525 44.0334 -52.022)
(11.1885 37.9849 -43.8356)
(11.1948 30.1072 -17.5543)
(3.95207 -5.53806 24.2213)
(4.01649 -7.96559 23.7441)
(3.9757 -6.22516 27.4755)
(3.99952 -5.29864 27.2147)
(4.02367 -7.14659 22.5309)
(4.04489 -1.27847 12.5581)
(4.03301 15.6578 1.82176)
(0.0158806 1.91062 31.4578)
(-0.0130145 2.66239 33.2748)
(-0.0376894 2.21593 34.688)
(-0.0237556 4.28427 34.538)
(-0.00160463 2.74057 35.3015)
(0.00210917 -0.839926 34.1264)
(-0.0120416 -1.2428 32.509)
(-4.08485 -17.809 -13.4713)
(-4.12483 6.56465 0.482157)
(-4.06415 14.0892 5.84531)
(-4.01544 15.7397 17.518)
(-4.00208 12.1159 27.9263)
(-3.98936 6.20828 28.9443)
(-3.90749 2.90568 25.7202)
(-11.1597 -28.8952 -41.0845)
(-11.1301 -22.24 -32.5614)
(-11.0475 -18.4011 -19.7856)
(-11.057 -18.5456 -16.9627)
(-11.0222 1.81809 -0.00623412)
(-10.9225 6.66735 10.3498)
(-10.5291 4.23691 20.2154)
(-40.8537 -40.4507 -58.1258)
(-40.4686 -56.3496 -78.9953)
(-39.7759 -61.6535 -85.0833)
(-40.0518 -59.4339 -88.9579)
(-39.1742 -39.4126 -59.3372)
(-38.6804 9.17619 17.4853)
(-37.3129 3.46094 32.1915)
(39.4121 103.311 -142.118)
(40.4101 -76.1996 -151.02)
(41.5732 8.20024 -94.4033)
(41.4182 20.6595 -68.1807)
(40.9261 19.4703 -37.7871)
(40.5967 -2.85726 7.49023)
(40.6008 15.0073 35.2395)
(10.6523 -8.23666 22.457)
(11.3278 14.0505 -72.8089)
(11.2346 48.2634 -88.1528)
(11.361 35.5293 -81.6701)
(11.3884 38.2281 -56.4974)
(11.3688 31.8423 -35.7505)
(11.3131 28.1205 -4.65969)
(4.00439 -9.23475 17.5723)
(4.15311 -12.0837 -3.53328)
(4.0977 -7.67392 5.56734)
(4.05382 0.364864 25.9941)
(4.09647 1.73032 28.9128)
(4.13547 3.48337 14.662)
(4.11762 16.8712 10.2338)
(0.0142442 -1.97462 35.0404)
(-0.0252432 0.419006 31.7596)
(-0.0514342 0.594406 33.8621)
(-0.0394024 3.73854 35.1767)
(0.00904958 4.53338 35.396)
(0.0391345 1.19636 35.1362)
(0.0383162 1.00634 33.6658)
(-4.02223 -26.2965 2.20709)
(-4.08129 8.03699 16.6614)
(-4.13187 13.316 15.9459)
(-4.0574 13.3482 16.0534)
(-4.01062 13.3586 19.9466)
(-3.98158 12.6282 23.6577)
(-3.92241 7.63102 26.6111)
(-11.0995 -40.1754 -24.9816)
(-11.1055 -48.0094 -30.6994)
(-11.1055 -51.8604 -28.3363)
(-11.1434 -46.1216 -24.2825)
(-11.0868 -30.6937 -19.7996)
(-11.038 4.39833 -9.46727)
(-10.6827 7.71222 27.6703)
(-41.5047 -29.7351 -36.9665)
(-41.2623 -59.1979 -62.9107)
(-40.3887 -72.9357 -80.7904)
(-39.7427 -81.0929 -85.1132)
(-39.7429 -77.8277 -90.8474)
(-38.7578 -55.5698 -40.6312)
(-37.429 13.0307 43.9803)
(39.3084 101.082 -148.696)
(38.9676 -110.471 -113.786)
(40.9075 -89.5814 -35.9951)
(40.8083 -57.0757 -0.704633)
(40.5017 -56.4777 23.9921)
(40.7861 -52.2183 27.2323)
(41.0349 -47.845 22.6061)
(10.8614 27.5283 -1.66183)
(10.7306 80.9876 -74.8162)
(10.8563 58.6218 -92.383)
(11.3977 -5.1937 -78.3831)
(11.4164 -3.28371 -19.1414)
(11.3708 -5.38166 11.9894)
(11.3244 17.2264 38.3151)
(4.05787 3.32283 11.2571)
(4.05963 18.5163 -28.978)
(4.026 6.02584 -40.5745)
(4.164 17.4199 -27.0136)
(4.16829 11.7993 18.1942)
(4.17281 12.4348 20.5077)
(4.10669 14.0975 35.8992)
(0.032086 -1.46823 51.1407)
(-0.0288613 -5.56648 32.3782)
(-0.0676061 -5.56375 30.3938)
(-0.0407312 1.18258 34.0011)
(0.0133542 4.33276 35.2714)
(0.0497437 3.69325 33.6103)
(0.029845 1.28154 40.5749)
(-3.93271 -22.7654 37.3719)
(-4.08961 -20.2752 6.0545)
(-4.18766 -23.7887 2.40542)