# Probe 0 (0 -0.07 0.5)
# Probe 1 (0 -0.04 0.5)
# Probe 2 (0 -0.07 0.3)
# Probe 3 (0 -0.07 0.33)
# Probe 4 (0 -0.04 0.3)
# Probe 5 (0 -0.04 0.33)
# Probe 6 (0 0 0.33)
# Probe 7 (0 0 0.3)
# Probe 8 (0 0.1 0.33)
# Probe 9 (0 0.1 0.3)
# Probe 10 (0 0.14 0.3)
# Probe 11 (0 0.14 0.33)
# Probe 12 (0 0.17 0.3)
# Probe 13 (0 0.17 0.33)
# Probe 14 (0 0.14 0.5)
# Probe 15 (0 0.14 0.33)
#       Probe             0             1             2             3             4             5             6             7             8             9            10            11            12            13            14            15
#        Time
       0.0025       292.611       292.556       345.062        340.33        344.51       295.404        263.44       272.598       261.555       273.299       347.078       296.241       356.848       337.124       291.969       296.241
        0.005       292.693       292.199       365.872       348.553       344.828       343.496        341.21       306.059       333.092       279.345       341.763       334.739       364.825       339.912        292.25       334.739
       0.0075       291.962       291.991        365.05       346.556       349.139       361.105       357.454        321.91       349.457       342.239        341.84       350.165       367.125       336.397       292.008       350.165
         0.01       292.497       292.466       362.624       344.193       342.304       363.618       354.312       334.201       351.165       350.926       335.789       353.537       357.165       338.701       292.381       353.537
       0.0125       291.964       291.942       364.056       341.606        344.31       358.504       357.942       335.407       348.898       352.489       338.354        356.06       364.605       331.728       291.965        356.06
