# Probe 0 (0 -0.07 0.5)
# Probe 1 (0 -0.04 0.5)
# Probe 2 (0 -0.07 0.3)
# Probe 3 (0 -0.07 0.33)
# Probe 4 (0 -0.04 0.3)
# Probe 5 (0 -0.04 0.33)
# Probe 6 (0 0 0.33)
# Probe 7 (0 0 0.3)
# Probe 8 (0 0.1 0.33)
# Probe 9 (0 0.1 0.3)
# Probe 10 (0 0.14 0.3)
# Probe 11 (0 0.14 0.33)
# Probe 12 (0 0.17 0.3)
# Probe 13 (0 0.17 0.33)
# Probe 14 (0 0.14 0.5)
# Probe 15 (0 0.14 0.33)
#       Probe             0             1             2             3             4             5             6             7             8             9            10            11            12            13            14            15
#        Time
          0.5       291.689       290.836       301.054       299.508       300.392       299.937       300.435       295.066       297.383       296.943       296.417       296.758       296.983       295.773       290.336       296.758
            1       291.704       290.787       300.655        299.44        299.96       299.578       300.323        294.79       297.279       296.831       295.775       296.634       296.351       295.434       290.257       296.634
          1.5       291.691       290.841       301.016       299.493       300.426       299.931        300.41       295.015       297.377       296.912       296.226       296.704        296.98       296.054       290.337       296.704
            2       291.703        290.79       300.672        299.46       299.982       299.583       300.284       294.783       297.277       296.812       295.794       296.629       296.381       295.527       290.258       296.629
          2.5       291.689       290.833       301.052       299.518       300.402       299.922       300.433       295.004       297.369       296.932       296.292       296.725       296.895       295.969       290.333       296.725
            3       291.705       290.803       300.669        299.61       300.007       299.605       300.249       294.785       297.234       296.778         295.8       296.589       296.367       295.496       290.274       296.589
          3.5       291.701       290.836       301.067       299.764       300.401       299.919       300.444        294.97        297.37        296.95       296.032       296.738       296.369        295.62       290.315       296.738
