/*--------------------------------*- C++ -*----------------------------------*\
  =========                 |
  \\      /  F ield         | OpenFOAM: The Open Source CFD Toolbox
   \\    /   O peration     | Website:  https://openfoam.org
    \\  /    A nd           | Version:  6
     \\/     M anipulation  |
\*---------------------------------------------------------------------------*/
FoamFile
{
    version     2.0;
    format      ascii;
    class       volScalarField;
    location    "4";
    object      O2;
}
// * * * * * * * * * * * * * * * * * * * * * * * * * * * * * * * * * * * * * //

dimensions      [0 0 0 0 0 0 0];

internalField   nonuniform List<scalar> 
297
(
0
0
0
0
0
0
0
0
0
0
0
0
0
0
0
0
0
0
0
0
0
0
0
0
0
0
0
0.066995
0.0835176
0.155665
0.164934
0.161161
0.206307
0.0627677
0.0768296
0.14251
0
8.06133e-06
0.0219005
0.0769378
0.12604
0.108074
0
5.8908e-06
0.00955283
0
0
0
0.0498879
0.024892
0.0750439
0
0
0
0
2.05864e-10
0
0
0
0
8.20694e-05
1.251e-09
0
0
0
0
0
0
0
0
0
0
0
0
0
0
0
0
0
0
0
0
0
0
0.00723109
5.4678e-07
0.030807
0
0
0
0
0
0
0
0
0.0105811
0
7.7401e-09
0
0
0
0
0
0
0
0
0
0
0
0
0
0
0
0
0
0
0
3.15508e-21
1.63822e-17
8.49431e-17
0
0
0
0
7.57918e-19
0
5.07933e-22
4.70819e-18
1.14042e-16
0
0
0
1.78396e-19
1.36563e-18
0
0
1.93708e-18
5.33925e-19
0
1.86739e-17
2.51398e-20
0
0
3.88303e-24
0
7.09543e-19
5.43672e-19
0
0
0
0
0
0
3.94051e-17
2.50475e-17
1.56992e-17
0
0
0
0
2.92319e-23
0
3.87711e-22
0
0
0
0
0
1.0695e-20
2.33372e-17
0
1.21972e-21
9.11884e-22
0
9.4128e-24
0
0
1.04487e-20
4.86975e-18
1.52806e-18
3.04496e-21
1.09913e-21
4.20803e-22
2.82116e-20
5.80144e-20
1.01318e-19
8.23036e-19
1.97695e-18
1.2392e-18
6.28226e-26
2.27945e-26
7.59335e-26
3.90275e-21
1.57409e-21
2.10292e-21
1.1288e-20
1.1141e-20
1.09868e-20
1.02013e-25
3.04902e-26
1.26746e-25
3.89716e-21
1.66777e-21
2.17154e-21
1.15375e-20
1.1279e-20
1.11042e-20
8.36135e-26
3.37922e-26
1.40772e-25
5.65233e-21
3.34422e-21
1.39102e-20
1.15961e-20
1.15122e-20
4.49529e-19
6.32011e-26
4.69275e-26
1.09653e-25
2.81501e-21
1.86201e-21
4.82042e-21
1.16336e-20
2.47116e-20
1.76793e-19
3.31973e-26
5.44106e-26
1.62589e-25
2.78309e-21
3.58096e-21
3.27311e-21
1.27942e-20
4.15556e-20
1.52926e-19
2.29504e-26
5.26455e-26
1.51808e-25
4.21671e-21
1.48987e-20
4.23208e-20
1.01312e-20
4.27936e-20
1.48135e-19
5.58413e-19
5.4271e-19
5.30032e-19
1.52652e-19
1.34181e-19
2.42371e-19
8.78459e-24
7.03106e-24
1.04674e-23
5.38905e-19
5.17219e-19
5.02943e-19
1.84504e-19
1.64839e-19
2.42563e-19
8.4032e-24
5.73238e-24
1.37856e-23
1.13138e-17
5.12133e-19
4.9627e-19
1.86895e-20
3.92765e-20
2.76429e-19
8.41068e-24
5.33024e-24
1.11714e-23
5.40081e-18
8.44045e-19
4.70512e-19
8.21471e-21
1.49641e-20
1.39875e-19
9.38989e-24
5.21316e-24
5.68662e-24
5.29022e-18
1.80252e-18
4.51155e-19
2.24831e-20
1.18186e-19
1.46209e-19
8.52632e-24
3.86894e-24
1.97496e-24
5.19378e-18
1.54644e-18
3.75452e-19
1.45756e-18
6.00472e-19
2.05095e-19
8.45867e-24
3.45115e-24
1.19402e-24
)
;

boundaryField
{
    fuel
    {
        type            fixedValue;
        value           uniform 0;
    }
    primary_air
    {
        type            fixedValue;
        value           uniform 0.23;
    }
    Secondary_air_RHS
    {
        type            fixedValue;
        value           uniform 0.23;
    }
    Secondary_air_LHS
    {
        type            fixedValue;
        value           uniform 0.23;
    }
    outlet
    {
        type            inletOutlet;
        inletValue      uniform 0;
        value           nonuniform List<scalar> 
18
(
0
1.45756e-18
0
0
6.00472e-19
0
0
2.05095e-19
0
0
4.21671e-21
0
0
1.48987e-20
0
0
4.23208e-20
0
)
;
    }
    stove_body
    {
        type            fixedValue;
        value           uniform 0;
    }
    frontAndBack
    {
        type            empty;
    }
}


// ************************************************************************* //
