/*--------------------------------*- C++ -*----------------------------------*\
  =========                 |
  \\      /  F ield         | OpenFOAM: The Open Source CFD Toolbox
   \\    /   O peration     | Website:  https://openfoam.org
    \\  /    A nd           | Version:  6
     \\/     M anipulation  |
\*---------------------------------------------------------------------------*/
FoamFile
{
    version     2.0;
    format      ascii;
    class       surfaceScalarField;
    location    "4";
    object      phi;
}
// * * * * * * * * * * * * * * * * * * * * * * * * * * * * * * * * * * * * * //

dimensions      [1 0 -1 0 0 0 0];

internalField   nonuniform List<scalar> 
675
(
2.82616e-05
-7.19733e-05
0.000171213
6.37935e-06
-1.96846e-05
0.000169075
-1.99334e-05
0.000153833
-2.03102e-05
3.99941e-05
0.00011958
-2.15737e-05
3.99178e-05
0.00015292
3.84646e-05
0.000131311
5.19228e-06
0.000162293
1.53704e-06
0.000171072
0.000167511
2.25661e-05
-0.000111753
0.000260319
9.80559e-06
-3.2863e-05
0.000214635
-3.79864e-05
0.000201576
-7.4528e-05
6.33621e-05
1.90368e-05
-5.94302e-05
5.37929e-05
5.1312e-05
6.02757e-05
-2.6245e-05
-2.01027e-06
0.000227586
-8.98813e-07
0.000223697
0.000226849
3.52312e-05
9.74402e-05
5.33112e-05
6.8924e-05
0.000127266
7.08075e-06
-0.000101725
-1.09038e-05
-7.24763e-05
-0.000121082
-1.77318e-06
2.18301e-05
0.00620333
0.00474275
-0.00770477
0.00711452
0.00521414
-0.00286925
0.00788915
0.00250783
-0.000202199
-0.00555707
0.0158718
-0.00426269
-0.00605313
0.0207275
-0.00898313
0.0180478
0.00611751
-0.00842266
0.00716981
-0.00384726
0.0014682
0.011766
0.00673423
-0.0262604
0.00921418
0.00371716
-0.00407245
0.00809683
0.0035987
0.00417177
-0.00672651
0.0251084
0.00811255
-0.00371897
0.0241753
-0.00930584
0.0435308
0.0146433
-0.0298068
0.0112586
-0.00416983
0.00340185
-0.00835742
0.0249674
-0.0429239
-0.00865787
0.0118816
-0.0157221
0.018142
-0.0232438
-0.0490742
-0.0238095
0.122852
0.0417477
-0.0123272
-0.0424861
-0.0198284
0.123216
-0.00503434
-0.0486748
-0.00495942
-0.0166192
-0.0213845
-0.0206485
-0.00872829
-0.0247427
0.0541179
0.00280062
0.00256674
-0.0438146
0.017758
-0.0100454
-0.024909
0.0377519
0.016017
0.0194709
0.0490458
-0.0931875
-0.00351485
-0.00227471
-0.0297749
0.0541701
0.0083628
0.0687992
-0.0907783
-0.00725353
-0.0323923
0.0592219
0.00975655
-0.0386884
0.0193717
-0.0168299
0.0349032
-0.0035435
-0.0071486
-0.0139988
-0.0100008
-0.00628265
-0.031049
-0.0130959
-0.0217801
0.0183962
0.0085734
0.0149464
-0.00901324
0.0073093
-0.0160052
0.00568936
0.0409338
0.00502053
-0.028832
0.00215056
-0.0285869
-0.00905599
0.0109267
-0.00906345
-0.0158829
-0.0018545
0.00218145
-0.0204596
-0.00542911
-0.0181824
0.000896376
0.000245756
0.00471402
-0.00296836
0.00125788
-0.0112573
0.0127179
0.0197762
-0.0114039
-0.0172115
-0.0193823
-0.0193906
-0.0157133
-0.000711542
-0.00250095
-0.0456433
-0.00140026
-0.000941223
-0.0140978
-0.00231003
-0.0282841
-0.00357739
0.00219091
0.112254
0.00275018
0.000528081
-0.0502853
0.00198249
0.112054
-0.000803084
-0.0516074
-0.00084866
-0.0160361
-0.0262025
-0.000997684
-0.000596646
-0.0499668
-0.000517362
-0.000399369
-0.0141793
-0.00145259
-0.0332887
-0.00159529
0.00104597
0.10276
0.00231988
-0.000140647
-0.0544611
0.00128876
0.102042
-0.000912846
-0.0555624
8.37142e-05
-0.0171635
-0.0307738
-0.00192463
0.000159994
-0.000272251
0.00192607
-0.00174239
-0.00128297
0.00154288
0.00171467
-0.0013618
0.00163556
-0.000680575
0.00017368
0.00735645
-0.00383421
-0.00411199
-0.0152841
-0.00450845
-0.00114358
-0.00744066
-0.00124723
-0.00461903
-0.016835
-0.00257419
0.00143426
-0.00385001
0.00584555
-0.00208071
0.000602177
-0.0134785
0.00465652
0.0105545
0.0012434
0.00330704
-0.00387716
-0.0151784
-0.00845666
-0.00700346
-0.00328683
-0.0162462
0.0097675
0.000641631
-0.000418755
-0.0141001
-0.00122022
0.00187746
0.00168645
0.00178647
0.00448682
-0.0120982
0.000373729
-0.00288467
-0.00405434
0.00335877
-0.00265991
-0.00148166
-0.00706458
0.000712231
0.0047431
0.00423578
0.00164729
0.0039769
-0.0123816
-0.00891522
0.00210567
0.000995913
-0.0124531
0.00212339
0.00288248
-0.00542588
0.000347632
0.00348054
0.00300886
0.00184411
-0.00286325
-0.00404243
0.00573493
-0.003139
-0.00328245
-0.00219649
0.00683202
-0.000387828
0.000333312
-0.0015476
-0.00279965
-0.0180171
-0.000228299
0.00142231
-0.0179824
-0.00189317
0.00187208
-0.00166547
0.00198575
-0.0182882
-0.00320929
0.00207698
0.00215516
-0.00459556
-0.00134107
0.000848593
-0.00279527
0.0027809
-0.00622822
-0.0155077
0.00134046
-0.0168402
-6.01467e-06
-0.00729583
-0.0123388
-0.0129608
-0.000493508
0.00278384
-0.0128196
5.32646e-05
0.00169339
-0.000281749
0.00177465
-0.0123093
0.00370834
0.00167984
0.000525603
0.00314538
-0.00106482
0.00255692
-2.95109e-05
0.00734014
-0.00161148
-0.0119739
0.00251045
-0.0132071
0.000170064
-0.0103404
-0.0101867
0.00460431
3.45055e-05
0.00629818
8.99002e-06
-0.00134868
0.00943296
0.00780412
-0.000400669
0.0112266
-0.000838593
0.00164261
0.0156005
-0.00067797
-0.00133121
-0.0100098
0.01627
0.00297245
-0.00760306
-0.0116483
0.0149905
-0.000161821
0.00143196
-0.00310346
0.00280784
0.00213189
0.00159758
0.00445291
-0.00521589
-0.00219991
0.00185064
0.00230169
0.000584551
-5.09217e-05
0.0171572
0.00224028
-0.0178112
0.0166666
0.00234079
0.00208039
0.0136734
-3.56937e-05
-0.0101994
-0.011052
0.0129404
0.00123572
0.000919998
-0.00180266
0.0034462
-0.0020868
0.000692441
0.00775476
-0.00195367
-0.00171689
0.000267808
0.00289516
0.000303121
-0.000526681
0.0126152
0.0023459
-0.0120403
0.0130121
0.00220385
0.00301304
0.00216931
-0.00181217
-0.0105665
0.00218114
0.000902101
0.000198204
-0.00985392
0.00128611
0.0145014
-0.00597298
-9.02201e-05
-0.000573173
-0.00487535
0.00849795
-0.00277004
-0.00411444
0.0029751
0.00113473
0.0041081
0.00298224
-0.011213
0.00256089
-0.0101083
0.00214817
-0.00183655
0.0026616
0.00350737
-5.53545e-05
0.00167431
-0.00091776
0.00176542
0.0120254
-0.0138679
0.0187407
-0.006777
3.71607e-06
-0.00250625
0.00235167
0.00128334
0.00557307
0.0026175
-0.0219186
0.0016439
-0.0172409
0.00237315
-0.00145009
0.00408704
0.00377653
0.000271007
0.00261086
-0.0007639
0.00599047
0.00896256
-0.0242859
0.0134448
-0.0109954
0.000635591
-0.00462731
0.00149823
0.00440606
0.00870501
0.00625768
-0.0415142
0.00208982
-0.0212006
-0.00296926
-0.00417913
0.0127303
-0.00647349
0.000625291
0.0117373
0.00133652
0.0147645
0.00993094
-0.0384009
0.00275152
-0.00319866
0.0132139
0.0184739
0.0110512
-0.0251368
-0.00194687
0.0161121
-0.037197
0.0155231
-0.0386817
-0.0088904
-0.0014862
0.0342546
-0.00764589
0.00395507
0.0226214
0.00302297
0.0195911
0.00706473
-0.0469643
0.0153917
-0.0075931
0.0316041
0.00834534
0.00645442
-0.0399108
0.0055728
0.00671378
-0.0411062
0.00741171
-0.0404875
0.012065
-0.00277114
0.0313709
0.0134468
-0.00328399
0.0312776
0.00116403
0.0393434
-0.00436757
-0.0453414
0.00210891
-0.0173304
0.034894
0.000875006
0.0143652
-5.20159e-06
0.0152616
0.0147762
0.00550471
-0.0232982
0.00533351
-0.022264
-0.0210302
-0.0161653
-0.0158925
-0.0190336
0.000947301
-0.000191483
-0.0121745
0.00011281
-0.00696188
0.00191517
-0.0140803
-0.00393517
-0.00256204
0.00123014
-0.00287593
-0.00296547
0.00203001
-0.00293672
0.00198969
-0.00437061
-0.0105292
0.00441613
-0.0117495
0.00148184
-0.0135662
0.000847354
0.000228891
-0.00905775
-0.000184169
-0.0112778
0.00151123
-0.0246454
-0.00368001
-0.00162382
0.00578491
-0.00362637
-0.00184548
0.00364976
-0.00231308
0.00220225
-0.00530074
-0.0170389
0.00191772
-0.0208142
0.00108618
-0.00194398
-0.00133376
0.012949
-0.00974874
-0.000522414
-0.00294445
0.00437702
-0.0387703
0.00789794
-0.00200816
0.0142273
0.00302252
-0.0051207
0.0130699
-0.00159503
0.011212
-0.00832827
-0.0207306
0.00380488
-0.0380702
0.00329519
-0.015835
-0.00254878
0.0314185
-0.00662843
-0.00354136
-0.00862146
0.0015915
-0.0470235
0.00644281
-0.0156465
0.0208887
0.00912257
-0.0163443
0.0232334
-0.0118397
0.0338044
0.00127717
-0.03764
-0.0165393
-0.0365538
-0.0250453
-0.00199721
-0.00113102
0.0345005
0.00417906
0.00316635
-0.0179777
0.00249155
-0.045353
-0.0127091
-0.00753135
0.0399328
-0.0113759
-0.00690315
0.0319344
-0.00677982
0.0316782
-0.00501035
-0.0402035
-0.00776384
-0.0407594
-0.0396428
0.016125
0.0207303
0.0160601
0.0221209
0.0229833
-0.00455275
-0.0147357
-0.00473994
-0.0151108
-0.0144293
1.54489e-05
-0.00077338
)
;

boundaryField
{
    fuel
    {
        type            calculated;
        value           nonuniform List<scalar> 
36
(
0.000127569
0.000211127
0.000127554
0.000127569
0.000211127
0.000127554
0.000127569
0.000211127
0.000127554
-0.000127569
-0.000211127
-0.000127554
-0.000127569
-0.000211127
-0.000127554
-0.000127569
-0.000211127
-0.000127554
0
0
0
0
0
0
0
0
0
0
0
0
0
0
0
0
0
0
)
;
    }
    primary_air
    {
        type            calculated;
        value           nonuniform List<scalar> 9(-0.00319171 -0.00527617 -0.00319306 -0.00319189 -0.00527736 -0.00319394 -0.00319177 -0.00527914 -0.003194);
    }
    Secondary_air_RHS
    {
        type            calculated;
        value           nonuniform List<scalar> 9(0.00594523 0.00961597 0.00594868 0.00593562 0.00958768 0.00593959 0.00592977 0.00959562 0.00593462);
    }
    Secondary_air_LHS
    {
        type            calculated;
        value           nonuniform List<scalar> 9(0.00593143 0.0094797 0.00590323 0.00591812 0.00944231 0.00588639 0.00591657 0.00947178 0.00588072);
    }
    outlet
    {
        type            calculated;
        value           nonuniform List<scalar> 
18
(
-0.00237729
0.0799523
-0.0549547
-0.0400396
0.0693639
-0.055081
-0.0522778
0.0643349
-0.0548447
-0.0551323
0.0635263
-0.0524652
-0.0554677
0.0689867
-0.0398585
-0.0552494
0.0804863
-0.00203498
)
;
    }
    stove_body
    {
        type            calculated;
        value           uniform 0;
    }
    frontAndBack
    {
        type            empty;
        value           nonuniform 0();
    }
}


// ************************************************************************* //
