/*--------------------------------*- C++ -*----------------------------------*\
  =========                 |
  \\      /  F ield         | OpenFOAM: The Open Source CFD Toolbox
   \\    /   O peration     | Website:  https://openfoam.org
    \\  /    A nd           | Version:  6
     \\/     M anipulation  |
\*---------------------------------------------------------------------------*/
FoamFile
{
    version     2.0;
    format      ascii;
    class       volScalarField;
    location    "4";
    object      Qdot;
}
// * * * * * * * * * * * * * * * * * * * * * * * * * * * * * * * * * * * * * //

dimensions      [1 -1 -3 0 0 0 0];

internalField   nonuniform List<scalar> 
297
(
3.48911e-05
5.78997e-05
5.78997e-05
4.60171e-05
0.000115799
6.97822e-05
3.48911e-05
5.78997e-05
0
2.30085e-05
5.78997e-05
3.48911e-05
0
6.97822e-05
6.97822e-05
5.78997e-05
5.78997e-05
5.78997e-05
3.48911e-05
3.48911e-05
5.78997e-05
3.48908e-05
5.78993e-05
3.48911e-05
5.78997e-05
5.78997e-05
2.30085e-05
-3.35951e-10
-3.1126e-10
-2.86568e-10
-6.71902e-10
9.87667e-11
-5.73136e-10
1.23458e-11
-3.35951e-10
-2.86568e-10
-3.35951e-10
-3.3595e-10
-3.29778e-10
2.46917e-11
-6.22519e-10
-6.71902e-10
-3.35951e-10
-3.3595e-10
-3.35951e-10
-3.35951e-10
-3.35951e-10
-3.35951e-10
-6.71902e-10
1.23458e-11
-6.47211e-10
-3.35951e-10
-3.35951e-10
-3.35951e-10
-6.71902e-10
-6.71902e-10
0
-6.71902e-10
0
-6.71902e-10
0
-6.71902e-10
-3.35951e-10
-6.71902e-10
-6.71902e-10
0
-6.71902e-10
0
0
-6.71902e-10
-6.71902e-10
-3.35951e-10
-6.71902e-10
0
-6.71902e-10
0
-6.71902e-10
-6.71902e-10
-6.71902e-10
-6.71902e-10
-6.71902e-10
-3.35951e-10
-6.71902e-10
-3.35951e-10
0
-6.71902e-10
0
-3.35951e-10
-6.71902e-10
0
-3.35951e-10
-6.71902e-10
-3.35951e-10
0
-6.71902e-10
3.08646e-12
0
2.94348e-18
-3.35951e-10
-3.35951e-10
0
-3.35951e-10
0
0
-6.71902e-10
-3.35951e-10
-6.71902e-10
0
-6.71902e-10
-6.71902e-10
0
-6.71902e-10
-6.71902e-10
0
0
0
0
-6.71902e-10
5.48265e-27
0
0
-6.71902e-10
-6.71902e-10
-6.71902e-10
1.71333e-28
0
-6.71902e-10
-6.71902e-10
4.38612e-26
-6.71902e-10
-6.71902e-10
0
4.28332e-29
3.42666e-28
-6.71902e-10
-6.71902e-10
0
-6.71902e-10
-6.71902e-10
-1.3438e-09
-1.3438e-09
-6.71902e-10
0
-6.71902e-10
0
-6.71902e-10
-6.71902e-10
-6.71902e-10
0
-6.71902e-10
-6.71902e-10
0
-6.71902e-10
1.09653e-26
-6.71902e-10
-6.71902e-10
-6.71902e-10
-6.71902e-10
-6.71902e-10
-6.71902e-10
-6.71902e-10
-6.71902e-10
1.67317e-31
-6.71902e-10
-6.71902e-10
-1.3438e-09
-6.71902e-10
-6.71902e-10
2.67708e-30
0
-6.71902e-10
-6.71902e-10
-6.71902e-10
-6.71902e-10
-6.71902e-10
0
0
-6.71902e-10
-6.71902e-10
-6.71902e-10
-6.71902e-10
-6.71902e-10
1.67317e-31
-1.3438e-09
2.14166e-29
-1.3438e-09
3.42666e-28
6.85332e-28
-6.71902e-10
-6.71902e-10
5.10612e-36
2.04245e-35
-1.3438e-09
6.69269e-31
-1.3438e-09
2.67708e-30
2.67708e-30
-6.71902e-10
-6.71902e-10
1.02122e-35
-6.71902e-10
-1.3438e-09
-1.3438e-09
1.33854e-30
-6.71902e-10
-6.71902e-10
-6.71902e-10
2.04245e-35
-6.71902e-10
-6.71902e-10
2.67708e-30
-1.3438e-09
5.35416e-30
-6.71902e-10
-6.71902e-10
0
0
0
4.0849e-35
-1.3438e-09
0
-6.71902e-10
-6.71902e-10
-6.71902e-10
-6.71902e-10
-6.71902e-10
-6.71902e-10
4.0849e-35
0
1.33854e-30
0
-6.71902e-10
1.07083e-29
-6.71902e-10
0
-6.71902e-10
0
-6.71902e-10
-6.71902e-10
-6.71902e-10
-6.71902e-10
1.07083e-29
0
-6.71902e-10
-6.71902e-10
0
-1.3438e-09
0
1.71333e-28
0
0
-6.71902e-10
1.71333e-28
-6.71902e-10
-6.71902e-10
8.56665e-29
0
-1.3438e-09
0
-6.71902e-10
-6.71902e-10
-6.71902e-10
0
-6.71902e-10
-6.71902e-10
-6.71902e-10
-1.3438e-09
-6.71902e-10
-6.71902e-10
2.61433e-33
1.37066e-27
-6.71902e-10
0
-6.71902e-10
-6.71902e-10
0
0
-6.71902e-10
-6.71902e-10
0
0
-6.71902e-10
-6.71902e-10
-6.71902e-10
-6.71902e-10
-6.71902e-10
1.30717e-33
0
1.37066e-27
3.42666e-28
-6.71902e-10
-6.71902e-10
3.42666e-28
8.56665e-29
2.61433e-33
-6.71902e-10
3.26792e-34
)
;

boundaryField
{
    fuel
    {
        type            calculated;
        value           uniform 0;
    }
    primary_air
    {
        type            calculated;
        value           uniform 0;
    }
    Secondary_air_RHS
    {
        type            calculated;
        value           uniform 0;
    }
    Secondary_air_LHS
    {
        type            calculated;
        value           uniform 0;
    }
    outlet
    {
        type            calculated;
        value           uniform 0;
    }
    stove_body
    {
        type            calculated;
        value           uniform 0;
    }
    frontAndBack
    {
        type            empty;
    }
}


// ************************************************************************* //
