/*--------------------------------*- C++ -*----------------------------------*\
  =========                 |
  \\      /  F ield         | OpenFOAM: The Open Source CFD Toolbox
   \\    /   O peration     | Website:  https://openfoam.org
    \\  /    A nd           | Version:  6
     \\/     M anipulation  |
\*---------------------------------------------------------------------------*/
FoamFile
{
    version     2.0;
    format      ascii;
    class       volScalarField;
    location    "4";
    object      T;
}
// * * * * * * * * * * * * * * * * * * * * * * * * * * * * * * * * * * * * * //

dimensions      [0 0 0 1 0 0 0];

internalField   nonuniform List<scalar> 
297
(
291.479
291.482
291.49
293.01
293.01
293.013
291.481
291.477
291.484
291.543
291.511
291.56
293.321
293.389
293.773
291.527
291.516
291.577
291.796
291.754
291.906
297.845
312.261
296.858
291.796
291.76
291.937
374.824
365.66
331.712
328.894
332.148
318.975
375.903
368.326
337.057
408.032
405.704
383.039
369.274
347.718
336.823
406.382
404.421
387.555
408.052
399.03
462.871
385.528
395.785
382.933
406.697
397.592
480.773
374.764
346.748
391.881
428.634
413.154
439.46
373.105
365.587
399.139
381.386
346.361
366.653
428.617
410.512
439.531
345.086
365.291
400.652
353.43
327.179
339.125
428.569
362.532
439.62
321.767
353.128
381.668
409.143
360.701
468.748
401.901
410.782
411.832
407.205
373.07
488.609
394.865
346.686
424.48
413.655
410.716
417.773
394.479
365.696
436.169
383.375
344.263
412.235
425.838
411.033
436.835
383.769
365.62
422.017
317.762
314.326
310.428
371.413
354.998
439.725
306.912
321.532
329.58
305.685
306.047
306.406
309.594
335.37
426.02
303.048
319.393
322.759
305.306
305.676
306.503
312.917
327.625
360.184
305.057
318.279
316.758
301.318
301.144
300.723
322.115
305.457
305.168
304.351
303.496
304.031
306.165
302.361
302.226
410.777
368.376
329.931
317.121
305.62
305.963
306.531
305.56
310.655
361.325
358.887
347.092
315.44
308.889
308.62
303.327
303.414
313.917
304.667
339.264
371.187
299.862
303.677
305.486
303.731
303.395
305.863
308.93
321.888
310.6
300.85
301.923
302.728
304.152
304.183
305.253
312.872
314.285
312.098
303.699
302.897
303.36
304.093
303.657
303.219
303.932
304.673
304.41
300.081
300.378
299.571
304.13
303.074
302.572
303.982
304.674
304.406
299.559
300.726
300.54
304.176
302.674
302.124
304.278
306.418
309.319
298.704
301.15
303.489
302.319
302.178
301.373
302.342
305.456
307.133
298.086
300.265
300.391
298.886
298.751
297.764
299.653
303.654
303.567
294.656
294.572
296.236
291.827
291.814
291.142
292.372
290.11
286.857
290.895
290.739
299.646
300.606
301.506
301.204
304.688
304.877
304.371
302.955
303.47
303.713
301.824
302.104
300.675
304.744
304.884
304.489
302.684
303.208
303.93
311.671
302.75
299.922
335.368
316.571
307.403
301.932
302.867
304.23
303.628
300.502
296.883
319.376
311.466
304.533
301.203
302.585
302.648
300.238
295.915
293.229
311.527
307.652
302.713
297.259
297.335
298.332
303.309
291.861
291.174
291.623
291.282
292.952
291.084
291.764
291.84
)
;

boundaryField
{
    fuel
    {
        type            fixedValue;
        value           uniform 293;
    }
    primary_air
    {
        type            fixedValue;
        value           uniform 293;
    }
    Secondary_air_RHS
    {
        type            fixedValue;
        value           uniform 293;
    }
    Secondary_air_LHS
    {
        type            fixedValue;
        value           uniform 293;
    }
    outlet
    {
        type            inletOutlet;
        inletValue      uniform 293;
        value           nonuniform List<scalar> 
18
(
293
291.624
293
293
291.281
293
293
292.955
293
293
292.374
293
293
290.11
293
293
286.858
293
)
;
    }
    stove_body
    {
        type            fixedValue;
        value           uniform 293;
    }
    frontAndBack
    {
        type            empty;
    }
}


// ************************************************************************* //
