/*--------------------------------*- C++ -*----------------------------------*\
  =========                 |
  \\      /  F ield         | OpenFOAM: The Open Source CFD Toolbox
   \\    /   O peration     | Website:  https://openfoam.org
    \\  /    A nd           | Version:  6
     \\/     M anipulation  |
\*---------------------------------------------------------------------------*/
FoamFile
{
    version     2.0;
    format      ascii;
    class       volVectorField;
    location    "4";
    object      U;
}
// * * * * * * * * * * * * * * * * * * * * * * * * * * * * * * * * * * * * * //

dimensions      [0 1 -1 0 0 0 0];

internalField   nonuniform List<vector> 
297
(
(77.0388 0.0345807 0.300421)
(77.0673 0.0842856 0.234235)
(77.0693 0.0487851 0.225288)
(-0.00210814 -0.00639955 0.356525)
(-0.00209405 -0.0617852 0.333089)
(-0.00209032 -0.0718595 0.32138)
(-77.0728 -0.0123879 0.263911)
(-77.0719 0.0105751 0.240342)
(-77.0746 0.0321527 0.243512)
(77.036 0.0126501 0.308281)
(77.0689 0.0987851 0.275703)
(77.0803 0.0515239 0.25158)
(-0.00210874 -0.141352 -0.21982)
(-0.00209735 -0.207134 0.00838498)
(-0.00209798 -0.161559 -0.149488)
(-77.0739 -0.0491086 0.27418)
(-77.0759 -0.00586765 0.281421)
(-77.0896 0.0147094 0.276313)
(77.1301 0.0139379 0.598178)
(77.1293 0.27388 0.579128)
(77.1639 0.244173 0.536462)
(-0.00185388 -0.124646 0.535207)
(-0.00192142 -0.0310239 0.273678)
(-0.00181894 0.276775 0.402229)
(-77.1487 -0.0890314 0.539924)
(-77.1492 0.0689583 0.577706)
(-77.1855 0.11928 0.562733)
(64.9185 4.62547 -5.56945)
(63.2355 4.70948 -2.6558)
(56.9215 2.78715 1.11977)
(0.00544556 1.04364 4.5125)
(0.00832859 -0.641241 3.94475)
(0.00865068 0.0918683 5.26231)
(-65.1208 6.61296 -5.46148)
(-63.7101 4.75365 -2.98896)
(-57.9026 2.35825 1.54789)
(71.0994 6.77456 -9.03039)
(70.7291 6.97749 -7.52779)
(66.6958 7.71275 13.6187)
(0.00325481 9.82396 37.2321)
(0.00781696 0.668975 26.3107)
(0.00976929 0.653608 34.754)
(-70.7765 11.7651 -9.43568)
(-70.4289 8.53214 -6.85368)
(-67.548 8.93423 10.8664)
(70.1643 4.04854 -11.584)
(69.2249 -7.14224 -5.52387)
(79.8178 -24.0977 19.1174)
(-0.00543672 -7.76635 51.7432)
(-0.00269268 -3.73874 11.6389)
(0.0121051 7.6503 51.9554)
(-69.9046 10.6564 -13.6066)
(-69.0062 -9.58436 -3.69802)
(-82.9126 -12.6962 24.5103)
(65.3851 -6.58131 -43.5205)
(60.0992 -2.24447 -28.6709)
(67.867 -10.5676 -39.4414)
(0.0206968 -2.1243 2.05067)
(-0.00097862 8.59743 -32.5261)
(0.00361314 -5.92761 25.0688)
(-64.3705 3.11643 -58.0626)
(-63.3966 -1.90486 -27.3992)
(-69.1975 2.4686 -37.0128)
(66.888 10.8671 -30.013)
(60.2034 -0.820658 -36.7098)
(63.7725 -22.8815 -25.6878)
(0.0214893 0.191422 -2.59099)
(-0.0138337 5.21582 -14.3514)
(-0.0229805 -5.63868 20.6297)
(-60.3126 14.2683 -35.3251)
(-63.5768 -3.62386 -36.2299)
(-70.1789 -3.42955 -19.9053)
(61.7999 19.0865 -27.5609)
(57.0643 14.4653 -34.3892)
(59.1197 -30.795 -30.9094)
(0.0591313 -2.52257 6.21357)
(0.00343254 0.109782 -16.8456)
(-0.0332663 -2.76019 18.4368)
(-56.1658 13.1378 -30.4911)
(-61.4573 -20.9574 -27.9626)
(-66.5101 -21.0988 -20.7396)
(60.3902 6.37542 -51.4094)
(58.4592 -9.79557 -14.594)
(74.2557 -40.7514 -32.7626)
(-0.0786423 -5.92377 70.4938)
(-0.0181899 -2.37281 -34.6591)
(0.00984618 -0.0366202 68.6013)
(-62.0496 12.7965 -58.175)
(-61.579 -14.0043 -16.3827)
(-77.8757 -25.3091 -32.1443)
(60.3378 1.23997 -55.2641)
(57.4487 -5.99234 -12.9482)
(66.0803 -22.5568 -39.986)
(-0.0745973 -4.87642 78.4255)
(-0.0184045 1.10087 -36.1476)
(0.0106662 0.0918021 75.1788)
(-58.7233 6.84817 -62.0148)
(-61.5654 -9.3368 -16.4351)
(-68.3389 -7.97577 -37.7942)
(62.3528 -2.32065 -52.4949)
(59.3155 -3.68976 -17.1012)
(60.8089 -17.9981 -40.2935)
(-0.0812214 -3.77767 77.4602)
(-0.0162385 3.08467 -34.8129)
(0.012627 -5.40457 78.0265)
(-52.1966 5.89727 -61.095)
(-62.7205 -7.68196 -20.4079)
(-62.7934 -4.20754 -38.0352)
(54.3059 40.7256 -7.8956)
(53.9046 14.4034 -9.23692)
(53.5099 -42.2344 -9.19863)
(0.0222356 -6.51702 -0.0573713)
(-0.00500406 -5.46826 -6.9585)
(-0.0201637 1.98388 12.8015)
(-52.6988 37.8513 -9.30974)
(-55.2674 -18.4013 -10.1112)
(-56.1977 -41.4027 -8.34405)
(52.8228 37.83 -0.93589)
(52.9405 26.1134 -4.48123)
(53.2586 -28.3999 3.79054)
(0.0151991 3.20022 -2.07548)
(-0.00701133 -2.98905 -5.33566)
(-0.0319125 0.263177 6.37142)
(-52.5837 28.0494 4.28102)
(-55.2426 -23.4665 -3.64391)
(-55.8459 -35.2303 -1.50492)
(53.0046 4.20592 3.63561)
(53.1546 8.96044 1.70219)
(53.3563 5.33976 -1.14123)
(0.00799725 -6.715 -0.840141)
(-0.0079614 -4.16825 -1.41947)
(-0.0276944 3.15959 -0.457903)
(-53.0665 -3.18234 -0.61793)
(-55.3679 -9.66696 2.00284)
(-55.1839 -0.0837115 4.82054)
(52.0252 -48.6938 -6.50291)
(51.2683 -52.1384 -9.34723)
(51.0375 -56.8579 -10.7431)
(0.0537852 1.24704 -0.314139)
(0.0906047 -9.40834 -7.72078)
(0.186143 -9.30258 -10.707)
(-51.1223 -46.0954 -6.03729)
(-52.3177 -48.6562 -14.0373)
(-52.3782 -30.4492 -22.6201)
(52.9121 -35.4135 8.73506)
(52.6918 -40.6803 7.11743)
(52.5526 -45.4449 3.95322)
(0.0196181 11.4856 4.76629)
(0.064737 8.23356 5.82571)
(0.166685 1.53396 11.4056)
(-54.0379 -36.9894 1.71155)
(-53.2605 -42.4217 -9.07098)
(-52.0975 -24.7823 -24.2087)
(53.2358 7.22694 4.50578)
(53.3135 12.7758 5.41653)
(53.6729 22.7653 10.0606)
(0.0070891 14.8589 0.657515)
(0.0419731 20.3565 0.862771)
(0.0866546 29.7793 8.58532)
(-54.8198 -10.4611 14.7486)
(-53.8822 -0.864483 17.3052)
(-52.3022 -22.0475 -33.8123)
(52.1835 30.0994 -23.6152)
(51.5429 47.9508 -7.39278)
(51.7778 42.6689 -1.49576)
(-0.216359 10.0686 -7.40287)
(-0.124903 -4.12178 -0.0218468)
(-0.0817889 -10.513 0.760222)
(-51.0205 55.6951 -10.0756)
(-51.6952 49.3836 -7.98434)
(-52.4168 44.171 -4.01995)
(51.5262 26.1155 -24.8393)
(52.7127 44.5845 -6.08094)
(51.8166 38.6263 5.13103)
(-0.173048 1.37813 10.4566)
(-0.0718691 -4.98984 2.85221)
(-0.0324617 -7.97239 -1.43956)
(-52.124 44.0736 4.48047)
(-52.3977 38.6948 7.4598)
(-52.2209 35.6008 7.99511)
(51.4715 23.3124 -34.0235)
(53.0457 6.14988 4.54338)
(52.7619 15.7541 12.3718)
(-0.0765936 -24.4997 9.11876)
(-0.0353754 -14.4174 1.7118)
(-0.0176013 -12.6462 -0.313518)
(-52.4873 -19.5936 11.9369)
(-52.7876 -8.76668 8.11359)
(-52.6788 -3.02476 7.47105)
(51.8415 -9.34094 -13.4032)
(51.6962 1.80434 -33.7139)
(51.7537 21.2693 -29.7224)
(0.013519 4.24381 -7.58995)
(-0.108306 0.863652 -9.95985)
(-0.227688 10.9163 -9.198)
(-50.3316 25.0365 -33.8826)
(-49.8693 32.2146 -24.8987)
(-51.6245 53.3181 -19.1523)
(51.8072 -4.89777 9.42889)
(51.8173 5.5126 -41.7917)
(51.5181 22.0694 -41.8436)
(-0.0627425 2.16856 13.0953)
(-0.196824 2.43215 8.69762)
(-0.248549 9.68319 10.3322)
(-50.815 6.26536 -56.9868)
(-50.782 22.8608 -30.9451)
(-52.3649 41.0275 -5.41523)
(51.5444 -0.0137974 6.02249)
(54.4057 3.89104 -50.5908)
(52.5299 11.5233 -54.5327)
(-0.144309 -0.196075 6.47442)
(-0.246178 -8.6541 8.82351)
(-0.235055 -18.5358 17.3613)
(-53.1142 3.14067 -73.124)
(-51.2767 21.5469 -21.9156)
(-51.3375 -12.9657 22.7003)
(51.8304 6.09491 -12.9783)
(52.3935 4.0969 -70.72)
(52.0987 -8.75614 -89.0699)
(-0.342884 0.816684 60.558)
(-0.343635 -1.51814 34.2744)
(-0.354559 -12.3944 32.6604)
(-52.6712 -9.42673 -102.745)
(-52.7157 11.6401 30.9355)
(-52.7657 -3.57455 70.3963)
(51.0224 0.998709 -132.301)
(51.0969 2.07599 -138.806)
(50.9654 7.1576 -136.505)
(-0.184538 3.22483 85.7622)
(-0.180284 4.56253 71.5535)
(-0.192386 0.40681 68.2331)
(-51.2266 2.97453 -136.508)
(-51.2922 -5.44963 -65.2638)
(-51.2248 0.868979 112.737)
(49.0159 0.201412 -164.934)
(49.0818 0.21332 -166.409)
(48.8939 -0.873917 -165.444)
(0.345633 0.202783 160.635)
(0.36672 1.99687 173.518)
(0.389944 0.147586 200.982)
(-48.1904 -6.15577 -155.277)
(-47.8511 -7.30979 -109.136)
(-49.0206 -4.07543 -1.71042)
(51.7625 -54.6252 -19.3861)
(49.9728 -32.685 -25.4872)
(50.4336 -25.1345 -34.3079)
(0.192855 -12.1896 -11.9435)
(0.0663039 -2.03863 -11.7118)
(-0.0609596 -4.634 -8.61178)
(-51.9012 -22.3975 -33.2226)
(-51.9203 -2.59894 -35.5426)
(-51.8696 10.3689 -13.8679)
(52.577 -41.4157 -6.33667)
(50.9552 -23.4935 -31.6281)
(50.9381 -6.1233 -57.5916)
(0.215382 -10.1107 11.1323)
(0.15304 -3.60138 10.6511)
(0.018579 -3.19065 11.7229)
(-51.8405 -19.1337 -40.5933)
(-51.7767 -7.79249 -42.1651)
(-51.8821 5.6144 10.9685)
(52.6463 17.6943 22.3705)
(51.5442 -21.326 -21.7435)
(53.3559 -3.01935 -73.7268)
(0.2176 22.8344 17.5093)
(0.206193 10.3396 11.7557)
(0.109729 0.000184954 2.70675)
(-52.7807 -13.0449 -55.0237)
(-54.1687 -3.1044 -52.2367)
(-51.7797 -1.32197 3.6595)
(53.333 5.67902 69.8278)
(52.7709 -13.475 27.0204)
(52.477 9.36889 -102.884)
(0.374657 13.9507 35.7149)
(0.358504 0.807558 35.1723)
(0.353695 -0.651357 59.1308)
(-52.0636 8.43965 -86.2563)
(-52.4631 -3.19342 -71.4927)
(-51.9147 -5.86656 -16.1777)
(51.9233 0.179906 112.897)
(51.5239 5.10269 -67.8514)
(50.9416 -2.8533 -136.194)
(0.209533 -0.0322388 70.6481)
(0.192915 -4.58603 71.8181)
(0.195051 -3.13037 85.5382)
(-50.8527 -6.83026 -135.287)
(-50.832 -1.66942 -137.073)
(-50.9056 -1.10009 -130.971)
(49.6316 4.76305 -2.56065)
(48.0462 7.34078 -109.735)
(48.2094 5.89699 -154.513)
(-0.384168 0.270695 202.933)
(-0.357963 -1.86999 175.195)
(-0.336845 -0.122666 163.062)
(-48.8639 0.862597 -164.192)
(-49.0236 -0.299575 -164.748)
(-48.9903 -0.110754 -163.716)
)
;

boundaryField
{
    fuel
    {
        type            fixedValue;
        value           uniform (0 0 0.25);
    }
    primary_air
    {
        type            fixedValue;
        value           uniform (0 0 2.5);
    }
    Secondary_air_RHS
    {
        type            fixedValue;
        value           uniform (0 47.2222 0);
    }
    Secondary_air_LHS
    {
        type            fixedValue;
        value           uniform (0 -47.2222 0);
    }
    outlet
    {
        type            pressureInletOutletVelocity;
        value           nonuniform List<vector> 
18
(
(0 0 -2.56065)
(-0.384168 0.270695 202.933)
(0 0 -164.192)
(0 0 -109.735)
(-0.357963 -1.86999 175.195)
(0 0 -164.748)
(0 0 -154.513)
(-0.336845 -0.122666 163.062)
(0 0 -163.716)
(0 0 -164.934)
(0.345633 0.202783 160.635)
(0 0 -155.277)
(0 0 -166.409)
(0.36672 1.99687 173.518)
(0 0 -109.136)
(0 0 -165.444)
(0.389944 0.147586 200.982)
(0 0 -1.71042)
)
;
    }
    stove_body
    {
        type            noSlip;
    }
    frontAndBack
    {
        type            empty;
    }
}


// ************************************************************************* //
