/*--------------------------------*- C++ -*----------------------------------*\
  =========                 |
  \\      /  F ield         | OpenFOAM: The Open Source CFD Toolbox
   \\    /   O peration     | Website:  https://openfoam.org
    \\  /    A nd           | Version:  6
     \\/     M anipulation  |
\*---------------------------------------------------------------------------*/
FoamFile
{
    version     2.0;
    format      ascii;
    class       volScalarField;
    location    "0.025";
    object      N2;
}
// * * * * * * * * * * * * * * * * * * * * * * * * * * * * * * * * * * * * * //

dimensions      [0 0 0 0 0 0 0];

internalField   nonuniform List<scalar> 
3773
(
0.415828
0.429956
0.422946
0.427612
0.42917
0.423848
0.422163
0.455327
0.469505
0.4614
0.467264
0.468338
0.462188
0.464188
0.344304
0.368941
0.348232
0.349054
0.357487
0.355002
0.352711
0.315404
0.329735
0.334374
0.330413
0.329418
0.335338
0.315054
0.345388
0.363743
0.349614
0.347862
0.357885
0.358732
0.355247
0.461054
0.468506
0.466728
0.46708
0.473562
0.461774
0.462573
0.420421
0.42947
0.427524
0.4283
0.433435
0.423642
0.421273
0.508341
0.52814
0.522651
0.522908
0.518305
0.516831
0.5131
0.949296
0.968153
0.967386
0.966856
0.966229
0.966049
0.948612
0.958412
0.966509
0.959922
0.963027
0.965538
0.958037
0.959849
0.958146
0.973696
0.974984
0.974198
0.974581
0.975509
0.959429
0.958823
0.975092
0.963332
0.962804
0.966714
0.962278
0.960157
0.949662
0.967696
0.966288
0.96609
0.966835
0.967088
0.94961
0.513361
0.516726
0.522445
0.519206
0.525948
0.521599
0.514541
0.538216
0.554009
0.551258
0.554368
0.552225
0.548104
0.554067
0.910351
0.933736
0.933816
0.932682
0.928325
0.927935
0.910829
0.979264
0.994286
0.99292
0.993653
0.993407
0.992239
0.978743
0.983983
0.998561
0.998839
0.998834
0.998875
0.998688
0.984124
0.979076
0.994563
0.993138
0.993598
0.993909
0.992651
0.978888
0.913329
0.929988
0.930502
0.92842
0.931786
0.930357
0.912091
0.554985
0.552749
0.554372
0.550985
0.557898
0.549916
0.55495
0.581259
0.605268
0.60209
0.603793
0.602158
0.599075
0.577609
0.910713
0.932036
0.932516
0.932699
0.929202
0.928066
0.910528
0.978532
0.994081
0.99405
0.994395
0.994108
0.993607
0.978167
0.985138
0.99971
0.999801
0.999817
0.999801
0.999642
0.985085
0.978429
0.993752
0.993982
0.994367
0.994571
0.99365
0.978368
0.912404
0.92911
0.929912
0.928677
0.93213
0.9298
0.911742
0.581477
0.604545
0.60415
0.602265
0.607143
0.600091
0.579001
0.607387
0.637612
0.633787
0.634553
0.632591
0.631238
0.60731
0.918605
0.93722
0.937883
0.939646
0.938394
0.936531
0.917762
0.978858
0.99436
0.994463
0.99485
0.994649
0.994286
0.978686
0.985241
0.999816
0.999881
0.999888
0.999888
0.999739
0.985143
0.978849
0.994245
0.994578
0.994692
0.995023
0.994274
0.978823
0.91944
0.937038
0.938096
0.937991
0.939684
0.937115
0.91854
0.610853
0.63128
0.634817
0.633787
0.636534
0.632484
0.60879
0.640946
0.671558
0.671066
0.672534
0.670973
0.668259
0.643924
0.933823
0.951874
0.952009
0.953363
0.952698
0.951336
0.933728
0.980772
0.996011
0.996227
0.996362
0.99626
0.996052
0.980691
0.985614
0.999899
0.999959
0.999957
0.999954
0.999786
0.985459
0.980682
0.995654
0.996183
0.996162
0.996208
0.996044
0.980656
0.935025
0.950461
0.952876
0.952679
0.953065
0.951526
0.933585
0.645317
0.663674
0.67272
0.672116
0.672797
0.668938
0.643763
0.89021
0.910258
0.917627
0.921588
0.922121
0.914645
0.895918
1
1
1
1
1
1
1
1
1
1
1
1
1
1
1
1
1
1
1
1
1
1
1
1
1
1
1
1
1
1
1
1
1
1
1
0.89134
0.899317
0.919712
0.919485
0.915065
0.91105
0.88816
0.998406
0.999358
0.999309
0.999227
0.998888
0.998393
0.997635
0.997567
0.998888
0.99884
0.998799
0.998529
0.998149
0.997045
0.995588
0.996674
0.996449
0.996456
0.996281
0.996115
0.994897
0.991557
0.992228
0.99189
0.99253
0.992892
0.99263
0.990687
0.994393
0.996195
0.99627
0.996185
0.995903
0.995453
0.994056
0.997058
0.998308
0.998481
0.998606
0.998538
0.997992
0.997099
0.998665
0.999078
0.999173
0.999181
0.999053
0.998434
0.997332
0.9999
0.999875
0.999802
0.999754
0.999685
0.99953
0.998311
0.999385
0.999754
0.999618
0.999568
0.99953
0.999356
0.997794
0.997041
0.999225
0.998841
0.999207
0.999044
0.998287
0.996659
0.992757
0.993203
0.992776
0.994101
0.994366
0.993578
0.993697
0.997103
0.997973
0.998073
0.997858
0.997773
0.997675
0.996215
0.999637
0.999635
0.999701
0.99978
0.999816
0.999714
0.998024
0.999788
0.99981
0.999859
0.999856
0.999832
0.999723
0.997908
0.999909
0.999872
0.999786
0.99972
0.999581
0.99961
0.998688
0.99968
0.99968
0.999564
0.999497
0.999422
0.999528
0.998421
0.998431
0.999503
0.999463
0.999596
0.999508
0.999174
0.997393
0.994194
0.995579
0.994748
0.995863
0.996236
0.994759
0.994526
0.998042
0.998471
0.998593
0.998487
0.998815
0.998767
0.997313
0.999764
0.999672
0.999677
0.999733
0.999811
0.999764
0.998903
0.999774
0.999789
0.999838
0.999838
0.999823
0.999744
0.99935
0.9999
0.999859
0.99978
0.999706
0.999548
0.999599
0.998684
0.999674
0.999632
0.99954
0.999469
0.999389
0.999274
0.998446
0.999046
0.999547
0.999458
0.999354
0.99929
0.99928
0.997605
0.995395
0.996512
0.996147
0.996476
0.996942
0.996038
0.994788
0.997937
0.998492
0.998733
0.998821
0.999079
0.998905
0.998151
0.999774
0.999582
0.999592
0.999711
0.99982
0.999728
0.999405
0.999768
0.999734
0.999808
0.999829
0.999872
0.999917
0.999969
0.999893
0.999857
0.999774
0.999701
0.999512
0.999174
0.99867
0.999608
0.999598
0.999529
0.999447
0.999357
0.999167
0.998543
0.999274
0.999386
0.999208
0.999211
0.999184
0.998899
0.997879
0.99646
0.997296
0.996907
0.996643
0.997012
0.996809
0.995031
0.997707
0.998508
0.998824
0.999097
0.999257
0.999138
0.998753
0.999774
0.99933
0.999387
0.999659
0.999849
0.999881
0.999869
0.999778
0.999686
0.999745
0.999789
0.999854
0.999907
0.999999
0.999892
0.999856
0.999742
0.999679
0.999484
0.998958
0.998658
0.99947
0.999431
0.999497
0.99943
0.999336
0.999328
0.999149
0.999253
0.999126
0.999031
0.999201
0.999317
0.999063
0.998321
0.997058
0.997415
0.996961
0.996675
0.99714
0.997168
0.995814
0.997779
0.998538
0.998855
0.99923
0.999319
0.999264
0.99906
0.999793
0.9992
0.999227
0.999544
0.99979
0.999894
0.999996
0.999828
0.999663
0.999702
0.999767
0.999841
0.999886
1
0.999954
0.999865
0.999702
0.999659
0.999549
0.999352
0.998956
0.99954
0.999497
0.999454
0.999376
0.999302
0.999342
0.999912
0.999317
0.998976
0.998686
0.998944
0.999452
0.999503
0.999412
0.99732
0.997499
0.997061
0.996848
0.997368
0.997395
0.996333
0.997749
0.998593
0.998952
0.999296
0.999376
0.999367
0.999259
0.999883
0.999265
0.999203
0.999488
0.999718
0.999769
1
0.999889
0.999644
0.999658
0.999761
0.999844
0.99987
1
0.999857
0.999866
0.9997
0.999615
0.999601
0.999722
0.999726
0.999712
0.999392
0.999458
0.999306
0.999167
0.999149
0.999275
0.999479
0.998504
0.998403
0.998921
0.999293
0.999367
0.999488
0.998004
0.997363
0.99703
0.997016
0.997473
0.997762
0.997974
0.998248
0.998602
0.998974
0.999223
0.999356
0.999488
0.999973
0.999587
0.999576
0.999574
0.999685
0.999751
0.999774
0.999803
0.99977
0.999755
0.999767
0.999787
0.999834
0.999873
0.999909
0.999864
0.99986
0.999668
0.999591
0.999558
0.999663
0.999519
0.99926
0.998884
0.998989
0.999105
0.999096
0.999116
0.999233
0.999302
0.998327
0.998161
0.998215
0.998971
0.999301
0.999452
0.997984
0.997344
0.997028
0.997276
0.997767
0.997951
0.998309
0.998285
0.998455
0.998909
0.999197
0.999369
0.999488
0.999955
0.999601
0.999597
0.999611
0.999647
0.999674
0.999723
0.999776
0.99976
0.999706
0.999724
0.999755
0.99982
0.999865
0.999905
0.999873
0.99985
0.999666
0.999578
0.999524
0.999633
0.999546
0.999256
0.998754
0.998897
0.999026
0.999061
0.999115
0.999234
0.99919
0.998145
0.997889
0.997978
0.998865
0.99919
0.999418
0.997991
0.997415
0.996977
0.997355
0.998087
0.998417
0.998754
0.998558
0.998517
0.998625
0.998941
0.999328
0.999442
0.999817
0.999622
0.999569
0.999545
0.999567
0.999576
0.999651
0.999769
0.999733
0.999703
0.9997
0.99975
0.999812
0.99986
0.999893
0.999896
0.999843
0.999673
0.999558
0.99952
0.999563
0.999583
0.999322
0.998731
0.998973
0.999064
0.999087
0.999143
0.99925
0.999177
0.998088
0.997777
0.997871
0.99883
0.999209
0.999409
0.998012
0.997458
0.996915
0.997346
0.998265
0.998757
0.999074
0.999307
0.998795
0.99856
0.998699
0.999182
0.999436
0.999721
0.999568
0.999379
0.999253
0.999288
0.999435
0.999576
0.999723
0.999698
0.999678
0.999709
0.999763
0.999814
0.999866
0.999879
0.999909
0.999841
0.999717
0.999608
0.999541
0.999581
0.999595
0.999324
0.998947
0.999355
0.999296
0.999115
0.99914
0.999274
0.999209
0.998065
0.99761
0.997605
0.998657
0.999153
0.999445
0.99801
0.997502
0.996839
0.997252
0.998271
0.998875
0.999179
0.999394
0.998857
0.998361
0.998563
0.999177
0.99947
0.999714
0.999541
0.999257
0.999166
0.999154
0.999357
0.999531
0.999689
0.999684
0.99964
0.999778
0.999792
0.999855
0.999883
0.999866
0.999918
0.999854
0.999781
0.999626
0.999499
0.999582
0.999613
0.999291
0.99946
0.999717
0.999443
0.99881
0.998987
0.999424
0.999197
0.998107
0.99771
0.997639
0.998062
0.998787
0.999424
0.998109
0.997541
0.996863
0.997258
0.998187
0.998841
0.999197
0.999055
0.998645
0.998428
0.998819
0.999282
0.999534
0.99969
0.999381
0.999175
0.999263
0.999348
0.999514
0.999611
0.999718
0.999642
0.999777
0.999813
0.999839
0.999893
0.999884
0.999834
0.999981
0.999901
0.999824
0.999727
0.999648
0.999612
0.999679
0.999473
0.999708
0.99985
0.999553
0.998604
0.998699
0.999414
0.998793
0.998397
0.998608
0.99845
0.998226
0.998353
0.998791
0.998243
0.997649
0.997062
0.997233
0.997869
0.998565
0.998983
0.999102
0.999039
0.998987
0.998925
0.998893
0.999017
0.999424
0.999461
0.999605
0.999742
0.999824
0.999765
0.99977
0.999805
0.999759
0.999864
0.99989
0.999906
0.99991
0.999887
0.999862
1
0.999862
0.999698
0.999622
0.999571
0.999482
1
1
0.999492
0.999183
0.999297
0.999241
0.999187
1
0.999247
0.998729
0.998484
0.998399
0.999337
0.999431
1
0.997633
0.997482
0.997035
0.996844
0.99736
0.997382
0.99701
0.997818
0.998623
0.998931
0.999254
0.99935
0.999331
0.999564
1
0.999308
0.999276
0.999561
0.999719
0.999765
1
1
0.99961
0.999613
0.999769
0.999847
0.999875
1
1
0.999864
0.999708
0.99963
0.999617
0.999582
1
1
0.999559
0.999261
0.999331
0.999237
0.999184
0.999857
0.999312
0.998734
0.998504
0.998767
0.999338
0.999403
1
0.997678
0.997476
0.99703
0.996848
0.997361
0.997385
0.99707
0.997881
0.998621
0.998923
0.999246
0.999341
0.99933
0.999671
1
0.999343
0.999294
0.999576
0.99973
0.999776
1
1
0.999663
0.999661
0.999777
0.999848
0.999877
1
1
0.999865
0.99971
0.999632
0.999624
0.99962
1
1
0.999581
0.999292
0.999336
0.999232
0.99918
0.999741
0.999355
0.998736
0.998558
0.999157
0.99932
0.999391
1
0.997746
0.997463
0.997024
0.996861
0.997368
0.997393
0.997164
0.997924
0.998619
0.998917
0.999224
0.999323
0.999337
0.999825
1
0.999405
0.999312
0.999584
0.999735
0.999779
1
1
0.999679
0.999676
0.999779
0.999849
0.999877
1
0.999965
0.999865
0.999706
0.99963
0.999608
0.999581
1
1
0.999597
0.999313
0.999336
0.99923
0.999178
0.999645
0.999448
0.998731
0.998592
0.999103
0.99931
0.999377
1
0.9978
0.997454
0.997021
0.99688
0.997375
0.99741
0.997277
0.998034
0.99862
0.998917
0.999222
0.999317
0.999356
0.999974
1
0.999432
0.999371
0.999599
0.99974
0.99978
1
1
0.999698
0.999697
0.999778
0.999849
0.999878
1
0.999943
0.999865
0.999705
0.999627
0.999598
0.99955
1
1
0.9996
0.999329
0.999332
0.999222
0.999176
0.99957
0.999532
0.998717
0.998651
0.99908
0.999302
0.999371
1
0.997867
0.997449
0.997025
0.996904
0.997397
0.997434
0.997415
0.998139
0.998623
0.998919
0.999205
0.999304
0.999378
1
0.999835
0.999467
0.999451
0.99965
0.999743
0.999781
0.999958
1
0.999705
0.999711
0.999784
0.999848
0.999878
1
0.999916
0.999867
0.999712
0.999635
0.999595
0.999388
1
1
0.999611
0.999398
0.999334
0.99922
0.999175
0.999427
0.999614
0.998716
0.998652
0.999069
0.999296
0.999365
1
0.997918
0.997442
0.997023
0.996908
0.9974
0.997443
0.997474
0.998191
0.998625
0.998922
0.9992
0.999294
0.999388
1
0.999766
0.999481
0.999491
0.999666
0.999745
0.999781
0.999907
1
0.999725
0.999742
0.999787
0.999849
0.999879
0.999983
0.999882
0.999869
0.999717
0.999642
0.999624
0.999491
1
0.99993
0.999617
0.999421
0.999338
0.999218
0.999172
0.999366
0.999706
0.998711
0.998652
0.999076
0.999295
0.999357
1
0.998023
0.997428
0.997013
0.996911
0.997403
0.997452
0.99761
0.998289
0.998624
0.998918
0.999186
0.999277
0.999388
1
0.999689
0.999528
0.99951
0.999674
0.99975
0.999785
0.999857
1
0.999751
0.99976
0.99979
0.99985
0.99988
0.999947
0.999999
0.999982
0.999956
0.999964
0.999973
0.999982
0.999996
0.999996
0.999994
0.99988
0.999784
0.999758
0.999755
0.999934
0.998797
0.998902
0.998967
0.998907
0.998783
0.998729
0.99878
0.998313
0.997638
0.997058
0.99718
0.997874
0.998571
0.998967
0.999407
0.999168
0.999043
0.998978
0.998712
0.998794
0.999344
0.999975
0.999975
0.999972
0.99995
0.999931
0.999942
0.999978
0.999997
0.999994
0.99998
0.999979
0.999983
0.99999
0.999998
0.999995
0.999971
0.999961
0.999966
0.999972
0.999978
0.999984
0.999998
0.999994
0.999884
0.999879
0.999881
0.999881
0.999926
0.998831
0.999094
0.999102
0.998952
0.99892
0.998764
0.998774
0.998312
0.99761
0.997048
0.997136
0.997851
0.998514
0.998939
0.999369
0.999168
0.999071
0.999002
0.998652
0.998726
0.999194
0.999974
0.999976
0.999949
0.99994
0.999935
0.99994
0.999965
0.999989
0.999981
0.999979
0.99998
0.999985
0.99999
0.999995
0.999988
0.999961
0.999935
0.999932
0.999942
0.999945
0.999945
0.999993
0.999992
0.99987
0.999848
0.999852
0.99985
0.999862
0.998883
0.999066
0.999017
0.998961
0.998946
0.998774
0.998748
0.998264
0.997548
0.997021
0.9971
0.99781
0.998369
0.99888
0.999306
0.998831
0.99861
0.998174
0.998459
0.998565
0.998828
0.99997
0.999965
0.999925
0.999897
0.999882
0.999896
0.999938
0.99998
0.999977
0.99997
0.99997
0.999973
0.99998
0.999982
0.999984
0.999946
0.99991
0.999892
0.999896
0.999896
0.999886
0.99998
0.999986
0.999874
0.999787
0.999785
0.999781
0.999761
0.99887
0.999017
0.999283
0.999194
0.999003
0.998879
0.998867
0.998152
0.997388
0.996978
0.997045
0.997701
0.998285
0.998727
0.999033
0.998663
0.998359
0.997883
0.998245
0.998362
0.998593
0.999957
0.99994
0.999905
0.999867
0.999847
0.999876
0.99991
0.999978
0.999973
0.999968
0.999968
0.999966
0.999967
0.999971
0.999976
0.999941
0.999909
0.999897
0.999898
0.999899
0.999876
0.999978
0.999981
0.9999
0.999817
0.999785
0.999782
0.999775
0.998872
0.999022
0.999467
0.999361
0.999088
0.998984
0.999007
0.997989
0.997165
0.996936
0.996992
0.997563
0.998144
0.998625
0.99897
0.998565
0.998408
0.998262
0.99825
0.998258
0.998336
0.999941
0.999912
0.999883
0.999852
0.999825
0.99982
0.999835
0.999973
0.999971
0.999967
0.999964
0.999955
0.999946
0.999946
0.999962
0.999938
0.999915
0.999914
0.999914
0.999911
0.999915
0.999975
0.99998
0.999936
0.999907
0.999856
0.999837
0.999837
0.999015
0.999182
0.999572
0.999508
0.999305
0.99913
0.999023
0.997555
0.997129
0.996961
0.996997
0.997353
0.997796
0.998331
0.999263
0.999095
0.998827
0.998485
0.998281
0.998369
0.998402
0.99992
0.999903
0.999895
0.999877
0.999864
0.999857
0.999876
0.999972
0.999968
0.999967
0.999965
0.99996
0.999955
0.999954
0.99995
0.999936
0.999932
0.99993
0.999927
0.999928
0.999929
0.999969
0.999973
0.99996
0.999949
0.999939
0.999926
0.999922
0.999433
0.99974
0.999877
0.9998
0.999494
0.999201
0.999046
0.997683
0.998044
0.997443
0.99732
0.997312
0.997386
0.997763
0.999489
0.99957
0.999277
0.998969
0.998653
0.998497
0.998438
0.999928
0.999921
0.999918
0.999931
0.999929
0.999921
0.99992
0.99997
0.999969
0.999968
0.999969
0.999969
0.999968
0.999968
0.999998
0.999998
0.999998
0.999999
0.999999
0.999999
0.999999
0.999974
0.999991
0.999998
0.999999
0.999999
1
1
0.998846
0.999109
0.999946
0.999957
0.999953
0.999952
0.999945
0.998963
0.99915
0.999656
0.999816
0.999876
0.999881
0.999881
0.999349
0.999355
0.999611
0.99995
0.999966
0.999966
0.999964
0.999987
0.999991
0.999992
0.999999
1
1
1
0.999999
0.999999
1
1
1
1
1
0.999987
0.999988
0.999988
0.999989
0.999991
0.999993
0.999997
0.999958
0.999969
0.99999
0.999997
0.999997
0.999998
0.999998
0.998825
0.998896
0.99931
0.99996
0.999954
0.999952
0.999943
0.998951
0.998992
0.999137
0.999471
0.999629
0.999722
0.99974
0.999307
0.999324
0.999422
0.999557
0.999899
0.999959
0.999958
0.999967
0.999978
0.999981
0.999992
0.999998
1
1
0.999996
0.999996
0.999997
0.999997
0.999997
0.999998
0.999999
0.999943
0.999942
0.999949
0.999953
0.999958
0.999969
0.99999
0.999899
0.999925
0.999946
0.999972
0.999986
0.999987
0.999988
0.998755
0.998796
0.998885
0.999543
0.999956
0.99995
0.999944
0.998934
0.998946
0.998987
0.999062
0.999253
0.999345
0.999525
0.999103
0.999169
0.99921
0.999328
0.99946
0.99973
0.999867
0.999954
0.99997
0.999975
0.999982
0.999985
0.999997
0.999999
0.999986
0.999987
0.999987
0.999989
0.999992
0.999996
0.999997
0.999886
0.999893
0.999901
0.99991
0.999915
0.999934
0.999964
0.999754
0.999821
0.99985
0.999925
0.999953
0.999958
0.999958
0.998826
0.99881
0.998832
0.998953
0.999364
0.999782
0.999947
0.998864
0.998879
0.998882
0.9989
0.998975
0.999025
0.999166
0.998739
0.998787
0.99886
0.998918
0.998976
0.999141
0.999365
0.99992
0.999937
0.99994
0.999946
0.99997
0.99998
0.99998
0.999969
0.999969
0.99997
0.999974
0.999978
0.999986
0.999995
0.999891
0.999893
0.999895
0.999898
0.999901
0.999911
0.999943
0.999779
0.999791
0.999788
0.999841
0.999924
0.999932
0.999946
0.999017
0.999013
0.998968
0.998954
0.999006
0.999193
0.999624
0.998774
0.998834
0.998842
0.998845
0.998856
0.998875
0.998946
0.998477
0.998537
0.998573
0.998603
0.99868
0.998741
0.998869
0.999937
0.999946
0.999947
0.999947
0.999946
0.999942
0.99993
0.999959
0.99996
0.99996
0.99996
0.999966
0.999977
0.999992
0.999911
0.999901
0.999898
0.999902
0.999906
0.999915
0.999928
0.999824
0.999803
0.999791
0.999814
0.99983
0.999867
0.999884
0.999046
0.999051
0.999067
0.999057
0.999049
0.999103
0.999187
0.998556
0.998696
0.998721
0.998743
0.998754
0.998777
0.998815
0.998477
0.998505
0.998599
0.998649
0.99874
0.998773
0.998798
0.999936
0.999931
0.999925
0.999921
0.99992
0.99993
0.999942
0.999957
0.999958
0.999957
0.999957
0.999963
0.999968
0.99999
0.999929
0.999928
0.999927
0.999926
0.999926
0.999926
0.999927
0.999911
0.999904
0.9999
0.999895
0.999896
0.999896
0.999892
0.998818
0.998762
0.998767
0.998775
0.998813
0.998882
0.998912
0.997843
0.998012
0.998054
0.998142
0.998163
0.998239
0.998296
0.998518
0.998527
0.998551
0.998605
0.998652
0.998712
0.998733
0.999924
0.999928
0.999932
0.999933
0.999934
0.999936
0.999938
0.999969
0.999967
0.999966
0.999967
0.999969
0.99997
0.999988
1
0.999999
0.999999
0.999999
0.999999
0.999999
0.999999
1
1
1
1
0.999998
0.999998
0.999997
0.99992
0.999468
0.99889
0.998825
0.998793
0.998804
0.998805
0.999419
0.999348
0.999308
0.99937
0.999383
0.999311
0.998556
0.999933
0.999944
0.99995
0.99996
0.999963
0.999962
0.999933
1
1
1
0.999999
0.999999
0.999999
0.999999
1
0.999999
0.999999
0.999999
0.999999
0.999999
0.999999
0.999999
0.999996
0.999995
0.999993
0.999993
0.999993
0.999994
1
0.999999
0.999999
0.999999
0.999999
0.999999
0.999999
0.999917
0.999376
0.998926
0.998919
0.99885
0.998821
0.99881
0.999377
0.999284
0.999209
0.999201
0.99908
0.998939
0.998513
0.999935
0.999941
0.999952
0.999954
0.999958
0.999956
0.999794
0.999998
0.999998
0.999997
0.999996
0.999996
0.999995
0.999993
0.999999
0.999996
0.999993
0.999991
0.999989
0.999989
0.999989
0.999996
0.999989
0.999983
0.99998
0.99998
0.99998
0.999982
0.999998
0.999997
0.999996
0.999996
0.999995
0.999992
0.999991
0.999881
0.999121
0.99896
0.998916
0.998876
0.998861
0.998857
0.99929
0.999195
0.99915
0.999078
0.998981
0.998786
0.998485
0.99993
0.999938
0.999946
0.999951
0.999952
0.99995
0.999671
0.999988
0.999986
0.999982
0.999979
0.999977
0.999974
0.999968
0.999994
0.999987
0.999981
0.999979
0.999978
0.999976
0.999976
0.999992
0.999972
0.99997
0.999974
0.999976
0.999976
0.999979
0.999991
0.999985
0.999983
0.999982
0.999981
0.99998
0.999973
0.999601
0.999018
0.998956
0.998944
0.998905
0.998878
0.998867
0.999159
0.999078
0.999003
0.998879
0.998709
0.998574
0.998391
0.999951
0.999955
0.999944
0.999914
0.99979
0.999559
0.999228
0.99997
0.999964
0.999956
0.999954
0.999952
0.999939
0.99995
0.999987
0.999975
0.999976
0.999977
0.999978
0.999978
0.999978
0.999985
0.999966
0.999967
0.999976
0.999978
0.999978
0.999979
0.999979
0.999973
0.999969
0.999969
0.999968
0.999968
0.99997
0.99908
0.998919
0.998891
0.998884
0.99887
0.998865
0.998875
0.998953
0.998813
0.998763
0.998658
0.998525
0.998379
0.998177
0.999895
0.999821
0.999787
0.999741
0.999629
0.999472
0.999368
0.999951
0.999947
0.999945
0.999944
0.999944
0.999944
0.999944
0.999979
0.999974
0.999975
0.999976
0.999976
0.999976
0.999975
0.999981
0.999962
0.999962
0.999966
0.999971
0.999972
0.999971
0.999973
0.999973
0.999974
0.999974
0.999973
0.999973
0.999974
0.999099
0.999088
0.999111
0.99909
0.99904
0.999026
0.999022
0.998665
0.998455
0.998399
0.998329
0.998124
0.997987
0.997905
0.999727
0.999682
0.999617
0.999569
0.99952
0.999458
0.99943
0.999951
0.999948
0.999941
0.999937
0.99993
0.999929
0.999924
0.999975
0.999973
0.999973
0.999973
0.999973
0.999973
0.999973
0.999979
0.999956
0.999954
0.999953
0.999953
0.999952
0.999952
0.999968
0.999967
0.999967
0.999966
0.999966
0.999965
0.999965
0.999192
0.999175
0.999109
0.999088
0.999128
0.999175
0.999216
0.998064
0.997986
0.997857
0.997807
0.997751
0.997725
0.997699
0.999644
0.999622
0.999559
0.999524
0.99948
0.999395
0.99937
0.99996
0.999958
0.999953
0.999945
0.999942
0.999938
0.999937
0.999977
0.999978
0.999973
0.999972
0.999972
0.999972
0.999972
1
1
1
1
1
1
1
1
1
1
1
1
1
1
0.999785
0.999798
0.999814
0.999865
0.999889
0.999912
0.999921
0.999405
0.999424
0.999432
0.999438
0.999442
0.999447
0.999439
0.999794
0.999804
0.99982
0.999868
0.999901
0.999916
0.999925
1
1
1
1
1
1
1
1
1
1
1
1
1
1
1
1
1
1
1
1
1
1
1
1
1
1
1
1
0.999777
0.999788
0.999809
0.999857
0.999881
0.9999
0.999919
0.999387
0.999407
0.999416
0.999421
0.999426
0.999427
0.999412
0.999786
0.999788
0.999804
0.999866
0.999887
0.99991
0.99992
1
1
1
0.999999
0.999999
0.999999
0.999999
1
1
1
1
1
1
0.999999
1
1
1
1
1
1
1
1
1
1
1
1
0.999999
0.999999
0.999774
0.999767
0.999783
0.999841
0.999882
0.999906
0.999927
0.999388
0.999405
0.999425
0.999432
0.999442
0.999409
0.999373
0.999783
0.999775
0.999788
0.999854
0.999884
0.999913
0.999921
1
1
0.999999
0.999998
0.999996
0.999994
0.999989
1
1
1
1
1
0.999999
0.999998
1
1
1
1
1
1
1
1
1
1
0.999999
0.999999
0.999996
0.999993
0.999776
0.999768
0.999782
0.999829
0.999882
0.999931
0.999917
0.999382
0.999396
0.999417
0.999423
0.999421
0.999374
0.999299
0.999785
0.999778
0.999788
0.999832
0.99988
0.999918
0.99994
1
1
0.999999
0.999993
0.999984
0.99998
0.999973
1
1
1
1
0.999999
0.999999
0.999998
1
1
1
1
1
1
1
1
1
1
0.999998
0.999997
0.99999
0.999982
0.999775
0.999772
0.999789
0.999855
0.99988
0.999815
0.999402
0.999374
0.999386
0.999388
0.999353
0.999277
0.999157
0.999026
0.999784
0.999786
0.999798
0.999854
0.99991
0.999933
0.999928
1
1
0.999995
0.999986
0.999978
0.99997
0.999958
1
1
1
1
0.999999
0.999999
0.999997
1
1
1
1
1
1
1
1
1
0.999999
0.999996
0.999989
0.999979
0.999976
0.999763
0.999759
0.99979
0.999857
0.99984
0.999439
0.999178
0.999368
0.999371
0.999345
0.999268
0.99913
0.998924
0.998761
0.99977
0.999774
0.999798
0.999862
0.999916
0.999911
0.999823
1
1
0.999991
0.999982
0.999972
0.999961
0.999957
1
1
1
1
0.999999
0.999999
0.999997
1
1
1
1
1
1
1
1
1
0.999999
0.999993
0.999983
0.999978
0.999975
0.999778
0.99976
0.999787
0.999761
0.999468
0.999261
0.999191
0.999343
0.999253
0.999043
0.998817
0.998564
0.998362
0.998237
0.999781
0.999773
0.999813
0.999856
0.999843
0.999762
0.999695
1
1
0.999989
0.999982
0.999968
0.999964
0.99996
1
1
1
1
0.999999
0.999999
0.999997
1
1
1
1
1
1
1
1
1
0.999999
0.999999
0.999993
0.999996
1
0.999772
0.9998
0.999801
0.999814
0.999515
0.999534
0.999574
0.99923
0.999104
0.999055
0.99899
0.99893
0.998909
0.999032
0.999788
0.999813
0.999837
0.999866
0.999878
0.999852
0.999841
1
0.999999
0.999998
0.999998
0.999986
0.999983
0.999974
1
1
1
1
0.999999
0.999999
0.999999
1
1
1
1
1
1
1
1
0.999999
0.999999
0.999997
0.999994
1
1
0.999824
0.999852
0.999854
0.99986
0.999701
0.999648
0.999754
0.999234
0.999139
0.999141
0.999132
0.999082
0.999009
0.999161
0.999855
0.999867
0.999873
0.999891
0.999906
0.999902
0.999891
1
0.999999
0.999997
0.999996
0.999993
0.999991
0.999987
1
1
1
1
0.999999
0.999999
0.999999
1
1
1
1
1
1
1
1
1
1
1
1
1
1
0.999866
0.999875
0.999876
0.99988
0.999767
0.999693
0.999801
0.999266
0.999205
0.999264
0.999283
0.999198
0.99915
0.999218
0.999911
0.99991
0.9999
0.999905
0.999918
0.999916
0.999906
1
1
1
1
1
1
1
1
1
1
1
1
1
1
1
1
1
1
1
1
1
1
1
1
1
1
1
1
0.999862
0.999868
0.999872
0.999875
0.999778
0.999734
0.99983
0.999258
0.999203
0.999273
0.999293
0.999213
0.999198
0.999265
0.999912
0.99991
0.999903
0.999909
0.999919
0.99992
0.999914
1
1
1
1
1
1
1
1
1
1
1
1
1
1
1
1
1
1
1
1
1
1
1
1
1
1
1
1
0.999839
0.999843
0.999859
0.999861
0.999781
0.999753
0.999835
0.999233
0.999188
0.999275
0.99929
0.999209
0.999201
0.999279
0.999895
0.999904
0.999901
0.999907
0.999917
0.999919
0.999914
1
1
1
1
1
1
1
1
1
1
1
1
1
1
1
1
1
1
1
1
1
1
1
1
1
1
1
1
0.999852
0.999854
0.999863
0.999865
0.999802
0.999796
0.999846
0.999223
0.999188
0.999287
0.9993
0.999221
0.999226
0.999328
0.999871
0.999886
0.999901
0.999907
0.999914
0.999916
0.999913
1
1
1
1
1
1
1
1
1
1
1
1
1
1
1
1
1
1
1
1
1
1
1
1
1
1
1
1
0.999861
0.999864
0.999866
0.999869
0.999814
0.999811
0.999845
0.999203
0.999173
0.999277
0.999295
0.999222
0.999233
0.999351
0.999834
0.999862
0.999894
0.9999
0.999906
0.999907
0.999905
1
1
1
1
1
1
1
1
1
1
1
1
1
1
1
1
1
1
1
1
1
1
1
1
1
1
1
1
0.999942
0.999939
0.999937
0.999926
0.999919
0.999912
0.999907
0.999877
0.999867
0.99986
0.999853
0.999843
0.999812
0.999775
0.99996
0.999956
0.999948
0.99994
0.999931
0.999927
0.99993
1
1
1
1
1
1
1
1
1
1
1
1
1
1
0.999998
0.999999
1
1
1
1
1
0.999998
0.999999
0.999999
0.999999
1
1
1
0.999939
0.999935
0.99993
0.99992
0.999913
0.999902
0.999897
0.99974
0.999748
0.999754
0.999762
0.999775
0.999775
0.999747
0.999956
0.999949
0.999942
0.999927
0.999917
0.999914
0.999917
1
1
1
1
1
1
1
0.999999
1
1
1
1
1
1
0.999996
0.999998
1
1
1
1
1
0.999989
0.999991
0.999996
0.999998
0.999999
1
1
0.999938
0.999932
0.99992
0.999893
0.999882
0.999878
0.999872
0.999557
0.99959
0.999603
0.999614
0.999632
0.999676
0.999673
0.999946
0.99994
0.999932
0.999901
0.999879
0.999886
0.999892
0.999999
0.999999
1
1
1
1
1
0.999999
0.999999
1
1
1
1
1
0.999994
0.999997
0.999999
1
1
1
1
0.999958
0.999963
0.999977
0.999989
0.999998
1
1
0.999936
0.999918
0.999899
0.999874
0.999866
0.999867
0.999859
0.999227
0.999332
0.999411
0.999464
0.999527
0.999608
0.999648
0.999701
0.999854
0.999923
0.999896
0.999872
0.999876
0.999877
0.99999
0.999995
0.999999
1
1
1
1
0.999998
0.999999
1
1
1
1
1
0.999992
0.999997
0.999999
1
1
1
1
0.999945
0.99994
0.999951
0.999968
0.999995
1
1
0.999844
0.999898
0.999904
0.999873
0.999833
0.999837
0.999835
0.998992
0.999088
0.999149
0.999227
0.99928
0.999399
0.999545
0.999053
0.999352
0.999704
0.999855
0.999853
0.999848
0.999842
0.999925
0.999981
0.999997
1
1
1
1
0.999998
0.999998
1
1
1
1
1
0.99999
0.999996
0.999999
1
1
1
1
0.99988
0.999902
0.999928
0.999951
0.999992
1
1
0.999425
0.999768
0.999891
0.999873
0.999803
0.999788
0.999784
0.998895
0.998985
0.99906
0.999161
0.999225
0.999308
0.999501
0.998869
0.999054
0.999384
0.999801
0.999845
0.999794
0.999777
0.999958
0.999965
0.99999
0.999999
1
1
1
0.999998
0.999998
1
1
1
1
1
0.999989
0.999996
0.999999
1
1
1
1
0.999884
0.999899
0.999911
0.999942
0.999991
1
1
0.999012
0.999202
0.999463
0.99975
0.999778
0.999759
0.999749
0.998434
0.998543
0.998665
0.998827
0.998977
0.999106
0.999375
0.998778
0.998819
0.999007
0.999321
0.999715
0.999744
0.999778
0.999949
0.999955
0.999972
0.999999
1
1
1
0.999998
0.999998
1
1
1
1
1
0.999989
0.999998
1
1
1
1
1
0.999929
0.999966
0.999982
0.999996
0.999999
1
0.999999
0.999497
0.999569
0.999705
0.999826
0.999832
0.999806
0.999752
0.998815
0.998796
0.998859
0.999019
0.999056
0.999066
0.999208
0.99938
0.999231
0.999215
0.999495
0.999759
0.999787
0.99979
0.999986
0.999989
0.999997
0.999999
1
1
1
0.999998
0.999999
1
1
1
1
1
0.999999
1
1
1
1
1
1
0.999979
0.999989
0.999996
0.999999
1
1
0.999999
0.999705
0.999758
0.999818
0.999857
0.999855
0.999833
0.999805
0.998893
0.998872
0.999027
0.999159
0.999218
0.999143
0.999241
0.999507
0.999417
0.999453
0.999726
0.99983
0.999848
0.999857
0.999996
0.999998
0.999999
1
1
1
1
1
1
1
1
1
1
1
1
1
1
1
1
1
1
1
1
1
1
1
1
0.999999
0.99972
0.999789
0.999849
0.999886
0.999895
0.99988
0.999854
0.998909
0.998898
0.99906
0.999244
0.999283
0.999188
0.999248
0.999511
0.999446
0.999544
0.999795
0.999862
0.999888
0.999907
1
1
1
1
1
1
1
1
1
1
1
1
1
1
1
1
1
1
1
1
1
1
1
1
1
1
1
0.999999
0.999748
0.999781
0.999847
0.999876
0.99988
0.99986
0.99983
0.998946
0.998898
0.999025
0.99923
0.999278
0.999188
0.999237
0.999535
0.999503
0.999558
0.999779
0.999863
0.999894
0.999929
1
1
1
1
1
1
1
1
1
1
1
1
1
1
1
1
1
1
1
1
1
1
1
1
1
1
1
1
0.999751
0.999781
0.999848
0.999877
0.999881
0.999836
0.999797
0.998951
0.998902
0.999025
0.999231
0.999279
0.99919
0.999227
0.999577
0.999576
0.999622
0.999787
0.999869
0.999898
0.999932
1
1
1
1
1
1
1
1
1
1
1
1
1
1
1
1
1
1
1
1
1
1
1
1
1
1
1
1
0.999763
0.999791
0.999858
0.999886
0.999888
0.999847
0.999814
0.998976
0.998934
0.999056
0.999257
0.9993
0.999206
0.999233
0.999615
0.999622
0.999681
0.999816
0.99989
0.999913
0.999945
1
1
1
1
1
1
1
1
1
1
1
1
1
1
1
1
1
1
1
1
1
1
1
1
1
1
1
1
0.999768
0.999796
0.999861
0.999891
0.999894
0.999856
0.999824
0.99899
0.998951
0.999077
0.999265
0.999307
0.999206
0.999237
0.999648
0.999661
0.999725
0.999828
0.999899
0.99992
0.999946
1
1
1
1
1
1
1
1
1
1
1
1
1
1
)
;

boundaryField
{
    fuel
    {
        type            fixedValue;
        value           uniform 0;
    }
    primary_air
    {
        type            fixedValue;
        value           uniform 0.77;
    }
    Secondary_air_RHS
    {
        type            fixedValue;
        value           uniform 0.77;
    }
    Secondary_air_LHS
    {
        type            fixedValue;
        value           uniform 0.77;
    }
    outlet
    {
        type            inletOutlet;
        inletValue      uniform 0;
        value           nonuniform List<scalar> 
98
(
1
1
0.999768
0.99899
0.999648
1
1
1
1
0.999796