/*--------------------------------*- C++ -*----------------------------------*\
  =========                 |
  \\      /  F ield         | OpenFOAM: The Open Source CFD Toolbox
   \\    /   O peration     | Website:  https://openfoam.org
    \\  /    A nd           | Version:  6
     \\/     M anipulation  |
\*---------------------------------------------------------------------------*/
FoamFile
{
    version     2.0;
    format      ascii;
    class       volScalarField;
    location    "0.025";
    object      O2;
}
// * * * * * * * * * * * * * * * * * * * * * * * * * * * * * * * * * * * * * //

dimensions      [0 0 0 0 0 0 0];

internalField   nonuniform List<scalar> 
3773
(
0
0
0
0
0
0
0
0
0
0
0
0
0
0
0
0
0
0
0
0
0
0
0
0
0
0
0
0
0
0
0
0
0
0
0
0
0
0
0
0
0
0
0
0
0
0
0
0
0
0
0
0
0
0
0
0
0
0
0
0
0
0
0
0
0
0
0
0
0
0
0
0
0
0
0
0
0
0
0
0
0
0
0
0
0
0
0
0
0
0
0
0
0
0
0
0
0
0
0
0
0
0
0
0
0
0
0
0
0
0
0
0
0
0
0
0
0
0
0
0
0
0
0
0
0
0
0
0
0
0
0
0
0
0
0
0
0
0
0
0
0
0
0
0
0
0
0
0
0
0
0
0
0
0
0
0
0
0
0
0
0
0
0
0
0
0
0
0
0
0
0
0
0
0
0
0
0
0
0
0
0
0
0
0
0
0
0
0
0
0
0
0
0
0
0
0
0
0
0
0
0
0
0
0
0
0
0
0
0
0
0
0
0
0
0
0
0
0
0
0
0
0
0
0
0
0
0
0
0
0
0
0
0
0
0
0
0
0
0
0
0
0
0
0
0
0
0
0
0
0
0
0
0
0
0
0
0
0
0
0
0
0
0
0
0
0
0
0
0
0
0
0
0
0
0
0
0
0
0
0
0
0
0
0
0
0
0
0
0
0
0
0
0
0
0
0
0
0
0
0
0
0
0
0
0
0
0
0
0
0
0
0
0
0
0
0
0
0
0
0
0
0
0
0
0
0
0
0
0
0
0
0
0
0
0
0
0
0
0
0
0
0
0
0.00159418
0.000641959
0.000691478
0.000772771
0.0011124
0.00160698
0.00236485
0.00243343
0.00111158
0.00115973
0.00120063
0.00147112
0.00185123
0.00295474
0.00441238
0.00332593
0.00355136
0.0035444
0.00371876
0.00388468
0.00510336
0.00844298
0.00777247
0.00810991
0.00747005
0.00710781
0.00737029
0.00931335
0.00560741
0.00380516
0.00373023
0.00381489
0.00409689
0.00454703
0.00594368
0.00294222
0.00169245
0.00151879
0.00139378
0.00146158
0.0020083
0.00290067
0.00133475
0.000922097
0.000826692
0.000818507
0.000947313
0.00156551
0.00266808
9.99811e-05
0.000125143
0.00019762
0.000245923
0.000315322
0.000469706
0.00168928
0.000614564
0.000245785
0.000381811
0.00043184
0.000469684
0.000643978
0.00220628
0.00295854
0.000774592
0.00115883
0.000793391
0.000955597
0.00171286
0.0033407
0.00724301
0.00679678
0.00722394
0.00589873
0.00563401
0.00642209
0.00630295
0.00289707
0.00202666
0.00192668
0.00214231
0.00222674
0.00232514
0.00378525
0.000363093
0.000364809
0.000299497
0.000219772
0.00018391
0.00028584
0.00197605
0.000212051
0.000190014
0.000141209
0.000144457
0.000168364
0.000276894
0.00209231
9.10861e-05
0.00012756
0.000213713
0.000279864
0.000418954
0.000389772
0.0013122
0.000319856
0.000319886
0.000435581
0.000502753
0.000577741
0.000472465
0.00157873
0.00156933
0.000496693
0.000536887
0.000403947
0.000491515
0.000825626
0.00260712
0.00580636
0.00442129
0.00525168
0.00413741
0.00376393
0.00524087
0.00547434
0.00195794
0.00152856
0.00140725
0.00151308
0.001185
0.00123256
0.00268682
0.000235761
0.000328177
0.000322691
0.000267108
0.000189051
0.000236129
0.00109735
0.000226414
0.000210764
0.000161925
0.000162007
0.000176629
0.000255976
0.000649955
0.000100086
0.000141442
0.000220049
0.000293665
0.000452357
0.000401489
0.00131617
0.000325687
0.000368055
0.000459564
0.000531323
0.000610551
0.000725971
0.00155406
0.000953578
0.000453398
0.000541834
0.000645529
0.000710402
0.000719561
0.00239534
0.00460476
0.00348834
0.00385284
0.00352375
0.00305839
0.00396241
0.00521205
0.00206349
0.0015076
0.00126742
0.00117934
0.000921444
0.00109471
0.00184875
0.000225931
0.00041846
0.000407814
0.000288584
0.000179608
0.0002718
0.000594648
0.00023243
0.000265997
0.000191838
0.000170981
0.000128236
8.30471e-05
3.13133e-05
0.000107464
0.000143345
0.000225783
0.000299196
0.000488123
0.000826325
0.00132991
0.000391547
0.000401929
0.00047127
0.00055282
0.000643209
0.000832792
0.00145733
0.000725935
0.000614213
0.000792216
0.000789013
0.000815892
0.00110084
0.00212086
0.00354028
0.00270424
0.00309287
0.00335693
0.00298839
0.00319145
0.00496876
0.00229308
0.00149153
0.00117586
0.000902743
0.000742595
0.000861734
0.00124695
0.000225697
0.000670245
0.000613043
0.000340788
0.00015114
0.000119017
0.000131124
0.000221516
0.00031439
0.000255068
0.000211229
0.000146392
9.33275e-05
5.59377e-07
0.000107722
0.000143728
0.000258049
0.000321298
0.000516202
0.00104243
0.0013423
0.000530004
0.000568787
0.000503058
0.00057034
0.00066387
0.000672359
0.000851318
0.000747212
0.000874114
0.000969325
0.000798987
0.000682665
0.000936616
0.00167923
0.00294171
0.00258547
0.00303881
0.00332483
0.0028604
0.00283185
0.00418587
0.00222101
0.00146218
0.00114518
0.00077049
0.000680937
0.000736219
0.000939687
0.000207224
0.000800261
0.000772535
0.000456106
0.000209584
0.000105929
4.11874e-06
0.000171981
0.000337076
0.000297525
0.00023294
0.00015942
0.000113595
3.43571e-07
4.56008e-05
0.000135069
0.000298269
0.000340727
0.000451078
0.000647883
0.00104449
0.000459679
0.00050291
0.00054626
0.000623947
0.000697574
0.000657743
8.76878e-05
0.000683362
0.00102428
0.00131353
0.00105641
0.000547639
0.000497175
0.000587539
0.00268043
0.0025009
0.00293864
0.00315234
0.00263157
0.00260518
0.00366704
0.00225148
0.0014066
0.00104827
0.00070351
0.000624384
0.000633273
0.000741277
0.000117094
0.000735433
0.000796941
0.000512346
0.000282151
0.000230573
0
0.000110895
0.000356289
0.000342127
0.000239443
0.000155512
0.000129937
0
0.000143155
0.00013371
0.000300144
0.000385042
0.000399336
0.000277781
0.000274105
0.00028815
0.000608199
0.000542033
0.000693551
0.000833445
0.000851326
0.000724783
0.000521073
0.00149604
0.001597
0.00107928
0.000707325
0.000633356
0.00051232
0.00199574
0.00263661
0.00296996
0.00298424
0.002527
0.00223756
0.0020262
0.00175202
0.0013985
0.00102632
0.000777182
0.000644071
0.000511801
2.74509e-05
0.000413331
0.000423574
0.000425621
0.000315366
0.000249476
0.000226486
0.000196993
0.000230339
0.000244597
0.000232577
0.000212799
0.000166308
0.000126533
9.1069e-05
0.000136
0.000139812
0.000332122
0.00040897
0.000441599
0.0003373
0.000481029
0.000739963
0.0011158
0.00101083
0.000895229
0.000903692
0.000883799
0.000767064
0.000698142
0.0016726
0.00183866
0.00178497
0.00102927
0.000699318
0.000547759
0.00201619
0.00265635
0.00297183
0.00272425
0.00223288
0.00204907
0.00169107
0.00171505
0.00154536
0.00109117
0.000803228
0.000630801
0.000512086
4.54613e-05
0.000398536
0.00040334
0.000389175
0.000353282
0.000325717
0.000276903
0.000223613
0.000239851
0.000294015
0.000275538
0.000244552
0.00017987
0.000134794
9.53054e-05
0.000126993
0.000149908
0.000333667
0.000422483
0.000476355
0.000367418
0.000453928
0.000744133
0.00124624
0.00110277
0.000974371
0.000938998
0.000885401
0.0007664
0.000810164
0.00185466
0.0021113
0.00202211
0.0011347
0.000809572
0.000581922
0.00200927
0.00258518
0.00302291
0.00264515
0.00191309
0.00158332
0.00124582
0.00144236
0.00148324
0.00137539
0.00105921
0.000671553
0.000558092
0.000183443
0.00037808
0.000431212
0.000455139
0.000433326
0.000423744
0.000349402
0.000231338
0.000266614
0.000297241
0.000299541
0.000250478
0.000187923
0.000140473
0.000107382
0.000104384
0.000156622
0.00032696
0.00044199
0.000479611
0.00043731
0.000417388
0.000677944
0.00126862
0.00102714
0.000935687
0.000913224
0.000857451
0.000750302
0.000823498
0.00191202
0.00222264
0.00212891
0.00116968
0.000790912
0.00059119
0.00198822
0.00254241
0.00308515
0.00265376
0.00173528
0.00124322
0.000925862
0.000693168
0.00120528
0.00144007
0.00130147
0.000818054
0.000564079
0.000279055
0.000432356
0.000621055
0.000747466
0.000712435
0.000565477
0.000423939
0.000276765
0.000302245
0.000322053
0.000290798
0.000237453
0.000186075
0.000133725
0.000121312
9.11151e-05
0.000158575
0.000282778
0.000392095
0.000458809
0.000419025
0.000404612
0.000675854
0.00105271
0.000645469
0.00070433
0.000884855
0.000859916
0.000725627
0.000791223
0.00193541
0.00239015
0.00239514
0.00134287
0.00084652
0.000554784
0.00199011
0.00249782
0.00316148
0.00274781
0.00172946
0.00112542
0.000820786
0.000605835
0.00114269
0.00163871
0.00143744
0.00082281
0.00053018
0.000286188
0.000459353
0.000742821
0.000833709
0.000846199
0.000643258
0.000468941
0.000310641
0.000315676
0.000360466
0.000221522
0.000208237
0.000145496
0.000117107
0.000134355
8.2063e-05
0.000146003
0.000219479
0.000373616
0.000500956
0.000417697
0.00038742
0.000709177
0.000539505
0.00028345
0.000556973
0.00119036
0.00101288
0.000575795
0.000803122
0.00189272
0.00229043
0.00236094
0.00193828
0.00121339
0.000576361
0.00189086
0.00245873
0.00313708
0.00274213
0.00181255
0.00115923
0.000802596
0.000944533
0.00135523
0.00157172
0.00118106
0.00071775
0.000466271
0.000309755
0.000618852
0.000825015
0.00073697
0.00065157
0.000485719
0.000389214
0.000282016
0.0003579
0.000223088
0.000186596
0.000160741
0.000106721
0.000115541
0.000165659
1.85104e-05
9.89155e-05
0.000176333
0.000273294
0.000352425
0.000388086
0.000320718
0.000526668
0.000291616
0.000149741
0.000446621
0.00139585
0.00130131
0.000586201
0.00120712
0.0016025
0.00139213
0.00154955
0.00177389
0.00164699
0.00120924
0.00175727
0.00235071
0.00293803
0.00276689
0.00213074
0.00143537
0.00101654
0.000897644
0.000961253
0.00101338
0.00107518
0.0011067
0.000983136
0.000576009
0.000538942
0.00039462
0.00025797
0.000176321
0.000234593
0.000230468
0.00019534
0.000240869
0.000135557
0.000110495
9.44884e-05
9.01767e-05
0.000113035
0.000137905
0
0.000138461
0.000301614
0.000377703
0.000428508
0.000518389
0
0
0.000508139
0.000817231
0.000703413
0.000758804
0.00081348
0
0.000753076
0.00127086
0.00151563
0.00160128
0.000662686
0.000569471
0
0.00236658
0.00251844
0.0029653
0.00315592
0.00264041
0.00261766
0.00298976
0.00218204
0.00137697
0.00106883
0.000746111
0.000650036
0.000669147
0.000435549
0
0.000692489
0.000723615
0.000438703
0.000281448
0.000234943
0
0
0.000389627
0.000387246
0.000230979
0.000153387
0.000124796
0
0
0.000135762
0.000291514
0.000369527
0.000383072
0.000417996
0
0
0.00044146
0.000738762
0.000669251
0.000763259
0.000816472
0.000142506
0.000687678
0.0012665
0.00149571
0.00123324
0.000661817
0.000596741
0
0.00232156
0.002524
0.00296957
0.003152
0.00263904
0.00261464
0.00293043
0.00211894
0.00137916
0.00107694
0.000754193
0.000659233
0.000669997
0.000329123
0
0.000657088
0.000706062
0.000423577
0.000269858
0.000224436
0
0
0.000337356
0.000339161
0.000222625
0.000151554
0.000123347
0
0
0.000135305
0.000289938
0.000368351
0.000375684
0.000380067
0
0
0.000418862
0.000707935
0.000664375
0.000768246
0.000819575
0.000258792
0.000644669
0.00126374
0.00144201
0.000842516
0.000679502
0.000608578
0
0.00225438
0.00253699
0.00297643
0.00313931
0.00263193
0.00260665
0.00283594
0.00207621
0.00138136
0.00108307
0.000776112
0.000677202
0.000662561
0.000174532
0
0.000595246
0.000687977
0.00041556
0.00026466
0.000221038
0
0
0.000321462
0.000323738
0.000220986
0.000151177
0.000122993
0
3.49396e-05
0.000135197
0.000293888
0.000370239
0.000391744
0.000418683
0
0
0.000403188
0.000686811
0.000664347
0.000770001
0.000821644
0.000354566
0.000552219
0.00126921
0.00140817
0.000897269
0.000689853
0.000622909
0
0.00220035
0.00254615
0.0029787
0.00312015
0.00262476
0.00258958
0.00272262
0.00196583
0.00138033
0.00108258
0.00077776
0.000683289
0.000643981
2.62515e-05
0
0.0005679
0.000628847
0.000400733
0.000260078
0.000220194
9.70287e-08
0
0.000302059
0.000302509
0.000221628
0.000151493
0.000122254
0
5.72509e-05
0.000135165
0.000295103
0.000372735
0.000401655
0.000449729
0
0
0.00040004
0.000670829
0.000667927
0.000777869
0.000823879
0.000430321
0.000467755
0.00128304
0.00134901
0.000920252
0.000698173
0.000628548
0
0.00213284
0.00255135
0.002975
0.0030958
0.00260301
0.00256647
0.00258457
0.00186141
0.00137703
0.00108095
0.000794586
0.000696374
0.000622228
0
0.00016451
0.00053295
0.000549452
0.000349813
0.000257255
0.000218891
4.17652e-05
0
0.000294515
0.000289143
0.000216456
0.000151899
0.000121531
0
8.39247e-05
0.000133322
0.000287613
0.000365491
0.000405433
0.000611765
0
0
0.000388501
0.000601925
0.000666009
0.000779567
0.000824787
0.000573423
0.000385508
0.00128396
0.00134827
0.000931265
0.000703802
0.000634875
0
0.0020818
0.00255756
0.00297725
0.00309206
0.0026001
0.00255695
0.00252561
0.00180947
0.00137467
0.00107815
0.000799865
0.000705677
0.000612135
0
0.000234461
0.000518755
0.000508851
0.000333577
0.000255036
0.000218767
9.33766e-05
0
0.000274781
0.000257969
0.000212673
0.000151089
0.000120802
1.65569e-05
0.000117508
0.000131045
0.000282914
0.0003575
0.000376365
0.000508971
0
7.00671e-05
0.000382551
0.000579292
0.000662074
0.000782022
0.000828437
0.000634182
0.000293516
0.00128869
0.00134819
0.000923948
0.000705286
0.000643256
0
0.00197688
0.00257237
0.0029871
0.00308936
0.00259681
0.00254764
0.00239008
0.00171106
0.00137553
0.00108151
0.000814473
0.000723041
0.000612302
0
0.000311317
0.000472497
0.000490077
0.000326237
0.000249735
0.000214719
0.000143257
0
0.000249092
0.000239595
0.000209966
0.000150191
0.000120311
5.28094e-05
1.42538e-06
1.75705e-05
4.3747e-05
3.6288e-05
2.72883e-05
1.80242e-05
4.17116e-06
4.37296e-06
6.01165e-06
0.000119645
0.00021565
0.000242302
0.0002451
6.58312e-05
0.00120251
0.00109826
0.00103255
0.00109349
0.00121679
0.00127112
0.00121993
0.00168717
0.0023625
0.00294227
0.00281979
0.00212616
0.00142928
0.00103257
0.000593356
0.000831773
0.000957387
0.00102164
0.00128827
0.00120596
0.000656325
2.52052e-05
2.46769e-05
2.78411e-05
4.96328e-05
6.92944e-05
5.79941e-05
2.17762e-05
2.96393e-06
6.19481e-06
2.04018e-05
2.14621e-05
1.7468e-05
1.04229e-05
1.8199e-06
5.31936e-06
2.93577e-05
3.91978e-05
3.43903e-05
2.84102e-05
2.24266e-05
1.61641e-05
1.79472e-06
5.78419e-06
0.000116048
0.000121451
0.000118538
0.000118666
7.38698e-05
0.00116923
0.000906361
0.000897603
0.00104757
0.00108013
0.00123575
0.00122597
0.00168833
0.00239004
0.00295233
0.00286421
0.00214868
0.00148586
0.00106064
0.000630676
0.00083175
0.000928645
0.000997543
0.00134788
0.00127396
0.000805618
2.56989e-05
2.39407e-05
5.14452e-05
6.04035e-05
6.46465e-05
5.97163e-05
3.46403e-05
1.11789e-05
1.89855e-05
2.07017e-05
1.95951e-05
1.50106e-05
9.95236e-06
5.44366e-06
1.22668e-05
3.92886e-05
6.48286e-05
6.84954e-05
5.83885e-05
5.51534e-05
5.45474e-05
7.08323e-06
8.17981e-06
0.000130189
0.00015209
0.000148047
0.000149997
0.000137936
0.00111663
0.000934259
0.000982889
0.00103936
0.00105423
0.00122582
0.00125232
0.00173568
0.00245177
0.0029793
0.00290007
0.00219013
0.00163089
0.00112035
0.000693854
0.00116926
0.0013899
0.00182639
0.00154054
0.00143479
0.0011723
2.97919e-05
3.51721e-05
7.47096e-05
0.000103213
0.000117892
0.000104274
6.17728e-05
1.97766e-05
2.26478e-05
2.95562e-05
3.01857e-05
2.67331e-05
2.03019e-05
1.7888e-05
1.56923e-05
5.38232e-05
8.97604e-05
0.000108395
0.00010431
0.000103884
0.000113599
1.98722e-05
1.44289e-05
0.000125796
0.000213399
0.000214775
0.000218943
0.000239106
0.00113023
0.000982657
0.000717298
0.000806442
0.00099731
0.00112064
0.00113315
0.00184796
0.00261227
0.0030223
0.00295512
0.00229857
0.00171468
0.00127318
0.000966594
0.00133749
0.00164133
0.00211745
0.00175511
0.00163798
0.00140728
4.3273e-05
6.01103e-05
9.51617e-05
0.000133297
0.00015254
0.000123913
8.96539e-05
2.19643e-05
2.7301e-05
3.20149e-05
3.20335e-05
3.41084e-05
3.29992e-05
2.90359e-05
2.35258e-05
5.94936e-05
9.06987e-05
0.000103499
0.000101889
0.000100936
0.000124214
2.20481e-05
1.87605e-05
9.99883e-05
0.000182867
0.000214978
0.000218375
0.000225268
0.00112775
0.000978087
0.000532635
0.000639145
0.000912175
0.00101607
0.00099278
0.00201126
0.00283515
0.00306428
0.00300796
0.00243743
0.00185621
0.00137511
0.00103004
0.00143518
0.00159155
0.00173795
0.00174957
0.00174216
0.00166385
5.9153e-05
8.84234e-05
0.000116546
0.000148298
0.000175273
0.000179746
0.000164764
2.68671e-05
2.92535e-05
3.33341e-05
3.57967e-05
4.50445e-05
5.39618e-05
5.43365e-05
3.80308e-05
6.23078e-05
8.49883e-05
8.59252e-05
8.62071e-05
8.88905e-05
8.51486e-05
2.53943e-05
2.0293e-05
6.39893e-05
9.33669e-05
0.000144226
0.000162681
0.000162626
0.000985114
0.000817721
0.00042846
0.000491501
0.000695409
0.000869782
0.000977224
0.00244528
0.00287054
0.00303892
0.0030031
0.00264741
0.00220368
0.00166898
0.000736725
0.000905458
0.00117285
0.00151526
0.00171863
0.00163122
0.00159813
7.97756e-05
9.66392e-05
0.000105015
0.000123433
0.000136278
0.00014347
0.000124119
2.80633e-05
3.16299e-05
3.34024e-05
3.49862e-05
3.95191e-05
4.48485e-05
4.60889e-05
4.98658e-05
6.43644e-05
6.77287e-05
7.04843e-05
7.25882e-05
7.19867e-05
7.07937e-05
3.06669e-05
2.73521e-05
3.99893e-05
5.12421e-05
6.10594e-05
7.35987e-05
7.82272e-05
0.000566806
0.000259713
0.000122686
0.000199566
0.00050642
0.00079897
0.000953705
0.0023167
0.001956
0.00255692
0.00268034
0.00268841
0.00261375
0.00223667
0.000510854
0.000430143
0.000723342
0.00103136
0.00134659
0.00150349
0.00156221
7.21782e-05
7.93718e-05
8.16304e-05
6.93574e-05
7.12669e-05
7.90536e-05
7.98044e-05
2.95026e-05
3.11008e-05
3.15363e-05
3.12816e-05
3.12783e-05
3.18377e-05
3.16835e-05
2.19472e-06
1.65835e-06
1.55578e-06
1.28459e-06
1.15455e-06
9.83747e-07
6.44107e-07
2.60983e-05
8.79443e-06
1.52765e-06
1.0718e-06
7.09462e-07
2.94714e-07
2.66301e-07
0.00115442
0.000891093
5.39877e-05
4.32897e-05
4.72313e-05
4.77514e-05
5.51631e-05
0.00103748
0.000850432
0.000344086
0.000184176
0.000123896
0.000118669
0.000119124
0.000651081
0.000645156
0.000388742
5.03367e-05
3.39784e-05
3.44028e-05
3.618e-05
1.26297e-05
9.31556e-06
7.59749e-06
9.11002e-07
1.32533e-07
8.97329e-08
7.82227e-08
7.07181e-07
5.06284e-07
4.99859e-07
4.79852e-07
4.39926e-07
3.31526e-07
2.03799e-07
1.27537e-05
1.24617e-05
1.15353e-05
1.0893e-05
8.70479e-06
6.99079e-06
3.09506e-06
4.17087e-05
3.14578e-05
9.97822e-06
3.14586e-06
2.57751e-06
2.17891e-06
1.90182e-06
0.00117525
0.00110387
0.000689985
3.98416e-05
4.61435e-05
4.84779e-05
5.67024e-05
0.00104887
0.00100832
0.000862757
0.000528822
0.000371309
0.000278366
0.000259917
0.000692755
0.000675768
0.000578156
0.00044331
0.000100614
4.05474e-05
4.1913e-05
3.27545e-05
2.22558e-05
1.88529e-05
8.24499e-06
2.24903e-06
3.70961e-07
2.87749e-07
4.32731e-06
3.54739e-06
3.47178e-06
3.01674e-06
2.54798e-06
2.17031e-06
1.25332e-06
5.74989e-05
5.80029e-05
5.07555e-05
4.71643e-05
4.18448e-05
3.09203e-05
1.01858e-05
0.000100768
7.53046e-05
5.39667e-05
2.75517e-05
1.37331e-05
1.28968e-05
1.16153e-05
0.00124465
0.00120436
0.001115
0.000456936
4.37975e-05
5.00323e-05
5.55267e-05
0.00106597
0.00105354
0.00101297
0.000938219
0.000747361
0.000655184
0.000474994
0.000897047
0.000831289
0.000790323
0.000672354
0.000539939
0.000269654
0.000133358
4.57774e-05
2.97442e-05
2.53951e-05
1.83956e-05
1.46703e-05
3.47986e-06
1.37673e-06
1.38926e-05
1.27609e-05
1.25457e-05
1.07187e-05
8.14248e-06
4.31042e-06
2.72044e-06
0.000113598
0.000107491
9.88837e-05
9.01261e-05
8.45535e-05
6.57917e-05
3.60163e-05
0.000246376
0.00017939
0.000149869
7.52697e-05
4.67826e-05
4.19601e-05
4.1658e-05
0.00117355
0.00119022
0.00116815
0.00104711
0.000635693
0.000218028
5.25153e-05
0.00113608
0.00112063
0.00111761
0.00109977
0.001025
0.000975115
0.000834185
0.00126057
0.0012126
0.0011401
0.00108227
0.00102378
0.000858836
0.00063451
7.98489e-05
6.34515e-05
6.04474e-05
5.44807e-05
3.01512e-05
1.99551e-05
1.95929e-05
3.08451e-05
3.09691e-05
2.96912e-05
2.57892e-05
2.18303e-05
1.44203e-05
5.15313e-06
0.000109189
0.000106573
0.000105217
0.000102356
9.89687e-05
8.88731e-05
5.685e-05
0.000221175
0.000208899
0.000212378
0.000158854
7.61752e-05
6.82748e-05
5.36342e-05
0.000982981
0.000986999
0.00103209
0.00104604
0.000994143
0.000806503
0.00037592
0.00122598
0.00116622
0.0011583
0.00115492
0.0011441
0.00112498
0.00105416
0.00152284
0.00146329
0.00142675
0.00139688
0.00131999
0.00125875
0.00113068
6.28177e-05
5.42622e-05
5.31436e-05
5.28171e-05
5.44662e-05
5.76777e-05
7.02685e-05
4.06309e-05
3.95945e-05
3.99883e-05
3.96272e-05
3.40949e-05
2.29821e-05
7.6341e-06
8.87873e-05
9.87496e-05
0.000101785
9.84495e-05
9.44084e-05
8.49392e-05
7.20831e-05
0.000175878
0.000197284
0.000208679
0.000186034
0.000170384
0.000133228
0.000116098
0.000954045
0.000949399
0.000933267
0.000942721
0.000951299
0.000897155
0.000813091
0.0014439
0.00130443
0.00127921
0.00125674
0.00124619
0.00122267
0.00118458
0.0015228
0.0014946
0.00140143
0.00135084
0.0012596
0.00122691
0.00120199
6.36308e-05
6.94177e-05
7.48049e-05
7.91848e-05
8.02041e-05
7.01651e-05
5.77728e-05
4.32093e-05
4.19166e-05
4.28442e-05
4.26788e-05
3.74263e-05
3.18238e-05
9.89154e-06
7.12614e-05
7.2068e-05
7.31336e-05
7.38852e-05
7.38591e-05
7.36578e-05
7.28402e-05
8.91424e-05
9.58838e-05
0.000100041
0.000104848
0.000104394
0.000104125
0.000108338
0.00118227
0.00123781
0.00123332
0.00122453
0.0011872
0.00111786
0.00108848
0.00215749
0.00198762
0.0019456
0.00185766
0.00183722
0.00176059
0.00170388
0.00148201
0.00147349
0.0014489
0.00139461
0.00134802
0.00128802
0.00126724
7.58612e-05
7.19348e-05
6.79731e-05
6.71898e-05
6.56241e-05
6.42041e-05
6.22815e-05
3.09448e-05
3.32071e-05
3.35283e-05
3.28458e-05
3.0716e-05
3.01469e-05
1.21354e-05
3.11998e-07
8.1481e-07
9.194e-07
1.12442e-06
1.15613e-06
1.15452e-06
1.1703e-06
1.04403e-07
1.64215e-07
2.45351e-07
2.76744e-07
2.13277e-06
2.39806e-06
2.79843e-06
8.0041e-05
0.000532468
0.00110996
0.00117496
0.00120732
0.0011962
0.0011953
0.000581424
0.000651953
0.000692168
0.000630454
0.000616624
0.000688753
0.00144363
6.72826e-05
5.64504e-05
5.02314e-05
4.00424e-05
3.73914e-05
3.81492e-05
6.7028e-05
3.81272e-07
3.81712e-07
4.11688e-07
5.123e-07
6.02995e-07
6.16619e-07
1.16628e-06
3.9145e-07
5.67328e-07
7.70047e-07
1.16229e-06
1.34865e-06
1.35571e-06
1.34344e-06
1.23015e-06
3.94926e-06
5.05245e-06
6.55531e-06
6.93188e-06
6.91276e-06
6.47823e-06
2.96232e-07
5.61027e-07
9.36585e-07
1.05227e-06
1.28519e-06
1.35336e-06
1.39373e-06
8.25227e-05
0.000623946
0.0010743
0.00108081
0.00114978
0.0011791
0.0011898
0.000622962
0.000716308
0.00079121
0.000799296
0.000920256
0.00106084
0.00148704
6.48242e-05
5.91995e-05
4.83248e-05
4.56647e-05
4.21712e-05
4.44981e-05
0.000206383
1.71691e-06
2.17774e-06
2.99039e-06
4.04249e-06
4.25803e-06
5.07177e-06
7.34846e-06
1.46541e-06
4.11622e-06
7.16255e-06
9.00639e-06
1.0992e-05
1.09579e-05
1.0505e-05
3.66173e-06
1.11886e-05
1.7148e-05
2.04326e-05
1.99063e-05
1.95469e-05
1.76138e-05
1.86303e-06
2.59351e-06
3.77206e-06
4.08727e-06
5.20716e-06
7.655e-06
8.68294e-06
0.000119387
0.000878823
0.00104028
0.00108438
0.00112381
0.00113902
0.00114269
0.000709613
0.000804538
0.000849861
0.000922278
0.00101873
0.00121353
0.0015148
6.96449e-05
6.15147e-05
5.37266e-05
4.94751e-05
4.82332e-05
5.03982e-05
0.00032922
1.23629e-05
1.41111e-05
1.78532e-05
2.05152e-05
2.25258e-05
2.55639e-05
3.18351e-05
6.11607e-06
1.30328e-05
1.93458e-05
2.10691e-05
2.2454e-05
2.35958e-05
2.36362e-05
8.43967e-06
2.83283e-05
2.95643e-05
2.62874e-05
2.43343e-05
2.35247e-05
2.06607e-05
8.63874e-06
1.45449e-05
1.69372e-05
1.80954e-05
1.92978e-05
2.02362e-05
2.68915e-05
0.000399156
0.000981952
0.00104407
0.00105584
0.00109528
0.00112236
0.00113291
0.000841462
0.000922303
0.000997185
0.00112135
0.00129062
0.00142605
0.00160853
4.92957e-05
4.4816e-05
5.59117e-05
8.64412e-05
0.000210171
0.000441011
0.000772238
2.98591e-05
3.59862e-05
4.35146e-05
4.6116e-05
4.83778e-05
6.10994e-05
4.95109e-05
1.34009e-05
2.47927e-05
2.42192e-05
2.26833e-05
2.19974e-05
2.19195e-05
2.20519e-05
1.53486e-05
3.3741e-05
3.2577e-05
2.38708e-05
2.21527e-05
2.21038e-05
2.08965e-05
2.07848e-05
2.73573e-05
3.08161e-05
3.10499e-05
3.15685e-05
3.15133e-05
2.99425e-05
0.000920316
0.00108052
0.00110919
0.00111628
0.00112986
0.00113456
0.0011248
0.00104737
0.00118745
0.00123702
0.00134151
0.00147543
0.00162087
0.00182303
0.000105426
0.000179384
0.000212627
0.000259243
0.000371089
0.000528235
0.000632129
4.8993e-05
5.31776e-05
5.51407e-05
5.59924e-05
5.61854e-05
5.64336e-05
5.61394e-05
2.08088e-05
2.55562e-05
2.51022e-05
2.42731e-05
2.4037e-05
2.40409e-05
2.46518e-05
1.85804e-05
3.82518e-05
3.78152e-05
3.35865e-05
2.8679e-05
2.78008e-05
2.94616e-05
2.66859e-05
2.7255e-05
2.64489e-05
2.64114e-05
2.65413e-05
2.65051e-05
2.58871e-05
0.000901078
0.000911641
0.000889118
0.000909595
0.000959968
0.000974003
0.00097753
0.00133453
0.00154503
0.00160056
0.00167106
0.00187598
0.002013
0.00209502
0.000273047
0.000318241
0.000382861
0.000431334
0.000480141
0.000541757
0.000570253
4.88082e-05
5.17264e-05
5.87302e-05
6.30635e-05
6.97935e-05
7.11381e-05
7.58256e-05
2.51208e-05
2.65361e-05
2.66344e-05
2.66798e-05
2.65559e-05
2.65504e-05
2.66166e-05
2.06174e-05
4.41287e-05
4.63074e-05
4.69126e-05
4.73286e-05
4.76053e-05
4.77682e-05
3.17664e-05
3.26592e-05
3.2943e-05
3.35164e-05
3.39454e-05
3.46795e-05
3.46433e-05
0.000807959
0.000825042
0.000890994
0.000911871
0.00087181
0.000824667
0.000783803
0.0019361
0.00201403
0.00214331
0.00219276
0.00224897
0.00227478
0.00230148
0.000356365
0.000377534
0.000441377
0.000475968
0.000519987
0.000604737
0.00063039
3.99639e-05
4.17932e-05
4.71687e-05
5.48797e-05
5.7548e-05
6.16076e-05
6.32718e-05
2.29431e-05
2.21659e-05
2.6552e-05
2.77418e-05
2.81054e-05
2.82412e-05
2.84415e-05
1.0533e-08
7.12305e-09
1.81319e-08
3.49313e-08
7.60871e-08
1.13523e-07
1.15202e-07
1.95621e-08
1.47099e-08
2.25611e-08
3.32733e-08
5.00315e-08
7.56579e-08
8.34835e-08
0.000215412
0.000202266
0.00018623
0.000135253
0.000111414
8.77992e-05
7.88578e-05
0.000595293
0.000575957
0.000568073
0.000561799
0.000557704
0.000552556
0.00056147
0.000205612
0.000196377
0.000179623
0.0001316
9.9499e-05
8.39111e-05
7.53642e-05
9.61896e-09
1.81221e-08
5.33129e-08
1.3942e-07
2.35793e-07
2.56149e-07
3.2367e-07
8.56665e-09
1.40141e-08
3.28412e-08
5.31322e-08
1.14247e-07
1.57161e-07
3.03098e-07
1.30897e-08
9.39284e-09
3.8243e-08
1.33599e-07
1.79983e-07
1.71559e-07
1.15958e-07
2.61911e-08
2.36458e-08
3.90097e-08
1.10343e-07
1.41408e-07
1.7333e-07
2.03076e-07
0.000223363
0.000212073
0.000190515
0.000142743
0.000119363
0.000100231
8.12983e-05
0.00061269
0.000593093
0.000584131
0.000579249
0.00057421
0.000573341
0.000588369
0.000213705
0.000211754
0.000196142
0.000134425
0.000113247
9.00646e-05
8.03099e-05
8.76211e-09
3.53461e-08
1.87502e-07
7.20815e-07
9.11767e-07
1.05893e-06
1.40004e-06
6.2073e-09
1.94874e-08
7.53484e-08
1.68232e-07
2.93312e-07
4.97573e-07
7.86158e-07
3.27876e-09
1.04041e-08
6.476e-08
2.05808e-07
2.52001e-07
1.46082e-07
4.65623e-08
1.25889e-08
3.25078e-08
7.64655e-08
2.2596e-07
3.2004e-07
8.91866e-07
1.491e-06
0.000226041
0.00023346
0.000217154
0.00015867
0.000118214
9.3912e-05
7.31458e-05
0.000612283
0.000594938
0.000575496
0.000567853
0.000557504
0.000590897
0.000627223
0.000216795
0.000225048
0.000212009
0.000146281
0.000115582
8.71282e-05
7.88571e-05
2.27789e-08
8.2056e-08
5.15778e-07
1.68482e-06
3.5773e-06
6.33554e-06
1.06741e-05
6.456e-09
2.56602e-08
1.11103e-07
2.80662e-07
4.47031e-07
7.32587e-07
1.62315e-06
4.18081e-09
1.50618e-08
8.44039e-08
2.41979e-07
2.70065e-07
6.61757e-08
2.00454e-08
1.77838e-08
5.80611e-08
1.30734e-07
8.83476e-07
1.19434e-06
4.4729e-06
7.11162e-06
0.00022381
0.000232312
0.000217594
0.000170815
0.000118499
6.88135e-05
8.25083e-05
0.000618074
0.000604283
0.000583265
0.000576971
0.000578767
0.000626279
0.000700548
0.000214661
0.000222324
0.000211863
0.000168267
0.000120172
8.24554e-05
6.04707e-05
3.95789e-08
1.25875e-07
1.37928e-06
7.20924e-06
1.63028e-05
2.00884e-05
2.709e-05
9.89517e-09
3.27836e-08
1.44501e-07
3.17855e-07
5.22652e-07
9.55551e-07
2.04455e-06
4.93508e-09
1.69471e-08
1.02936e-07
2.64247e-07
2.91128e-07
3.77885e-08
1.45467e-08
2.16157e-08
9.36679e-08
3.71528e-07
2.18072e-06
3.4173e-06
9.99037e-06
1.79873e-05
0.000225261
0.000227893
0.000211287
0.000144694
0.000119504
0.000185394
0.000598087
0.00062571
0.000613878
0.000612038
0.000646534
0.000723408
0.000843491
0.000973994
0.000215642
0.000214209
0.000201696
0.000146127
9.02557e-05
6.65436e-05
7.15956e-05
5.53061e-08
2.00281e-07
5.31705e-06
1.3748e-05
2.21064e-05
3.04985e-05
4.18122e-05
1.12708e-08
3.62942e-08
1.65508e-07
3.34822e-07
5.99883e-07
1.06229e-06
2.59738e-06
5.24202e-09
1.8864e-08
1.11384e-07
2.73184e-07
2.97988e-07
2.92205e-08
1.2751e-08
2.62349e-08
1.45294e-07
7.60093e-07
4.26996e-06
1.12959e-05
2.0506e-05
2.38746e-05
0.00023658
0.000240505
0.000210218
0.000142792
0.000159828
0.000560848
0.000821507
0.000631747
0.000628632
0.000654746
0.000732101
0.000869673
0.00107581
0.00123868
0.0002297
0.000226363
0.000201567
0.000138112
8.44842e-05
8.93578e-05
0.000177118
7.22235e-08
2.73165e-07
9.37955e-06
1.78131e-05
2.84072e-05
3.87107e-05
4.30859e-05
1.19391e-08
4.02535e-08
1.74956e-07
3.40025e-07
6.14057e-07
1.09172e-06
3.24905e-06
5.0422e-09
1.96302e-08
1.15161e-07
2.75707e-07
3.08555e-07
2.82429e-08
1.21486e-08
3.12363e-08
1.85594e-07
1.43715e-06
7.09223e-06
1.68541e-05
2.23455e-05
2.51237e-05
0.000222219
0.000240133
0.000213497
0.000239355
0.000532137
0.000739438
0.000809164
0.000656972
0.000747387
0.000956693
0.00118269
0.00143604
0.00163834
0.00176298
0.000219193
0.000227061
0.000186656
0.000144451
0.000156866
0.000237859
0.000305249
8.64076e-08
3.23302e-07
1.13233e-05
1.75592e-05
3.18132e-05
3.62809e-05
3.98841e-05
1.19668e-08
4.20785e-08
1.78838e-07
3.40077e-07
6.27058e-07
1.09913e-06
3.38629e-06
1.7712e-09
2.04791e-08
9.23466e-08
2.78051e-07
3.93238e-07
2.78952e-08
1.02278e-08
4.44032e-08
2.85811e-07
5.14636e-07
1.01437e-06
7.31105e-06
4.13825e-06
3.93156e-08
0.0002276
0.000199594
0.000198552
0.000186234
0.000485203
0.000466196
0.000425697
0.000770178
0.000896423
0.00094521
0.00100955
0.00107005
0.0010907
0.000968204
0.000212363
0.000187034
0.000162881
0.000134483
0.00012175
0.000147731
0.000159297
1.17323e-07
5.56702e-07
2.16431e-06
2.24877e-06
1.39125e-05
1.68849e-05
2.63687e-05
5.49037e-09
4.57511e-08
1.64172e-07
3.39962e-07
6.0807e-07
1.03576e-06
1.25747e-06
2.25695e-09
2.05957e-08
1.03279e-07
2.10915e-07
4.62495e-07
3.31262e-08
1.48922e-09
6.01552e-08
5.00872e-07
1.44897e-06
2.6959e-06
5.76374e-06
3.67413e-07
3.08663e-08
0.000175834
0.000148484
0.000145711
0.000140408
0.000299392
0.000352307
0.000246203
0.000765858
0.000861034
0.000859093
0.000867568
0.000918318
0.000990748
0.000838696
0.000144763
0.000132967
0.000126915
0.00010941
9.42688e-05
9.81105e-05
0.000109145
1.57665e-07
9.45328e-07
2.78816e-06
4.44689e-06
7.37834e-06
9.05075e-06
1.34511e-05
6.85671e-09
4.77813e-08
2.04499e-07