/*--------------------------------*- C++ -*----------------------------------*\
  =========                 |
  \\      /  F ield         | OpenFOAM: The Open Source CFD Toolbox
   \\    /   O peration     | Website:  https://openfoam.org
    \\  /    A nd           | Version:  6
     \\/     M anipulation  |
\*---------------------------------------------------------------------------*/
FoamFile
{
    version     2.0;
    format      ascii;
    class       volScalarField;
    location    "0.025";
    object      p;
}
// * * * * * * * * * * * * * * * * * * * * * * * * * * * * * * * * * * * * * //

dimensions      [1 -1 -2 0 0 0 0];

internalField   nonuniform List<scalar> 
3773
(
44206.2
44206.3
44206.3
44206.2
44206.2
44206.4
44206.6
106710
106710
106710
106710
106710
106710
106710
144260
144260
144260
144260
144260
144260
144260
156644
156644
156645
156645
156645
156644
156644
144261
144261
144261
144260
144260
144260
144260
106710
106710
106709
106709
106710
106710
106710
44206.5
44206.3
44205.9
44205.7
44205.8
44206
44206.2
44205.7
44205.7
44205.7
44205.6
44205.7
44205.8
44206
106707
106707
106707
106707
106707
106707
106707
144262
144262
144262
144262
144262
144262
144262
156644
156644
156644
156644
156644
156644
156644
144262
144262
144262
144262
144262
144262
144261
106707
106707
106706
106706
106707
106707
106707
44205.8
44205.6
44205.3
44205.1
44205.2
44205.4
44205.6
44205.4
44205.4
44205.4
44205.4
44205.4
44205.5
44205.7
106704
106704
106704
106704
106704
106704
106704
144263
144263
144263
144264
144264
144264
144264
156644
156644
156644
156644
156644
156644
156644
144264
144264
144264
144264
144263
144263
144263
106703
106703
106703
106703
106703
106704
106704
44205.4
44205.2
44204.9
44204.8
44204.9
44205
44205.2
44205.2
44205.1
44205.2
44205.2
44205.2
44205.3
44205.5
106701
106701
106700
106700
106700
106700
106700
144265
144265
144265
144265
144265
144265
144265
156644
156644
156645
156645
156645
156645
156645
144265
144265
144265
144265
144265
144264
144264
106700
106700
106700
106700
106700
106701
106701
44205
44204.9
44204.7
44204.5
44204.6
44204.8
44204.9
44204.9
44204.9
44205
44205
44205
44205.1
44205.3
106699
106699
106698
106698
106698
106698
106698
144266
144266
144266
144266
144266
144266
144266
156645
156645
156645
156646
156646
156645
156646
144266
144266
144266
144266
144266
144265
144265
106698
106698
106698
106697
106698
106698
106699
44204.7
44204.6
44204.4
44204.3
44204.4
44204.5
44204.6
44204.7
44204.7
44204.8
44204.9
44204.9
44205
44205.2
106698
106697
106697
106697
106697
106697
106697
144267
144267
144267
144267
144267
144267
144266
156645
156645
156646
156646
156646
156646
156646
144267
144267
144267
144266
144267
144266
144266
106697
106697
106696
106696
106697
106697
106697
44204.4
44204.4
44204.2
44204.1
44204.2
44204.3
44204.4
44204.9
44204.7
44204.8
44204.9
44204.9
44205.1
44205.3
106697
106697
106696
106696
106696
106697
106696
144267
144267
144267
144267
144267
144267
144267
156645
156646
156646
156646
156646
156646
156646
144268
144267
144267
144267
144267
144267
144266
106696
106696
106696
106696
106696
106697
106697
44204.4
44204.4
44204.2
44204.2
44204.2
44204.3
44204.3
63890.1
64035
63917
63608.5
63287.6
63216.6
63429.5
150563
150602
150500
150329
150124
150132
150419
201053
201010
200968
200953
200994
201120
201313
217657
217640
217652
217689
217751
217850
217968
200744
200719
200729
200764
200803
200886
201037
150132
150128
150096
150017
149917
149933
150241
63731
63801.9
63755.3
63568.1
63259.1
63097.8
63219.4
63176.9
63337.4
63161.7
62888.5
62604.2
62464.4
62579.4
149540
149651
149576
149487
149306
149153
149313
200474
200471
200486
200494
200475
200468
200589
217382
217367
217375
217392
217412
217461
217540
200432
200349
200335
200353
200368
200423
200521
149574
149471
149386
149335
149314
149295
149485
63292.3
63306.4
63249.3
63084.4
62900.7
62881.7
63039
62506.7
62638.5
62485.4
62316.3
62102.5
61995.6
62043.3
148911
149038
148978
148852
148709
148572
148622
200206
200224
200242
200214
200131
200047
200064
217173
217163
217166
217165
217150
217137
217150
200132
200060
200020
200022
200027
200038
200064
149044
148915
148816
148765
148801
148850
148967
62783.4
62725.3
62634.2
62626.8
62684.9
62805.7
62970.4
61880.5
62083.8
62070.6
62107
61870.4
61822.5
61940.5
148515
148542
148565
148525
148370
148333
148534
200166
200139
200099
200004
199866
199835
199966
217091
217066
217050
217041
216995
216974
217026
199910
199823
199795
199835
199814
199811
199892
148596
148430
148349
148361
148334
148425
148675
62323.2
62271.3
62200.6
62169.1
62245.3
62382.1
62602.5
61595.6
61820.6
61919.2
62083.5
61953.8
61925.6
62120.1
148366
148362
148424
148494
148378
148436
148783
200163
200045
199967
199913
199815
199848
200124
217004
216938
216912
216957
216947
216922
217045
199688
199597
199611
199731
199736
199715
199847
148242
148083
148129
148169
148221
148353
148532
62054.1
62032.7
61927.7
61882.4
61836
61921
62145
61748.8
61947
61889
62043.3
62104.1
62156.5
62341.8
148328
148353
148414
148513
148622
148824
149060
199954
199879
199789
199709
199874
200080
200219
216721
216786
216710
216580
216782
216902
216863
199361
199462
199529
199504
199623
199686
199668
147927
147884
147999
148059
148191
148358
148519
61859.3
61724.8
61580.6
61578.5
61658.5
61806.2
61880.6
62187.5
62397.6
61991.8
62147.4
62305.8
62403.8
62508.7
148412
148419
148341
148316
148631
149026
149205
199649
199627
199493
199252
199568
200043
200136
216476
216491
216523
216271
216406
216683
216716
199142
199317
199393
199234
199366
199523
199456
147697
147724
147901
148042
148268
148355
148402
61662.1
61492.2
61429.6
61484
61745.4
62064.7
62141.7
62562.8
62740.8
62323.7
62053.1
62020.5
62018.5
62082.2
148168
148289
148052
148125
148181
148395
148765
199340
199256
199102
199144
199092
199298
199532
216449
216278
216193
216147
216125
216184
216303
199555
199496
199419
199323
199365
199397
199505
148148
148063
147989
148028
148198
148360
148339
61572.4
61512.4
61477.8
61588.6
61925.1
62406.4
62540.6
61571.3
61635.2
61608.9
61748.7
61899.3
61996.9
62015.5
147391
147287
147375
147600
147794
148186
148619
198959
198820
198688
198666
198684
198862
199167
216353
216212
216049
215918
215810
215805
215892
199542
199412
199147
198904
198785
198866
198986
148049
147903
147677
147413
147298
147530
147981
61468.8
61409.9
61286.8
61139.3
61243.3
61640.1
62109.7
61277.6
61131.6
61025.1
61354.2
61704.7
61816.4
61790.4
147151
146948
147091
147292
147558
147815
148148
198815
198706
198668
198655
198615
198652
198869
216270
216160
216039
215936
215832
215795
215882
199444
199242
199043
198858
198746
198948
199206
147859
147690
147462
147137
146928
147461
148216
61333.4
61294.7
61226.9
61106.8
61218.5
61711.2
62295.6
61311.2
60941.6
60708.2
61049.1
61280.6
61378.6
61406.1
147151
146914
146947
147060
147120
147227
147470
198926
198825
198779
198668
198523
198471
198586
216295
216229
216196
216107
215971
215887
215923
199338
199240
199204
199145
199107
199246
199560
147648
147595
147596
147471
147387
147859
148806
61197.5
61227.8
61403.3
61513
61769.5
62225.4
62692.2
61773.5
61133.2
60636
60609.6
60697.6
60868.1
60979.4
147458
147417
147152
146888
146614
146656
146892
199228
199192
199077
198836
198467
198254
198358
216439
216393
216469
216376
216067
215781
215752
199213
199238
199434
199549
199454
199353
199636
147394
147510
147885
148210
148263
148639
149737
61074.7
61156.2
61608.6
62223
62346.8
62638.1
63042.6
62158.5
62092.5
61082.9
60382.8
60400.5
60638.6
60788.7
147842
148093
147863
146926
146429
146548
146670
199611
199686
199592
199223
198600
198224
198169
216610
216604
216639
216460
215993
215500
215348
199237
199287
199534
199661
199412
199091
199552
147045
147116
147890
148687
148686
149170
150829
60742.9
61199.5
62133.4
62487.6
62127.2
62502.9
63419.6
62315.8
66578.4
64171.1
61465
60711.1
60797.4
60873.6
147983
149913
150236
147657
146430
146784
146897
199225
199802
199777
199118
198602
198365
198159
216098
216314
216367
216251
215906
215321
214681
199551
199620
199974
199915
199276
198532
198481
147002
147909
149514
149074
147730
147503
149280
60761.2
62737.6
63818.7
62602.3
61838.1
61813.4
62460.7
63402.4
63937.3
62382.2
62314.6
62294.2
62237.8
62359
148678
148722
148374
148337
148557
148868
149158
199553
199414
199279
199348
199408
199792
199880
216443
215971
216129
216496
215954
215859
216228
199352
199325
199363
199231
199262
199236
199477
147969
147933
148109
148302
148589
148518
148988
61723.7
61606.3
61565.3
61732
62212.6
62989
63107.8
63525.2
64075.4
62399.5
62300.5
62283.8
62217.3
62345.8
148707
148791
148380
148332
148563
148844
149135
199565
199382
199259
199349
199397
199767
199852
216397
215992
216086
216381
215955
215838
216166
199376
199337
199357
199231
199269
199220
199476
148003
147965
148145
148332
148606
148532
149038
61724.5
61613
61569.4
61747.7
62243.4
63103.2
63179.7
63677.6
64208.6
62427
62273.1
62271.3
62210.6
62342.3
148738
148888
148368
148317
148564
148830
149109
199573
199362
199233
199316
199392
199746
199816
216335
216026
216035
216251
215966
215862
216135
199384
199349
199355
199235
199283
199222
199488
148030
147990
148177
148350
148603
148533
149051
61724.1
61616.5
61581
61777
62272.2
63250.1
63226.1
63845.1
64415.6
62495.3
62267.3
62258.7
62209.7
62333.3
148795
149012
148358
148295
148531
148842
149096
199570
199352
199196
199276
199390
199723
199779
216292
216042
215987
216150
215971
215895
216141
199382
199356
199357
199239
199289
199218
199485
148055
148007
148203
148370
148587
148512
149017
61722.6
61619.1
61599.1
61822.9
62340.5
63408.6
63288.6
63932.9
64680.7
62604.7
62296.2
62243.2
62210
62316.3
148865
149132
148369
148266
148449
148891
149098
199559
199342
199157
199244
199386
199697
199754
216277
216034
215956
216078
215964
215917
216151
199385
199363
199362
199242
199290
199209
199475
148083
148023
148205
148387
148574
148488
148929
61718.5
61620
61616.3
61884
62456.3
63516.7
63409.9
63906.3
64768.6
62710.7
62316.7
62222.6
62184
62290.5
148895
149195
148386
148247
148331
148980
149106
199540
199335
199126
199221
199376
199673
199748
216289
216018
215948
216044
215962
215935
216158
199396
199372
199367
199244
199295
199207
199478
148121
148043
148192
148390
148567
148503
148801
61708.1
61618.9
61623.9
61913.1
62521
63527.1
63478.1
63751.7
64514.7
62712.1
62284.9
62197.4
62143.8
62262.5
148861
149146
148374
148234
148225
149037
149093
199517
199334
199116
199208
199353
199642
199725
216304
216020
215963
216045
215978
215965
216166
199415
199384
199373
199249
199312
199228
199505
148146
148063
148176
148367
148538
148523
148677
61690.5
61611.3
61607.4
61874.1
62448.4
63426.3
63362.6
67505.8
71590.4
68430.5
64118.2
62058.2
61537.4
61582.7
150381
156020
156550
150722
147685
146926
146793
197401
200488
200899
199114
198681
198129
197224
214426
215855
216279
215993
216006
215212
212797
199751
200091
200366
199692
199087
198384
196176
150427
153094
153957
150826
147840
146974
146790
66623.3
68736.3
67201.4
63488.6
61959.1
61818.6
61897.9
68282.2
71326.4
68274.8
64572.4
62500.2
61512.3
61160.2
150924
157236
157305
151590
148238
147024
146488
197319
200762
201351
199349
198664
197965
197004
214366
215901
216401
216128
215859
215122
212811
199734
200286
200523
199671
199011
198349
196015
151218
154830
154552
150797
148065
147001
146076
67760
69221.4
67060.6
63718.3
62009.1
61470.5
61276
67586.6
70265.2
67671.1
64640.5
62785.7
61508.6
60958.4
150607
156890
156751
151799
148789
147263
146281
197718
201033
201769
199836
198728
197824
196828
214697
216252
216730
216487
215907
215124
213219
199814
200508
200645
199821
199149
198366
196317
151183
154769
154438
150594
148298
147194
145834
67240.3
68594.6
66387
63601.9
61939.1
61223.1
60807.3
66760.1
69118.9
67051.6
64625.6
62859.1
61605
61037.8
149867
155661
155676
151642
149122
147446
146315
198210
201286
202044
200401
198995
197929
196769
215174
216730
217118
216908
216215
215316
213666
199862
200797
200732
199974
199336
198433
196694
151080
153864
153527
150265
148431
147266
145856
66630.5
67531.3
65590.1
63435.7
61968.4
61181.7
60634.4
66559.5
68625
66693.7
64524
62821
61677
61134.5
149494
154978
155203
151648
149246
147577
146552
198704
201577
202276
200907
199365
198115
196801
215678
217123
217434
217240
216607
215665
214133
199989
201054
200802
200107
199542
198583
197015
151545
153564
152540
150027
148540
147315
146020
66921.5
67008.7
65132.6
63359.9
62031.3
61226.6
60614.8
66983.3
68711
66668.7
64499.6
62812.2
61731.5
61274.1
149699
155197
155654
151912
149371
147643
146591
199087
201909
202587
201281
199709
198261
196856
216008
217309
217653
217433
216942
215996
214626
200219
201215
200898
200218
199733
198762
197282
152397
153865
152115
149887
148613
147360
146044
67566.1
67028.8
64976.4
63330.1
62068.5
61238.2
60612
67521
69158
66883.5
64566.8
62855.8
61831.4
61470.3
150411
156044
156355
152413
149594
147737
146579
199409
202227
202879
201552
200004
198360
196880
216149
217312
217791
217510
217155
216148
214987
200490
201369
201059
200316
199854
198894
197455
153219
154440
152179
149993
148703
147427
146042
68200.7
67359
65066.7
63365.5
62123.1
61276.4
60660.2
62741.2
62826.1
62659.1
63340.6
66012.2
71427.1
79787.2
146443
146419
146587
146702
146794
147911
150966
194908
195042
195188
194399
192512
189676
186674
206970
207513
207306
206049
203637
200355
196638
191278
191551
192094
191653
190482
188941
187360
145454
144644
144644
145209
146106
148288
152034
62731.7
62406.1
62475.4
63533.7
66217.9
71228.9
78492.3
61598
61760.1
61968.1
62545.3
64291.1
68383
75538.2
146036
146031
146086
145958
145890
146780
149197
195609
195270
195208
194526
192568
189705
186628
209029
208092
207421
206105
203776
200553
196812
192841
192227
192020
191433
190311
188659
187164
144882
144353
144030
144179
144847
146511
149558
61588.5
61487.4
61598.7
62411.1
64509.2
68742
75188.7
61019.7
61261.9
61577.2
61973.4
62874.9
65076.7
69736.2
145644
145477
145406
145250
145113
145339
146528
195867
195375
195183
194539
192591
189793
186650
210511
208923
207709
206244
204006
200929
197277
193886
192698
191873
191081
190014
188790
187100
144791
144167
143573
143293
143408
144234
146224
60725.5
60741.4
60891.3
61321.5
62476.8
65345.1
70775.4
61080.7
61264.2
61613.1
62005.6
62577.5
63732
65994.9
145624
145279
145022
144843
144675
144477
144466
195784
195118
194581
193962
192391
189899
186742
211441
209806
208267
206492
204150
201099
197455
194628
193199
191852
190548
189236
187970
186384
144866
144228
143496
142814
142269
142220
143122
60340.5
60325.1
60442.7
60641
61049.3
62378.5
66210.9
61256.6
61440.8
61743.7
62134.9
62701.8
63673.5
64912.7
146033
145644
145196
144819
144572
144317
143693
195606
194796
194006
193235
191878
189648
186801
212082
210566
208851
206780
204183
200834
196700
195094
193626
192049
190348
188477
186582
184850
145235
144609
143705
142771
141788
140855
140670
60200.8
60118.7
60185.8
60269.9
60356.9
60825.5
63027.5
61480.8
61650.8
61866.9
62237.8
62939.8
64119.2
65252.9
146247
145933
145427
144938
144540
144241
143446
195504
194610
193696
192729
191361
189008
185778
212632
211214
209450
207192
204269
200164
194605
195424
194051
192341
190295
187901
185084
182214
145201
144546
143629
142646
141527
140275
139172
60124.9
60017.4
60109.2
60191.8
60197.5
60304.8
61449.5
61755.5
61939.7
62165.8
62540.4
63344.1
64522.5
65601.1
146316
146106
145719
145249
144778
144338
143100
195450
194553
193589
192542
191057
188436
183616
213031
211713
209968
207665
204470
199791
191609
195634
194318
192557
190377
187696
184276
179533
145154
144521
143677
142692
141547
140331
139160
60182.9
60091.8
60191.6
60282.7
60207.3
60155
59783.7
84460.6
76064.6
68786.6
64705.4
63546.9
64340.5
65767.3
154881
151331
148616
147027
146546
146884
147874
191851
193923
194746
194770
194265
193750
194307
201658
204574
206972
208757
209950
210545
210612
192344
193605
194944
196274
197552
198602
199385
159695
156225
153953
152486
151735
151727
151844
83011.7
76119.6
71327.1
68208.2
66532.2
66270.7
66857.8
81191.2
72379.6
66251.8
63081.3
62190.3
62844.9
64459.8
152949
149798
147537
146275
145935
146383
147579
191555
193813
194729
194716
194455
194260
194914
201605
204640
207053
208769
210010
210935
211922
192076
193409
194786
196127
197456
198683
199455
157779
155086
153265
151813
150880
150542
150559
79841.1
74367.2
70496.1
67325.7
65289.3
64572.7
65191.6
75685.8
67564.5
63517.4
61446.4
60929.4
61569.9
63248.7
150573
147892
146268
145492
145466
146122
147319
191180
193439
194412
194374
194377
194691
195511
201613
204689
207082
208836
210215
211523
212835
192044
193387
194709
196061
197427
198774
199532
155627
154094
152692
151174
150193
149884
149985
76427.8
73344.8
70272.1
66983.5
64646.1
63653
64297
70661.9
65032.8
62263.8
60778.4
60413.6
61055.1
62678.7
148508
146417
145339
144936
145178
145950
147018
190647
192759
193637
193846
194188
194975
196105
201529
204559
207002
208976
210581
212045
213397
192047
193438
194702
196088
197488
198654
199278
154632
153899
152327
150853
150165
149887
149985
74760.4
73006.1
70439.1
67459.1
65204.2
64179.6
64535.6
68617
64549
62119.2
60812.5
60521.9
61125.5
62647.5
146785
145581
144860
144690
145002
145729
146724
189934
191805
192693
193279
194050
195153
196530
200791
204099
206910
209157
210949
212505
213886
191661
193040
194479
195992
197353
198292
198989
154070
153624
152253
151059
150506
150381
150620
74144.8
72769.4
70779.4
68536.9
66621.1
65564.8
65575.4
68106.1
64929.5
62630.4
61218.5
60900.5
61524.8
63180.2
145939
145333
144753
144633
144962
145663
146793
188450
190567
191896
192930
194029
195301
196755
198722
203323
206878
209374
211333
212958
214252
189935
192124
194160
195910
197261
198164
198957
152618
152657
152282
151745
151327
151260
151513
73450.7
72216.6
71067.3
69629.4
68057.9
67105.1
66908
65578.4
65269.6
63528.1
62214.2
61755.9
62336.2
63924.9
146086
145662
145146
144957
145311
146166
147426
186129
189743
191518
192886
194174
195573
197076
195778
202900
206971
209627
211660
213261
214452
187047
191268
193999
195975
197305
198253
199068
150916
152098
152564
152603
152309
152164
152342
72598.2
71993.9
71504.5
70433.7
69135.6
68244.6
67926.5
98897
101765
100767
97903
94726.5
91959.6
89348.9
172543
173808
173284
170492
166470
162327
158641
190753
189892
188667
187670
187548
188332
189725
202294
200514
197950
195831
195368
196739
198894
193743
192792
191543
190563
190292
190699
191428
177534
178659
178034
175195
171370
167534
163793
102216
104631
104339
102276
98848.5
94556.7
89657.5
96696
97336.1
96834.7
94861.9
92029
90031
87785.6
170448
170049
168998
166317
162789
159351
156277
189437
188254
187059
186339
186491
187566
189224
201917
199956
197226
195255
195101
196568
198755
192554
191342
190136
189433
189442
190087
190992
175520
175062
173898
171046
167623
164301
161090
99878.3
100643
100856
99308
95902.3
91665.2
86434.9
95557.5
94351.5
92675.9
90763.5
88439.2
87159.6
84078.8
169650
167324
164138
160799
157991
156063
153765
187701
186390
185207
184794
185299
186732
188714
201120
198785
195886
194261
194501
196052
198492
190863
189680
188527
188089
188448
189493
190743
174621
172216
169062
165711
162664
160146
157849
98355.5
97534
96412.5
94584.2
91464.8
87628.6
82045.3
92601.6
90639.8
88339.5
86298.9
84553.8
83130.8
78550.9
166739
163091
158642
155557
153897
153448
151498
185387
184291
183262
183218
184342
186237
188258
199426
197204
194473
192913
193113
195105
198164
188577
187653
186753
186721
187718
189265
190627
171663
168014
163868
160894
158731
157060
155622
95261.4
93663
91745.9
89441.5
86455.1
82847.3
78357.6
87634
86129.2
84079.6
82071.4
80482.9
78634.2
74513.1
161012
157625
153604
151397
150833
150597
148897
182268
181496
180935
181497
183164
185390
187633
197248
195181
192623
190900
190889
193495
197289
185576
185021
184613
185253
186766
188610
190242
166185
162985
159459
157347
155918
154912
154274
90456
89220
87413.6
85156
82482.9
79463.7
76388.3
81573.2
81160.1
79784.3
78086.9
76083.1
74388.7
72418.2
153524
151541
149239
148252
147836
147790
147063
178434
177786
177805
178888
180960
183347
185813
194362
192469
189756
188066
188433
190679
194182
181964
181485
181608
182752
184628
186419
188158
159674
157726
155605
154430
153088
152391
152115
84749.4
84474.2
83469.5
82119.6
79847.8
77597.4
75270.6
74811.1
75482.3
74755.6
73512.7
71169.1
70044.7
70432.1
145490
145062
144173
144198
143381
144052
145601
174103
173598
174061
175573
177106
177827
179636
191101
189063
186036
183920
183149
183326
186087
177921
177458
177939
179524
180847
180580
181126
152826
152153
150866
150632
148834
148269
147573
78569.9
79293.1
79027.1
78852.4
76926.4
75424.7
73132.2
55102.9
54929.7
54982.8
54803.3
55178.1
55188.7
54728.9
124383
123273
122510
122428
122148
122300
122904
158458
158128
157503
156447
153837
149682
145902
172958
171222
168459
165104
160887
155628
149541
163343
162771
161881
160526
157841
153704
149164
132564
131549
130646
130111
129433
128261
126647
60330.2
60110.8
60049.1
59568.3
59764
59655
59876.7
48135.1
47925.9
47920.5
48028.9
48321.2
48444.9
48437.7
111850
111611
111505
111644
111513
111232
111420
143278
143243
143258
143284
143012
142465
142069
156201
155780
155166
154639
154220
153777
152907
149824
149654
149585
149707
149783
149623
149221
121350
120898
120339
120231
120679
120976
120947
53435.8
53211.8
53007.8
52911.7
53029.7
53214.2
53466.1
44599.2
44693.6
44807.7
44881.4
44787.1
44644.5
44523.3
104077
104355
104808
105113
105096
104459
104100
134240
134339
134723
135434
136070
136321
136434
146197
146167
146289
146656
147331
148211
148392
139810
139828
140041
140703
141703
142597
142996
111113
111309
111592
111941
112237
112472
112686
48676.1
48726.7
48814.4
48871.3
48890.3
48880.4
48870.9
40960.3
41009.3
41057.5
41085.2
41079.7
41018
41007.5
94451.6
94546.1
94771.1
95007
95059.1
94932.6
94814
125585
125518
125623
125940
126251
126384
126402
137463
137487
137588
137766
137959
138142
138180
129580
129645
129801
130055
130345
130592
130693
99463.5
99632.8
99908
100220
100527
100772
100908
43299.6
43370.8
43483
43605.8
43699.1
43767.2
43790.5
39821.3
39824.5
39830.4
39839.6
39841.8
39856.7
39857.6
90225.2
90219.6
90177.8
90136.3
90136
90162.4
90179.3
119381
119254
119125
119069
118997
118866
118807
129799
129728
129501
129347
129227
129151
129034
121187
121134
121021
120887
120779
120691
120581
92407.3
92415.3
92386.9
92362
92342.6
92327.9
92312.6
40302.4
40341.6
40374.9
40393.3
40424.3
40448.1
40456.5
40562.4
40560.5
40558.5
40555.7
40552.8
40549.4
40544.7
89549.6
89542.1
89511.3
89492.7
89456
89413.8
89381
114901
114820
114729
114637
114520
114393
114380
123008
122702
122500
122296
122177
122154
121905
114700
114621
114523
114431
114322
114254
114134
89091.7
89093.7
89090.2
89082.8
89073.4
89061.9
89055.5
39788.6
39792.7
39799.7
39806.5
39814
39826.2
39840.6
48805.9
48811.4
48822.4
48825
48832.2
48850.2
48860
88185.9
88205.9
88239.6
88272.4
88292.9
88303.9
88306.8
108838
108839
108881
108952
108999
108990
109041
115178
114974
114856
114756
114681
114784
114471
107572
107541
107585
107600
107555
107586
107493
86355
86370.3
86397.8
86422.8
86438.9
86446.9
86449.8
48212.6
48214.6
48215.6
48216.9
48218.6
48218.9
48218
87312.4
92323.6
96186.3
99297.3
101730
104106
106552
155194
159397
163743
168128
172561
177434
180888
184487
183083
182657
183844
185997
188298
189525
193397
191005
190616
192024
194349
196585
197860
186135
185211
184787
185380
186648
188008
189224
156706
161223
165884
170509
173867
174580
174818
86026.4
92486.1
97854.5
101748
104169
104030
101097
83643.2
89660.1
93772.7
97070.3
99823.7
101335
102624
152837
156693
160742
165017
169274
173045
175927
184204
182564
181907
182912
184862
186772
188039
193386
190720
190145
191541
194030
196488
197935
185740
184665
184093
184381
185532
187060
188276
153588
157523
161567
165538
168997
171519
172948
81901.9
87914.4
93493.4
97444.2
99451.3
99310.9
98542
77745.9
85014.7
89621.4
93022.7
95875.3
96857.1
96927.8
149153
152314
155837
159692
163933
167204
168903
183959
182064
181043
181526
183032
184552
185620
193583
190410
189400
190682
193257
196201
198306
185609
184641
183624
183273
184010
185419
186641
149274
152351
155625
159075
162750
167052
169934
76582.9
81712.9
86898.6
91009.5
93278.5
94864.7
96264.3
71829.3
78981.4
84533.8
88060.5
90261.6
91105.5
91050
145825
148034
150823
153923
157634
160578
161934
183868
181766
180183
179764
180521
181710
182604
193608
189938
188304
189415
192174
195694
198181
185796
185040
183408
182160
182057
182757
183536
145121
147460
149845
152386
155324
159640
163479
71255.2
75461.5
79619.7
83180.2
86073.3
88880.8
91497
68542.3
74248.2
79379.8
82757.5
84747.3
85787.6
86246.6
143439
144642
147014
149555
152556
154871
155992
183894
181321
179074
177674
177638
178500
179284
192505
188535
186231
187169
190320
194478
197482
184222
183567
182423
180743
179520
179385
179902
141766
143339
145023
146861
148631
151811
155327
66913.2
70133.7
73202
76511.3
79317.5
82832
85232.6
67866.9
72221.1
74970.8
77106
79375.4
81339.1
83127.1
141887
142582
144723
147091
149088
150263
151442
182614
180000
177491
175401
174593
174972
175513
188970
185289
183654
184236
187285
191926
195217
180507
180011
179380
177959
176169
175580
176238
139425
140162
141233
142826
143471
145276
147528
64844
66068.7
68405.8
71577.1
74773.8
78023.1
79568.1
67664.3
71179.4
70763.1
71914.9
74184.2
76391.5
79519.9
139590
141082
142450
144170
144989
145493
147169
176284
174873
174661
173140
171524
171260
171624
180413
177432
177885
179689
183108
188177
192103
173066
173114
174154
174210
172534
171681
172594
137602
137424
138162
139422
139189
140282
140991
63788.2
62726.4
63971.3
68328.6
71064
73880.4
73704.7
55144.4
54852.7
55098
55224.3
55262.8
55661.7
55560.6
121513
122540
123819
125070
125973
126844
127447
142692
147472
151759
154647
156335
157556
158340
142091
148860
154698
159720
164082
167921
170513
140436
144445
149335
153497
155894
157195
158031
119282
119804
120754
121710
122900
123970
124674
53931.1
54526.9
54628.6
54744.8
55256.2
55110.4
54969
48062
47672.6
47545.1
47513.4
47484.5
47462.2
47346.6
109787
109493
109154
109063
109231
109506
109629
138458
138826
139046
139139
139228
139463
139680
144797
145740
146074
146538
147236
148038
148651
136442
136610
136855
137249
137511
137754
137964
106763
106279
106261
106455
106661
106783
106779
46438.3
46184.9
45860
45592.9
45510.2
45450.7
45563.2
43255.9
43100.7
42853
42577.5
42395.8
42355.6
42443.6
100668
100274
99663.1
99015.7
98401.8
97942.3
97681
131128
130707
129855
129030
128413
128048
127900
139670
139546
138697
137897
137335
137075
137061
129435
129073
128495
127763
126916
126447
126337
97954.4
97555.2
97101.2
96599.4
96156
95819.8
95602.4
42077.3
41940.7
41740.9
41598.5
41499
41436.9
41415.9
39911.8
39935.1
39942.8
39924.9
39839.3
39748.4
39704.9
92134
92003.6
91797.4
91574.4
91365.3
91194.9
91090.2
121554
121506
121375
121228
121104
121027
121014
131117
131131
131022
130875
130747
130690
130761
121470
121392
121231
121002
120731
120633
120662
91743.1
91623.6
91439
91228.5
91010.2
90825.1
90747.3
39957
39965.2
39941.6
39886.7
39823.9
39775.8
39749.1
39032.4
39008
38993.5
38944.1
38952.6
38952.3
38918.8
88188.2
88234.6
88287.3
88355.9
88416.3
88483.8
88540.1
115584
115733
115877
116047
116226
116405
116560
124496
124809
124961
125183
125427
125700
125864
115989
116054
116156
116268
116347
116432
116520
88692.7
88701.9
88703.3
88681.9
88661
88633.1
88619.9
39500.2
39492.3
39479
39466
39453.2
39456.5
39453.1
40107.1
40069.2
40054.2
40007.5
40009.6
39973.1
39878
88260.4
88256.9
88255.8
88282.9
88308.6
88357
88417.4
112430
112543
112577
112631
112691
112778
112895
119550
119822
119836
119957
120125
120363
120589
112556
112595
112625
112647
112642
112645
112671
88431.3
88417.1
88386.4
88339
88310.1
88252.9
88222.4
40203.9
40196.7
40186.7
40175.3
40163.1
40160
40156.9
49040.2
49067.5
49072.2
49094.1
49094.8
49103.5
49122.1
87661.8
87646.8
87618.8
87583.1
87535.3
87487.4
87442.4
107839
107877
107790
107740
107656
107595
107585
113651
113889
113678
113685
113708
113797
113988
107655
107646
107588
107503
107402
107311
107269
87251.3
87237.4
87210.8
87165.5
87111.4
87054.7
87017.4
48785.3
48795.8
48812.1
48827.4
48839.1
48848.9
48858.4
)
;

boundaryField
{
    fuel
    {
        type            zeroGradient;
    }
    primary_air
    {
        type            zeroGradient;
    }
    Secondary_air_RHS
    {
        type            zeroGradient;
    }
    Secondary_air_LHS
    {
        type            zeroGradient;
    }
    outlet
    {
        type            totalPressure;
        rho             rho;
        psi             none;
        gamma           1;
        p0              uniform 100000;
        value           nonuniform List<scalar> 
98
(
44720.7
76204.8
100000
100000
100000
75989.4
44651.4
44775.1
76326.5
100000
100000
100000
75945.6
44627
44685.5
76182.5
100000
100000
100000
76021.3
44632.9
44853.7
76252.7
100000
100000
100000
75949.3
44635.1
44702.5
76017.8
100000
100000
100000
75772.8
44635.2
44672.3
75952.5
100000
100000
100000
75635.3
44633.5
44851.3
76087.8
100000
100000
100000
75433.4
44678.8
44921.5
76585.4
100000
100000
100000
75362.3
44302
44897
76656.4
100000
100000
100000
75380.4
44283.5
44898.5
76824.1
100000
100000
100000
75476
44291.8
44890.4
76910.9
100000
100000
100000
75570
44296.5
44883.9
77005.1
100000
100000
100000
75607.1
44302.9
44893.7
77069.9
100000
100000
100000
75625.6
44305.6
44922.2
77065.6
100000
100000
100000
75617.1
44336.9
)
;
    }
    stove_body
    {
        type            zeroGradient;
    }
    frontAndBack
    {
        type            empty;
    }
}


// ************************************************************************* //
