/*--------------------------------*- C++ -*----------------------------------*\
  =========                 |
  \\      /  F ield         | OpenFOAM: The Open Source CFD Toolbox
   \\    /   O peration     | Website:  https://openfoam.org
    \\  /    A nd           | Version:  6
     \\/     M anipulation  |
\*---------------------------------------------------------------------------*/
FoamFile
{
    version     2.0;
    format      ascii;
    class       surfaceScalarField;
    location    "0.025";
    object      phi;
}
// * * * * * * * * * * * * * * * * * * * * * * * * * * * * * * * * * * * * * //

dimensions      [1 0 -1 0 0 0 0];

internalField   nonuniform List<scalar> 
10143
(
6.18452e-09
-4.66712e-05
5.13728e-05
-8.81825e-08
-4.64474e-05
5.12281e-05
3.19837e-07
-4.71974e-05
5.13723e-05
3.01943e-07
-4.66314e-05
5.11851e-05
-4.86093e-08
-4.63494e-05
5.1283e-05
9.34583e-08
-4.68612e-05
5.13262e-05
-4.61935e-05
5.09256e-05
-7.75523e-08
-2.40272e-05
-1.14487e-05
-4.67486e-07
-2.37168e-05
-1.12905e-05
-8.98502e-07
-2.41539e-05
-1.16476e-05
-3.58301e-07
-2.40042e-05
-1.22249e-05
-1.55884e-07
-2.37495e-05
-1.17899e-05
-9.68531e-07
-2.37272e-05
-1.13367e-05
-2.37418e-05
-1.23957e-05
-5.812e-08
-1.79088e-06
-7.82595e-06
1.03525e-06
-1.90544e-06
-8.63249e-06
5.42757e-08
-1.73873e-06
-6.90707e-06
-6.21714e-07
-1.75078e-06
-7.05473e-06
-4.20558e-07
-1.77857e-06
-7.76418e-06
-5.35368e-07
-1.46044e-06
-7.71862e-06
-1.75082e-06
-8.16286e-06
-3.57125e-07
1.7036e-06
-2.87574e-06
-5.41925e-07
1.80432e-06
-3.42773e-06
-1.31822e-07
1.63484e-06
-3.73821e-06
6.74462e-08
1.56318e-06
-3.40188e-06
1.18771e-07
1.68804e-06
-3.44341e-06
5.27163e-07
1.6471e-06
-3.50572e-06
1.80453e-06
-2.82419e-06
-1.8555e-07
2.40488e-05
-7.78265e-06
9.12095e-07
2.35962e-05
-8.62266e-06
1.56553e-07
2.39251e-05
-7.01826e-06
-4.96988e-07
2.38147e-05
-7.09803e-06
-5.85387e-07
2.38892e-05
-7.68253e-06
-6.7922e-07
2.40359e-05
-7.89142e-06
2.38345e-05
-8.39378e-06
5.78429e-07
4.67893e-05
-1.22396e-05
2.82738e-08
4.65563e-05
-1.13048e-05
1.24585e-07
4.69385e-05
-1.21207e-05
2.42533e-07
4.66916e-05
-1.19393e-05
1.05968e-06
4.64632e-05
-1.23541e-05
-1.83458e-07
4.74644e-05
-1.1165e-05
4.67115e-05
-1.19604e-05
2.27783e-07
5.12208e-05
-1.59237e-07
5.15743e-05
7.83712e-08
5.12622e-05
-3.68219e-08
5.13689e-05
-2.74612e-07
5.12671e-05
9.39736e-08
5.16948e-05
5.14423e-05
-1.33964e-07
-8.90643e-06
6.20519e-05
6.53111e-08
-9.69169e-06
6.21953e-05
3.19231e-07
-1.00742e-05
6.25475e-05
3.41351e-07
-9.73964e-06
6.22038e-05
-8.90615e-10
-8.95369e-06
6.1939e-05
8.16534e-08
-9.20777e-06
6.18395e-05
-8.9525e-06
6.16016e-05
-4.68428e-07
2.11946e-06
-1.94239e-05
-9.00337e-07
1.77264e-06
-2.00064e-05
-1.15996e-06
1.77394e-06
-2.09238e-05
-1.23955e-07
1.74073e-06
-2.23865e-05
2.54604e-07
2.26655e-06
-2.09688e-05
-7.27434e-07
2.38294e-06
-1.95403e-05
1.94989e-06
-2.14292e-05
-3.84511e-08
7.27605e-06
-1.0036e-05
3.2054e-07
7.13287e-06
-1.14972e-05
-2.59571e-07
7.82312e-06
-9.47525e-06
-2.44737e-07
7.88656e-06
-1.02738e-05
1.48952e-07
7.35425e-06
-1.03778e-05
-3.26291e-07
7.44438e-06
-9.50986e-06
7.28541e-06
-1.08952e-05
-2.56839e-07
-7.3301e-06
-4.3567e-06
-3.90817e-07
-7.76294e-06
-4.91575e-06
-2.28703e-07
-7.12174e-06
-5.44246e-06
-2.9229e-07
-7.06437e-06
-4.86242e-06
-3.01143e-07
-7.18955e-06
-5.41135e-06
1.90405e-07
-7.76406e-06
-5.36163e-06
-7.31129e-06
-4.45377e-06
-2.42231e-07
-1.72243e-06
-1.02149e-05
1.76016e-07
-2.81639e-06
-1.1283e-05
6.03755e-08
-1.78123e-06
-9.33939e-06
3.29855e-07
-1.95344e-06
-9.5533e-06
4.81556e-07
-1.60192e-06
-1.04631e-05
-1.03902e-07
-2.33158e-06
-9.92644e-06
-1.86396e-06
-1.10448e-05
3.65249e-07
9.44313e-06
-2.11958e-05
-1.79475e-07
8.84551e-06
-1.9883e-05
5.83108e-08
9.70568e-06
-2.1426e-05
6.53435e-07
9.10763e-06
-2.11312e-05
2.01189e-06
9.54945e-06
-2.24273e-05
3.51575e-07
9.91004e-06
-1.93406e-05
9.47201e-06
-2.03382e-05
1.78587e-07
6.21086e-05
-1.29275e-07
6.21387e-05
3.51843e-08
6.21312e-05
-1.29899e-07
6.19716e-05
-2.56994e-07
6.22656e-05
2.2675e-08
6.26869e-05
6.2557e-05
1.29102e-07
6.36462e-06
5.72769e-05
2.27301e-07
5.3088e-06
5.84885e-05
3.99242e-07
5.74801e-06
5.82816e-05
6.04164e-07
6.02272e-06
5.75927e-05
2.72802e-07
6.39976e-06
5.75438e-05
-2.31082e-07
6.28467e-06
5.7737e-05
6.55345e-06
5.61097e-05
4.08984e-07
5.16188e-06
-1.49184e-05
-1.75969e-07
5.61104e-06
-1.66827e-05
-8.57941e-07
5.67892e-06
-1.69904e-05
-3.32176e-07
5.23624e-06
-1.87349e-05
-1.84124e-07
5.74449e-06
-1.68991e-05
-8.88154e-07
6.31302e-06
-1.52965e-05
5.19073e-06
-1.73969e-05
-2.19239e-07
8.3754e-06
-1.00957e-05
1.46849e-07
8.9194e-06
-1.22903e-05
-1.8376e-07
9.40172e-06
-9.95992e-06
-1.3965e-07
9.02216e-06
-1.11781e-05
-4.13601e-08
9.1881e-06
-1.10288e-05
2.86376e-08
9.38181e-06
-9.75504e-06
8.56237e-06
-1.13003e-05
-3.50616e-07
-8.62318e-06
-3.28125e-06
-4.9229e-07
-8.64358e-06
-3.6917e-06
-2.50777e-07
-8.75585e-06
-3.99542e-06
-3.28094e-07
-8.38251e-06
-3.7808e-06
-9.36442e-08
-8.9939e-06
-3.93566e-06
2.74584e-07
-9.02644e-06
-3.92991e-06
-8.54806e-06
-3.41043e-06
-3.51104e-07
-5.08717e-06
-1.0483e-05
1.4204e-07
-5.7859e-06
-1.18411e-05
1.14176e-07
-5.65624e-06
-9.44647e-06
4.1662e-07
-5.41688e-06
-9.87016e-06
3.00062e-07
-5.22794e-06
-1.11649e-05
2.55853e-07
-5.94616e-06
-1.00703e-05
-5.22433e-06
-1.11957e-05
5.17778e-07
-6.33926e-06
-1.69359e-05
3.62679e-07
-6.30029e-06
-1.5744e-05
4.95954e-08
-6.1026e-06
-1.73058e-05
4.6216e-07
-6.33106e-06
-1.70212e-05
1.01985e-06
-6.09176e-06
-1.8634e-05
-2.02562e-07
-5.9599e-06
-1.4759e-05
-6.36416e-06
-1.58559e-05
4.51828e-07
5.66272e-05
-1.68017e-07
5.82313e-05
-8.25734e-08
5.75809e-05
-2.8007e-07
5.74777e-05
-2.17155e-07
5.77518e-05
-4.33305e-07
5.85842e-05
5.70483e-05
3.69613e-07
9.55764e-06
4.85373e-05
3.01755e-07
8.5634e-06
5.14371e-05
5.45441e-07
9.07516e-06
5.02818e-05
6.17581e-07
9.44869e-06
4.92812e-05
4.73075e-07
9.85371e-06
4.90577e-05
-1.89834e-07
9.6269e-06
5.00613e-05
9.58251e-06
4.75033e-05
1.39295e-06
9.84291e-06
-1.23249e-05
3.68535e-09
1.04805e-05
-1.34556e-05
-8.9089e-07
1.05954e-05
-1.36798e-05
-9.42941e-07
1.02534e-05
-1.56113e-05
-3.42702e-07
1.05152e-05
-1.40351e-05
-8.28358e-07
1.09922e-05
-1.20498e-05
1.01571e-05
-1.42994e-05
-1.75122e-07
9.41077e-06
-6.62658e-06
-2.55751e-08
1.02062e-05
-9.31812e-06
-1.58132e-07
1.02273e-05
-6.65726e-06
-1.03472e-07
9.68195e-06
-7.81974e-06
-2.12874e-07
1.02275e-05
-7.93525e-06
1.34339e-07
1.04601e-05
-6.815e-06
9.49724e-06
-7.66423e-06
-3.32693e-07
-9.64062e-06
-9.09875e-08
-4.48309e-07
-9.38177e-06
-4.01438e-07
-2.36092e-07
-1.01594e-05
-1.93833e-07
-3.16822e-07
-9.74873e-06
-5.6438e-07
-1.72422e-08
-1.02522e-05
-1.38869e-07
2.45417e-07
-9.90962e-06
-3.57139e-07
-9.54436e-06
-3.68259e-07
-3.35632e-07
-1.00631e-05
-6.90941e-06
1.77819e-07
-1.06335e-05
-8.27368e-06
1.61815e-07
-1.05793e-05
-6.2919e-06
4.45441e-07
-1.02137e-05
-7.00648e-06
1.44957e-07
-1.03159e-05
-8.06051e-06
4.08924e-07
-1.0694e-05
-6.71587e-06
-1.00615e-05
-7.43199e-06
6.19065e-07
-9.23771e-06
-1.40476e-05
1.86074e-07
-9.49224e-06
-1.22684e-05
-9.21106e-08
-9.54477e-06
-1.38539e-05
6.3343e-07
-9.725e-06
-1.41028e-05
6.58848e-07
-9.56312e-06
-1.54088e-05
-2.90161e-07
-9.29688e-06
-1.10161e-05
-9.16254e-06
-1.26821e-05
5.14375e-07
4.81261e-05
-1.56624e-07
5.06489e-05
-1.37984e-07
4.92067e-05
-2.67372e-07
4.90942e-05
-2.81895e-07
4.93991e-05
-6.1739e-07
5.09104e-05
4.84561e-05
4.21303e-07
1.15707e-05
3.75555e-05
5.33219e-07
1.19491e-05
4.0404e-05
7.36014e-07
1.1897e-05
3.9204e-05
5.99243e-07
1.18447e-05
3.85435e-05
3.1905e-07
1.20699e-05
3.82441e-05
3.20993e-08
1.19947e-05
3.93774e-05
1.16853e-05
3.69063e-05
1.11891e-06
1.08713e-05
-8.12372e-06
2.95086e-08
1.13292e-05
-7.39474e-06
-4.74091e-07
1.16412e-05
-8.53337e-06
-8.08494e-07
1.13659e-05
-1.04874e-05
-3.58989e-07
1.15575e-05
-9.48287e-06
-5.7132e-07
1.16912e-05
-6.9801e-06
1.09675e-05
-9.45174e-06
-9.3605e-08
9.77634e-06
-2.48014e-06
-1.64609e-07
9.80447e-06
-4.75979e-06
-5.76824e-08
1.00855e-05
-2.28671e-06
-7.96778e-08
9.91451e-06
-3.43012e-06
-2.07875e-07
1.00128e-05
-3.39352e-06
2.2804e-07
1.01669e-05
-2.7675e-06
9.74772e-06
-3.27751e-06
-3.04279e-07
-9.84223e-06
3.85413e-06
-3.67778e-07
-1.00181e-05
3.30017e-06
-2.74406e-07
-1.00561e-05
3.71083e-06
-1.96875e-07
-1.00402e-05
3.21008e-06
-7.12324e-09
-9.96602e-06
3.49597e-06
1.30418e-07
-1.02686e-05
3.64491e-06
-9.84744e-06
3.36404e-06
-2.50153e-07
-1.0923e-05
-2.64863e-06
1.29417e-08
-1.16957e-05
-3.97268e-06
2.38527e-07
-1.15076e-05
-2.21301e-06
3.75869e-07
-1.14484e-05
-2.92633e-06
7.60933e-08
-1.12015e-05
-3.66972e-06
4.02848e-07
-1.16783e-05
-2.68818e-06
-1.08696e-05
-3.07023e-06
4.40172e-07
-1.14127e-05
-9.46339e-06
-2.63141e-07
-1.19299e-05
-6.82541e-06
-7.71862e-08
-1.19455e-05
-9.1504e-06
4.86444e-07
-1.20161e-05
-9.62559e-06
3.47811e-07
-1.18737e-05
-1.02737e-05
-6.05071e-08
-1.17934e-05
-5.96228e-06
-1.12753e-05
-7.76675e-06
4.48487e-07
3.73132e-05
-3.87003e-08
4.01189e-05
-9.97368e-08
3.8289e-05
-3.85545e-07
3.83243e-05
-8.24321e-07
3.8919e-05
-6.28984e-07
3.99582e-05
3.76069e-05
1.87502e-07
1.10166e-05
2.80679e-05
8.92334e-07
1.15038e-05
2.97866e-05
9.26527e-07
1.19012e-05
2.89634e-05
6.1573e-07
1.19474e-05
2.8644e-05
8.04029e-08
1.20998e-05
2.84249e-05
3.32458e-07
1.16114e-05
2.91951e-05
1.1418e-05
2.75685e-05
5.72676e-07
1.18806e-05
-5.8712e-06
3.97433e-08
1.27562e-05
-4.40975e-06
9.27922e-08
1.29083e-05
-5.87952e-06
-3.78339e-07
1.29478e-05
-7.48953e-06
-3.34678e-07
1.31347e-05
-6.88525e-06
-2.40551e-07
1.30308e-05
-4.67577e-06
1.22467e-05
-6.70273e-06
6.25978e-08
8.31534e-06
3.69453e-06
-3.31901e-07
8.73963e-06
2.30474e-06
-7.43489e-08
8.55964e-06
4.36432e-06
-6.9588e-08
8.69335e-06
3.43261e-06
-1.89891e-07
8.89375e-06
3.52733e-06
2.40014e-07
8.84468e-06
3.60625e-06
8.46947e-06
3.32013e-06
-3.77728e-07
-8.47908e-06
5.39365e-06
-2.17098e-07
-8.9673e-06
4.99669e-06
-2.83441e-07
-8.67688e-06
5.21942e-06
-3.01523e-07
-8.96421e-06
5.08507e-06
-2.30746e-07
-8.90831e-06
5.36749e-06
-1.38703e-07
-8.90002e-06
5.35665e-06
-8.59187e-06
4.68229e-06
-5.19309e-09
-1.22312e-05
3.70542e-06
-2.23538e-07
-1.34796e-05
3.15994e-06
2.52332e-07
-1.30428e-05
4.26117e-06
2.77412e-07
-1.32597e-05
3.84334e-06
5.40792e-08
-1.32894e-05
3.42957e-06
3.1772e-07
-1.29385e-05
3.65685e-06
-1.21083e-05
3.36073e-06
3.23812e-08
-1.10479e-05
-7.07012e-06
-3.32475e-07
-1.16652e-05
-4.32595e-06
3.71644e-08
-1.18563e-05
-7.0906e-06
1.17186e-07
-1.20079e-05
-7.33427e-06
3.34361e-08
-1.21775e-05
-7.74428e-06
2.74659e-07
-1.13149e-05
-3.98318e-06
-1.07819e-05
-5.06513e-06
2.32304e-07
2.76612e-05
1.60049e-07
2.99213e-05
-5.64084e-08
2.82647e-05
-5.31207e-07
2.83932e-05
-1.32074e-06
2.91287e-05
-4.78977e-07
2.93986e-05
2.79559e-05
-1.75171e-07
3.01587e-05
1.61109e-06
3.01701e-05
1.44072e-06
3.14206e-05
9.79063e-07
3.12973e-05
1.01066e-07
3.15742e-05
9.20767e-07
3.0723e-05
3.04894e-05
-3.36567e-07
1.73045e-05
9.01263e-07
1.72244e-05
1.58418e-06
1.76378e-05
7.22617e-07
1.72061e-05
-5.91452e-08
1.79677e-05
1.34291e-06
1.73139e-05
1.78983e-05
5.00529e-07
1.09678e-05
-6.08923e-07
1.1103e-05
1.86747e-07
1.0819e-05
3.99294e-07
1.09382e-05
2.3432e-07
1.11926e-05
4.97848e-07
1.1104e-05
1.1217e-05
-4.6858e-07
-1.11731e-05
-2.08011e-07
-1.14004e-05
-5.04194e-07
-1.09126e-05
-5.15861e-07
-1.12563e-05
-3.34876e-07
-1.07701e-05
-6.60043e-07
-1.12292e-05
-1.14062e-05
2.41991e-07
-1.72679e-05
-8.50028e-07
-1.82432e-05
3.73771e-07
-1.74554e-05
5.67734e-07
-1.8143e-05
3.8343e-07
-1.7253e-05
5.78521e-07
-1.73205e-05
-1.7978e-05
-1.98606e-06
-2.96427e-05
8.6007e-07
-3.15829e-05
-2.14468e-07
-3.08738e-05
-1.62585e-06
-3.14032e-05
-6.64121e-07
-3.24788e-05
8.09653e-07
-3.00041e-05
-2.94067e-05
-1.42607e-07
3.41139e-07
-1.38558e-07
-9.10147e-07
-2.08215e-06
-4.12881e-07
-0.00198938
0.00312463
-0.00111268
0.00164023
0.00339526
-0.00698933
0.00547331
0.0034513
-0.0072621
0.00747736
0.00304135
-0.00502308
0.00724604
0.0024447
-0.00219339
0.00460251
0.00194417
0.000718967
0.00157701
0.00306023
-0.00366198
0.00504571
0.00189943
0.00123632
0.00501385
-0.00634242
0.00605247
0.0048857
-0.00606762
0.00973894
0.00521662
-0.00568325
0.0111338
0.00482392
-0.00359711
0.00767231
0.00389263
0.00169766
0.00353255
0.00592943
-0.000649558
0.00244169
0.00344145
0.00213751
0.00198277
0.000440692
0.00451905
0.00173699
0.0009741
0.00681072
0.00237468
0.00078242
0.00755358
0.00296184
0.00134768
0.00552584
0.00323326
0.00290474
0.00350833
0.0057681
-0.000302771
-0.00225907
0.0048634
8.65308e-05
-0.00195123
0.00341595
-0.000358054
-0.00168948
0.00375414
-0.000323747
-0.00174597
0.00398281
0.000245811
-0.00200117
0.00428894
0.000634083
-0.00212025
0.00483153
-0.00248263
0.00645921
-9.05366e-05
-0.00520302
0.00322718
0.00129849
-0.00488456
0.00174906
0.00263197
-0.00479276
0.00199948
0.00365315
-0.0046806
0.00217715
0.00377138
-0.00460516
0.00275485
0.0026123
-0.00440345
0.00369538
-0.0049934
0.00537866
6.76487e-05
-0.00375129
-0.00137222
0.00338177
-0.00347748
-0.00456158
0.00647608
-0.00362278
-0.00409384
0.0090825
-0.00329536
-0.00381703
0.0104643
-0.00264011
-0.00318705
0.00765264
-0.00181925
0.000386424
-0.00114859
0.00399595
-0.00171785
-0.00201333
-0.000762233
-0.00439429
0.000861617
-0.00522096
0.00302817
-0.00545706
0.00432689
-0.00395573
0.00291028
-0.000424301
0.00175672
0.00125585
0.00273153
-0.00509169
0.00227491
0.00258033
-0.0105634
0.00367353
0.00171083
-0.0103679
0.00434292
0.00145151
-0.00713436
0.00453331
0.00131769
-0.003686
0.00248371
0.00153142
0.00123969
0.00117201
0.00438404
-0.000616805
0.0034861
0.00188861
7.59243e-06
0.00367746
-0.00792437
0.00122175
0.00285932
-0.00830241
0.00254678
0.00316548
-0.00858287
0.00501128
0.00268118
-0.00730916
0.00368886
0.00253779
0.00212054
0.00248721
0.00843535
0.000366744
0.00140996
0.00532061
0.000552087
0.00128739
0.00281166
0.000533091
0.000893779
0.00312375
0.00279778
0.00152079
0.000322221
0.0051852
0.00162041
0.00018155
0.0029126
0.00137169
0.00648954
0.00210963
0.00920725
0.000357951
-0.000999637
0.0067393
-0.000169998
-0.000597475
0.00566874
-0.000919271
-0.000597859
0.00582739
-0.000324926
-0.000774636
0.00549612
8.98871e-05
-0.000974867
0.00627854
-0.00068591
-0.00116179
0.00794672
-0.00174808
0.00943686
0.00135454
-0.00394778
0.00496202
0.00107615
-0.0028283
0.00442185
0.00132759
-0.00273586
0.00405695
0.00100721
-0.00274776
0.00465967
0.00118412
-0.00304412
0.0048163
0.00104989
-0.00340397
0.00622883
-0.00365521
0.00851363
0.00187287
-0.00304787
-0.004036
0.0025705
-0.00209822
-0.00587028
0.00287782
-0.00158808
-0.00544305
0.0019191
-0.00173525
-0.00376549
0.00265104
-0.00209556
-0.00476217
0.00272154
-0.00242427
-0.00055496
-0.00225408
0.00543583
-0.0027075
-0.00234049
-0.00418132
-0.00497965
-0.00440455
-0.00658129
-0.00356333
-0.00805693
-0.00152853
-0.00814663
-0.000119344
-0.00430709
-0.000657964
0.00141281
0.00198719
-0.00851928
0.00135947
0.00195879
-0.012509
0.00182886
0.00110945
-0.0119484
0.00236597
0.000769759
-0.00845574
0.00231451
0.00115976
-0.0047939
0.00127368
0.00127345
0.000980996
0.000946528
0.00468117
0.00100752
0.00160415
0.00134813
-0.00133533
0.0022477
-0.00575835
-0.00112676
0.00114502
-0.00843306
-0.000589006
0.00205518
-0.0102962
0.000984458
0.00222318
-0.0098264
0.00177684
0.00229397
0.000400468
0.00177617
0.00944876
-0.00216023
0.00221388
0.00699785
-0.0026041
0.00218323
0.00347331
-0.00216197
0.00205635
0.00192599
-0.0009205
0.0024504
-0.001177
0.00122177
0.00234492
-0.00193859
0.00241989
0.00161358
0.00609385
0.00242982
0.0110653
0.000491219
-0.000260353
0.00847739
0.000404417
-0.000470424
0.00820519
-0.000134362
-0.00053965
0.00874049
-0.00017912
-0.000518653
0.0082587
0.000518948
-0.000812556
0.00848305
-0.000429713
-0.000637587
0.0109001
-0.000451567
0.0116259
0.0015551
-0.0030267
0.00627089
0.000917576
-0.00213999
0.00686497
0.000117766
-0.00234196
0.00679742
-0.000977348
-0.00209263
0.0074676
-0.000745473
-0.00285582
0.00676614
3.87631e-06
-0.00291584
0.00787288
-0.00288823
0.0110371
0.00173612
-0.00245996
-0.006248
0.00203653
-0.00214447
-0.00606499
0.00152414
-0.00134767
-0.00584794
-0.000884359
-0.000419625
-0.00295799
-0.00238785
-0.00173135
-0.00427872
-0.0010819
-0.00246123
-0.00219268
-0.00309041
0.00465013
-0.00241847
-0.00237394
-0.00455527
-0.00496837
-0.00562255
-0.00686005
-0.00518104
-0.00894373
-0.00484202
-0.0102753
-0.00254027
-0.0091213
-0.00629013
0.00103691
0.000536185
-0.0101524
0.00106485
0.00107724
-0.0136569
0.00101727
0.000789128
-0.0127245
0.00202587
-0.000746306
-0.00880629
0.00102887
0.000822031
-0.00467458
2.52531e-05
0.000904549
0.00103079
0.000127057
0.0045057
-0.00106083
4.50588e-05
0.00291336
-0.00311422
0.000660126
-0.00324355
-0.00246967
9.59874e-05
-0.00832374
-0.0026126
0.00026973
-0.0111181
-0.00251556
0.00155621
-0.0105609
-0.00056391
0.00201482
-0.00254434
0.000851432
0.00821103
-0.00417295
0.00360318
0.0076691
-0.00523542
0.00326538
0.00202056
-0.00457735
0.00268038
-0.00122819
-0.0040441
0.00168791
-0.00305947
-0.00255095
0.00137172
-0.00315705
0.000905657
0.00140106
0.00333251
0.0014999
0.0113303
-0.000687108
0.00129826
0.0111516
-0.00017436
0.000406328
0.0102825
0.000531
-0.000256165
0.0106595
0.00016187
-0.000628858
0.0105925
-0.000453256
-0.00056293
0.0106942
-0.000179494
-1.74644e-05
0.0117502
9.21048e-05
0.0125038
0.00105574
-0.00197925
0.00855642
0.000370122
-0.00148863
0.00957164
-0.00106485
-0.00115165
0.00922919
-0.00130067
-0.00157202
0.00872037
-0.00129313
-0.00189209
0.00818156
-0.00107487
-0.00139032
0.00914019
-0.00199605
0.0120969
0.000948465
-0.00215851
-0.00695134
0.00058791
-0.00202045
-0.00511834
0.000260738
-0.00125148
-0.00537861
-0.00137351
0.000439532
-0.00328287
-0.00433848
-0.000420527
-0.00268678
-0.00393265
-0.00119234
-0.0026667
-0.00176881
0.000563013
-0.00176101
-0.00278737
-0.00356922
-0.00518468
-0.00460821
-0.00710024
-0.00395597
-0.00923946
-0.0038735
-0.0108634
-0.00278127
-0.0114628
-0.0109024
0.001339
-0.000201221
-0.0113497
0.00181727
0.000377785
-0.0145663
0.00105528
0.000393285
-0.0123851
0.000582027
-0.000273288
-0.00812671
-0.000538949
-4.66724e-05
-0.00355313
-0.00100562
0.000565188
0.000910006
7.79474e-05
0.00335649
-0.00101354
-0.000963227
0.00468844
-0.00265581
0.000100651
-0.00130538
-0.00346041
-0.000164789
-0.00694239
-0.00386447
0.000190234
-0.0111669
-0.00431021
0.000635753
-0.0107809
-0.00269139
0.00241712
-0.00595683
0.00151536
0.00415643
-0.00557302
0.00355751
0.00876857
-0.00753248
0.00288689
0.00119597
-0.00809447
0.00202515
-0.00281697
-0.00751832
0.000935157
-0.00432369
-0.00589143
0.000609029
-0.00472924
-0.00176709
0.00166315
-7.41782e-05
0.00141319
0.00972265
-0.00129883
0.00212103
0.0135762
-0.000323922
0.000624953
0.0112259
0.000767702
-0.000477339
0.0117418
-5.68594e-05
-0.000788525
0.0128681
-0.00105319
-0.000504275
0.0124676
0.000108009
-0.000238744
0.0121212
-0.000287361
0.0140444
0.000380244
-0.000997249
0.0113723
-0.00121051
-0.00055693
0.0124555
-0.00316238
-0.000549775
0.0113065
-0.0030605
-0.00167343
0.00964982
-0.00305326
-0.0014557
0.00919123
-0.00219272
-0.00175386
0.00981182
-0.00221308
0.0119113
0.000533052
-0.0016419
-0.0067716
7.63708e-05
-0.00088957
-0.00432009
-0.000851377
-0.000430485
-0.00462478
-0.0028622
0.000663079
-0.00359563
-0.00530632
0.000376372
-0.00202489
-0.00498625
-0.000234569
-0.00446815
0.000150623
-0.00677798
-0.00148192
-0.003002
-0.00280506
-0.00474209
-0.00371507
-0.00656502
-0.00323308
-0.00911437
-0.00241017
-0.0113602
-0.0014309
-0.0126678
-0.0122323
0.00199265
-0.00180792
-0.0115755
0.00292479
-0.00135401
-0.014184
0.00144421
-1.29923e-05
-0.0108892
-0.00120295
0.00108053
-0.00660066
-0.0019896
0.000234023
-0.00303058
-0.00142927
0.000508641
-0.000159526
0.000223621
0.00168817
-0.000431343
-0.000503343
0.00389815
2.47648e-05
0.000526271
-0.00366036
-0.00243468
0.000432181
-0.00497513
-0.00472078
0.00122036
-0.00895989
-0.00639691
0.00092001
-0.00980246
-0.00473103
0.00241146
-0.00958184
0.00209685
-0.00233734
-0.00487165
0.00299135
0.0102772
-0.00724615
0.00177579
0.00234329
-0.00922006
0.00134451
-0.00172123
-0.00965563
0.000672321
-0.0031441
-0.00881788
0.000663257
-0.00519652
-0.00488096
0.00182465
-0.00345677
0.00222284
0.00486565
-0.00177256
0.000746839
0.0173336
7.19599e-05
0.000328575
0.0104837
0.000482842
-8.51892e-05
0.0124559
-0.0018286
-0.000606436
0.0163022
-0.00289162
-0.000281721
0.0142856
-0.00100992
-0.00011503
0.0118085
2.3993e-05
0.0150308
-0.00119268
-0.000579047
0.0140027
-0.00294974
3.18034e-06
0.014625
-0.00414409
-4.78023e-05
0.0125162
-0.00421934
-0.000870611
0.01025
-0.00350097
-0.00126822
0.00962741
-0.00224565
-0.00150013
0.00984409
-0.00139718
0.0111077
-0.000178001
-0.000963974
-0.00615266
0.000313008
-0.000584041
-0.00426718
-0.000596409
-0.000145918
-0.00373239
-0.00176097
0.000612164
-0.00385371
-0.00287969
0.00186622
-0.00401722
-0.00261183
0.0017134
-0.0080022
0.00118079
-0.0118539
-0.00109591
-0.00290616
-0.00251141
-0.00391485
-0.00372398
-0.00544565
-0.00387512
-0.00840206
-0.00225128
-0.0111517
-0.00062944
-0.0125187
-0.0116425
0.00234601
-0.00166198
-0.0122493
0.00339001
-0.00149993
-0.0137764
0.0023328
-0.00081039
-0.00904829
-2.63406e-05
0.000666749
-0.00494903
-0.00204942
0.00110088
-0.00214186
-0.00159805
0.000475592
-0.00109771
0.000378411
-0.000263686
0.000927144
0.00258157
-0.00121571
0.00337554
0.000749363
-0.00831649
-0.000727276
0.00141141
-0.0029767
-0.00206138
0.00191089
-0.00860205
-0.0032464
0.00111365
-0.00838327
-0.00213739
0.00161786
-0.0118204
0.00344424
-0.00751059
-0.000770232
0.0036242
0.0100831
-0.00392224
-0.000937899
0.00741615
-0.00749912
0.000149072
0.0032801
-0.00887337
-0.000384579
0.000620092
-0.00799832
0.00110755
-0.0058684
-0.00521273
0.00228127
-0.00676388
0.00314661
-3.23965e-05
0.00234081
-0.000989675
0.0189795
0.00119267
-0.00366565
0.0144008
-0.00151978
-0.00112382
0.0160748
-0.00380436
-0.000775367
0.0181508
-0.00357067
-0.000460375
0.0152493
-0.00346414
-0.000321392
0.0142154
-0.00112146
0.0155267
-0.000374213
-0.000131267
0.013524
-0.00383435
-0.000188781
0.0147484
-0.00427242
8.27147e-05
0.0118942
-0.00400135
-0.000675947
0.0099082
-0.00306982
-0.00102552
0.00948226
-0.00209781
-0.000938807
0.00968972
-0.0011142
0.00900509
-0.000306643
-0.000447972
-0.00549205
0.000262475
-0.000386792
-0.00459788
-0.00118954
0.000352197
-0.00253099
-0.00350551
0.00161736
-0.0036079
-0.00317576
0.00302588
-0.00819914
-0.00122282
0.0024904
-0.0132598
0.00120427
-0.0153609
-0.00133089
-0.00201713
-0.00294369
-0.00274642
-0.00444626
-0.00366377
-0.00449226
-0.00679459
-0.00227861
-0.0103679
-9.67033e-05
-0.0121786
-0.0105132
0.000530598
0.00314096
-0.0151514
0.0114411
0.00181376
0.00419628
-0.0187061
0.0132216
6.75855e-05
0.0028908
-0.00863292
0.00757664
-0.000414411
0.00284042
-0.00607874
0.00377526
9.40297e-06
0.00194643
-0.00400398
0.00173437
-0.00100531
0.000627467
0.000850284
-0.000469679
-0.000942094
0.000129697
-0.000278231
0.00115136
-0.000442397
-0.00109024
0.00364322
0.00112845
0.000965067
-0.0042876
0.00753687
0.00169974
0.00142111
-0.00215492
0.00302854
0.00152098
0.00376172
-0.00938669
0.00886367
0.00570596
0.00416785
-0.0142751
0.00787052
0.00220193
0.00450043
-0.0157711
0.0154522
0.00389994
-0.0101486
0.00759002
-0.00290327
-0.000383581
0.0147261
-0.0117976
-0.00350278
-0.000701071
0.0109348
-0.00853061
-0.00384473
-0.000887295
0.007521
-0.0049144
-0.00289885
-0.000762806
0.00171668
0.0018983
-0.00294545
8.86765e-05
-0.00202916
0.00613347
-0.00353655
0.00125039
-0.00308145
0.00694408
0.00193148
-0.00223745
0.000800528
-0.000343716
-0.00114788
0.0172715
-0.0164919
-0.00073972
-0.00118266
0.0172849
-0.0166013
-0.00177581
-0.00100248
0.0169771
-0.0160524
-0.00322829
-0.000808392
0.0172682
-0.0160158
-0.00397852
-0.000835553
0.016579
-0.0150938
-0.0027693
-0.000830291
0.0158186
-0.0151305
-0.00139323
0.0153835
-0.0149382
-0.000627621
-0.000634008
0.0139273
-0.0138082
-0.00171696
-0.000331669
0.0142049
-0.0139057
-0.00264104
-0.000939507
0.012557
-0.0117113
-0.00296525
-0.00154045
0.0109881
-0.00986339
-0.00298925
-0.00172334
0.0103064
-0.00923892
-0.00256895
-0.00150302
0.00941722
-0.00913365
-0.00285479
0.00650596
-0.0073015
-0.00257811
0.000111418
-0.00244268
0.00434261
-0.00415947
-1.41198e-05
-0.00315623
0.00442844
-0.00543403
0.000410303
-0.00314843
0.00304748
-0.00593431
-0.000706781
-0.00380761
0.00355876
-0.00474586
-0.00240681
-0.010003
0.00950036
-0.00190958
-0.00365021
-0.0162314
0.0153645
-0.00269317
-0.0183497
0.0165096
-0.000900016
0.000764835
0.000215724
-0.00160084
-0.000617431
0.00130313
-0.00142208
-0.00169065
0.0019385
-0.00111327
-0.00622946
0.00521604
-1.87303e-05
-0.0128893
0.00935892
-0.000180239
-0.0155529
0.0121679
-0.0121602
0.00919708
0.00116805
0.000172405
-0.0164912
-9.49024e-05
0.000976001
-0.0184226
-2.47377e-05
0.00149169
-0.0102046
-0.000777559
0.00171416
-0.00705661
-0.000649592
0.000859005
-0.00501177
-0.000304548
-0.000534419
0.000991252
-0.00140639
0.00113372
-0.00387294
-0.000143351
0.00315167
-0.00192938
-0.00139618
-0.00375283
0.00219201
0.000953381
-0.00562589
0.00702499
0.00213587
-0.01455
0.00812357
0.00196532
-0.0163872
0.00567487
0.00150815
-0.0152783
0.00306039
-0.00886699
-0.00123958
-9.25194e-05
0.0159979
-0.00300991
-0.00089908
0.0123146
-0.00231894
-0.00105055
0.00892521
-0.0015066
-0.00215561
0.0052969
-0.00267894
-0.00204497
0.00327787
-0.00360909
-0.000877658
0.000346876
0.000420222
-0.00306735
0.000627705
-0.0019074
0.0181449
-0.000425548
-0.000906322
0.0180435
-0.00142263
-0.000948931
0.0175961
-0.00304626
-0.000947084
0.0174918
-0.00368892
-0.0011689
0.0161445
-0.00269053
-0.00111494
0.0148637
-0.00111851
0.0140851
0.0016741
-0.00113415
0.0115385
0.000985189
4.02734e-05
0.013958
-0.000407632
-0.000472028
0.0134912
-0.00169387
-0.000598861
0.0120452
-0.00285293
0.000156532
0.0102661
-0.00209938
0.000176492
0.00750563
-0.000296134
0.00377404
-0.00363739
0.000371777
-0.000226775
-0.00498342
0.00106695
-0.00275156
-0.00712155
0.00173507
-0.00312083
-0.00768218
0.00122395
-0.00495343
-0.00610958
0.000626156
-0.0119918
-0.00273045
-0.000472039
-0.018952
7.86568e-05
-0.0212413
-0.000306516
0.001422
-0.000531105
0.000662746
0.00039904
-0.000928114
0.00152354
-0.00618422
0.00188899
-0.0126998
0.000192371
-0.0143699
-0.0118841
0.000934264
-0.000491549
-0.0169317
-0.000222628
0.00091425
-0.0181996
0.000319533
0.000313123
-0.0110521
0.000537959
0.000770269
-0.00810065
0.00110809
-0.000363914
-0.00527081
0.0011881
-0.000277016
0.0011444
-0.000771083
0.00303514
-0.00153409
-0.000778379
0.00497602
0.000580909
-0.00179401
-0.00310844
0.00698414
0.000380714
-0.0120005
0.0107932
0.000904918
-0.0184135
0.0112539
6.59735e-05
-0.0171806
0.0086463
0.00118214
-0.0140382
0.00377468
-0.00470677
-0.000663557
-0.000449815
0.0163883
-0.00240425
-0.00102712
0.0133529
-0.00152524
-0.000878465
0.00939829
-0.00107426
-0.0020164
0.00787491
-0.00268855
-0.00257071
0.0076465
-0.000983301
-0.00220304
0.00212324
-7.90096e-05
-0.000105344
0.00143375
-0.00167087
0.0176757
0.000863668
-0.000812224
0.0180943
-0.000599136
0.000281222
0.0175998
-0.002378
-0.000328487
0.0172945
-0.00329047
-0.00159307
0.0158605
-0.00320427
-0.00181876
0.0142081
-0.00217698
0.0128504
0.00330573
-0.00118199
0.007883
0.00524207
-0.000322806
0.0115646
0.00492335
0.000404869
0.0137071
0.00250297
0.00106493
0.0131282
-0.00119942
0.00162879
0.0108405
-0.00271261
0.00158107
0.00576896
0.000395591
-0.00136824
-0.00340736
0.000679087
0.00141978
-0.00463991
0.00091243
-0.00269936
-0.00573658
0.00115811
-0.00274902
-0.00561746
0.000508533
-0.00450455
-0.00450119
-0.000721064
-0.0108195
-0.00185997
-0.00143677
-0.0187189
-0.00121195
-0.0214921
-0.000438313
0.00253871
-9.77342e-05
0.00120036
0.00227945
-0.00219908
0.00472874
-0.0081554
0.00397972
-0.0127039
0.00181185
-0.0136393
-0.0112905
0.000615511
-0.000249535
-0.0173097
-0.000608402
0.0005148
-0.0174989
0.000744533
-0.000965886
-0.0114665
0.00275337
-0.00218905
-0.00797061
0.00276333
-0.00117331
-0.00415247
0.00225856
0.000552739
0.00107038
0.000338375
0.00493469
0.00146583
-0.00192229
0.00521751
0.00436223
-0.00269849
-0.00276258
0.0118151
-0.000321202
-0.0199868
0.0132033
-0.000865895
-0.0210016
0.0124207
-0.00116756
-0.0162931
0.00747389
0.00195253
-0.0103818
0.00308721
0.00010001
-0.000429585
-0.000534417
0.0155028
-0.00176408
-0.000283369
0.0123712
-0.00103631
-0.000634057
0.00913278
-0.000985549
-0.00233234
0.00946619
-0.00192635
-0.00260586
0.0102002
0.00073691
-0.0017654
0.0032968
-0.000123002
0.00391064
0.00134725
-0.000939376
0.0165147
0.00149815
2.97505e-05
0.0174079
0.000171772
0.00104902
0.0170197
-0.0017984
0.000267607
0.0164139
-0.00307689
-0.00124061
0.0156054
-0.0030401
-0.00195082
0.0142345
-0.00282552
0.0124166
0.00259782
-0.000870269
0.00537241
0.00490073
0.000368898
0.00905488
0.00540592
0.0014563
0.0128744
0.00311818
0.00311934
0.012605
-0.00209026
0.00429149
0.0106706
-0.00395232
0.00187443
0.00397633
-0.00160436
-0.00626429
-0.00225994
0.000543881
0.00233611
-0.00226409
0.000792641
-0.00306039
-0.000443
-5.21329e-06
-0.00306381
0.00219628
-0.000291378
-0.00370788
0.00336853
-0.00089781
-0.00673679
0.00302213
-0.00161844
-0.0149023
-0.00205995
-0.0180986
-0.000406966
0.00347655
-0.000105683
0.00166558
0.00420489
-0.00651318
0.00773082
-0.0119867
0.00725462
-0.0131386
0.00441265
-0.0124224
-0.00900126
4.7349e-05
-0.000608843
-0.0167866
-0.00207023
-0.000152281
-0.0152554
0.000495786
-0.00376208
-0.0102852
0.00347623
-0.00394902
-0.0070299
0.00170409
-0.00133677
-0.00107339
0.000506022
6.03346e-05
0.00217561
0.000416905
0.00501396
0.00210773
-0.00303913
0.00558564
0.00911975
-0.001976
-0.00783256
0.0130289
-0.00201853
-0.0255076
0.0129601
-0.0022607
-0.0225677
0.0103774
-0.00199329
-0.0129941
0.00415229
0.000900456
-0.00494833
0.00187957
0.00285681
-0.000690251
0.000126712
0.0131518
-0.000434048
0.00028596
0.0100047
0.000420702
-0.000498071
0.00692122
0.00125761
-0.0019848
0.00856284
0.000972314
-0.00205807
0.0107787
0.00095985
-0.000967648
0.0053467
0.00108338
0.00580146
0.00119668
-6.77577e-06
0.0153058
0.00134073
0.00112522
0.0162363
0.000502118
0.00133855
0.0158267
-0.000492526
0.000167997
0.0150993
-0.00166933
-0.00110712
0.0156698
-0.00225595
-0.00152841
0.0152582
-0.00157328