/*--------------------------------*- C++ -*----------------------------------*\
  =========                 |
  \\      /  F ield         | OpenFOAM: The Open Source CFD Toolbox
   \\    /   O peration     | Website:  https://openfoam.org
    \\  /    A nd           | Version:  6
     \\/     M anipulation  |
\*---------------------------------------------------------------------------*/
FoamFile
{
    version     2.0;
    format      ascii;
    class       volScalarField;
    location    "0.025";
    object      T;
}
// * * * * * * * * * * * * * * * * * * * * * * * * * * * * * * * * * * * * * //

dimensions      [0 0 0 1 0 0 0];

internalField   nonuniform List<scalar> 
3773
(
294.44
295.6
295.758
295.445
295.202
295.458
294.322
295.412
296.814
296.882
296.52
296.288
296.522
295.241
305.162
305.826
305.599
305.643
305.702
305.603
305.246
306.277
306.638
306.756
306.681
306.659
306.747
306.281
305.195
305.512
305.591
305.573
305.725
305.672
305.308
295.348
295.903
296.463
296.147
296.294
296.771
295.438
294.408
294.865
295.427
295.133
295.218
295.668
294.474
291.795
293.121
293.266
292.936
292.693
292.975
291.704
271.722
276.356
276.316
275.309
273.797
274.471
271.699
314.494
314.025
314.189
314.431
314.023
313.269
314.327
327.502
328.009
328.236
328.334
328.369
327.88
327.814
314.829
314.668
314.014
314.226
314.353
313.703
314.678
272.089
273.273
274.739
273.467
274.522
275.251
272.15
291.727
292.386
292.877
292.59
292.664
293.112
291.769
291.529
292.792
293.027
292.699
292.426
292.735
291.438
268.623
272.734
272.678
271.94
270.345
270.774
268.4
310.776
309.941
310.185
311.375
310.618
308.167
309.91
329.181
328.957
329.451
330.178
330.025
328.606
328.996
310.519
309.568
309.58
311.584
311.056
308.904
309.969
268.76
270.688
271.039
270.025
271.127
271.496
268.864
291.426
292.093
292.654
292.337
292.411
292.891
291.489
291.346
292.481
292.758
292.447
292.172
292.483
291.364
263.769
267.838
267.801
267.178
265.386
265.735
263.291
307.819
306.865
306.813
307.875
307.943
305.575
306.831
329.114
329.044
329.386
330.032
329.584
328.621
328.866
307.448
305.545
308.394
310.443
308.898
305.557
306.952
263.995
266.092
266.181
265.415
266.499
266.345
263.946
291.323
291.87
292.428
292.091
292.177
292.657
291.404
290.982
291.862
292.128
291.834
291.581
291.92
291.009
259.551
261.958
261.612
261.729
260.904
261.349
259.133
307.362
305.68
305.507
306.875
305.951
304.533
306.492
329.29
329.022
329.433
329.559
329.196
328.654
329.144
306.954
304.687
306.928
307.669
307.992
304.827
306.682
259.77
261.219
261.549
261.191
261.902
261.609
259.884
290.992
291.502
291.9
291.565
291.654
292.138
291.089
287.227
288.193
288.077
287.574
287.348
288.039
287.176
252.287
253.932
253.087
253.233
252.804
253.534
251.793
308.393
305.415
305.866
305.776
304.977
304.841
307.121
330.33
329.867
330.042
330.075
329.66
330.037
330.27
307.576
304.644
305.638
305.703
305.687
305.816
307.387
252.258
251.498
253.209
252.775
251.915
253.703
252.709
287.455
288.464
287.99
287.7
287.899
288.555
287.683
252.355
252.35
250.379
249.503
248.86
250.739
251.484
234.29
234.689
232.905
233.985
233.656
234.161
234.071
302.165
302.066
298.881
301.223
298.328
301.639
298.797
344.424
347.085
347.023
346.774
347.693
344.399
348.217
302.087
302.736
301.67
298.109
307.087
302.233
299.055
234.581
227.985
234.042
232.884
228.835
234.579
234.893
252.922
254.147
250.224
249.519
251.243
252.246
253.604
351.887
352.176
352.481
352.32
351.524
351.66
351.625
352.381
351.626
350.727
349.762
349.476
349.825
350.332
352.052
351.452
350.827
349.821
349.492
349.516
349.763
349.952
348.544
347.601
347.578
347.877
348.044
348.392
352.615
352.522
352.626
352.4
351.659
351.618
351.311
352.506
352.545
353.626
354.565
354.379
354.418
353.604
349.918
351.237
354.186
355.454
355.623
355.483
355.16
351.824
352.957
352.544
352.51
350.713
350.659
351.131
351.76
350.9
348.511
347.257
346.915
348.505
349.986
351.85
350.988
349.579
347.543
347.625
348.551
349.761
349.897
348.194
346.963
347.092
347.506
347.9
348.527
352.453
352.227
352.077
351.538
350.618
350.819
351.015
351.45
351.881
353.341
354.011
352.739
351.895
352.423
348.957
352.205
354.876
355.67
355.655
355.684
354.97
351.981
352.286
350.881
351.224
349.039
349.224
349.727
352.254
349.767
347.37
346.243
345.855
347.944
349.303
351.333
349.02
346.292
345.336
345.703
348.054
349.415
349.733
347.885
346.073
346.028
346.6
347.475
348.499
351.841
351.516
350.457
349.563
349.607
349.4
350.403
349.673
350.365
350.824
351.378
351.457
350.309
351.371
347.437
350.077
352.757
353.925
354.043
354.497
353.799
349.598
350.345
350.073
349.94
348.314
349.155
349.819
351.692
348.95
347.28
345.899
345.478
347.789
349.529
349.488
344.845
343.684
343.615
345.363
348.447
349.501
349.31
346.627
345.057
344.819
346.015
347.387
348.352
351.349
350.332
349.098
348.637
348.963
349.314
350.309
348.766
348.699
348.447
348.716
349.602
350.828
351.744
347.079
348.63
351.465
351.402
351.397
351.783
352.676
348.844
349.633
349.732
349.333
347.978
350.129
350.332
350.703
348.222
347.272
345.918
345.355
348.106
350.03
345.418
342.087
340.92
342.814
345.344
348.974
349.874
348.272
345.546
344.106
343.881
345.337
347.312
348.086
350.392
348.64
347.979
347.937
348.516
349.289
350.337
348.083
346.872
345.802
345.726
348.493
349.958
351.359
346.931
347.963
350.084
350.175
349.874
350.347
350.032
348.854
349.513
349.959
349.185
347.989
349.967
350.852
348.831
348.236
347.523
346.097
345.423
346.777
348.52
342.903
338.743
339.296
342.549
343.759
347.855
349.644
346.601
343.282
341.976
343.069
345.247
347.038
347.987
349.732
347.341
347.17
347.636
348.181
349.106
350.068
347.573
346.266
344.742
344.066
347.162
350.141
351.561
347.031
347.47
349.353
349.694
349.595
350.244
349.346
348.783
349.684
350.39
349.887
348.167
347.462
350.188
349.306
349.801
348.057
345.527
345.123
345.268
346.586
343.7
339.134
339.108
341.622
343.586
345.105
346.395
345.362
343.384
341.817
343.015
344.625
346.298
347.41
349.546
346.84
346.303
346.589
347.13
347.938
348.707
346.686
344.923
344.211
344.356
348.387
351.091
352.086
347.097
347.237
348.63
349.517
350.636
351.032
350.16
351.881
352.581
352.623
350.918
349.639
347.181
345.714
353.441
351.089
348.648
344.963
344.764
345.022
346.198
342.46
339.229
340.118
343.103
344.641
345.693
345.917
344.847
342.632
341.311
342.736
343.99
345.245
346.387
349.285
346.211
345.176
345.158
346.135
346.246
347.819
345.802
344.977
344.862
346.896
350.867
352.831
353.211
348.633
349.655
351.769
352.417
353.543
353.28
354.074
349.19
350.145
351.167
350.403
349.361
347.08
345.813
344.753
341.829
341.301
343.301
344.128
344.675
345.879
341.8
338.692
339.349
340.914
343.861
345.903
346.425
344.822
342.222
340.68
341.852
343.537
344.798
345.636
349.212
346.849
345.166
344.181
343.955
344.183
345.697
345.726
346.028
346.057
347.037
349.214
351.786
353.45
348.012
348.058
349.96
350.992
351.776
351.38
353.447
348.251
348.67
350.249
349.781
349.278
348.543
346.432
343.517
341.749
341.455
343.092
344.131
344.814
345.958
341.142
338.432
338.664
339.495
342.498
344.92
346.419
344.722
342.264
340.273
340.459
342.761
343.828
344.303
348.274
347.24
345.747
344.129
343.423
342.068
342.237
346.631
346.345
346.428
347.097
346.869
348.078
353.546
347.537
349.048
350.64
351.421
350.72
351.255
354.14
347.973
347.261
349.812
349.605
349.023
349.336
347.513
342.34
340.964
342.584
345.297
344.943
345.066
345.989
340.97
337.967
337.526
338.266
340.623
343.684
345.694
344.42
342.162
339.792
339.806
340.906
341.305
341.039
346.448
346.643
345.514
344.23
341.413
338.497
340.79
346.7
344.325
344.416
344.733
344.433
346.091
352.902
347.292
349.279
352.776
353.293
352.562
351.993
354.314
349.93
347.091
349.598
349.466
348.854
349.343
347.272
341.327
341.7
346.313
347.539
345.002
344.538
345.687
340.549
336.045
334.564
335.885
339.456
342.473
345.457
343.222
341.774
338.305
338.27
338.646
338.106
339.541
345.757
344.355
343.61
342.926
339.641
338.349
345.858
346.738
343.708
344.045
344.557
344.838
346.586
352.316
347.166
348.662
352.799
352.955
353.412
353.513
354.874
350.565
346.685
350.09
349.258
347.059
347.741
346.505
339.115
347.103
349.431
348.808
341.463
340.807
345.8
339.407
334.136
332.676
333.434
335.039
338.25
344.457
342.186
339.873
336.845
336.754
337.375
336.872
339.107
344.062
340.867
340.524
339.479
337.083
337.71
347.673
345.926
345.054
349.359
350.202
350.153
351.377
355.384
346.072
351.747
348.88
352.451
353.751
355.19
356.84
348.394
351.553
348.859
349.475
347.645
347.58
348.146
346.514
350.54
352.063
349.997
338.545
336.098
341.587
339.005
340.477
344.419
342.903
338.001
336.534
338.712
338.64
337.852
336.149
336.132
335.818
335.659
337.671
340.761
343.478
341.8
339.032
336.712
338.204
347.394
348.869
348.897
351.277
353.168
352.861
353.505
356.343
344.345
343.576
349.091
357.009
357.238
354.943
356.423
351.476
353.541
351.748
350.66
349.15
345.792
346.03
351.188
349.971
345.252
345.314
345.583
344.949
346.325
343.858
339.765
339.36
341.793
344.297
345.405
343.468
345.248
343.388
341.798
342.945
344.412
346.065
346.946
349.523
346.49
346.193
346.501
347.025
347.702
348.355
346.574
344.74
343.489
346.229
350.182
352.515
353.147
347.542
347.513
348.349
351.019
353.515
354.099
353.135
351.565
353.881
351.901
350.825
349.7
346.149
345.923
351.672
350.804
346.056
345.572
345.684
344.932
346.318
343.832
339.639
339.265
342.321
344.349
345.435
344.405
345.22
343.334
341.738
342.957
344.385
345.937
346.852
349.515
346.477
346.145
346.454
346.957
347.522
348.222
346.451
344.694
343.453
346.211
350.244
352.908
353.245
347.776
348.148
349.149
351.172
353.58
354.247
353.321
351.783
354.192
352.006
350.862
349.81
346.212
345.907
352.241
351.34
346.394
345.661
345.732
344.936
346.187
343.754
339.434
339.415
343.31
344.465
345.493
344.749
345.119
343.265
341.709
342.95
344.381
345.755
346.823
349.462
346.428
346.041
346.41
346.87
347.471
348.12
346.363
344.707
343.459
346.219
350.36
353.1
353.317
347.827
348.405
349.552
351.293
353.678
354.554
353.388
352.257
354.513
352.127
350.914
349.703
346.133
345.962
352.846
351.701
346.531
345.681
345.751
344.937
346.137
343.699
339.4
339.498
343.43
344.506
345.519
345.065
345.081
343.194
341.638
342.888
344.358
345.618
346.816
349.447
346.413
346.004
346.297
346.807
347.439
348.131
346.272
344.736
343.612
346.318
350.54
353.254
353.359
347.75
348.541
349.902
351.371
353.92
354.702
353.685
352.326
355.212
352.335
350.936
349.6
345.968
345.983
352.853
352.392
346.666
345.631
345.717
344.989
346.113
343.612
339.347
339.633
343.459
344.578
345.572
345.341
345.039
343.147
341.616
342.833
344.335
345.484
346.805
349.436
346.398
345.981
346.238
346.749
347.391
348.034
346.204
344.822
343.933
346.462
350.797
353.287
353.362
347.663
348.66
350.374
351.883
354.217
354.925
353.808
352.347
355.414
352.871
351.318
349.588
345.573
345.976
352.971
352.7
347.7
345.731
345.671
345.06
346.116
343.556
339.207
339.66
343.424
344.634
345.591
345.704
345.019
343.072
341.604
342.808
344.28
345.441
346.787
349.425
346.364
345.919
346.197
346.635
347.212
347.907
346.047
344.886
344.375
346.645
350.92
353.379
353.34
347.722
349.005
351.133
352.243
354.583
355.014
354.135
352.171
355.384
352.962
351.406
349.904
346.078
346.009
353.282
352.95
348.14
345.789
345.558
345.08
346.119
343.408
339.142
339.704
343.511
344.686
345.595
345.983
344.996
343.042
341.592
342.792
344.239
345.379
346.762
349.396
346.343
345.868
346.087
346.476
347.114
347.85
345.971
344.897
344.56
346.769
350.964
353.445
353.303
347.935
349.523
351.638
352.365
354.602
355.02
354.143
330.368
356.599
341.502
329.397
324.102
322.24
320.066
345.466
351.06
356.603
348.769
346.615
345.725
344.674
339.624
350.315
349.256
348.957
346.827
344.177
339.711
337.793
337.492
335.947
335.82
335.433
335.653
336.897
348.518
350.829
350.802
349.554
338.862
338.18
345.641
344.368
346.37
355.977
359.737
351.146
348.589
345.502
324.497
342.543
353.891
343.105
331.332
327.863
322.325
341.662
356.376
348.23
339.493
336.1
332.485
330.648
348.301
355.239
352.551
350.522
346.791
345.681
345.044
340.973
351.687
349.943
349.562
348.094
344.882
341.244
337.831
337.216
335.785
335.567
335.205
335.27
336.533
350.781
351.441
351.255
348.837
340.389
338.777
343.551
347.58
350.007
353.998
350.001
348.609
346.116
344.898
340.226
354.567
348.227
339.657
335.953
334.334
334.544
347.645
355.434
350.516
349.501
345.534
344.877
346.064
352.204
355.854
355.787
353.158
349.886
348.703
348.07
344.581
351.582
350.537
350.443
348.999
345.492
342.591
337.728
336.932
335.649
335.277
334.818
334.984
336.114
353.004
351.387
346.306
342.445
341.396
339.13
340.173
358.38
360.721
350.913
350.053
349.578
348.989
348.259
362.279
348.299
346.099
341.914
339.552
341.112
346.009
354.664
352.973
355.972
356.413
354.075
353.9
355.049
356.676
357.444
358.423
357.603
355.53
354.962
354.921
345.258
350.975
353.713
352.704
349.677
345.963
345.086
337.372
336.538
335.298
334.664
334.523
334.4
335.773
350.549
346.9
343.885
339.753
340.16
338.771
338.799
362.948
360.196
351.036
351.043
350.935
350.483
350.328
354.736
346.207
346.769
345.681
345.715
350.274
352.245
357.335
353.12
357.413
356.705
355.305
355.831
356.551
360.344
358.803
359.073
358.06
356.499
356.362
356.782
346.919
351.223
354.998
353.724
350.404
347.369
346.163
336.334
334.959
334.018
333.323
333.83
333.849
334.581
347.939
345.087
344.201
342.605
340.706
338.481
337.921
359.998
355.523
352.852
353.66
353.272
352.494
352.082
349.707
347.687
350.818
352.628
353.43
354.571
355.118
357.561
353.345
358.329
357.267
356.684
355.775
355.107
361.203
361.276
360.528
358.401
356.905
356.822
357.186
350.543
352.844
356.142
355.177
352.032
349.809
345.885
333.857
332.864
333.398
332.603
332.794
332.63
333.556
349.678
349.219
347.265
343.606
340.989
340.763
338.468
355.709
354.335
353.867
355.493
355.731
355.392
355.254
350.726
352.73
355.466
355.414
355.518
355.641
356.17
353.645
354.155
358.328
355.964
352.599
352.05
352.283
360.086
361.983
361.279
359.233
356.759
355.563
354.958
354.82
359.187
360.077
358.373
354.382
350.123
346.292
334.583
339.049
337.051
333.883
331.676
330.726
330.91
352.053
353.351
351.17
347.277
344.057
342.537
338.8
355.561
355.721
355.942
355.755
355.783
355.5
355.041
354.73
356.222
355.313
354.242
352.944
352.48
352.03
319.308
319.478
318.804
319.951
324.617
332.472
340.176
343.386
343.106
342.947
342.405
342.236
342.799
346.41
339.167
343.585
357.845
357.714
357.273
356.735
356.679
337.316
343.13
352.12
355.441
355.691
354.98
354.196
345.472
345.876
351.046
358.059
357.755
356.78
356.591
341.568
341.365
341.459
341.273
341.71
343.535
347.714
323.382
322.724
322.079
322.985
326.214
332.215
339.59
330.181
329.008
329.003
329.121
333.109
339.249
343.877
344.072
343.489
343.418
342.75
342.927
344.622
346.145
339.934
340.362
346.658
356.805
356.164
355.933
355.833
337.52
338.893
341.958
346.996
350.524
350.798
350.372
344.219
345.019
346.245
349.436
356.206
355.541
354.786
343.445
343.21
342.954
342.832
342.55
343.321
346.127
336.109
335.223
334.34
334.51
336.709
341.378
345.462
349.626
349.973
348.443
347.49
347.569
347.58
347.854
348.232
348.006
348.378
348.166
348.537
348.921
350.193
341.977
341.157
341.407
351.48
356.439
355.437
355.055
337.138
337.876
337.992
339.192
341.821
342.814
344.232
341.814
342.407
343.44
343.905
346.607
350.296
353.692
347.865
347.463
347.06
346.905
346.56
346.808
347.437
346.716
346.707
346.462
346.334
346.031
349.267
351.036
356.877
357.369
356.9
356.973
357.196
357.138
349.512
355.442
356.391
357.76
358.375
358.738
358.783
358.516
344.435
343.09
342.109
342.68
348.757
355.517
356.073
337.045
337.589
337.364
336.767
336.695
337.358
337.689
339.331
339.293
339.199
339.305
339.824
340.789
343.601
349.925
349.711
349.719
349.654
349.606
349.763
350.891
353.296
354.178
354.021
353.386
351.942
349.914
347.706
356.64
356.508
356.797
357.162
357.521
358.126
356.054
357.728
358.15
358.307
358.723
359.812
359.694
359.796
346.42
346.164
345.512
343.616
344.065
345.986
351.223
336.127
336.653
336.395
335.845
335.084
334.651
333.768
337.192
337.246
337.128
336.706
336.782
337.303
337.582
352.308
352.507
352.586
352.805
353.153
353.139
353.458
355.183
355.551
355.164
354.692
354.04
353.445
346.351
355.35
355.819
356.209
356.273
356.719
358.044
357.191
357.785
358.187
358.186
358.333
358.221
357.985
358.32
346.043
345.913
345.854
345.522
344.72
344.344
345.143
334.417
334.585
334.317
333.724
332.747
331.391
330.314
338.143
337.76
337.613
337.659
337.964
337.788
337.145
356.172
355.755
355.148
355.467
355.785
355.715
355.697
355.737
354.939
354.748
354.465
353.609
352.558
347.002
352.866
353.32
353.707
354.938
355.591
357.246
357.907
354.948
354.979
354.919
354.735
354.535
353.935
352.709
344.461
342.316
342.054
341.214
340.964
340.22
336.932
330.894
330.843
330.475
329.784
328.004
326.484
322.42
338.921
338.319
337.722
337.18
336.233
335.27
332.797
354.945
354.83
354.635
354.237
353.886
353.544
353.03
351.445
351.469
351.755
351.858
351.758
351.248
345.885
345.08
338.185
329.544
324.327
323.018
324.687
327.16
350.234
347.383
346.031
343.325
343.054
343.258
343.724
357.552
349.004
339.674
339.346
339.096
339.25
339.536
346.959
346.61
346.899
348.782
349.882
350.28
340.796
358.336
357.944
357.395
356.899
356.96
357.572
357.447
349.152
346.16
344.615
343.4
342.303
342.323
343.124
340.371
333.421
327.721
324.777
323.053
322.741
323.983
346.38
342.115
335.462
333.978
332.183
335.019
336.132
350.306
348.775
346.667
345.516
344.975
345.154
345.879
356.767
347.333
341.339
341.696
340.02
339.432
339.554
346.877
346.249
346.402
346.736
346.533
344.965
340.403
357.122
356.722
356.439
356.524
357.028
357.665
353.697
349.024
347.233
346.675
346.155
345.755
345.578
346.209
345.235
340.094
340.647
340.501
340.21
338.853
340.24
343.302
343.96
346.008
348.535
347.946
350.014
350.723
353.607
351.37
350.353
349.779
349.803
350.162
351.261
355.886
344.957
344.796
343.877
341.946
341.198
341.056
346.895
345.952
346.382
346.325
344.935
343.283
339.274
357.367
357.585
357.876
358.906
359.583
358.879
350.356
355.677
355.791
356.56
357.713
357.668
358.076
357.917
352.57
357.959
361.342
360.963
360.195
360.79
359.04
345.076
354.509
358.309
358.609
358.489
359.19
360.002
357.223
355.748
355.686
355.344
355.579
356.508
357.073
351.936
344.605
345.498
345.269
344.246
343.477
343.139
345.371
344.764
344.428
343.035
341.852
339.697
338.273
360.624
363.315
361.982
358.457
356.806
354.901
352.342
363.586
366.434
364.707
363.82
363.529
362.294
361.821
359.991
364.071
359.772
357.082
356.287
355.113
355.477
351.912
358.547
357.13
358.306
359.617
360.05
360.15
359.632
359.852
360.402
360.996
361.453
361.43
360.739
344.871
344.486
345.24
345.394
345.447
345.626
346.181
340.219
340.102
340
339.951
339.61
338.17
337.721
358.113
356.899
355.551
354.971
354.826
353.791
352.913
363.088
360.718
359.508
359.378
360.048
360.099
360.319
361.462
361.359
357.931
355.977
353.844
350.932
350.218
353.948
358.613
355.102
354.131
354.715
355.555
357.309
359.757
359.215
358.618
358.605
358.838
359.227
360.127
345.884
346.561
347.609
347.824
347.845
348.357
349.423
336.086
336.141
336.711
336.863
336.683
336.172
335.956
353.363
352.062
351.806
351.736
351.603
351.126
350.898
358.135
356.86
356.287
355.206
355.025
354.94
355.016
361.269
359.763
357.379
355.876
353.565
350.792
350.746
353.124
356.47
354.085
351.29
350.116
350.206
352.371
358.418
357.608
356.919
356.403
356.264
356.301
357.188
343.271
346.267
346.668
346.924
348.874
349.727
351.542
327.147
330.15
331.228
332.422
333.324
334.002
334.324
346.421
348.92
349.597
349.878
349.968
349.806
349.776
355.187
356.602
356.703
356.048
355.508
355.415
355.379
361.154
358.905
357.673
357.865
356.015
354.719
354.335
364.209
362.406
362.604
359.621
356.248
354.27
348.674
363.885
360.08
360.673
359.032
356.543
355.197
352.831
358.298
357.1
357.609
357.68
357.892
358.165
358.219
348.178
347.881
346.54
345.893
345.646
346.022
346.764
359.328
357.941
358.276
358.268
358.441
358.314
358.48
364.762
359.736
360.051
357.855
356.547
353.371
352.114
364.704
361.532
362.379
358.73
356.317
350.803
347.849
361.409
357.37
357.558
354.335
355.422
354.563
350.792
362.062
354.93
353.285
353.091
353.635
353.02
351.657
357.562
356.068
355.862
355.887
356.214
356.996
357.268
348.206
347.737
346.587
346.029
345.904
346.295
346.834
358.541
356.264
356.004
355.831
355.953
356.148
356.844
362.46
352.384
351.034
350.972
351.266
351.007
350.187
362.008
355.933
355.952
353.497
352.962
351.641
348.577
356.744
353.207
353.177
351.565
356.041
355.198
344.572
352.741
348.326
348.71
351.328
354.364
355.21
354.783
353.781
353.059
353.295
354.195
355.659
356.715
357.002
347.931
348.162
347.503
347.021
347.215
347.122
346.966
354.365
352.932
352.978
353.417
354.837
356.029
357.046
351.068
346.041
347.577
350.485
354.332
355.147
356.73
355.898
352.334
352.724
350.834
352.313
352.695
351.559
354.049
349.002
350.39
347.328
356.376
350.47
337.551
348.047
343.361
348.054
352.88
357.441
358.948
358.838
351.733
351.766
351.674
352.517
354.587
356.51
356.706
347.742
348.461
347.869
347.113
347.172
347.048
346.457
352.232
351.702
351.741
353.143
355.185
357.232
359.337
346.188
341.035
347.539
357.399
360.686
364.123
363.935
352.744
347.206
348.001
343.788
349.611
351.365
352.167
350.694
342.541
345.464
343.767
355.472
339.393
329.899
345.395
340.878
348.307
358.319
359.884
360.38
359.725
350.306
349.679
351.018
353.616
355.515
355.688
349.24
347.073
347.552
346.554
344.549
342.921
341.94
340.818
350.37
349.137
351.355
354.861
357.832
359.734
359.378
342.175
338.681
353.405
363.135
364.068
365.279
364.1
348.315
342.125
344.369
340.511
348.416
348.37
352.198
346.037
337.972
342.147
339.837
349.465
333.325
327.486
339.553
335.062
349.754
360.102
360.594
359.97
359.839
347.875
347.505
348.139
350.767
351.756
347.002
343.939
345.24
345.595
344.912
341.931
339.529
337.291
336.324
347.722
347.672
349.106
352.753
355.105
355.773
354.578
336.489
334.784
359.785
363.763
363.926
362.604
359.471
344.204
337.17
340.096
338.292
345.251
345.426
351.638
336.578
332.032
338.369
335.418
345.115
328.142
324.113
333.792
331.072
350.068
360.074
357.923
357.8
358.415
345.803
345.21
345.965
346.721
344.162
341.014
342.108
343.774
342.424
336.107
332.984
328.068
325.691
324.938
346.514
344.187
348.626
349.801
350.009
345.945
344.857
332.91
333.219
361.834
363.221
361.034
359.517
355.544
337.895
332.414
337.779
336.787
343.944
343.123
349.544
330.187
327.56
330.291
332.229
329.635
321.862
313.332
323.112
324.653
336.554
344.1
332.799
334.447
329.631
335.677
337.114
335.616
336.916
334.723
329.448
331.124
326.557
328.265
329.716
330.038
327.626
325.823
322.715
336.624
336.961
335.912
337.38
340.901
343.257
338.561
325.722
328.532
338.56
346.016
346.777
357.374
352.823
331.83
326.766
331.424
329.98
332.177
322.703
337.126
303.589
299.055
303.359
301.607
314.133
301.398
303.845
316.334
320.78
339.32
341.51
336.82
325.042
315.761
332.315
331.611
329.803
328.174
327.648
329.781
331.953
319.979
324.153
325.764
325.092
324.837
324.649
323.754
334.926
334.693
332.407
330.707
331.763
333.791
334.807
321.31
325.01
333.646
340.273
342.068
342.749
342.535
309.419
307.986
307.924
303.85
305.455
306.205
308.159
292.172
292.073
291.985
292.567
292.355
292.56
293.497
310.998
311.621
313.585
314.692
314.614
313.784
313.741
327.477
325.441
323.918
326.445
326.725
329.227
330.717
312.332
313.465
317.468
321.121
321.915
322.498
321.574
331.09
329.548
330.456
330.494
331.272
332.347
332.111
318.2
318.184
318.984
318.876
318.103
318.042
318.62
300.91
299.878
299.433
299.109
298.953
299.157
298.772
284.749
285.636
285.827
286.436
286.115
286.54
284.582
306.642
307.375
307.659
307.766
307.999
307.028
306.946
322.658
321.484
318.734
324.115
323.606
327.348
327.217
308.787
310.062
311.293
310.453
313.438
318.17
316.904
324.843
323.855
322.195
324.534
325.076
325.025
323.5
312.631
313.439
310.923
310.213
309.801
309.069
309.777
287.436
291.715
292.297
292.53
292.361
292.817
292.157
281.394
281.305
281.272
281.351
281.371
281.334
281.468
304.536
304.695
304.624
304.937
305.242
304.351
304.308
321.027
320.035
316.039
319.231
318.197
322.129
320.23
303.112
303.653
304.099
305.765
308.725
309.114
307.983
317.698
316.226
317.467
319.91
320.44
319.772
317.995
306.292
306.38
306.565
306.471
306.577
306.532
306.58
282.89
282.935
282.88
282.926
283.006
283.272
284.361
281.203
281.159
281.14
281.169
281.184
281.144
281.223
303.685
303.734
303.571
303.838
304.11
303.417
303.498
321.903
320.794
316.732
318.788
318.016
320.743
318.37
299.55
298.184
299.243
302.326
306.535
306.715
305.533
314.498
314.213
316.059
317.475
319.143
318.326
316.909
304.261
304.281
304.358
304.362
304.32
304.316
304.277
281.16
281.142
281.153
281.167
281.174
281.203
281.265
292.167
292.165
292.164
292.163
292.159
292.151
292.153
305.443
305.471
305.48
305.563
305.7
305.491
305.472
315.958
314.777
310.679
311.859
311.333
310.238
308.998
281.347
283.884
285.242
288.714
289.852
289.728
289.245
302.202
304.787
306.832
307.79
309.324
309.177
308.474
305.371
305.408
305.478
305.527
305.546
305.551
305.577
292.074
292.075
292.077
292.078
292.08
292.082
292.084
348.654
351.552
355.451
358.572
360.791
364.138
364.526
348.41
350.262
352.729
353.757
355.21
357.177
356.642
356.589
356.254
356.12
356.368
356.775
357.006
356.681
353.338
352.341
352.469
353.032
354.275
355.023
354.538
356.801
357.07
357.492
358.434
358.703
359.469
362.344
349.499
352.744
354.036
357.309
358.344
358.803
365.557
346.689
353.477
356.178
362.856
364.198
363.853
365.092
348.343
351.58
354.988
357.714
360.37
362.267
361.369
348.006
349.46
350.691
351.281
352.744
353.257
351.293
355.613
354.895
354.601
354.555
354.899
354.853
354.252
349.078
348.645
348.914
349.92
352.296
354.104
353.859
354.667
354.993
355.271
356.002
356.765
357.524
358.084
347.269
349.3
349.947
351.348
351.576
354.187
355.54
349.563
354.099
355.99
361.623
364.476
363.124
362.804
348.041
347.809
350.032
353.582
354.842
358.606
353.929
350.925
350.933
350.819
348.423
347.015
347.578
344.281
354.464
354.032
353.516
353.247
352.79
352.306
351.472
344.172
343.893
344.179
345.051
346.968
350.606
351.816
353.741
353.799
353.696
353.889
353.9
353.727
353.552
348.651
349.07
349.14
349.228
348.037
347.655
349.197
351.168
352.925
351.706
354.271
360.615
354.778
358.869
345.71
343.888
347.769
350.861
351.068
355.525
350.348
360.161
359.144
356.991
351.261
344.793
342.039
339.54
355.093
353.814
352.036
350.483
349.823
349.481
349.669
338.652
338.961
339.803
341.929
343.832
348.042
351.247
348.886
352.974
352.093
351.088
350.898
351.386
351.788
351.406
351.708
349.635
347.795
346.714
344.68
344.292
345.762
346.125
342.207
342.44
352.569
346.591
354.314
344.505
335.308
341.987
345.189
342.86
349.439
345.304
362.138
362.339
361.209
359.225
343.96
337.189
336.143
355.325
355.135
353.67
350.612
348.009
346.853
347.328
334.058
334.274
335.252
337.552
340.322
343.376
349.124
338.834
342.654
350.143
350.844
349.805
349.235
349.822
353.988
353.024
348.495
342.996
342.587
337.484
337.634
340.938
337.867
334.222
332.73
343.687
337.373
346.371
345.34
332.834
337.555
341.216
334.802
342.43
340.58
358.367
361.712
361.946
363.444
343.838
335.188
333.894
347.046
350.917
350.973
349.302
346.676
345.212
346.137
328.694
328.737
329.92
332.682
337.273
341.875
346.577
336.957
337.329
343.688
347.793
346.16
347.336
346.242
357.355
356.678
352.706
340.147
340.423
333.864
332.821
340.519
333.436
331.605
324.54
334.587
329.668
336.498
342.185
330.071
329.386
331.395
330.785
336.948
334.186
353.061
357.275
359.64
363.519
341.871
332.724
330.516
335.725
337.336
343.645
346.342
343.924
341.476
342.738
319.295
319.817
321.578
325.442
328.226
334.19
343.677
330.165
331.351
331.736
337.95
341.359
342.48
344.191
354.66
355.5
359.607
336.259
335.455
331.475
328.768
341.453
331.504
325.531
321.137
332.737
328.166
333.699
333.765
314.361
323.246
322.28
325.135
327.135
318.536
338.71
342.911
339.188
337.256
331.564
326.44
319.782
330.002
335.232
335.867
335.971
336.405
333.496
332.138
313.612
319.957
323.897
326.048
326.083
322.271
321.687
321.91
329.562
329.492
329.842
332.513
335.963
336.542
331.918
340.446
336.478
331.143
330.889
329.764
326.098
339.687
317.722
315.316
315.932
318.905
314.49
330.347
303.014
300.5
303.654
296.097
297.742
297.709
306.834
338.188
334.487
324.101
319.303
316.324
314.773
313.175
328.876
329.947
330.212
330.238
330.561
329.871
329.734
316.97
318.158
319.189
320.489
319.102
317.347
316.41
321.757
323.265
322.321
325.132
326.303
329.452
330.65
332.535
327.578
320.373
317.309
316.699
315.234
313.825
299.698
302.661
299.531
299.268
295.076
294.486
295.789
291.793
290.404
290.94
289.863
291.071
290.668
291.807
312.814
312.847
313.752
313.249
311.731
311.236
310.211
325.704
325.243
323.753
325.813
326.009
324.695
323.977
314.731
314.644
312.31
312.048
309.997
308.877
305.713
318.597
319.579
320.042
322.547
326.085
327.198
327.568
310.032
310.166
311.805
311.91
310.58
309.603
310.657
290.268
290.623
289.365
289.288
289.215
289.009
289.701
283.195
281.133
283.028
280.993
283.42
282.152
281.876
305.632
306.006
306.299
306.031
305.743
307.831
307.901
323.314
320.441
319.368
319.493
320.068
321.761
320.671
311.713
311.338
308.564
308.254
306.787
306.184
304.228
317.596
317.944
316.709
319.299
324.41
325.127
326.349
304.945
305.447
305.983
305.61
305.549
305.258
305.263
283.683
283.485
283.125
283.344
282.965
282.033
281.76
279.759
279.232
279.747
279.104
279.654
279.622
279.102
303.809
303.396
303.772
303.381
303.568
303.941
303.015
318.04
317.458
316.53
316.632
317.269
315.619
315.25
304.911
305.251
305.099
304.986
303.93
301.803
299.794
315.084
315.271
314.688
317.379
321.062
321.568
322.376
303.93
303.954
303.942
303.702
303.724
303.667
303.755
280.759
280.652
280.587
280.474
280.393
280.302
280.486
280.172
279.509
280.086
279.379
280.089
280.102
279.367
303.198
302.984
303.164
303.041
303.065
303.095
302.749
317.483
316.974
316.099
316.152
316.763
315.24
315.183
302.902
303.1
303.337
303.269
302.222
299.778
298.014
315.362
315.695
315.116
317.329
320.769
321.4
321.683
303.509
303.435
303.343
303.189
303.236
303.238