/*--------------------------------*- C++ -*----------------------------------*\
  =========                 |
  \\      /  F ield         | OpenFOAM: The Open Source CFD Toolbox
   \\    /   O peration     | Website:  https://openfoam.org
    \\  /    A nd           | Version:  6
     \\/     M anipulation  |
\*---------------------------------------------------------------------------*/
FoamFile
{
    version     2.0;
    format      ascii;
    class       volVectorField;
    location    "0.025";
    object      U;
}
// * * * * * * * * * * * * * * * * * * * * * * * * * * * * * * * * * * * * * //

dimensions      [0 1 -1 0 0 0 0];

internalField   nonuniform List<vector> 
3773
(
(43.9164 0.00797601 0.619704)
(43.8457 -0.0108023 0.626812)
(43.9896 0.00446749 0.630301)
(43.863 0.021006 0.62558)
(43.8003 0.00868077 0.624699)
(43.9297 0.00687872 0.627528)
(43.7901 -0.00378344 0.615411)
(11.925 0.0415095 -0.116235)
(11.914 -0.0335734 -0.11104)
(11.9553 -0.0291279 -0.108624)
(11.9129 -0.0114374 -0.110715)
(11.8985 0.000500028 -0.108082)
(11.9372 0.00740783 -0.101242)
(11.876 -0.0502997 -0.107195)
(4.74946 0.0181053 0.0677727)
(4.71509 0.00523417 0.062588)
(4.74919 -0.00653049 0.0754957)
(4.74841 0.000579935 0.0750554)
(4.734 -8.97204e-05 0.0709942)
(4.73698 -0.00685507 0.0729986)
(4.73555 -0.0111748 0.0692648)
(6.25286e-05 0.00347269 0.0550189)
(4.58288e-05 -0.00322788 0.0542593)
(3.22347e-05 0.00403233 0.0507063)
(9.89848e-06 -0.00371162 0.0513136)
(-1.81925e-05 -0.00607989 0.0503488)
(-4.63265e-05 0.000990232 0.0471582)
(-7.17782e-05 -0.00632111 0.0514448)
(-4.74804 0.0132022 0.0714883)
(-4.71971 0.00287077 0.0656135)
(-4.7466 -0.00493846 0.0734551)
(-4.74953 0.00247954 0.0732344)
(-4.73367 -0.00236203 0.0703896)
(-4.73127 -0.0131619 0.0701047)
(-4.73191 -0.0120814 0.0650745)
(-11.8952 0.0488081 -0.1218)
(-11.8823 -0.020107 -0.113681)
(-11.9132 -0.00898712 -0.113624)
(-11.8989 0.00945999 -0.112612)
(-11.8738 0.0248723 -0.112055)
(-11.9491 0.0352411 -0.103082)
(-11.8915 -0.0397766 -0.108092)
(-43.8323 0.0166968 0.614053)
(-43.7445 -0.00665122 0.62346)
(-43.8618 -0.00450886 0.62335)
(-43.805 0.00240003 0.621947)
(-43.7293 -0.00881274 0.624842)
(-43.9641 0.00422401 0.634851)
(-43.828 -0.00349306 0.625986)
(41.9597 -0.00139731 1.02763)
(41.811 -0.00971517 1.01713)
(41.9254 0.00723241 1.02185)
(41.874 0.0237511 1.0162)
(41.9184 0.00956587 1.02256)
(41.9839 0.00621737 1.02781)
(41.8654 0.00531943 1.01972)
(8.81363 0.02576 -0.225199)
(8.88018 -0.0470866 -0.223889)
(8.88227 -0.0369696 -0.227903)
(8.85223 -0.00664556 -0.234531)
(8.80643 0.0143838 -0.232101)
(8.82897 0.02592 -0.221954)
(8.81581 -0.0326624 -0.224794)
(3.74927 0.0390328 -0.101236)
(3.72859 -0.0100332 -0.101468)
(3.74289 -0.0264302 -0.0838383)
(3.74001 0.00290248 -0.0864247)
(3.73043 0.0167215 -0.0887732)
(3.73539 0.0120195 -0.0787294)
(3.74463 -0.0257241 -0.0873473)
(4.57626e-05 0.0106333 -0.0295731)
(3.66414e-05 0.0024075 -0.0320018)
(2.54561e-05 0.00685144 -0.0347239)
(8.61809e-06 -0.00710918 -0.0325294)
(-1.53973e-05 -0.0157036 -0.0358707)
(-3.74288e-05 -0.00849973 -0.0392961)
(-5.90308e-05 -0.0136486 -0.0352876)
(-3.75252 0.0342649 -0.102546)
(-3.72027 -0.0155424 -0.105098)
(-3.73443 -0.0224493 -0.0882637)
(-3.73795 0.0107899 -0.0888061)
(-3.73216 0.0221705 -0.0908409)
(-3.73269 0.0141143 -0.0837166)
(-3.74823 -0.023016 -0.0926417)
(-8.82392 0.0385598 -0.233937)
(-8.78326 -0.0340222 -0.222049)
(-8.83653 -0.0186685 -0.235067)
(-8.79651 0.0113585 -0.232725)
(-8.82702 0.0389349 -0.236102)
(-8.84942 0.0578531 -0.217988)
(-8.82603 -0.0241015 -0.218465)
(-41.864 0.00945563 1.02183)
(-41.9013 -0.00643766 1.03335)
(-41.8738 -0.0058334 1.01862)
(-41.8885 0.000591802 1.02475)
(-41.7836 -0.012587 1.0163)
(-41.9216 0.00144912 1.03285)
(-41.8501 0.00357077 1.02777)
(41.4403 -0.0174843 1.67691)
(41.3482 -0.0039328 1.6712)
(41.4297 0.0202686 1.68528)
(41.3297 0.0356617 1.6757)
(41.3277 0.0144984 1.6697)
(41.4423 0.0100537 1.66657)
(41.157 0.0242091 1.64788)
(8.88207 0.0131152 -0.0270147)
(8.91556 -0.0239919 -0.0504161)
(8.91335 -0.0267978 -0.0548437)
(8.89413 -0.00918414 -0.0656112)
(8.86094 0.0109808 -0.0445245)
(8.87673 0.0150095 -0.0331639)
(8.8726 -0.0141089 -0.0495675)
(3.66674 0.0350041 -0.0538439)
(3.62931 -0.0117316 -0.0673233)
(3.63476 -0.0263489 -0.0535709)
(3.64735 0.000533013 -0.0608998)
(3.63894 0.0194741 -0.0619546)
(3.61232 0.0165552 -0.0546625)
(3.65754 -0.0255461 -0.0661979)
(3.75667e-05 0.0122611 -0.0197071)
(3.11078e-05 7.24493e-05 -0.0229944)
(2.21654e-05 0.00416709 -0.0260941)
(5.70941e-06 -0.00662348 -0.023737)
(-1.53349e-05 -0.0151291 -0.0261443)
(-3.69967e-05 -0.00563048 -0.0262511)
(-5.84528e-05 -0.0143634 -0.0232967)
(-3.66409 0.0319344 -0.0589571)
(-3.62446 -0.0157619 -0.0654355)
(-3.62725 -0.0223969 -0.0534994)
(-3.64991 0.00889738 -0.055507)
(-3.64315 0.0248196 -0.065207)
(-3.62018 0.0175481 -0.0586155)
(-3.65796 -0.0230741 -0.0671968)
(-8.87375 0.0197413 -0.0432918)
(-8.86504 -0.0190719 -0.0404372)
(-8.87428 -0.0124902 -0.048351)
(-8.85014 0.00525232 -0.0438307)
(-8.87144 0.0301766 -0.0616472)
(-8.88981 0.0373742 -0.031507)
(-8.88247 -0.0116404 -0.0395721)
(-41.14 -0.00543387 1.66092)
(-41.2722 -0.00610374 1.66746)
(-41.3239 -0.00756816 1.67135)
(-41.337 -0.00243685 1.66572)
(-41.2292 -0.0199408 1.67225)
(-41.434 -0.00593065 1.68355)
(-41.1497 0.0182119 1.66751)
(40.6785 -0.0320735 1.60207)
(40.4249 0.00929811 1.63848)
(40.5187 0.030889 1.63294)
(40.4466 0.0437928 1.60481)
(40.4363 0.019941 1.59726)
(40.5321 0.00710236 1.61547)
(40.7421 0.0419548 1.56258)
(8.72103 0.00748137 -0.0931758)
(8.76386 -0.00719089 -0.11131)
(8.76061 -0.0257173 -0.113077)
(8.7394 -0.017678 -0.126916)
(8.69566 0.00619507 -0.106991)
(8.71197 0.0107838 -0.0934309)
(8.70606 -0.00127834 -0.113352)
(3.63347 0.0313797 -0.0486678)
(3.59394 -0.0104318 -0.065699)
(3.59346 -0.0261022 -0.0480346)
(3.60526 -0.00218963 -0.055875)
(3.60661 0.0210382 -0.0551861)
(3.57975 0.0154279 -0.0497602)
(3.62253 -0.0251246 -0.0588955)
(2.76175e-05 0.0137345 -0.00906271)
(2.42153e-05 0.000503924 -0.0108466)
(1.73589e-05 0.00332189 -0.010566)
(-1.57161e-06 -0.00637865 -0.0116128)
(-1.3338e-05 -0.0141076 -0.0110828)
(-3.58398e-05 -0.0056448 -0.0121161)
(-5.86796e-05 -0.0150371 -0.0111898)
(-3.62932 0.0284304 -0.0527458)
(-3.57909 -0.012887 -0.0607664)
(-3.61214 -0.0194287 -0.0462975)
(-3.63546 0.00636063 -0.0505606)
(-3.61695 0.0263471 -0.0582551)
(-3.57942 0.0183552 -0.052204)
(-3.62357 -0.0231525 -0.0590316)
(-8.72142 0.00622754 -0.106712)
(-8.7193 -0.013476 -0.092267)
(-8.71883 -0.0147065 -0.105822)
(-8.699 0.00310016 -0.107856)
(-8.71966 0.0282637 -0.118728)
(-8.72456 0.0289742 -0.0874101)
(-8.72253 -0.00102225 -0.0995475)
(-40.6715 -0.0204662 1.58578)
(-40.3539 0.00446767 1.62716)
(-40.4382 -0.00282726 1.61194)
(-40.4237 -0.00530023 1.60664)
(-40.3523 -0.029115 1.60554)
(-40.5393 -0.0200909 1.64605)
(-40.7242 0.0298868 1.59656)
(40.1816 -0.0580805 1.07237)
(39.7866 0.0371926 1.14574)
(39.8879 0.0403176 1.11411)
(39.8348 0.0470639 1.08338)
(39.8338 0.0202031 1.07475)
(39.9034 -0.0101847 1.11493)
(40.1855 0.0735367 1.05687)
(8.54889 -0.00923371 -0.0535539)
(8.54983 -0.00277206 -0.0429628)
(8.53576 -0.0171399 -0.0534917)
(8.53215 -0.012525 -0.0688643)
(8.51047 0.00735666 -0.0656934)
(8.53279 0.00661257 -0.0480957)
(8.53863 0.0129889 -0.062293)
(3.62767 0.0272132 -0.0235648)
(3.5797 -0.00885229 -0.0378815)
(3.57757 -0.0228927 -0.019798)
(3.59291 -0.00407717 -0.0275118)
(3.58244 0.0225414 -0.0286762)
(3.56646 0.0142396 -0.0242722)
(3.6178 -0.0244913 -0.0297455)
(1.76059e-05 0.0136737 0.0126504)
(1.38804e-05 0.00110796 0.00912606)
(1.26088e-05 0.00234453 0.0112937)
(-1.06368e-05 -0.00570151 0.00808944)
(-8.47717e-06 -0.0122745 0.0103896)
(-3.53032e-05 -0.0065794 0.0100285)
(-5.96161e-05 -0.0141992 0.00854357)
(-3.62291 0.0254102 -0.0254971)
(-3.56833 -0.0114619 -0.0325889)
(-3.59404 -0.0190939 -0.0211894)
(-3.60257 0.00431116 -0.0267359)
(-3.60567 0.0262596 -0.0311054)
(-3.56993 0.0167106 -0.0247926)
(-3.61978 -0.0236288 -0.0298812)
(-8.5527 -0.00883487 -0.0636237)
(-8.52654 -0.00908912 -0.0546878)
(-8.53292 -0.0164472 -0.0620872)
(-8.52168 4.07754e-05 -0.0690325)
(-8.53771 0.0231562 -0.0759922)
(-8.53887 0.0191874 -0.0352442)
(-8.5601 0.0121957 -0.0491308)
(-40.1239 -0.050732 1.07164)
(-39.8459 0.0256305 1.1274)
(-39.8401 0.00223349 1.08633)
(-39.8117 -0.00973635 1.08203)
(-39.7771 -0.0466294 1.09285)
(-39.9124 -0.055193 1.14161)
(-40.1716 0.0541894 1.08665)
(39.0889 -0.0839426 0.664757)
(38.7039 0.058272 0.717468)
(38.6963 0.0503201 0.692717)
(38.6042 0.0495861 0.681421)
(38.6004 0.0193242 0.674641)
(38.7387 -0.0240997 0.695825)
(39.0317 0.101189 0.652219)
(8.24816 -0.0271931 -0.0634091)
(8.22827 0.00183715 -0.0490224)
(8.20037 -0.00806501 -0.0504065)
(8.19959 -0.00400085 -0.0629714)
(8.18839 0.0101071 -0.0591478)
(8.21758 0.0029583 -0.0454761)
(8.23239 0.0293273 -0.0631375)
(3.63637 0.0226568 0.0203814)
(3.57367 -0.00651984 0.00944309)
(3.57863 -0.0189648 0.02504)
(3.57735 -0.00570968 0.0197006)
(3.56819 0.0203797 0.0213118)
(3.56694 0.0124918 0.0206812)
(3.62164 -0.0240589 0.0176305)
(9.76282e-06 0.0100952 0.0481856)
(2.09533e-06 -0.000319625 0.0444838)
(1.21813e-05 0.00313695 0.0446342)
(-2.00013e-05 -0.00617349 0.0424027)
(5.26752e-07 -0.0142838 0.0435187)
(-3.49037e-05 -0.00943365 0.0439649)
(-6.08241e-05 -0.0123572 0.0428456)
(-3.62696 0.0219689 0.0187769)
(-3.56536 -0.0090077 0.0104881)
(-3.57608 -0.0165063 0.0239295)
(-3.57694 0.000950261 0.0224094)
(-3.5766 0.023881 0.0172999)
(-3.57836 0.0139052 0.0207541)
(-3.62483 -0.0231829 0.0189657)
(-8.24245 -0.0267573 -0.0729855)
(-8.15519 -0.00230493 -0.0608488)
(-8.20089 -0.0138977 -0.0617573)
(-8.18764 -0.00388856 -0.0644158)
(-8.1582 0.0174638 -0.0772765)
(-8.22229 0.0091769 -0.0383092)
(-8.26289 0.0267004 -0.0546136)
(-39.0466 -0.0800108 0.653274)
(-38.8728 0.0421906 0.707154)
(-38.6576 0.00722719 0.668134)
(-38.6288 -0.0158136 0.667251)
(-38.6437 -0.0578691 0.683301)
(-38.7969 -0.0799202 0.702368)
(-39.1038 0.0753031 0.660008)
(30.6608 -0.107397 0.541468)
(30.3641 0.0709031 0.577848)
(30.0189 0.0660359 0.557606)
(29.8563 0.0557668 0.54884)
(29.7715 0.0252523 0.538685)
(30.1057 -0.0202397 0.558216)
(30.4708 0.123669 0.530768)
(7.41042 -0.0695433 0.141519)
(7.42306 0.0195201 0.161457)
(7.36657 0.0130688 0.162322)
(7.40077 0.0150329 0.153363)
(7.39037 0.0218526 0.150902)
(7.40635 0.0051539 0.163029)
(7.40346 0.0742374 0.14607)
(3.52862 0.0276993 -0.00832166)
(3.52754 -0.00561087 -0.0218464)
(3.4904 -0.0223705 -0.00221345)
(3.51777 -0.003703 -0.00648502)
(3.48397 0.0366673 -0.00584773)
(3.52258 0.0213393 -0.00434163)
(3.48947 -0.0315693 -0.00876922)
(4.83898e-06 0.0150538 -0.0282845)
(-1.3575e-05 -0.00107457 -0.031443)
(2.13572e-05 0.00263839 -0.0332281)
(-3.51306e-05 -0.0107485 -0.0348851)
(1.56195e-05 -0.0207492 -0.032897)
(-3.64206e-05 -0.0142965 -0.0335247)
(-6.44294e-05 -0.0220549 -0.0315114)
(-3.52777 0.0252719 -0.0132262)
(-3.53544 -0.0134868 -0.0201032)
(-3.523 -0.0228759 -0.00471023)
(-3.48147 0.000469762 -0.0065696)
(-3.58627 0.037957 -0.00667171)
(-3.52951 0.0233823 -0.00461875)
(-3.49246 -0.0301161 -0.00716707)
(-7.41971 -0.0677532 0.140137)
(-7.211 0.00817623 0.200992)
(-7.40269 -0.00964787 0.151172)
(-7.36602 -0.0136787 0.158398)
(-7.23791 -0.00698126 0.181966)
(-7.4196 -0.0121625 0.159156)
(-7.42947 0.0654145 0.149146)
(-30.7132 -0.101065 0.538767)
(-30.7419 0.0454808 0.592048)
(-29.9702 0.00517556 0.541979)
(-29.889 -0.0196343 0.544981)
(-30.1599 -0.0706265 0.565553)
(-30.3401 -0.0965682 0.563229)
(-30.8432 0.0936308 0.543771)
(39.6901 -2.73717 -23.9908)
(39.6754 -3.64673 -59.3843)
(39.7798 15.9495 -63.2256)
(39.8905 30.1225 -54.6932)
(39.8966 39.7695 -39.5542)
(39.9175 38.5938 -29.5803)
(39.8211 28.0045 -1.37055)
(10.8 -5.18427 -20.417)
(10.7535 -5.88099 -35.7467)
(10.741 8.7568 -33.1046)
(10.7532 16.5389 -31.0993)
(10.7954 21.8944 -24.7332)
(10.8161 24.6616 -18.5469)
(10.7973 21.2115 0.831721)
(3.9573 -3.84347 -8.74791)
(3.94926 -0.432628 -22.7053)
(3.94974 5.3714 -20.4526)
(3.95254 9.93436 -22.5161)
(3.96255 12.6277 -20.144)
(3.96276 12.1708 -15.7345)
(3.94949 12.5793 0.859035)
(-0.0167389 -5.83476 2.49388)
(-0.0157287 0.959608 -0.187882)
(-0.012839 -0.188106 0.558437)
(-0.0101605 -0.839685 -0.537647)
(-0.0102385 0.789139 -0.303035)
(-0.0125894 0.407701 1.36392)
(-0.0148742 5.56387 3.73311)
(-3.99522 -6.36108 -0.331883)
(-3.99591 1.56323 -9.71049)
(-3.99939 4.01363 -10.0096)
(-4.00212 5.25057 -9.00411)
(-4.00147 7.49105 -5.73916)
(-4.00316 5.57386 -2.85477)
(-3.98645 8.07616 2.33777)
(-10.8321 -4.92002 -14.0698)
(-10.8195 4.99416 -25.4146)
(-10.8606 11.9665 -25.1241)
(-10.9188 15.6538 -26.0838)
(-10.9509 21.2079 -24.1409)
(-10.9632 24.5923 -20.378)
(-10.9084 21.1767 -5.76261)
(-39.446 -5.15511 -21.8583)
(-39.5164 -6.78967 -38.5647)
(-39.9094 -1.34284 -42.5499)
(-40.141 6.82656 -46.5671)
(-40.3149 13.6515 -41.6121)
(-40.3891 27.237 -30.5535)
(-40.3373 22.3368 -5.82869)
(39.7952 23.9137 -13.1383)
(39.853 2.58453 -72.0946)
(39.821 15.6309 -75.5002)
(40.0084 20.0742 -53.7076)
(39.9747 18.4872 -26.3639)
(40.0116 22.0045 10.024)
(39.9886 23.3935 23.5001)
(10.8721 11.071 14.4889)
(10.8052 -8.06521 -25.5196)
(10.7581 4.37937 -24.248)
(10.7463 3.65771 -23.1898)
(10.7749 4.3648 -17.4321)
(10.8583 10.6261 7.55155)
(10.888 18.7058 19.1679)
(4.01157 -0.4198 11.1427)
(3.99733 -0.0722253 8.20244)
(3.98227 1.83141 11.2051)
(3.96739 2.49789 10.8355)
(3.97965 5.49908 11.5754)
(4.00083 7.3927 15.6549)
(4.00565 9.30562 15.0868)
(-0.002268 -4.22453 11.9717)
(-0.0066133 1.18296 8.35127)
(-0.00812827 -0.597231 9.00096)
(-0.00754521 -1.31578 11.1537)
(-0.00573771 0.156113 11.9673)
(-0.00244908 -1.21026 11.7306)
(-0.00366295 3.94038 14.5667)
(-4.01674 -4.43671 8.89506)
(-4.0218 2.95131 8.16703)
(-4.02642 2.47749 8.30913)
(-4.02372 1.90569 7.79939)
(-4.01422 2.94945 8.39327)
(-4.0187 0.624315 11.4508)
(-4.01381 7.44701 14.0604)
(-10.8502 -1.19768 -7.86388)
(-10.8414 5.01624 -17.6847)
(-10.9051 7.16212 -16.4375)
(-10.9552 5.38303 -13.9104)
(-10.9221 3.77193 -11.8457)
(-10.9197 4.60396 6.19074)
(-10.912 16.6694 16.219)
(-39.4155 -8.33114 -19.9344)
(-39.6297 -18.8135 -41.2744)
(-39.831 -25.9927 -52.1944)
(-40.0762 -24.7612 -58.5716)
(-40.3471 -23.2623 -48.9755)
(-40.4001 1.16592 -4.02459)
(-40.2524 16.2543 12.1215)
(40.0486 28.4901 -65.8071)
(40.0338 -2.56296 -98.9264)
(39.9256 9.94263 -92.6701)
(39.9264 12.0878 -63.9779)
(39.9191 4.32778 -34.2933)
(39.9751 11.9383 12.9035)
(40.0241 20.1882 43.7724)
(10.9683 17.1405 2.97206)
(10.8586 -6.1581 -22.4367)
(10.7941 -1.34227 -28.3367)
(10.803 -3.14451 -33.3685)
(10.8146 -3.22854 -30.9592)
(10.8974 0.736021 10.2956)
(10.9098 15.0854 35.0291)
(4.03245 -0.803389 19.9913)
(4.00081 -6.53669 13.1301)
(3.97283 -1.70154 10.3975)
(3.9721 -3.62024 -2.98584)
(3.98523 -2.19544 -6.10204)
(4.0176 2.64204 19.5221)
(4.03556 10.6892 28.0281)
(-0.00398619 -4.62813 17.6605)
(-0.00884994 1.96013 19.1144)
(-0.0119027 1.12349 19.7095)
(-0.0103292 -1.87331 15.2138)
(-0.00558369 -0.00478209 17.109)
(-0.000509631 -0.209361 23.8664)
(-4.75288e-06 3.77438 24.7673)
(-4.03592 -3.76648 14.2109)
(-4.04189 2.80188 15.2468)
(-4.03773 1.14676 13.4153)
(-4.02992 -1.08794 16.3091)
(-4.02793 -0.856956 15.1808)
(-4.02237 -2.18982 18.4529)
(-4.02654 6.92856 26.4363)
(-10.8496 -1.3176 -19.9039)
(-10.8696 4.10934 -21.5734)
(-10.8966 3.67926 -20.3821)
(-10.9301 4.26418 -10.9136)
(-10.9202 -5.39104 -18.129)
(-10.8779 -8.16583 -5.42272)
(-10.8803 8.86682 23.8352)
(-39.422 -8.24302 -19.1557)
(-39.6657 -19.4922 -41.0964)
(-39.9271 -30.8903 -56.2306)
(-39.8282 -30.4783 -70.9585)
(-39.989 -30.5839 -76.0386)
(-40.0958 -18.5021 -52.6526)
(-39.9875 1.19681 -11.6107)
(40.0161 28.4385 -82.9949)
(39.9208 -4.75847 -110.316)
(39.9652 9.41103 -100.446)
(39.6495 10.6574 -70.2791)
(39.8876 -1.31987 -38.5385)
(40.0103 4.29818 12.1588)
(40.0481 15.0082 45.1526)
(11.0368 10.8137 4.65368)
(10.9252 -11.4386 -19.3755)
(10.8437 -2.83197 -30.0631)
(10.7919 -6.55942 -35.9595)
(10.8188 -8.70742 -34.4811)
(10.9028 -8.05329 -3.82286)
(10.9113 13.8956 33.6944)
(4.03144 -4.20616 19.6886)
(3.97715 -11.3137 6.98148)
(3.96211 -6.72461 -0.910189)
(3.96467 -8.18787 -5.35154)
(3.99593 -7.91234 -6.24388)
(4.03033 -2.1227 11.0008)
(4.02783 9.96239 30.6223)
(-0.013906 -3.68939 24.5448)
(-0.0170364 -0.69905 21.636)
(-0.0163271 0.153367 21.6204)
(-0.00906547 -0.474654 22.2781)
(-0.00277756 -0.385067 20.8796)
(-0.00133637 -0.752565 26.2413)
(-0.00396993 4.12922 28.846)
(-4.05665 -3.51314 19.9002)
(-4.05744 2.18004 21.2123)
(-4.0471 -1.00244 21.9713)
(-4.03608 -2.19336 22.45)
(-4.04305 -1.99625 20.4876)
(-4.04064 -2.91822 23.052)
(-4.03535 3.31986 31.83)
(-10.8714 -3.48106 -23.0003)
(-10.8759 2.15972 -20.4022)
(-10.8725 -0.656427 -19.5877)
(-10.8996 4.25114 -9.05727)
(-10.9219 -8.94009 -10.9924)
(-10.9339 -12.7115 -8.18117)
(-10.9249 1.74866 14.1778)
(-39.5662 -7.39218 -20.1352)
(-39.6612 -15.4011 -40.7997)
(-39.9213 -25.504 -57.5784)
(-39.679 -24.7963 -76.9883)
(-39.6523 -20.5467 -90.8121)
(-39.7538 -19.6888 -93.9317)
(-39.8479 -1.4634 -84.9213)
(40.0547 34.6661 -91.0671)
(39.9236 -3.23998 -118.223)
(39.957 13.7675 -104.872)
(39.7392 8.85111 -70.6758)
(39.7464 -12.4545 -29.5102)
(40.0611 -2.14493 15.698)
(40.0306 8.06986 39.1892)
(11.0445 5.27293 12.0215)
(10.935 -9.97215 -6.69457)
(10.8643 -3.80188 -26.3689)
(10.7886 -7.91245 -37.4804)
(10.7762 -12.8504 -35.0092)
(10.8927 -9.64036 -9.28369)
(10.9229 8.70628 27.3057)
(3.98734 -8.73875 19.42)
(3.94968 -13.5121 1.27296)
(3.92659 -12.2471 -6.83257)
(3.95023 -13.8276 -9.27313)
(3.99442 -13.2731 -8.78027)
(4.02999 -7.54831 7.64528)
(4.00901 8.05231 29.9784)
(-0.0257126 -4.34024 27.3477)
(-0.0240715 -1.76058 23.846)
(-0.0190083 0.472344 25.4397)
(-0.00970151 -0.0806014 25.1539)
(-0.00424967 -0.717723 27.5783)
(-0.00717343 -2.0236 28.2245)
(-0.0149831 6.5517 31.8865)
(-4.06616 -3.94037 23.9515)
(-4.05571 1.0239 27.2967)
(-4.04241 -4.19982 25.4181)
(-4.03468 -5.55829 22.3736)
(-4.04202 -5.42372 21.3024)
(-4.04279 -4.39347 23.7842)
(-4.0455 -0.223955 30.3717)
(-10.8668 -6.24853 -23.9519)
(-10.8388 2.6794 -14.9804)
(-10.8167 -0.630422 -16.211)
(-10.8379 -1.46701 -11.8419)
(-10.9048 -11.2009 -6.06934)
(-10.9426 -13.0923 -9.1137)
(-10.9765 -3.78608 -11.0208)
(-39.5927 -6.98343 -24.0386)
(-39.5382 -11.4397 -41.0562)
(-39.8642 -20.5207 -57.2516)
(-39.701 -22.6361 -76.1453)
(-39.8243 -14.186 -93.2719)
(-39.9991 -11 -103.111)
(-39.6085 3.79776 -100.809)
(39.7073 34.7637 -96.1212)
(39.5722 -2.32235 -120.714)
(40.0198 21.4074 -101.024)
(39.9266 8.11161 -65.8241)
(39.729 -16.7733 -24.6188)
(39.994 -10.8769 7.61736)
(40.027 3.13368 20.6595)
(10.9454 0.047822 19.6991)
(10.9028 -1.51021 -2.42809)
(10.8521 -1.70674 -19.2695)
(10.8043 -7.2669 -37.5773)
(10.7605 -13.8902 -35.1022)
(10.8179 -12.05 -24.7757)
(10.8474 -3.89516 2.40359)
(3.94848 -9.69505 23.9161)
(3.90821 -11.7846 3.8951)
(3.90298 -13.57 -7.43062)
(3.92178 -16.5014 -11.8719)
(3.9437 -16.1965 -12.8119)
(3.98356 -11.3199 -3.07694)
(3.98119 -0.328673 22.1638)
(-0.0319608 -4.08501 32.714)
(-0.0222256 -1.41529 26.5492)
(-0.0137849 0.0314489 27.3216)
(-0.0109309 -0.50318 31.7668)
(-0.0134617 -3.64994 29.9727)
(-0.0212374 -4.74997 29.5339)
(-0.0297571 4.69582 35.6092)
(-4.0676 -4.1749 31.0729)
(-4.045 -2.01785 32.0935)
(-4.02 -6.79876 30.5683)
(-4.01353 -7.33523 25.333)
(-4.02417 -7.06104 24.1329)
(-4.0323 -4.59759 24.6848)
(-4.03449 -1.77267 28.5262)
(-10.8567 -6.94285 -24.9602)
(-10.8501 2.33793 -14.6787)
(-10.8132 0.79598 -15.6244)
(-10.7947 -2.37121 -15.2325)
(-10.8909 -6.2616 -12.3086)
(-10.9686 -6.39675 -26.6543)
(-10.9722 -2.34856 -40.8899)
(-39.5776 -6.9952 -28.5547)
(-39.6669 -10.601 -40.6104)
(-40.0973 -20.5393 -56.9633)
(-39.9932 -25.6125 -78.4376)
(-39.7685 -14.3683 -96.3645)
(-39.8156 -9.88735 -107.984)
(-39.8118 6.2844 -103.315)
(39.2285 38.4719 -107.718)
(39.0864 -4.00118 -127.295)
(39.7831 26.267 -90.3394)
(39.8375 11.6169 -57.392)
(39.6641 -3.75232 -25.9404)
(39.6059 -14.8089 7.40675)
(39.9074 -4.52259 22.532)
(10.8918 0.818647 6.08505)
(10.8614 4.87005 -29.457)
(10.8473 3.73249 -20.5588)
(10.7485 -3.12862 -30.5943)
(10.7152 -5.53064 -32.9816)
(10.7121 -3.76225 -39.0997)
(10.7543 -3.69911 -19.5318)
(3.95415 -7.08455 25.4418)
(3.90089 -5.6319 9.93855)
(3.90883 -10.6348 -0.614906)
(3.92568 -14.1833 -10.6912)
(3.9221 -13.3219 -16.253)
(3.92166 -11.4394 -17.6725)
(3.93649 -2.63192 -2.89527)
(-0.0272989 -5.67364 34.1548)
(-0.0165665 -0.90034 37.9177)
(-0.00529854 1.73584 33.863)
(-0.000929886 -2.5118 32.1154)
(-0.0108043 -6.70056 34.1844)
(-0.0280604 -6.51344 32.4305)
(-0.0367693 1.65555 34.7505)
(-4.07936 -4.53447 34.5083)
(-4.04507 -3.55562 35.5843)
(-3.99893 -7.3603 30.0238)
(-3.98318 -6.71733 24.8121)
(-3.98359 -6.54491 23.5559)
(-4.00349 -4.56065 23.9615)
(-4.02932 -0.460829 21.6241)
(-10.8496 -6.08366 -25.6064)
(-10.8269 0.754265 -21.8101)
(-10.8114 1.27538 -19.9678)
(-10.7856 -4.97873 -21.8605)
(-10.8806 -8.66873 -26.3199)
(-10.9351 -6.63285 -38.9777)
(-10.9303 1.02982 -51.9257)
(-39.6233 -8.58472 -30.0536)
(-39.7792 -14.4177 -38.371)
(-39.9845 -22.3643 -49.9631)
(-40.0116 -29.9778 -73.6498)
(-39.6379 -14.5285 -97.6428)
(-39.5127 -9.11728 -110.597)
(-39.786 7.24979 -102.802)
(39.8691 56.3231 -106.001)
(39.9782 -22.0051 -125.311)
(40.0875 11.9387 -65.6299)
(40.0754 -0.909966 -38.3582)
(39.9486 0.398447 -20.1505)
(39.6532 -1.9747 19.6483)
(39.5438 -0.974822 21.3623)
(10.975 32.8707 -15.3825)
(10.883 -13.7592 -26.001)
(10.8309 6.64363 -15.0364)
(10.7645 3.39752 -33.1403)
(10.7411 11.2102 -45.898)
(10.7475 15.3397 -43.5188)
(10.7414 9.30654 -26.8183)
(3.94753 -5.88236 31.8088)
(3.88976 -5.14161 21.1119)
(3.91919 -10.2122 11.5929)
(3.94983 -3.23136 0.79285)
(3.96349 -4.70603 -9.52782)
(3.96397 -3.95352 -10.7152)
(3.94635 -0.258451 -5.29203)
(0.0114935 -3.58515 37.754)
(0.0127641 0.0720543 37.646)
(0.016764 -1.62329 36.9482)
(0.00957014 -4.50466 37.4218)
(0.0145862 -6.2127 35.4316)
(0.00528652 -7.03613 33.2972)
(-0.00143232 -0.68659 32.8699)
(-4.02052 -3.2175 34.6959)
(-3.97035 -0.693211 32.7455)
(-3.96369 -5.64381 27.8835)
(-3.96194 -4.31376 23.2514)
(-3.96201 -5.66078 19.9698)
(-3.95781 -5.93627 17.451)
(-3.98464 -0.454274 9.40646)
(-10.8447 -8.5915 -15.9876)
(-10.8073 -9.03222 -16.0269)
(-10.8178 -10.2613 -13.4712)
(-10.8679 -14.7048 -15.8099)
(-10.9624 -13.7317 -35.7638)
(-11.0121 -8.61663 -55.3068)
(-11.0189 3.89172 -66.6765)
(-40.0539 -10.0042 2.65042)
(-40.2001 -8.28589 -5.89357)
(-40.4193 -15.3404 -13.7612)
(-40.5358 -12.1432 -45.1091)
(-40.5868 12.5521 -87.4106)
(-40.2891 6.20118 -107.059)
(-40.136 3.36013 -87.0564)
(39.7175 50.5433 -128.85)
(39.8762 -24.4545 -144.658)
(40.1288 9.69094 -75.7989)
(40.0157 -4.35922 -53.2091)
(39.8425 1.94902 -32.719)
(39.6017 -10.0543 9.98173)
(39.5401 5.92689 1.08409)
(10.813 -3.77389 13.6)
(10.6988 -13.4485 -3.79563)
(10.6917 1.235 -6.96146)
(10.7275 11.4807 -40.7077)
(10.6965 21.9146 -51.6711)
(10.6419 18.7267 -51.4827)
(10.7071 14.0631 -33.2786)
(3.9955 -5.32039 37.2562)
(3.952 -4.11623 26.7105)
(3.95276 -6.85794 18.9996)
(3.95065 -2.24618 11.7036)
(3.96667 -4.6485 4.215)
(3.96187 -5.14205 -2.319)
(3.93995 1.67688 -7.51866)
(0.0312369 -2.34993 39.5265)
(0.0314376 0.744375 38.831)
(0.0242816 -1.30781 38.0104)
(0.0126889 -4.12133 38.4095)
(0.00543583 -5.94719 36.8453)
(0.00023547 -6.58839 34.9074)
(-0.00971867 -0.726697 33.768)
(-4.02337 -1.93493 32.8434)
(-3.9912 3.87947 35.7191)
(-3.98652 -1.01453 30.7367)
(-3.98524 -1.38707 25.3532)
(-3.98743 -4.18487 22.524)
(-3.9715 -5.15979 18.5484)
(-3.97083 0.0246647 11.6819)
(-10.8565 -11.1376 -2.23041)
(-10.8574 -9.46506 -9.12291)
(-10.8701 -16.6079 -9.7454)
(-10.912 -19.9103 -13.7965)
(-10.9279 -18.0978 -36.6391)
(-11.0225 -11.4324 -63.1913)
(-10.9618 4.23018 -71.2297)
(-40 -4.9438 9.38937)
(-39.9746 -1.71076 5.42083)
(-40.1512 -5.23532 -8.88069)
(-40.3811 -3.65002 -47.1909)
(-40.4041 17.815 -103.309)
(-40.1172 12.9394 -118.117)
(-40.0914 4.57771 -97.2889)
(39.7573 53.3207 -136.247)
(39.9566 -34.5015 -151.322)
(40.2691 11.1638 -91.0959)
(40.0198 6.28907 -63.1561)
(39.7943 12.4501 -42.9353)
(39.7645 -3.50976 14.0741)
(39.62 6.84931 17.0009)
(10.811 -1.44312 15.4438)
(10.7689 -9.72475 -14.9444)
(10.7739 10.9899 -25.5905)
(10.778 24.0895 -56.6135)
(10.671 29.2184 -57.407)
(10.6848 24.9737 -51.4732)
(10.7691 22.8558 -25.574)
(3.98602 -3.60687 41.0857)
(3.96654 -1.31177 32.773)
(3.96135 -5.26434 22.5067)
(3.95017 -0.806956 14.8803)
(3.96747 -6.34094 14.7944)
(3.97543 -3.83279 6.75538)
(3.97433 10.2953 -5.6859)
(0.0336768 -1.12017 40.6933)
(0.0285862 3.28114 40.5154)
(0.0199175 0.627681 40.1235)
(0.0107733 -3.33757 39.7155)
(0.00698831 -5.09797 37.0016)
(0.0158718 -6.28562 34.1224)
(0.0180658 -0.903349 32.4654)
(-4.02081 -3.41423 21.767)
(-4.01571 9.15231 32.1068)
(-4.01217 9.41878 34.7821)
(-4.00617 7.38284 32.6119)
(-4.0117 1.85458 26.1368)
(-3.95271 -4.54577 17.1371)
(-3.91774 -0.464546 6.16762)
(-10.9074 -12.0862 1.9776)
(-10.8835 -9.71143 -11.5595)
(-10.8991 -15.2498 -14.7551)
(-10.9383 -17.042 -24.0509)
(-10.9053 -12.88 -49.3196)
(-10.9136 -5.54035 -69.556)
(-10.9495 6.32604 -76.7532)
(-39.9625 -6.34848 18.7368)
(-40.1162 -1.20336 7.84351)
(-40.2578 -4.86976 -12.1799)
(-40.3712 14.6505 -63.1996)
(-40.1572 36.5915 -110.005)
(-40.079 29.6278 -114.092)
(-40.2918 13.5563 -97.7959)
(39.6505 47.2564 -142.386)
(39.8906 -46.8977 -155.667)
(40.3507 14.1975 -98.3413)
(39.8434 15.3791 -66.8106)
(39.8969 18.1625 -44.7749)
(39.9714 9.88077 -1.68175)
(39.8606 9.5604 24.1965)
(10.7699 4.50199 18.6173)
(10.7759 -7.15076 -10.954)
(10.8492 28.6679 -57.3385)
(10.8464 31.8837 -67.1009)
(10.7546 32.3658 -58.9415)
(10.8241 26.0091 -45.7048)
(10.8407 20.1033 -12.6061)
(3.97339 -2.87601 40.563)
(3.96043 -0.102148 32.2655)
(3.96006 -3.60532 23.0353)
(3.95904 -2.08337 21.9933)
(3.97958 -6.22382 22.1134)
(4.00381 0.300726 4.49162)
(4.01626 10.9677 3.28795)
(0.022031 -1.10115 40.0593)
(0.0220905 4.43404 40.9418)
(0.0224968 1.98499 39.9942)
(0.0252126 -2.21444 39.3776)
(0.0310107 -4.62014 36.6853)
(0.0412257 -5.96863 32.7252)
(0.0517434 -0.955442 28.8951)
(-4.02241 -5.71567 13.9176)
(-4.0223 7.4567 23.0889)
(-3.99872 10.3679 33.4696)
(-3.98259 8.73924 32.8027)
(-3.95826 1.62525 28.1006)
(-3.89092 -6.94666 14.5228)
(-3.8569 -0.686786 -8.97632)
(-10.9292 -11.2411 4.71405)
(-10.8325 -6.93511 -10.8878)
(-10.8346 -6.15267 -10.5236)
(-10.8251 -1.76255 -13.6759)
(-10.7875 9.10842 -27.5559)
(-10.8095 15.3124 -58.4758)
(-10.9388 19.7343 -72.2186)
(-39.9559 -8.22533 24.3874)
(-40.1223 -2.27141 8.46721)
(-40.4689 -5.88009 -29.8164)
(-40.293 41.2088 -83.0956)
(-39.845 52.6056 -103.064)
(-39.763 44.8379 -104.636)
(-40.1772 21.0241 -81.3681)
(39.4124 38.4103 -138.053)
(39.9274 -53.7151 -155.272)
(40.3999 5.44783 -109.666)
(40.0285 16.9106 -71.299)
(40.1464 20.5543 -39.9629)
(40.1101 4.82488 2.17798)
(39.9165 9.96308 38.3156)
(10.6886 3.3966 18.4528)
(10.7733 5.53145 -8.54392)
(10.878 36.4369 -82.2054)
(10.9438 28.0941 -77.6018)
(10.8745 32.206 -54.9952)
(10.8733 18.2307 -35.6805)
(10.8966 16.7066 3.61343)
(3.96546 -3.19939 37.4101)
(3.91969 0.918996 29.7322)
(3.92218 -1.16385 21.347)
(3.95119 1.77347 24.5815)
(3.99808 -3.1371 26.7254)
(4.02163 4.05336 7.32506)
(4.04233 9.42245 13.9618)
(-0.000816148 -1.37202 37.4444)
(0.00243072 4.36988 40.1008)
(0.0187833 2.28564 38.9241)
(0.0375459 -0.741255 37.5069)
(0.0520063 -2.73378 35.9053)
(0.0578006 -4.67854 33.2337)
(0.0675748 -0.25047 29.4651)
(-4.04103 -9.45467 14.1289)
(-4.00873 3.1602 19.7471)
(-3.97104 8.51831 31.2327)
(-3.93071 7.51054 32.0482)
(-3.88114 -1.00809 28.7546)
(-3.83816 -10.298 8.86793)
(-3.84587 8.46361 -18.824)
(-10.9527 -11.3946 10.1526)
(-10.8332 -9.26033 -10.42)
(-10.8108 -5.13229 -10.5419)
(-10.7434 2.25264 -7.71014)
(-10.7101 15.0091 -13.8875)
(-10.7379 38.1905 -39.3869)
(-10.8223 36.8182 -46.7386)
(-39.8682 -6.70851 35.5965)
(-40.0234 -11.5983 16.0776)
(-40.2445 36.1043 -84.9888)
(-39.463 56.3396 -110.35)
(-39.6341 61.2099 -103.915)
(-39.955 49.4037 -90.7315)
(-40.3512 19.1542 -56.4958)
(39.3783 34.1164 -138.358)
(39.3943 -73.7442 -149.576)
(40.2834 -31.1611 -109.815)
(40.3159 2.11086 -67.9888)
(39.9805 1.42479 2.03276)
(39.9238 -11.2653 23.2887)
(39.7252 3.97126 42.6932)
(10.5826 -3.05367 20.1653)
(10.8583 32.3377 -62.8793)
(10.9313 37.7917 -99.9617)
(11.0453 10.5263 -81.3909)
(10.8051 22.3809 -34.8773)
(10.7731 2.16453 -4.87429)
(10.9181 6.22605 7.91312)
(3.93353 -2.57541 37.1423)
(3.86276 1.09316 24.6965)
(3.85786 5.87905 16.7094)
(3.91009 13.6078 23.84)
(3.93905 9.44768 29.9311)
(3.95701 10.4147 20.3526)
(4.02227 6.612 18.4833)
(-0.0198339 -1.80157 38.3137)
(-0.0209682 4.26903 40.2162)
(-0.00304571 2.37219 38.7469)
(0.0229602 1.95924 37.3629)
(0.0426501 1.29118 37.718)
(0.0455575 -2.14882 37.4074)
(0.0732631 2.56946 33.8106)
(-4.04757 -10.5514 15.7267)
(-3.99798 -1.59244 24.1321)
(-3.94443 0.0260849 29.4082)
(-3.87329 0.0208668 28.7462)
(-3.82394 -3.02662 25.022)
(-3.7878 -4.33229 13.4888)
(-3.78571 21.9966 3.44238)
(-10.9619 -14.7625 13.1783)
(-10.9188 -2.73998 -19.9916)
(-10.908 29.2983 -38.0035)
(-10.849 38.7583 -36.419)
(-10.7928 56.9996 -35.7616)
(-10.6943 55.4945 -35.1484)
(-10.7263 49.4085 -22.8882)
(-39.6038 -18.1847 39.0362)
(-40.2552 30.5158 -57.4236)
(-38.9513 71.3535 -120.087)
(-39.3188 64.1558 -115.502)
(-40.2042 64.6828 -92.1614)
(-40.4521 30.9573 -65.1338)
(-40.5525 17.339 -10.9687)
(39.36 112.775 -123.29)
(37.7449 -88.131 -99.7315)
(38.5641 -135.442 -77.8573)
(39.845 -81.4993 -28.8476)
(39.9251 -65.3809 -7.26779)
(39.9475 -51.1703 3.00715)
(39.9093 -45.9784 14.6069)
(10.7585 22.1668 -3.35277)
(10.3737 73.5055 -79.1016)
(10.612 33.4263 -102.639)
(10.9712 -33.2403 -71.8443)
(10.7224 28.6041 -26.1919)
(10.5999 5.57823 4.54235)
(10.7596 2.11241 16.298)
(3.89304 -10.0419 26.5867)
(3.80471 -9.89361 -23.8268)
(3.82804 -3.22136 -36.1277)
(3.97039 20.9997 -24.2126)
(3.97955 23.2907 8.8485)
(3.90724 23.6201 14.7005)
(3.89522 13.8111 27.1726)
(0.0171216 -1.94969 46.0786)
(-0.00955167 2.44147 39.5703)
(0.0102578 1.34476 37.1272)
(0.0416253 6.08663 36.8955)
(0.0353731 8.63339 33.8732)
(0.00877614 6.71463 37.8592)
(0.017066 3.07525 51.8746)
(-3.96471 -15.2408 -0.667881)