/*--------------------------------*- C++ -*----------------------------------*\
  =========                 |
  \\      /  F ield         | OpenFOAM: The Open Source CFD Toolbox
   \\    /   O peration     | Website:  https://openfoam.org
    \\  /    A nd           | Version:  6
     \\/     M anipulation  |
\*---------------------------------------------------------------------------*/
FoamFile
{
    version     2.0;
    format      ascii;
    class       volScalarField;
    location    "3.5";
    object      O2;
}
// * * * * * * * * * * * * * * * * * * * * * * * * * * * * * * * * * * * * * //

dimensions      [0 0 0 0 0 0 0];

internalField   nonuniform List<scalar> 
297
(
0
0
0
0
0
0
0
0
0
0
0
0
0
0
0
0
0
0
0
0
0
0
0
0
0
0
0
0.102423
0.0623392
0.133829
0.190029
0.151322
0.198566
0.0998213
0.106909
0.168172
0
7.48936e-06
0.00757854
0.0899453
0.112202
0.104889
0
1.17667e-05
0.00152603
0
0
0
0.0541059
0.0249192
0.0696395
0
0
0
0
6.29418e-12
0
0
0
0
0
0
0
7.11496e-19
9.4252e-17
0
4.82556e-21
2.27762e-19
7.85731e-21
2.84505e-21
5.35689e-20
1.05246e-20
2.01277e-21
4.14119e-21
6.76028e-21
5.96597e-21
4.82042e-20
1.59017e-20
2.5239e-21
5.40841e-21
1.01177e-20
0
0
0
0.0159843
3.71162e-07
0.0257096
0
0
0
0
0
0
0
6.04278e-09
0.00818418
0
0
0
0
0
0
0
0
0
0
0
0
1.44313e-21
2.97929e-21
5.63157e-21
5.87831e-21
8.84977e-21
2.01866e-20
9.84971e-22
2.41524e-21
3.16717e-21
3.86172e-22
1.19825e-21
3.99183e-21
2.45121e-21
8.14159e-21
2.06977e-20
5.01681e-22
1.969e-21
2.32839e-21
8.4027e-23
5.41839e-22
1.97757e-21
3.05994e-21
7.21105e-21
1.50283e-20
1.16345e-21
2.12316e-21
2.4772e-21
1.28528e-21
2.79634e-22
2.92411e-22
1.4141e-20
2.17421e-22
6.74102e-23
4.74078e-22
1.26137e-22
1.57337e-22
3.28607e-21
1.09075e-21
1.29089e-21
2.05009e-20
1.98611e-20
1.53707e-20
2.19159e-21
8.43435e-22
7.92319e-22
2.44452e-21
1.22081e-21
2.22189e-21
1.52876e-20
1.557e-20
1.5745e-20
2.34138e-21
1.45876e-21
3.9669e-21
4.81088e-23
4.54271e-23
6.93252e-22
1.41017e-21
5.59188e-21
5.47463e-21
1.47371e-22
5.18874e-22
8.48929e-22
1.60879e-22
1.29908e-22
4.35334e-22
2.4912e-21
3.13106e-21
2.51805e-21
2.54875e-22
3.22034e-22
5.03281e-22
3.37576e-22
1.64729e-22
2.11156e-22
2.48003e-21
2.44582e-21
2.69933e-21
6.41135e-22
4.28262e-22
5.24642e-22
9.76035e-28
1.60603e-27
8.75261e-27
2.91373e-25
3.08383e-26
2.33779e-24
2.03767e-24
2.5804e-23
2.55301e-23
1.74459e-27
2.98096e-27
1.3721e-26
1.15514e-24
3.33314e-25
6.83976e-23
9.25603e-24
6.44018e-23
6.10008e-23
3.68007e-27
3.50657e-27
1.43247e-26
1.12919e-22
6.68194e-22
1.82298e-21
1.53939e-23
1.08562e-22
6.21288e-22
2.94862e-27
3.60722e-27
7.38233e-27
1.51375e-22
5.44821e-22
8.9845e-22
2.27072e-23
2.07762e-22
4.72041e-22
7.74415e-28
1.80517e-27
5.48408e-27
1.038e-22
2.12804e-22
5.45e-22
3.36521e-23
9.34461e-23
4.39902e-22
1.829e-28
4.06625e-28
1.35868e-27
5.00088e-23
1.1392e-22
3.74569e-22
2.822e-23
1.05021e-22
4.04765e-22
6.50426e-26
1.52925e-26
6.4391e-27
2.65077e-23
2.34129e-23
5.92145e-23
2.04322e-22
2.05085e-22
1.57948e-22
1.00599e-25
2.35307e-26
5.10228e-27
6.05383e-22
2.88865e-23
5.92672e-23
3.78036e-22
3.91608e-22
1.57233e-22
1.00273e-25
2.58538e-26
2.06473e-26
1.21675e-20
5.2736e-21
1.09222e-21
3.7273e-21
5.45867e-22
1.57002e-22
5.22136e-26
2.5594e-26
1.34909e-26
6.00796e-21
4.18617e-21
1.07774e-21
2.78729e-21
7.96793e-22
1.56819e-22
3.18305e-26
1.5766e-26
8.23154e-27
4.10852e-21
1.74347e-21
8.99979e-22
2.76134e-21
9.64788e-22
1.55276e-22
9.96373e-27
3.24358e-27
2.45094e-27
2.722e-21
9.08938e-22
4.26665e-22
2.58282e-21
8.48062e-22
1.15589e-22
)
;

boundaryField
{
    fuel
    {
        type            fixedValue;
        value           uniform 0;
    }
    primary_air
    {
        type            fixedValue;
        value           uniform 0.23;
    }
    Secondary_air_RHS
    {
        type            fixedValue;
        value           uniform 0.23;
    }
    Secondary_air_LHS
    {
        type            fixedValue;
        value           uniform 0.23;
    }
    outlet
    {
        type            inletOutlet;
        inletValue      uniform 0;
        value           nonuniform List<scalar> 
18
(
0
2.722e-21
0
0
9.08938e-22
0
0
4.26665e-22
0
0
5.00088e-23
0
0
1.1392e-22
0
0
3.74569e-22
0
)
;
    }
    stove_body
    {
        type            fixedValue;
        value           uniform 0;
    }
    frontAndBack
    {
        type            empty;
    }
}


// ************************************************************************* //
