/*--------------------------------*- C++ -*----------------------------------*\
  =========                 |
  \\      /  F ield         | OpenFOAM: The Open Source CFD Toolbox
   \\    /   O peration     | Website:  https://openfoam.org
    \\  /    A nd           | Version:  6
     \\/     M anipulation  |
\*---------------------------------------------------------------------------*/
FoamFile
{
    version     2.0;
    format      ascii;
    class       surfaceScalarField;
    location    "3.5";
    object      phi;
}
// * * * * * * * * * * * * * * * * * * * * * * * * * * * * * * * * * * * * * //

dimensions      [1 0 -1 0 0 0 0];

internalField   nonuniform List<scalar> 
675
(
-2.1962e-05
-2.52897e-05
0.000175218
1.44413e-05
-8.51422e-05
0.000176707
-2.30024e-05
0.00016541
4.17061e-05
2.53046e-05
0.000119142
-1.85171e-05
8.51621e-05
0.000101361
2.30049e-05
0.000146917
-2.19709e-05
0.000175242
1.44423e-05
0.000176717
0.000165413
-1.75354e-05
-4.15582e-05
0.000234337
1.12601e-05
-0.000113455
0.000261439
-3.04179e-05
0.000207114
7.39778e-05
4.15161e-05
-3.78829e-05
-2.73932e-05
0.000113467
-2.39213e-05
3.03967e-05
5.87276e-05
-1.75513e-05
0.000234335
1.12795e-05
0.000261425
0.000207115
-2.96332e-05
0.000136018
-1.64871e-06
0.000105514
7.75116e-05
2.25606e-05
-0.000136035
-1.73425e-06
-0.000105477
-7.75161e-05
-2.96528e-05
-1.6456e-06
-5.38568e-05
0.00715206
-0.00376995
0.00521143
0.00616748
-0.00810624
0.00727535
0.00126164
-0.000591611
-0.00537304
0.0186908
-0.00136449
-0.00505837
0.0174993
-0.00703269
0.0184516
0.00219915
-0.00421917
0.00373008
-0.00327093
1.69529e-05
0.00741213
0.00914346
-0.0203552
0.0033841
0.00766621
-0.0117437
0.0100815
-0.00548545
0.00307119
-0.00757087
0.0322901
0.00204701
-0.00522983
0.0313737
-0.00938339
0.0399621
0.00960335
-0.0213766
0.00495112
-0.00380652
-0.00431501
-0.00296379
0.0241341
-0.0415163
-0.00396414
0.0132862
-0.0240276
0.0246492
-0.0340216
-0.0467233
-0.0235608
0.126609
0.0427199
-0.0138163
-0.0309948
-0.0244954
0.131752
-0.00331746
-0.0415939
-0.00483881
-0.0158579
-0.0337867
-0.00707773
-0.0151533
-0.029106
0.0513587
0.00593056
0.00347557
-0.0437924
0.0272085
-0.015228
-0.0236784
0.044971
0.0118885
0.0171473
0.0543115
-0.0985329
-0.00833189
-0.000763261
-0.0159358
0.0404245
0.0105161
0.0711927
-0.105206
-0.00341142
-0.0313875
0.0517642
0.0163288
-0.0407992
0.0201922
-0.0183686
0.0448244
0.000277354
-0.00892067
-0.0205629
-0.00300025
-0.00847111
-0.0325106
-0.010082
-0.0167839
0.01635
0.0104546
0.0189753
-0.0159859
0.00752663
0.000643064
0.00871004
0.0367518
0.00453113
-0.0255958
4.03151e-05
-0.0287105
-0.00972138
0.0048287
-0.00641093
-0.0190917
-0.00671066
-0.000793056
-0.0208222
-0.00649287
-0.0171665
0.00394278
0.00225285
0.00673385
0.00813428
0.00230183
-0.00648015
0.0105943
0.0280591
-0.00726107
-0.016209
-0.0157358
-0.017821
-0.015099
-1.95373e-05
-0.00243439
-0.0443113
-0.000248525
-0.000819995
-0.0229811
-0.00221712
-0.0372979
-0.00357994
0.00247138
0.116837
0.00321932
0.000258825
-0.0388686
0.00254127
0.121756
3.97443e-05
-0.0444105
-0.000111071
-0.0154527
-0.0366213
-0.000405185
-0.0011072
-0.0480374
0.000270951
0.000103452
-0.0237642
-0.000913303
-0.0413488
-0.00185894
0.00112062
0.108054
0.00138374
-0.000221001
-0.0417833
0.000461208
0.113338
-0.000260766
-0.0482682
0.00058483
-0.0165203
-0.040837
-0.000369973
-0.0015433
0.000229438
0.0028413
-0.00137886
-0.00200956
0.00155711
0.00162203
-0.00214654
-6.7605e-05
-0.000182395
0.00134064
0.00572134
-0.00362152
-0.00657303
-0.0146434
-0.00521683
-0.000667775
-0.00933246
-0.00367754
-0.00365466
-0.0150561
-0.00274002
0.00193458
-0.00303066
0.00695414
-0.000409267
0.00104545
-0.0105124
0.00315318
0.015805
0.00501959
0.00365471
-0.00470005
-0.0132508
-0.00769147
-0.00542638
-0.00331989
-0.0163668
0.00573004
0.000741308
-0.000331559
-0.0127329
-0.00562454
0.00214778
-0.000230064
-0.00024345
0.00312186
-0.0121669
-0.000654453
-0.0019765
-0.00426305
0.00460504
-0.00156826
-0.00102254
-0.00642759
-0.000771546
0.00688353
0.0078723
0.0021292
0.00187509
-0.0107208
-0.00808854
0.00376407
0.00113575
-0.0133848
-0.000802618
0.00361439
-0.00316489
-0.00506842
0.0039341
0.0024043
-0.00436509
-0.00382848
-0.00309382
0.00627028
-0.00401082
-0.00231689
-0.00225934
0.00753831
-0.00170134
0.00044355
-0.000261448
-0.00145362
-0.0145434
-0.002464
0.00195178
-0.0156367
0.000640026
0.000446279
0.00273871
-0.00708083
-0.0113045
-0.00181261
0.000998964
0.00335935
-0.00348906
0.00235301
-5.66286e-05
0.00214839
0.00206653
-0.00498669
-0.0173667
0.00198404
-0.0173831
0.00236013
0.00250533
-0.0177408
-0.0117564
-0.00169644
0.00323387
-0.0127125
0.000939189
0.000457971
-0.000114286
-0.00957876
-0.0101075
0.00789051
0.00102134
0.000608265
0.00647822
0.000136428
0.00214036
0.000512299
0.00737342
0.00053146
-0.0133306
0.00293103
-0.0129735
0.00213186
0.00225018
-0.0122052
-0.00144136
0.000302918
-0.00193327
0.000937481
-0.00167218
-0.00984811
0.00865008
-0.000216676
0.011795
-8.60872e-05
0.00116343
0.0163162
0.00124194
0.00327713
0.00669099
0.0150085
0.00255453
-0.00674939
-0.0108346
0.0141086
0.000218911
0.000661373
-0.00250917
0.00195762
-0.00194984
0.00149462
0.0052762
-0.00230655
-0.00508944
0.00142699
0.00188945
0.000572862
-0.00124405
0.0145679
0.00221224
-0.0152881
0.0140895
0.00188881
0.00139764
0.0127457
2.19041e-06
-0.00916457
-0.0103538
0.011855
0.00140102
0.000129852
-0.00134435
0.00240852
-0.00340414
0.000908849
0.00745742
0.000291271
-0.00271868
0.000337896
0.00225078
0.000362176
-0.00108434
0.0108719
0.00268638
-0.0104405
0.0111989
0.00188868
0.0022244
0.00203937
-0.00151688
-0.00970717
0.00126295
0.000890373
0.000494167
-0.00958695
0.00098712
0.0145185
-0.00620437
-0.00026368
-0.000543062
-0.00372924
0.00740032
-0.00211249
-0.00359625
0.00264003
0.000945582
0.00399834
0.00268195
-0.0102932
0.00230722
-0.00915946
0.000303848
-0.00135694
0.00368492
0.0011079
0.000329288
0.00153415
-0.000640262
0.001733
0.0104315
-0.0117822
0.0162723
-0.00550626
0.000347001
-0.00201446
0.00210645
0.000845161
0.00571181
0.00245321
-0.0204708
0.00165497
-0.0154643
0.000684486
-0.00113438
0.0062335
0.00183071
0.000336867
0.00249059
-0.000625053
0.00611591
0.00750707
-0.0204192
0.0118407
-0.0094987
0.0011246
-0.00405552
0.00125209
0.00364255
0.00962212
0.00601214
-0.0401552
0.00197013
-0.0175192
-0.00389587
-0.00338709
0.0147614
-0.00719685
0.000653408
0.0111391
0.00132294
0.0140727
0.00865954
-0.0324624
0.00278038
-0.0029632
0.0126294
0.016719
0.0106495
-0.0236908
-0.00390524
0.0154502
-0.0348991
0.0145709
-0.0359468
-0.00676285
-0.00123469
0.0334494
-0.00718331
0.00477804
0.0222852
0.00287868
0.0186248
0.0107194
-0.0444144
0.0137751
-0.00123204
0.0292914
0.00782211
0.00629704
-0.0378016
0.00497714
0.00696313
-0.0390098
0.00733399
-0.038298
0.0136472
-0.00433632
0.0304357
0.0145647
-0.00325982
0.0315947
0.00121018
0.0393161
-0.00408541
-0.0446654
0.00203625
-0.0106106
0.0325418
0.00094229
0.0146283
-7.53369e-05
0.0157646
0.0150891
0.00566189
-0.0245401
0.00587617
-0.0232687
-0.0218047
-0.0186151
-0.0136031
-0.00402115
0.00237898
-0.00967339
0.00394468
0.00275834
-0.0107355
0.00267176
0.00126169
-0.00285622
-0.000677459
0.000913515
-0.00199301
0.000251989
0.00163346
-0.00159258
0.0022606
-0.0185573
0.00014297
-0.0118356
-0.00646378
-0.0134215
-0.00527222
0.00157672
-0.0161013
0.00203546
0.00212954
-0.0201932
0.00211814
0.00116647
-0.00239665
-0.000608229
0.00600921
-0.00262371
0.000467475
0.00351228
-0.00127036
0.00301574
-0.0134233
0.000755298
-0.00878017
-0.0106354
-0.023468
-0.00823153
0.00192046
-0.0196557
0.0040041
0.00537738
-0.0378277
0.0013401
0.00382166
0.00925618
0.00135198
0.0136271
0.00411707
0.00090311
0.0131064
-0.00400895
0.0124778
-0.00386534
0.0126673
-0.00970022
-0.00389387
-0.0371735
0.00180413
0.0152246
-0.0366687
-0.0167857
0.0158856
-0.035127
0.0110836
-0.024015
0.00608009
0.00246951
0.0203258
0.00800913
0.00388124
0.0232038
-0.00174219
0.0333571
-0.0153799
0.0305374
-0.0072529
-0.00812583
-0.0461542
-0.00495912
0.00752361
-0.0391938
-0.00783185
0.00749091
-0.0397079
0.006766
-0.0385755
-0.0137529
0.00134717
0.0402644
-0.0116633
-0.00317725
0.0318018
-0.00313487
0.0316184
-0.00183354
0.0337215
0.00431999
-0.0174508
-0.0449566
1.03428e-05
0.0148957
-0.000850736
0.0157455
0.0146205
-0.00504807
-0.0206394
-0.00475829
-0.0219865
-0.0231783
0.0158192
0.0162313
)
;

boundaryField
{
    fuel
    {
        type            calculated;
        value           nonuniform List<scalar> 
36
(
0.000127928
0.000211433
0.000127928
0.000127928
0.000211433
0.000127928
0.000127928
0.000211433
0.000127928
-0.000127928
-0.000211432
-0.000127928
-0.000127928
-0.000211432
-0.000127928
-0.000127928
-0.000211432
-0.000127928
0
0
0
0
0
0
0
0
0
0
0
0
0
0
0
0
0
0
)
;
    }
    primary_air
    {
        type            calculated;
        value           nonuniform List<scalar> 9(-0.00319415 -0.00527766 -0.00319159 -0.00319518 -0.00527849 -0.00319245 -0.00319534 -0.00527983 -0.00319284);
    }
    Secondary_air_RHS
    {
        type            calculated;
        value           nonuniform List<scalar> 9(0.00525279 0.00845396 0.00525668 0.00524249 0.00842507 0.00524725 0.0052379 0.00844518 0.00524489);
    }
    Secondary_air_LHS
    {
        type            calculated;
        value           nonuniform List<scalar> 9(0.00525011 0.00843505 0.00524517 0.00523948 0.00840594 0.00523436 0.00523518 0.00842614 0.00522965);
    }
    outlet
    {
        type            calculated;
        value           nonuniform List<scalar> 
18
(
-0.0540833
0.0808749
-0.00273136
-0.0545757
0.0692728
-0.0398371
-0.0540317
0.0646838
-0.0518891
-0.0533547
0.0639514
-0.0505834
-0.0537381
0.0704216
-0.0388865
-0.0534432
0.0820945
-0.00286946
)
;
    }
    stove_body
    {
        type            calculated;
        value           uniform 0;
    }
    frontAndBack
    {
        type            empty;
        value           nonuniform 0();
    }
}


// ************************************************************************* //
