/*--------------------------------*- C++ -*----------------------------------*\
  =========                 |
  \\      /  F ield         | OpenFOAM: The Open Source CFD Toolbox
   \\    /   O peration     | Website:  https://openfoam.org
    \\  /    A nd           | Version:  6
     \\/     M anipulation  |
\*---------------------------------------------------------------------------*/
FoamFile
{
    version     2.0;
    format      ascii;
    class       volScalarField;
    location    "3.5";
    object      T;
}
// * * * * * * * * * * * * * * * * * * * * * * * * * * * * * * * * * * * * * //

dimensions      [0 0 0 1 0 0 0];

internalField   nonuniform List<scalar> 
297
(
291.153
291.147
291.153
293.007
293.006
293.005
291.153
291.147
291.153
291.191
291.195
291.172
293.482
293.39
293.345
291.191
291.195
291.172
291.47
291.427
291.499
294.391
297.444
320.676
291.47
291.428
291.499
325.02
324.957
309.701
302.03
309.153
297.236
324.482
320.843
306.257
351.648
337.118
352.44
330.652
319.284
324.419
348.784
344.246
351.982
351.732
328.484
364.188
335.607
336.732
334.839
348.531
332.751
364.664
335.001
322.975
340.986
354.118
352.077
358.386
332.245
324.863
339.549
329.89
322.86
333.281
354.132
356.103
358.249
323.415
324.613
340.248
320.117
314.185
325.216
354.104
335.011
353.784
312.039
316.383
326.771
352.905
322.73
364.642
342.728
349.503
347.079
349.449
325.758
361.887
346.243
321.627
351.817
347.265
349.544
349.239
343.061
324.918
349.02
340.715
321.554
348.104
352.005
349.827
356.219
337.759
324.878
345.277
307.554
309.242
313.544
335.907
320.946
353.687
304.921
305.992
307.741
302.79
304.832
310.466
307.896
319.339
351.559
302.067
304.836
305.366
302.558
303.186
306.181
309.075
317.476
335.13
303.2
304.876
305.25
305.467
302.524
303.094
337.446
304.714
304.334
301.141
300.137
299.645
309.387
304.294
305.2
349.492
345.926
335.062
305.146
301.832
301.535
307.342
304.741
306.755
334.755
334.637
334.374
305.392
303.405
308.269
301.766
301.549
305.643
311.918
331.882
331.919
299.095
301.564
303.1
302.096
301.811
302.955
314.104
315.771
307.904
300.737
301.258
301.984
302.491
302.431
302.795
310.739
308.584
308.285
302.473
301.841
302.213
302.505
301.92
301.639
302.617
304.329
303.461
297.813
298.794
298.125
302.795
301.458
301.127
302.726
304.017
303.943
297.514
300.021
299.764
302.783
301.342
300.818
302.912
306.057
308.648
297.143
301.137
302.53
301.355
301.161
300.119
301.018
305.342
306.034
296.862
302.274
301.299
298.168
297.963
297.004
300.179
302.858
304.373
293.912
294.951
297.116
291.588
291.393
290.663
291.212
288.666
285.67
290.457
290.157
299.009
302.663
303.198
303.174
304.13
304.365
303.764
299.533
300.392
300.095
302.42
303.09
303.398
305.316
304.409
303.87
300.655
300.968
299.516
301.856
302.722
304.141
327.164
314.709
305.737
307.851
301.397
298.661
300.975
300.93
302.685
315.171
311.58
303.279
303.51
300.948
298.061
294.359
297.924
296.369
311.824
307.148
301.962
299.625
295.749
292.709
290.76
291.522
291.604
289.578
290.509
291.989
301.696
291.48
290.811
)
;

boundaryField
{
    fuel
    {
        type            fixedValue;
        value           uniform 293;
    }
    primary_air
    {
        type            fixedValue;
        value           uniform 293;
    }
    Secondary_air_RHS
    {
        type            fixedValue;
        value           uniform 293;
    }
    Secondary_air_LHS
    {
        type            fixedValue;
        value           uniform 293;
    }
    outlet
    {
        type            inletOutlet;
        inletValue      uniform 293;
        value           nonuniform List<scalar> 
18
(
293
289.578
293
293
290.509
293
293
291.99
293
293
291.212
293
293
288.667
293
293
285.671
293
)
;
    }
    stove_body
    {
        type            fixedValue;
        value           uniform 293;
    }
    frontAndBack
    {
        type            empty;
    }
}


// ************************************************************************* //
