/*--------------------------------*- C++ -*----------------------------------*\
  =========                 |
  \\      /  F ield         | OpenFOAM: The Open Source CFD Toolbox
   \\    /   O peration     | Website:  https://openfoam.org
    \\  /    A nd           | Version:  6
     \\/     M anipulation  |
\*---------------------------------------------------------------------------*/
FoamFile
{
    version     2.0;
    format      ascii;
    class       volVectorField;
    location    "3.5";
    object      U;
}
// * * * * * * * * * * * * * * * * * * * * * * * * * * * * * * * * * * * * * //

dimensions      [0 1 -1 0 0 0 0];

internalField   nonuniform List<vector> 
297
(
(84.2917 -0.065927 0.245763)
(84.2519 -0.0170208 0.280777)
(84.293 0.0606324 0.222664)
(1.85545e-07 0.105545 0.322639)
(1.91239e-07 0.0418112 0.350992)
(1.90797e-07 -0.0743278 0.31977)
(-84.2916 -0.0659493 0.245781)
(-84.2519 -0.017025 0.280851)
(-84.293 0.060606 0.222673)
(84.2942 -0.074293 0.286627)
(84.2495 0.000420786 0.309813)
(84.2952 0.0475872 0.26891)
(1.74531e-07 0.11276 -0.180782)
(1.68945e-07 0.148633 -0.206525)
(1.83123e-07 -0.17681 0.10626)
(-84.2942 -0.0744095 0.286638)
(-84.2495 0.000424534 0.309786)
(-84.2952 0.0477466 0.268897)
(84.3759 -0.207061 0.58437)
(84.3604 -0.0487525 0.607468)
(84.4006 0.0794903 0.576506)
(1.48842e-07 -0.45186 0.429479)
(1.38494e-07 0.264323 0.41721)
(1.66379e-07 -0.128119 0.127276)
(-84.3759 -0.207121 0.584366)
(-84.3604 -0.04882 0.607457)
(-84.4007 0.0795191 0.576494)
(61.4881 2.65777 0.824708)
(61.7458 0.972901 -4.07435)
(58.3462 1.94568 -2.61901)
(-0.0103166 0.0633308 5.50538)
(-0.0113584 -0.454315 3.78741)
(-0.00987847 0.699345 4.09903)
(-61.4435 3.69102 0.732857)
(-60.6844 1.63247 -0.425566)
(-57.5152 0.832742 -1.92357)
(67.2178 9.5376 0.341508)
(64.4315 3.28197 -7.38549)
(67.3895 -2.86758 15.0834)
(-0.0154348 8.84967 35.2123)
(-0.0107955 0.23794 22.3681)
(-0.00674318 -3.84105 36.8074)
(-66.7214 11.4867 -1.20202)
(-65.7967 4.50028 -1.29328)
(-67.3733 0.146483 13.8914)
(66.36 10.8416 -9.17963)
(62.3864 -3.96577 -16.5046)
(68.7473 -12.3455 3.86115)
(-0.0156322 -3.65697 46.6187)
(-0.0140385 -2.03096 11.9465)
(-0.0098941 3.97013 49.0242)
(-65.8165 13.5872 -8.81453)
(-63.3009 -7.21008 -3.09575)
(-68.8604 -8.54436 6.97105)
(63.416 3.94337 -44.7521)
(61.4615 -1.58864 -29.474)
(64.6534 -2.83887 -39.2365)
(-0.0195506 -0.965731 5.84371)
(-0.0315135 1.87518 -9.45646)
(-0.0386276 0.220721 16.8799)
(-62.9584 6.54762 -44.8812)
(-61.9149 -0.518139 -25.2888)
(-65.003 5.6915 -31.1198)
(63.2124 13.9741 -28.4487)
(61.4648 -2.13353 -33.8513)
(63.8193 -12.9407 -23.6158)
(0.00257429 0.297676 1.19948)
(-0.0459847 0.325066 0.876591)
(-0.0213835 -1.71085 15.0432)
(-61.931 15.1878 -30.8702)
(-62.0075 -4.20391 -32.093)
(-65.4652 -5.69705 -18.3044)
(61.3218 25.8189 -32.995)
(59.9891 -1.15475 -33.9915)
(62.223 -25.3405 -29.6112)
(0.0177551 -1.65089 6.65771)
(-0.0305075 3.859 -9.10689)
(-0.0131091 1.04956 15.2657)
(-59.7982 18.6205 -30.6889)
(-60.4386 -14.9816 -27.2732)
(-62.5068 -20.1327 -21.0975)
(59.2984 14.6079 -42.3739)
(58.452 -2.46213 -20.0552)
(62.3294 -15.9213 -36.2655)
(-0.0145002 -2.49224 61.8269)
(-0.0269275 -2.41849 -22.2844)
(0.0117535 2.09553 64.7988)
(-58.7861 18.2228 -41.9888)
(-60.3236 -4.56971 -13.3514)
(-61.1077 -9.64678 -36.0308)
(56.9413 8.57696 -46.8776)
(59.9322 -1.92458 -21.4361)
(58.9502 -8.45386 -41.3406)
(-0.0125304 -2.08657 67.9805)
(-0.0278723 -1.93092 -22.8806)
(0.0117568 1.33864 71.4145)
(-56.4937 11.6887 -46.7251)
(-60.9338 -3.15815 -14.544)
(-60.3299 -3.01574 -40.5019)
(52.6115 6.8844 -46.497)
(61.1589 -2.09223 -23.5066)
(55.0253 -6.32744 -40.9829)
(-0.0128595 -1.61177 66.845)
(-0.0305564 -1.05332 -19.7059)
(0.0163686 0.602893 70.6992)
(-52.2191 9.77087 -46.4687)
(-61.7127 -2.80491 -17.9381)
(-61.8452 0.825839 -38.146)
(57.4693 38.4531 -8.51644)
(58.277 1.747 -10.0326)
(58.5596 -39.0958 -6.95369)
(-0.0221511 -8.05436 1.97374)
(-0.0244454 -4.77663 -5.85292)
(-0.0388473 6.936 13.5022)
(-57.5496 33.2074 -7.30736)
(-57.7622 -9.64158 -8.16407)
(-57.8878 -39.1036 -8.03827)
(57.2391 34.3536 -3.14748)
(57.8572 -0.201326 -5.80196)
(58.6914 -34.2627 -1.65798)
(-0.0248335 -0.260691 -3.16448)
(-0.025219 -5.63573 -3.36957)
(-0.0378302 7.01212 9.44437)
(-57.5105 25.3515 1.62781)
(-57.8456 -14.99 -0.815815)
(-58.1744 -32.4433 2.96426)
(57.6142 -1.39476 1.39183)
(57.8608 -9.57054 1.77423)
(58.3095 -12.5563 6.15622)
(-0.0293783 -9.26757 -1.67733)
(-0.0290821 -7.38182 -0.597613)
(-0.0365491 2.55093 2.27956)
(-57.8492 -8.65407 -2.91617)
(-58.108 -7.95594 1.61764)
(-58.3562 11.1556 -3.33665)
(55.6366 -41.8995 -3.38347)
(56.7011 -45.699 -10.7115)
(57.1701 -28.0599 -21.4439)
(-0.0962739 6.17524 7.71643)
(-0.120476 -5.48624 -7.88519)
(-0.212582 -7.8918 -10.8532)
(-56.5452 -45.9678 -3.79911)
(-55.7949 -50.4497 -8.06661)
(-55.5514 -54.5825 -8.9544)
(57.4853 -34.8035 3.6659)
(57.9352 -41.022 -6.40073)
(56.8118 -24.0669 -23.2832)
(-0.0630544 16.4743 4.58262)
(-0.0977812 15.8802 5.30884)
(-0.200008 9.33661 10.9742)
(-57.5107 -35.72 8.10793)
(-57.5215 -41.8028 7.30967)
(-57.4001 -44.2924 4.24332)
(58.3161 -11.6611 12.5248)
(58.2106 -4.41878 4.52538)
(56.8645 -21.6601 -31.9206)
(-0.0442547 15.42 -0.0100715)
(-0.0643124 18.5476 0.738929)
(-0.105915 30.5999 7.38683)
(-58.2001 -2.59893 7.59704)
(-58.0049 3.40437 9.17468)
(-58.4411 16.3831 12.7962)
(56.979 27.3911 -21.0423)
(56.4689 44.0146 -8.47546)
(55.6432 39.9799 -2.61406)
(-0.211875 1.39559 -2.37491)
(-0.133243 -10.9037 3.22157)
(-0.0942859 -11.6225 0.904786)
(-55.9397 47.4488 -7.39773)
(-56.5167 41.7173 -5.60509)
(-57.221 37.2657 -3.08041)
(56.37 25.3989 -22.1034)
(57.5245 39.6382 -7.55006)
(56.3799 35.7441 2.83666)
(-0.168469 -5.7395 8.88208)
(-0.0802016 -4.98919 0.434411)
(-0.0518787 -9.01826 -3.31425)
(-56.9429 37.1681 5.10833)
(-57.2291 32.7414 6.48299)
(-57.1427 29.8027 6.71411)
(56.2006 21.8833 -29.6063)
(57.6172 3.6968 7.84271)
(57.3544 11.1682 10.969)
(-0.0891559 -24.9156 8.76837)
(-0.0509486 -13.1588 1.99183)
(-0.0398977 -12.0796 -0.586728)
(-57.2415 -16.4135 10.1119)
(-57.5907 -7.58778 5.27434)
(-57.532 -2.40235 4.72476)
(56.6657 -8.01614 -11.791)
(56.4659 1.87436 -30.273)
(56.5175 20.5086 -27.0585)
(-0.023936 2.34601 -3.69449)
(-0.125989 -4.48628 -8.84315)
(-0.222783 9.66999 -7.96021)
(-55.0619 22.1463 -27.52)
(-54.5822 27.9067 -19.6838)
(-56.2841 45.9574 -14.5082)
(56.6778 -3.89242 8.60209)
(56.5766 6.66967 -37.3772)
(56.465 19.9586 -36.9639)
(-0.0895693 1.10801 13.4457)
(-0.198347 -1.64547 7.84708)
(-0.236764 8.12536 10.1884)
(-55.5726 5.66734 -49.211)
(-55.7246 18.6508 -25.6578)
(-57.151 36.2022 -2.86748)
(56.326 0.637883 3.92229)
(59.5335 6.5354 -45.9799)
(57.5055 11.6281 -46.4832)
(-0.167334 -1.38021 12.0821)
(-0.247097 -10.2738 8.49304)
(-0.226064 -18.7788 16.7928)
(-57.9141 3.90967 -64.9431)
(-56.2466 18.9954 -20.0604)
(-56.0171 -10.4194 21.1308)
(56.5902 5.35051 -11.2998)
(57.1802 3.07937 -64.265)
(56.7692 -8.004 -80.7868)
(-0.372168 0.887887 61.5997)
(-0.376129 -1.35923 34.4438)
(-0.383308 -12.0719 32.1951)
(-57.4272 -7.55445 -96.6186)
(-58.0258 9.99719 17.506)
(-57.959 -1.39879 62.5541)
(55.8085 1.11823 -124.379)
(55.8987 1.45565 -130.911)
(55.7051 6.9887 -127.603)
(-0.207199 3.25248 80.4484)
(-0.202143 4.77443 71.0403)
(-0.21121 1.16994 66.5348)
(-56.2451 1.86162 -129.427)
(-56.3284 -3.98598 -20.0326)
(-56.2765 1.43349 105.164)
(53.6111 0.153456 -157.675)
(53.6634 0.294019 -159.297)
(53.4235 -0.975838 -158.045)
(0.395132 -0.0689127 160.409)
(0.419595 2.09109 175.655)
(0.440363 0.68527 203.564)
(-52.7357 -7.07732 -148.185)
(-52.2515 -6.8453 -106.271)
(-53.5102 -2.95903 -4.05089)
(56.7301 -21.0031 -29.7833)
(56.7398 -2.02639 -32.5764)
(56.7229 8.99364 -12.8299)
(-0.212593 -10.6728 -11.0333)
(-0.0805247 -0.0340554 -10.0293)
(0.0430934 -4.19962 -7.4443)
(-56.3944 -52.9264 -17.856)
(-54.3949 -31.9105 -23.4834)
(-55.0607 -25.1661 -32.4752)
(56.6236 -19.8537 -38.6946)
(56.8262 -5.99759 -39.3817)
(56.6972 4.52399 9.88487)
(-0.244244 -8.48852 11.7713)
(-0.178744 -1.91937 9.34342)
(-0.0423218 -2.58488 11.8719)
(-57.3585 -41.5481 -4.92164)
(-55.5604 -21.8812 -29.9786)
(-55.6063 -7.03059 -55.5478)
(57.7547 -12.1569 -51.3185)
(59.6648 -2.54612 -48.0489)
(56.5732 -1.14455 4.96455)
(-0.249712 23.9574 16.1948)
(-0.244019 13.081 11.844)
(-0.136131 0.83504 5.51861)
(-57.1103 6.30258 22.5224)
(-56.0025 -20.7905 -21.8139)
(-58.2738 -3.86173 -71.2263)
(56.9647 8.36442 -83.8046)
(57.1694 -3.28557 -66.8545)
(56.8497 -5.93278 -12.9858)
(-0.402258 13.856 35.2016)
(-0.387635 1.02181 36.7319)
(-0.375337 -1.13612 59.4349)
(-58.3711 -0.189072 65.1769)
(-57.8434 -8.75372 23.3852)
(-57.7041 9.04383 -100.311)
(55.0812 -6.63788 -131.228)
(55.8019 -1.85563 -133.747)
(55.3333 -0.864693 -127.083)
(-0.239643 -0.379695 69.558)
(-0.224651 -4.62304 70.5367)
(-0.226416 -3.40636 83.2156)
(-56.7043 -3.47304 109.439)
(-56.4461 7.11039 -64.6964)
(-55.8047 -2.81191 -133.982)
(53.2948 0.77153 -160.488)
(53.5774 -0.207651 -162.609)
(53.466 -0.184758 -160.268)
(0.402139 -0.48765 203.396)
(0.369193 -1.7376 174.001)
(0.344726 -0.068838 162.933)
(-53.9511 2.46404 -3.3244)
(-52.4878 7.38337 -108.998)
(-52.7408 6.5684 -153.006)
)
;

boundaryField
{
    fuel
    {
        type            fixedValue;
        value           uniform (0 0 0.25);
    }
    primary_air
    {
        type            fixedValue;
        value           uniform (0 0 2.5);
    }
    Secondary_air_RHS
    {
        type            fixedValue;
        value           uniform (0 41.6667 0);
    }
    Secondary_air_LHS
    {
        type            fixedValue;
        value           uniform (0 -41.6667 0);
    }
    outlet
    {
        type            pressureInletOutletVelocity;
        value           nonuniform List<vector> 
18
(
(0 0 -160.488)
(0.402139 -0.48765 203.396)
(0 0 -3.3244)
(0 0 -162.609)
(0.369193 -1.7376 174.001)
(0 0 -108.998)
(0 0 -160.268)
(0.344726 -0.068838 162.933)
(0 0 -153.006)
(0 0 -157.675)
(0.395132 -0.0689127 160.409)
(0 0 -148.185)
(0 0 -159.297)
(0.419595 2.09109 175.655)
(0 0 -106.271)
(0 0 -158.045)
(0.440363 0.68527 203.564)
(0 0 -4.05089)
)
;
    }
    stove_body
    {
        type            noSlip;
    }
    frontAndBack
    {
        type            empty;
    }
}


// ************************************************************************* //
