/*--------------------------------*- C++ -*----------------------------------*\
  =========                 |
  \\      /  F ield         | OpenFOAM: The Open Source CFD Toolbox
   \\    /   O peration     | Website:  https://openfoam.org
    \\  /    A nd           | Version:  6
     \\/     M anipulation  |
\*---------------------------------------------------------------------------*/
FoamFile
{
    version     2.0;
    format      ascii;
    class       volScalarField;
    location    "2";
    object      O2;
}
// * * * * * * * * * * * * * * * * * * * * * * * * * * * * * * * * * * * * * //

dimensions      [0 0 0 0 0 0 0];

internalField   nonuniform List<scalar> 
297
(
0
0
0
0
0
0
0
0
0
0
0
0
0
0
0
0
0
0
0
0
0
0
0
0
0
0
0
0.102928
0.176744
0.109779
0.195334
0.218505
0.197916
0.102708
0.176821
0.110269
0
0.0491299
0
0.0399453
0.16552
0.0431016
0
0.0491521
0
0
0.0465631
0
0.0259992
0.0403427
0.0264841
0
0.0465741
0
0.00713168
0.0193112
0.00709152
0
0.00314371
0
0.00724328
0.0193056
0.00720763
4.21144e-07
3.84252e-07
7.72022e-07
1.10062e-06
3.09764e-07
2.17495e-06
4.24296e-07
3.85266e-07
7.76428e-07
7.11098e-12
1.54121e-11
1.91078e-11
1.9937e-11
1.27373e-11
4.06766e-11
7.1634e-12
1.54634e-11
1.91805e-11
0
0.0456906
0
0
0.00314449
0
0
0.0456985
0
0
0.0452658
0
0
0.00314394
0
0
0.045273
0
0
0.0438674
0
0
0.00314378
0
0
0.0438738
0
2.09555e-16
9.7306e-16
5.98654e-16
3.98729e-16
3.68325e-16
8.2857e-16
2.31959e-16
9.45832e-16
6.10621e-16
3.15483e-20
2.71336e-19
1.02287e-19
3.48912e-20
6.64109e-20
4.58712e-20
2.3121e-20
3.0265e-19
8.45011e-20
2.60663e-23
9.6256e-20
9.02698e-23
9.75016e-24
2.60324e-20
1.61862e-23
2.12718e-23
1.08303e-19
8.89349e-23
1.12332e-20
3.58179e-25
5.46978e-30
1.15306e-20
1.7566e-25
2.85436e-30
1.14558e-20
3.6531e-25
5.5793e-30
1.78391e-24
7.58165e-29
3.09616e-33
1.29349e-24
6.7451e-27
2.97306e-31
1.46845e-24
7.67413e-29
3.48443e-33
7.88158e-27
1.99949e-29
2.53631e-33
8.9064e-28
3.04379e-28
2.69906e-32
8.04095e-27
2.00962e-29
2.5447e-33
1.01851e-30
6.68275e-26
3.95735e-21
1.16792e-30
7.62279e-26
5.55522e-21
2.27913e-30
7.432e-26
4.38052e-21
1.14833e-33
2.1722e-29
5.75463e-25
1.19024e-31
2.86543e-27
8.20986e-25
1.65285e-33
3.46347e-29
8.2341e-25
1.43328e-33
3.87543e-30
2.17288e-27
1.85169e-32
6.15411e-29
4.87917e-28
1.50338e-33
6.28203e-30
1.85921e-27
1.12159e-43
1.7246e-39
4.51395e-35
6.36413e-43
3.49119e-39
3.12031e-35
7.40314e-43
7.33842e-39
1.01025e-34
2.76206e-46
2.40871e-42
5.53347e-38
8.95423e-45
8.19785e-41
2.42153e-36
2.21077e-45
3.23982e-42
7.30969e-38
2.14111e-46
7.01709e-43
3.05174e-38
5.0349e-45
2.13923e-41
4.84726e-37
1.88714e-45
9.41083e-43
3.50332e-38
2.4172e-46
2.72875e-45
1.37828e-43
7.79541e-45
4.76402e-41
9.10429e-40
1.74176e-45
8.77034e-45
2.88547e-43
1.06514e-47
3.83654e-46
7.74488e-45
1.31524e-42
4.83443e-41
8.8332e-40
1.08774e-47
5.72034e-46
7.88317e-45
2.14934e-48
8.00204e-47
1.49739e-45
6.34017e-43
2.2261e-41
4.21164e-40
3.69706e-48
1.42454e-46
2.64709e-45
1.29057e-34
9.24984e-39
9.39467e-43
7.68793e-35
3.84858e-39
9.09182e-43
2.44924e-34
9.70016e-39
9.91921e-43
1.25219e-37
5.35313e-42
6.88375e-46
5.98835e-36
1.91262e-40
1.66656e-44
1.42838e-37
5.03104e-42
3.69158e-45
6.37202e-38
1.4497e-42
6.21384e-46
7.26245e-37
2.60831e-41
6.51856e-45
6.09204e-38
1.58675e-42
3.63941e-45
2.65427e-43
8.37247e-45
8.12079e-46
2.67486e-40
2.27055e-41
8.20187e-45
4.41336e-43
2.73001e-44
3.76503e-45
2.13325e-45
2.93524e-46
6.73351e-48
3.00459e-40
3.13397e-41
1.10126e-42
3.42875e-45
3.10893e-46
9.87619e-48
6.58377e-46
6.1466e-47
1.92217e-48
1.7262e-40
1.63672e-41
5.50071e-43
1.25416e-45
1.15558e-46
3.42762e-48
)
;

boundaryField
{
    fuel
    {
        type            fixedValue;
        value           uniform 0;
    }
    primary_air
    {
        type            fixedValue;
        value           uniform 0.23;
    }
    Secondary_air_RHS
    {
        type            fixedValue;
        value           uniform 0.23;
    }
    Secondary_air_LHS
    {
        type            fixedValue;
        value           uniform 0.23;
    }
    outlet
    {
        type            inletOutlet;
        inletValue      uniform 0;
        value           nonuniform List<scalar> 
18
(
0
1.7262e-40
0
0
1.63672e-41
0
0
5.50071e-43
0
0
6.34017e-43
0
0
2.2261e-41
0
0
4.21164e-40
0
)
;
    }
    stove_body
    {
        type            fixedValue;
        value           uniform 0;
    }
    frontAndBack
    {
        type            empty;
    }
}


// ************************************************************************* //
