/*--------------------------------*- C++ -*----------------------------------*\
  =========                 |
  \\      /  F ield         | OpenFOAM: The Open Source CFD Toolbox
   \\    /   O peration     | Website:  https://openfoam.org
    \\  /    A nd           | Version:  6
     \\/     M anipulation  |
\*---------------------------------------------------------------------------*/
FoamFile
{
    version     2.0;
    format      ascii;
    class       volScalarField;
    location    "2";
    object      Qdot;
}
// * * * * * * * * * * * * * * * * * * * * * * * * * * * * * * * * * * * * * //

dimensions      [1 -1 -3 0 0 0 0];

internalField   nonuniform List<scalar> 
297
(
0
-0.000218663
-0.000362857
-0.000437325
0
-0.000437325
-0.000144194
0
-0.000144194
0
0
0
0
-0.000437325
0
0
0
0
0
0
5.26352e-10
0
-0.000181429
0
0
0
5.26352e-10
0
0
0
0
0
0
0
-7.73714e-11
5.26352e-10
0
0
0
0
0
0
0
0
0
0
-9.67142e-12
0
-9.67142e-12
0
-9.67142e-12
0
0
0
0
0
0
5.26352e-10
0
0
0
0
5.26352e-10
0
0
1.0527e-09
0
0
0
-2.95148e-16
0
1.0527e-09
0
0
0
0
0
0
0
0
0
0
0
2.63176e-10
0
-2.41786e-12
0
0
0
0
0
-9.67142e-12
0
5.26352e-10
0
0
0
0
0
0
0
0
0
-2.41786e-12
0
0
0
0
0
0
-1.09951e-24
0
0
-2.19903e-24
4.21081e-09
0
0
0
4.21081e-09
0
0
0
0
0
0
0
0
-1.34218e-28
0
0
0
0
0
4.21081e-09
-1.31072e-31
0
0
0
0
0
-7.81251e-39
-1.67772e-29
0
0
0
0
0
0
-1.6e-35
-9.76564e-40
0
0
4.21081e-09
4.21081e-09
0
-3.8147e-42
0
0
0
0
0
0
0
4.21081e-09
4.21081e-09
-3.90626e-39
0
0
-3.90626e-39
-1.28e-34
0
-1.90735e-42
0
-1.024e-33
0
-8.00001e-36
-2.048e-33
0
4.21081e-09
4.21081e-09
0
-7.81251e-39
0
0
0
0
0
0
0
0
0
4.21081e-09
-1.77636e-51
0
0
0
4.21081e-09
0
0
-3.55272e-51
0
0
-2.27374e-49
0
0
0
0
4.21081e-09
0
-5.82078e-47
0
0
0
-3.46945e-54
0
0
0
0
-2.22045e-52
0
0
0
0
0
-4.4409e-52
0
0
0
-3.55272e-51
4.21081e-09
0
0
-8.67363e-55
0
0
-1.0842e-55
0
4.21081e-09
-5.68435e-50
4.21081e-09
0
-2.16841e-55
-3.46945e-54
-2.38419e-43
0
-1.77636e-51
-2.38419e-43
0
0
-4.76838e-43
4.21081e-09
4.21081e-09
0
0
4.21081e-09
0
0
0
-2.32831e-46
0
0
0
0
4.21081e-09
0
0
0
4.21081e-09
4.21081e-09
0
0
0
-1.73473e-54
0
-5.68435e-50
0
0
0
0
0
0
-1.35526e-56
0
0
0
0
0
-1.35526e-56
0
0
-3.38814e-57
4.21081e-09
0
0
-1.73473e-54
0
0
)
;

boundaryField
{
    fuel
    {
        type            calculated;
        value           uniform 0;
    }
    primary_air
    {
        type            calculated;
        value           uniform 0;
    }
    Secondary_air_RHS
    {
        type            calculated;
        value           uniform 0;
    }
    Secondary_air_LHS
    {
        type            calculated;
        value           uniform 0;
    }
    outlet
    {
        type            calculated;
        value           uniform 0;
    }
    stove_body
    {
        type            calculated;
        value           uniform 0;
    }
    frontAndBack
    {
        type            empty;
    }
}


// ************************************************************************* //
