/*--------------------------------*- C++ -*----------------------------------*\
  =========                 |
  \\      /  F ield         | OpenFOAM: The Open Source CFD Toolbox
   \\    /   O peration     | Website:  https://openfoam.org
    \\  /    A nd           | Version:  6
     \\/     M anipulation  |
\*---------------------------------------------------------------------------*/
FoamFile
{
    version     2.0;
    format      ascii;
    class       volScalarField;
    location    "2";
    object      T;
}
// * * * * * * * * * * * * * * * * * * * * * * * * * * * * * * * * * * * * * //

dimensions      [0 0 0 1 0 0 0];

internalField   nonuniform List<scalar> 
297
(
292.876
292.874
292.876
292.885
292.958
292.886
292.876
292.874
292.876
292.873
292.874
292.875
293.11
293.62
293.121
292.873
292.874
292.875
291.888
292.515
291.958
322.76
366.051
324.476
291.894
292.515
291.958
1987.59
1078.54
2002.18
809.885
477.333
801.057
1990.26
1079.31
2005.43
3197.37
2692.14
3384.38
2717.31
1227.45
2837.73
3197.28
2698.28
3402.17
3199.85
2434.5
3387.45
2176.57
1087.6
2256.63
3199.77
2439.38
3405.25
1936.79
1382.63
2037.23
3397.37
1035.95
3441.26
1937.39
1384.47
2038.47
901.253
549.857
1090.3
2030.78
969.853
2095.26
900.427
549.934
1090.17
301.615
301.736
301.676
301.807
301.609
301.862
301.68
301.738
301.705
3106.05
2377.58
3286.41
2451.51
1034.6
2538.98
3099.76
2382.38
3309.81
2571.28
2363.38
2513.76
2646.11
1034.18
2937.79
2571.69
2368.1
2524.81
2206.63
2331.07
2316.6
3389.89
1035.05
3504.69
2207.21
2335.64
2326.23
301.399
301.98
301.423
301.692
301.973
301.707
301.463
301.973
301.468
301.767
301.903
301.829
301.866
302.011
301.902
301.789
301.913
301.838
301.866
301.83
301.913
302.081
302.053
302.117
301.885
301.841
301.905
301.341
301.391
301.507
301.592
301.619
301.713
301.378
301.43
301.547
301.774
301.691
301.716
301.825
301.832
301.893
301.786
301.703
301.733
301.985
301.92
301.797
302.115
302.106
302.107
301.98
301.917
301.796
301.469
301.344
301.302
301.721
301.635
301.606
301.527
301.413
301.368
301.687
301.664
301.758
301.873
301.82
301.814
301.705
301.682
301.776
301.747
301.884
301.952
302.074
302.082
302.099
301.761
301.898
301.968
301.794
301.788
301.596
302.055
301.995
301.842
301.878
301.865
301.648
301.774
301.773
301.62
302.163
302.094
301.986
301.832
301.808
301.64
301.693
301.623
301.563
302.221
302.139
302.117
301.745
301.644
301.578
301.596
301.496
301.472
302.39
302.098
302.22
301.637
301.497
301.478
298.773
298.666
298.832
300.008
299.903
300.928
298.767
298.666
298.812
292.045
292.058
292.093
288.782
288.812
289.108
292.044
292.058
292.092
301.628
301.836
301.837
301.846
301.998
302.064
301.677
301.9
301.919
301.65
301.807
301.798
302.019
302.136
302.213
301.677
301.851
301.881
301.623
301.671
301.708
302.165
302.193
302.293
301.625
301.693
301.79
301.524
301.547
301.604
302.285
302.154
302.483
301.522
301.545
301.679
298.826
298.677
298.77
301.019
299.991
300.065
298.828
298.657
298.78
292.097
292.062
292.048
289.063
288.864
288.822
292.098
292.063
292.048
)
;

boundaryField
{
    fuel
    {
        type            fixedValue;
        value           uniform 293;
    }
    primary_air
    {
        type            fixedValue;
        value           uniform 293;
    }
    Secondary_air_RHS
    {
        type            fixedValue;
        value           uniform 293;
    }
    Secondary_air_LHS
    {
        type            fixedValue;
        value           uniform 293;
    }
    outlet
    {
        type            inletOutlet;
        inletValue      uniform 293;
        value           nonuniform List<scalar> 
18
(
293
289.063
293
293
288.864
293
293
288.822
293
293
288.782
293
293
288.812
293
293
289.108
293
)
;
    }
    stove_body
    {
        type            fixedValue;
        value           uniform 293;
    }
    frontAndBack
    {
        type            empty;
    }
}


// ************************************************************************* //
