/*--------------------------------*- C++ -*----------------------------------*\
  =========                 |
  \\      /  F ield         | OpenFOAM: The Open Source CFD Toolbox
   \\    /   O peration     | Website:  https://openfoam.org
    \\  /    A nd           | Version:  6
     \\/     M anipulation  |
\*---------------------------------------------------------------------------*/
FoamFile
{
    version     2.0;
    format      ascii;
    class       volVectorField;
    location    "2";
    object      U;
}
// * * * * * * * * * * * * * * * * * * * * * * * * * * * * * * * * * * * * * //

dimensions      [0 1 -1 0 0 0 0];

internalField   nonuniform List<vector> 
297
(
(12.4113 -0.00526533 0.271942)
(12.4113 -0.000232163 0.267765)
(12.4113 0.00504068 0.271611)
(9.31821e-09 0.00328986 0.251447)
(8.83529e-09 0.00037311 0.245231)
(8.54679e-09 -0.00286116 0.251244)
(-12.4113 -0.00525287 0.271925)
(-12.4113 -0.000213118 0.267762)
(-12.4113 0.00504717 0.271611)
(12.4109 -0.00966084 0.296422)
(12.4112 -0.000281889 0.282381)
(12.411 0.00930579 0.296383)
(9.54035e-09 0.00209499 0.0702236)
(8.89181e-09 0.000721642 0.189051)
(8.5607e-09 -0.000886363 0.0736108)
(-12.4109 -0.00963434 0.296421)
(-12.4112 -0.000253691 0.282377)
(-12.411 0.00931823 0.296375)
(11.3405 -0.042558 0.439581)
(12.3969 -0.00253374 0.448265)
(11.4333 0.0411682 0.440576)
(6.82555e-09 -0.0439495 0.229441)
(8.89623e-09 0.00363726 -0.0735978)
(6.38479e-09 0.0433653 0.22859)
(-11.3508 -0.0425092 0.439726)
(-12.3969 -0.00238209 0.448255)
(-11.4303 0.0412022 0.440515)
(54.967 -7.04719 12.5692)
(29.5846 0.456713 16.8774)
(55.3324 7.19898 10.5505)
(3.63994e-05 -0.800774 16.7714)
(3.0341e-06 0.237403 10.306)
(-3.91591e-05 0.400633 16.0191)
(-55.0417 -7.10008 12.4756)
(-29.6053 0.552419 16.8653)
(-55.4193 7.12424 10.6032)
(89.1382 -34.8442 51.9272)
(75.1175 1.95725 126.991)
(94.3228 36.2565 59.2531)
(0.000398384 8.06571 210.255)
(5.07809e-05 -1.06561 130.554)
(-9.48694e-05 -6.96731 212.997)
(-89.1348 -34.9587 51.8227)
(-75.2873 1.8618 127.14)
(-94.8167 36.1535 59.8077)
(87.239 -88.0708 -50.6066)
(68.3676 -1.15479 167.016)
(92.2687 98.9157 -42.0246)
(0.000506982 -59.9263 269.992)
(1.88716e-06 1.314 -23.378)
(-0.000264307 60.8176 279.75)
(-87.2334 -88.2298 -50.3251)
(-68.5044 -0.810576 167.239)
(-92.7524 99.0785 -42.2735)
(54.8106 -55.4102 -213.002)
(38.1085 -3.55844 -28.6176)
(57.7255 63.6043 -217.522)
(-0.000616939 -106.413 -23.5675)
(4.3551e-05 0.772111 -120.647)
(0.0013556 114.615 -24.2675)
(-54.8278 -55.411 -213.066)
(-38.1586 -3.71104 -28.6576)
(-57.7579 63.5831 -217.748)
(25.2928 46.0363 -132.309)
(15.3612 -8.55986 -89.6934)
(30.5938 -38.1043 -140.414)
(-3.89363e-06 -0.927035 -115.317)
(2.03978e-05 6.47482 -100.479)
(0.000104208 7.53592 -121.861)
(-25.2697 46.0341 -132.329)
(-15.3633 -8.58898 -89.6855)
(-30.5901 -38.0983 -140.29)
(8.46686 23.1751 -21.1411)
(8.46796 -8.6315 -16.7764)
(8.47044 -22.0287 -21.5105)
(-2.90834e-05 20.5943 -19.5581)
(-1.30785e-05 7.88304 -22.1001)
(2.42349e-06 -16.547 -18.1615)
(-8.46877 23.15 -21.134)
(-8.46806 -8.6357 -16.7708)
(-8.47124 -22.0356 -21.5044)
(77.0799 -85.6941 -516.214)
(65.2792 -5.34695 211.632)
(80.4362 100.802 -519.897)
(-0.00478109 -80.6395 401.919)
(-5.79142e-05 5.45629 -151.07)
(-0.00111366 85.4996 423.242)
(-76.9603 -85.9102 -516.19)
(-65.4092 -5.31734 211.855)
(-80.958 100.916 -521.75)
(69.0582 -64.0429 -412.066)
(59.2352 -5.46253 206.696)
(66.7659 75.3132 -414.369)
(-0.00508823 -76.4098 454.595)
(-6.05083e-05 4.86301 -152.739)
(-0.00111792 80.0852 482.624)
(-69.097 -64.126 -412.291)
(-59.3473 -5.4604 206.911)
(-67.0373 75.3312 -415.418)
(61.7796 -68.3477 -358.213)
(59.538 -4.88606 189.26)
(64.3438 78.912 -360.557)
(-0.00458282 -107.533 500.498)
(-6.42333e-05 3.73926 -143.572)
(-0.000990739 117.704 529.993)
(-61.8105 -68.494 -358.413)
(-59.6494 -4.91066 189.445)
(-64.6147 78.8985 -361.338)
(8.4342 36.5808 -10.3723)
(8.46024 1.66625 -10.3762)
(8.43507 -36.7939 -10.5866)
(-4.0021e-05 28.3923 -11.2153)
(-2.48365e-05 -3.06897 -11.2214)
(-1.52207e-05 -28.9224 -10.4437)
(-8.43609 36.5719 -10.3699)
(-8.46015 1.6653 -10.3734)
(-8.43637 -36.8181 -10.5813)
(8.4672 19.8036 -3.92725)
(8.47846 -2.10869 -2.00058)
(8.46861 -19.5047 -3.92869)
(-4.33404e-05 19.0709 -4.81851)
(-2.6374e-05 0.546358 -5.55525)
(-1.87206e-05 -19.5439 -4.5045)
(-8.46794 19.8038 -3.93043)
(-8.47881 -2.09463 -1.99551)
(-8.46891 -19.5034 -3.91791)
(8.47846 -0.713251 -4.94139)
(8.4799 0.582008 0.444647)
(8.47986 1.17259 -5.13344)
(-4.46364e-05 9.13359 -2.74881)
(-2.79562e-05 -1.85264 -2.18149)
(-2.0546e-05 -9.26544 -2.31448)
(-8.47911 -0.70982 -4.93811)
(-8.4803 0.575944 0.443649)
(-8.47971 1.19377 -5.13009)
(8.4302 -39.5504 -4.56393)
(8.45397 -35.2817 -6.71693)
(8.44471 -30.7167 -9.15492)
(-2.98158e-05 -31.5766 -3.93292)
(-2.21503e-05 -29.2231 -3.87724)
(-1.17723e-05 -24.6758 -4.14912)
(-8.43132 -39.5744 -4.57052)
(-8.45511 -35.2724 -6.72848)
(-8.44585 -30.6598 -9.16621)
(8.45572 -29.9319 -2.30134)
(8.46936 -30.9427 -7.70472)
(8.44256 -27.3397 -14.1934)
(-3.13618e-05 -26.2497 0.229098)
(-2.9412e-05 -26.1245 1.29257)
(-2.15922e-05 -21.7631 2.16377)
(-8.45613 -29.947 -2.29952)
(-8.4698 -30.9559 -7.72228)
(-8.44292 -27.3246 -14.2352)
(8.48339 -5.98601 -4.25093)
(8.48076 -16.7018 -12.7518)
(8.44879 -23.5041 -19.9558)
(-3.04395e-05 -15.284 2.26453)
(-3.3273e-05 -16.0377 3.25371)
(-4.12157e-05 -16.436 3.37049)
(-8.48334 -5.95867 -4.2422)
(-8.48077 -16.6461 -12.7368)
(-8.44884 -23.4941 -20.0009)
(8.44335 30.5225 -9.18214)
(8.45307 35.8089 -6.5619)
(8.42952 39.3895 -4.47145)
(-1.91814e-05 24.7194 -4.11172)
(-2.71787e-05 29.3045 -3.72076)
(-3.27069e-05 31.4246 -3.78865)
(-8.44501 30.5253 -9.17514)
(-8.4551 35.8079 -6.55562)
(-8.43144 39.3822 -4.46806)
(8.43951 26.8805 -14.2945)
(8.46914 30.926 -7.36171)
(8.45667 29.5366 -2.11697)
(-1.35421e-05 21.6616 2.06424)
(-2.43844e-05 26.0171 1.13281)
(-3.23822e-05 26.0668 -0.0570995)
(-8.44008 26.88 -14.2907)
(-8.46972 30.924 -7.3587)
(-8.45728 29.5325 -2.11763)
(8.44969 23.4881 -20.8241)
(8.48227 17.1178 -12.709)
(8.4827 6.08446 -4.66552)
(-7.40224e-06 16.6431 2.95926)
(-2.26789e-05 15.9669 3.2243)
(-3.31298e-05 14.9819 2.48018)
(-8.45012 23.4922 -20.8237)
(-8.48276 17.13 -12.7124)
(-8.48325 6.09169 -4.66553)
(8.42892 9.44427 -15.7423)
(8.42849 13.8846 -11.4911)
(8.43502 21.5553 -13.2997)
(-8.98465e-08 7.94225 -7.82398)
(-2.13514e-06 12.42 -4.37745)
(-8.30031e-06 18.0309 -5.13169)
(-8.43123 9.44786 -15.7444)
(-8.43066 13.8872 -11.4918)
(-8.43651 21.5544 -13.2966)
(8.43283 3.92675 -22.1727)
(8.43651 11.9814 -17.2689)
(8.43131 22.0278 -21.8186)
(3.51202e-07 5.71845 -4.9387)
(1.55081e-06 9.58015 -1.15379)
(-3.12953e-07 16.8059 -1.36862)
(-8.43444 3.93051 -22.1716)
(-8.43745 11.9747 -17.2674)
(-8.43188 22.0214 -21.8171)
(8.46241 2.87925 -26.8077)
(8.44149 13.7274 -25.9595)
(8.4372 14.2121 -32.1868)
(5.57232e-06 4.54356 -7.76271)
(1.26898e-05 10.2542 -4.6263)
(8.58256e-06 13.5078 -1.07105)
(-8.46371 2.89032 -26.7995)
(-8.44212 13.6937 -25.9367)
(-8.43776 14.2152 -32.1913)
(8.45076 -2.48928 -43.8907)
(8.4472 -1.81754 -44.9697)
(8.45215 -10.0306 -49.3371)
(4.28254e-05 -2.73182 17.4002)
(4.64429e-05 3.25985 21.5958)
(4.90443e-05 -9.76708 19.0152)
(-8.45179 -2.49226 -43.8762)
(-8.4471 -1.81091 -44.9678)
(-8.45217 -10.0348 -49.3643)
(8.3522 1.18133 -111.452)
(8.34799 -1.01137 -113.638)
(8.35066 4.6415 -110.488)
(1.14761e-05 -0.752704 61.3807)
(1.14526e-05 0.96491 63.1744)
(1.17525e-05 -1.67283 60.1122)
(-8.35199 1.18192 -111.446)
(-8.34795 -1.00835 -113.632)
(-8.35006 4.64305 -110.484)
(8.00643 -0.00140958 -149.484)
(8.00674 -0.0568903 -149.473)
(8.00755 -0.0701373 -149.282)
(-6.68522e-06 -0.305991 180.387)
(-7.19126e-06 0.356597 180.175)
(-7.79675e-06 -0.534557 178.985)
(-8.00643 -0.00126458 -149.485)
(-8.00675 -0.0565355 -149.473)
(-8.00757 -0.0699024 -149.282)
(8.43652 -22.3229 -12.927)
(8.42946 -13.9559 -11.3299)
(8.42928 -9.35412 -15.5624)
(-3.04768e-05 -18.7881 -5.06211)
(-4.8648e-05 -12.4759 -4.3018)
(-4.56307e-05 -7.47672 -7.85539)
(-8.43798 -22.3092 -12.9338)
(-8.43142 -13.9301 -11.3138)
(-8.43172 -9.30761 -15.5557)
(8.43565 -22.9192 -21.6853)
(8.43628 -12.8194 -18.0761)
(8.43215 -4.31891 -22.8724)
(-2.20778e-05 -17.593 -1.29386)
(-2.9365e-05 -10.0371 -1.38328)
(-2.52205e-05 -5.33703 -5.27945)
(-8.43629 -22.9252 -21.6816)
(-8.43756 -12.8243 -18.0189)
(-8.43456 -4.2406 -22.8072)
(8.43945 -15.1942 -30.8832)
(8.43877 -14.5933 -26.6036)
(8.46035 -3.80529 -27.9903)
(-1.85759e-05 -14.0349 0.553915)
(-1.24747e-05 -10.9747 -5.16196)
(-1.18508e-05 -4.65931 -8.51319)
(-8.43876 -15.1631 -30.9428)
(-8.4387 -14.6211 -26.573)
(-8.4628 -3.74261 -27.9353)
(8.45387 9.69456 -48.0361)
(8.45126 3.30178 -44.7321)
(8.45425 1.89692 -44.861)
(-1.3562e-05 9.48961 19.9223)
(-1.54448e-05 -2.93103 20.7783)
(-2.35818e-05 1.9406 16.5462)
(-8.45387 9.68461 -48.0039)
(-8.45125 3.29505 -44.764)
(-8.45642 1.82281 -44.8569)
(8.35045 -4.35786 -110.931)
(8.34841 0.666926 -113.845)
(8.35224 -0.622903 -111.724)
(-5.46715e-06 1.78927 60.142)
(-7.27625e-06 -0.931221 62.8071)
(-4.41674e-06 0.884278 61.3198)
(-8.35053 -4.35914 -110.92)
(-8.34788 0.671845 -113.835)
(-8.35252 -0.610439 -111.731)
(8.00775 0.0689164 -149.361)
(8.00687 0.0590427 -149.565)
(8.00652 0.00263746 -149.584)
(6.82359e-06 0.565331 178.654)
(7.03525e-06 -0.351468 180.128)
(7.15909e-06 0.336956 180.437)
(-8.00774 0.069164 -149.36)
(-8.00687 0.0595339 -149.564)
(-8.00651 0.00288694 -149.583)
)
;

boundaryField
{
    fuel
    {
        type            fixedValue;
        value           uniform (0 0 0.25);
    }
    primary_air
    {
        type            fixedValue;
        value           uniform (0 0 2.5);
    }
    Secondary_air_RHS
    {
        type            fixedValue;
        value           uniform (0 100 0);
    }
    Secondary_air_LHS
    {
        type            fixedValue;
        value           uniform (0 -100 0);
    }
    outlet
    {
        type            pressureInletOutletVelocity;
        value           nonuniform List<vector> 
18
(
(0 0 -149.361)
(6.82359e-06 0.565331 178.654)
(0 0 -149.36)
(0 0 -149.565)
(7.03525e-06 -0.351468 180.128)
(0 0 -149.564)
(0 0 -149.584)
(7.15909e-06 0.336956 180.437)
(0 0 -149.583)
(0 0 -149.484)
(-6.68522e-06 -0.305991 180.387)
(0 0 -149.485)
(0 0 -149.473)
(-7.19126e-06 0.356597 180.175)
(0 0 -149.473)
(0 0 -149.282)
(-7.79675e-06 -0.534557 178.985)
(0 0 -149.282)
)
;
    }
    stove_body
    {
        type            noSlip;
    }
    frontAndBack
    {
        type            empty;
    }
}


// ************************************************************************* //
