/*--------------------------------*- C++ -*----------------------------------*\
  =========                 |
  \\      /  F ield         | OpenFOAM: The Open Source CFD Toolbox
   \\    /   O peration     | Website:  https://openfoam.org
    \\  /    A nd           | Version:  6
     \\/     M anipulation  |
\*---------------------------------------------------------------------------*/
FoamFile
{
    version     2.0;
    format      ascii;
    class       volScalarField;
    location    "2";
    object      O2;
}
// * * * * * * * * * * * * * * * * * * * * * * * * * * * * * * * * * * * * * //

dimensions      [0 0 0 0 0 0 0];

internalField   nonuniform List<scalar> 
297
(
0
0
0
0
0
0
0
0
0
0
0
0
0
0
0
0
0
0
0
0
0
0
0
0
0
0
0
0.101093
0.138419
0.212824
0.180839
0.203954
0.226346
0.104351
0.142701
0.215283
0
0.0324652
0.0407048
0.0160514
0.148365
0.192589
0
0.0415712
0.0522763
0
0.0290486
0
0.014828
0.0256596
0.106464
0
0.0361563
0
0.00444692
0.0112263
0.00336475
0
0.00246362
0
0.00579777
0.0143066
0.00423775
9.12357e-07
3.2143e-07
9.10453e-08
1.64696e-06
7.7527e-08
3.79303e-09
1.07802e-06
4.83854e-07
1.01889e-07
4.73758e-11
1.28192e-11
1.603e-12
9.39769e-11
2.47585e-11
1.47022e-12
6.63398e-11
2.66594e-11
5.87712e-12
0
0.025312
0
0
0.00246444
0.0442669
0
0.0303599
0
0
0.0250155
0
0
0.00246388
0
0
0.0300074
0
0
0.0243607
0
0
0.00246376
0
0
0.0292388
0
1.99388e-15
7.21314e-16
5.54758e-17
2.47248e-15
8.4231e-16
3.72947e-17
2.369e-15
1.67364e-15
4.0059e-16
5.07261e-19
2.96811e-19
8.40355e-21
3.65517e-19
3.96834e-19
1.22917e-20
5.26167e-19
1.049e-18
2.4975e-19
3.8373e-20
7.78606e-20
1.40179e-22
1.78205e-20
2.20052e-19
2.32483e-20
1.04577e-19
1.05629e-18
1.04939e-18
1.34105e-21
4.70487e-26
3.20087e-30
8.51905e-22
1.07958e-23
2.19764e-26
1.56262e-20
2.30078e-22
4.26691e-25
4.18846e-24
3.26103e-26
2.10197e-29
1.29248e-22
1.14169e-22
3.97758e-27
3.48283e-20
2.06598e-21
7.81053e-25
1.24007e-22
2.05862e-25
6.24851e-29
3.74981e-21
4.80379e-24
8.85809e-28
9.17427e-19
1.84332e-20
1.22819e-24
1.99598e-29
9.99446e-25
4.70606e-20
1.87235e-29
8.46232e-25
4.46643e-20
4.04415e-29
1.06422e-24
5.26355e-20
5.19626e-32
9.45991e-28
2.03774e-23
1.75897e-30
3.30408e-26
6.40006e-24
7.73473e-32
1.25622e-27
1.96874e-23
4.31095e-32
5.31678e-28
5.64525e-24
3.33918e-31
1.35793e-27
1.84385e-24
7.54185e-32
1.45597e-27
1.22298e-23
8.65483e-38
1.37585e-37
1.26215e-33
2.02831e-37
1.96386e-37
7.49983e-34
2.6229e-37
2.63318e-37
2.41e-33
3.65981e-39
1.29932e-40
2.51294e-36
1.59161e-37
8.03718e-39
7.81212e-35
2.2737e-38
2.82117e-40
4.36419e-36
1.83802e-41
1.59254e-41
8.82995e-37
8.77504e-38
9.54679e-40
1.6709e-35
4.36936e-41
3.70988e-41
1.70356e-36
2.00681e-42
4.88268e-43
3.61819e-42
3.89365e-38
3.43454e-41
1.6627e-40
3.446e-42
1.01037e-42
1.26241e-41
2.62806e-43
6.55574e-44
1.17886e-44
2.0812e-38
3.21625e-39
3.91426e-40
2.0211e-43
6.37491e-44
7.39416e-45
3.44079e-44
6.75172e-45
8.40956e-46
9.82679e-39
1.88459e-39
2.41088e-40
6.18318e-44
1.2368e-44
1.51732e-45
4.44068e-34
2.74133e-37
1.19929e-37
5.47386e-30
8.77027e-33
8.11953e-33
8.92886e-29
2.37747e-32
1.99033e-32
1.67831e-33
1.33412e-37
1.1314e-38
1.47843e-30
2.36441e-33
2.73655e-33
4.24865e-29
5.56266e-33
9.1967e-33
1.80484e-33
4.77866e-38
3.52386e-40
3.10726e-30
4.32245e-34
4.80222e-35
3.26484e-29
1.83885e-33
1.86175e-34
1.74412e-38
1.13074e-39
1.59458e-40
1.3331e-34
1.06336e-35
2.04405e-36
2.58083e-34
4.33936e-38
2.14758e-39
4.38555e-40
5.93379e-41
1.40336e-41
6.05448e-35
4.50833e-36
1.55791e-36
1.0725e-39
4.40754e-41
1.94345e-41
8.25857e-41
7.21244e-42
2.81015e-42
2.43676e-35
2.00539e-36
7.64592e-37
1.50947e-40
1.33266e-41
5.43392e-42
)
;

boundaryField
{
    fuel
    {
        type            fixedValue;
        value           uniform 0;
    }
    primary_air
    {
        type            fixedValue;
        value           uniform 0.23;
    }
    Secondary_air_RHS
    {
        type            fixedValue;
        value           uniform 0.23;
    }
    Secondary_air_LHS
    {
        type            fixedValue;
        value           uniform 0.23;
    }
    outlet
    {
        type            inletOutlet;
        inletValue      uniform 0;
        value           nonuniform List<scalar> 
18
(
0
2.43676e-35
0
0
2.00539e-36
0
0
7.64592e-37
0
0
9.82679e-39
0
0
1.88459e-39
0
0
2.41088e-40
0
)
;
    }
    stove_body
    {
        type            fixedValue;
        value           uniform 0;
    }
    frontAndBack
    {
        type            empty;
    }
}


// ************************************************************************* //
