/*--------------------------------*- C++ -*----------------------------------*\
  =========                 |
  \\      /  F ield         | OpenFOAM: The Open Source CFD Toolbox
   \\    /   O peration     | Website:  https://openfoam.org
    \\  /    A nd           | Version:  6
     \\/     M anipulation  |
\*---------------------------------------------------------------------------*/
FoamFile
{
    version     2.0;
    format      ascii;
    class       volScalarField;
    location    "2";
    object      p;
}
// * * * * * * * * * * * * * * * * * * * * * * * * * * * * * * * * * * * * * //

dimensions      [1 -1 -2 0 0 0 0];

internalField   nonuniform List<scalar> 
297
(
117163
117163
117163
195231
195231
195231
117163
117163
117163
117163
117163
117163
195231
195231
195231
117163
117163
117163
117163
117163
117163
195231
195231
195231
117163
117163
117163
98058.7
97871.7
97845.8
162938
162833
162894
98041.4
97856.5
97829.7
98536.6
97628
97642
162652
162493
162306
98523.7
97618.3
97616.4
97373.6
96118.6
96509.7
157768
160070
158107
97423.3
96132.4
96505.1
94648.5
96306
94977.5
160002
158877
159568
94592.4
96264.5
95079.3
97709.2
97587.1
97347.2
162909
162078
162309
97677.5
97573.4
97410.6
97609.3
97763.1
97640
162603
162798
162738
97545.5
97727.4
97733.7
83042.5
94380
89020.7
136678
155732
147290
82864.2
94362.6
89417
82601
94378.4
88781.6
135213
155532
146263
82403.8
94355.3
89239.8
83808.9
94600.5
89403.5
136721
155945
146609
83620.9
94571.7
89911.3
97824.4
97874.8
97807.7
162869
162953
162886
97758.1
97821.7
97792.4
97865.7
97873.6
97839.8
162959
162978
162944
97821
97821.9
97790.6
97871.2
97867.9
97840.4
162986
162982
162969
97827.9
97818.7
97791.7
97891.5
97950.5
98072.5
162938
162979
163025
97841.8
97916.3
98057.2
97846.6
97861.8
97944.4
162937
162940
162962
97805.1
97844.9
97933.9
97799.4
97751
97757.9
162964
162940
162923
97800.8
97797.7
97782.1
98224
98017.3
97922.6
163111
163008
162955
98232.2
98000
97891.6
98013
97906.3
97876.8
162976
162939
162949
98002.4
97877
97842.1
97747.7
97788.5
97841.9
162895
162933
162974
97719.9
97754.6
97803
98405.8
98435.9
98402.6
163371
163374
163277
98441.8
98472.4
98429.5
98357.7
98365.8
98233.1
163212
163214
163119
98391.5
98398.9
98248.2
98290.7
98313.1
98115.9
162973
163019
162938
98320.9
98343.2
98121.3
97549.2
97517.3
97481.7
161869
161889
161813
97535.7
97500.9
97463.1
93357.7
93321.3
93329.3
154672
154666
154661
93330.2
93293.2
93303.3
86508.5
86502.8
86504.9
139526
139514
139500
86482.6
86476.7
86478.2
98244.8
98374.2
98428.2
163084
163128
163160
98092.9
98024.8
97991.1
98127.9
98275.1
98341.5
163022
163069
163097
98014.1
97993.8
97973.8
98017.1
98182
98260.8
162942
162975
162988
97960.4
98003.8
97982.5
97582.1
97655.2
97699.1
162248
162293
162290
97767
97810.8
97828.2
93718.5
93690.8
93683.6
155585
155589
155586
94008.6
94009.2
94030
87129.7
87128.9
87129.4
140554
140561
140560
87276.8
87277.4
87283
)
;

boundaryField
{
    fuel
    {
        type            zeroGradient;
    }
    primary_air
    {
        type            zeroGradient;
    }
    Secondary_air_RHS
    {
        type            zeroGradient;
    }
    Secondary_air_LHS
    {
        type            zeroGradient;
    }
    outlet
    {
        type            totalPressure;
        rho             rho;
        psi             none;
        gamma           1;
        p0              uniform 100000;
        value           nonuniform List<scalar> 
18
(
90433.2
100000
90648
90414.8
100000
90645.2
90414.7
100000
90662.8
89924.8
100000
89898.5
89898.7
100000
89871.9
89910
100000
89883.7
)
;
    }
    stove_body
    {
        type            zeroGradient;
    }
    frontAndBack
    {
        type            empty;
    }
}


// ************************************************************************* //
