/*--------------------------------*- C++ -*----------------------------------*\
  =========                 |
  \\      /  F ield         | OpenFOAM: The Open Source CFD Toolbox
   \\    /   O peration     | Website:  https://openfoam.org
    \\  /    A nd           | Version:  6
     \\/     M anipulation  |
\*---------------------------------------------------------------------------*/
FoamFile
{
    version     2.0;
    format      ascii;
    class       volScalarField;
    location    "1.5";
    object      O2;
}
// * * * * * * * * * * * * * * * * * * * * * * * * * * * * * * * * * * * * * //

dimensions      [0 0 0 0 0 0 0];

internalField   nonuniform List<scalar> 
297
(
0
0
0
0
0
0
0
0
0
0
0
0
0
0
0
0
0
0
0
0
0
0
0
0
0
0
0
0.107755
0.0612774
0.133351
0.193931
0.149625
0.194266
0.123229
0.110786
0.163383
0
0.000156831
0.0071219
0.0996429
0.10885
0.107199
0
1.25592e-05
0
0
0
0
0.0571751
0.0232044
0.06384
0
0
0
0
4.94401e-11
0
0
0
0
0
1.43118e-13
0
1.90277e-13
8.25267e-14
7.74928e-17
3.67744e-16
2.51695e-14
8.05619e-19
1.61833e-13
5.25942e-14
7.20028e-15
1.79974e-13
8.53129e-14
1.22819e-14
1.6327e-13
1.33975e-13
2.2618e-14
1.10373e-13
3.49373e-14
1.32239e-14
0
0
0
0.0178276
3.88088e-07
0.0234701
0
0
0
0
0
0
0
4.29878e-09
0.00579462
0
0
0
0
0
0
0
0
0
0
0
0
5.53206e-14
1.91734e-14
7.32154e-15
2.19691e-13
1.38672e-14
2.93627e-14
7.91885e-14
3.23944e-14
4.42353e-15
1.9273e-14
1.39037e-14
4.09351e-15
6.02125e-14
1.4716e-14
2.87704e-14
4.05754e-14
1.74575e-14
2.34972e-15
1.29582e-14
3.98786e-15
2.77941e-15
1.50315e-14
7.73655e-15
1.2189e-14
3.62027e-14
1.38125e-14
1.46145e-15
2.92225e-15
2.77679e-16
2.78817e-16
2.61791e-14
1.0183e-16
1.00405e-16
9.32707e-16
7.06412e-17
7.23196e-17
4.2027e-15
1.16025e-15
1.16796e-15
2.85812e-14
2.62598e-14
1.76151e-14
2.45476e-15
7.02816e-16
7.00171e-16
3.18692e-15
1.52862e-15
2.10767e-15
1.26238e-14
1.33229e-14
1.51956e-14
2.24288e-15
1.34655e-15
3.38084e-15
2.18224e-15
2.23037e-15
4.01696e-14
9.53778e-14
3.90961e-13
2.56321e-13
6.17879e-15
4.67957e-14
5.61581e-14
8.44406e-15
8.13977e-15
1.76502e-14
1.8202e-13
2.30157e-13
5.89251e-14
9.99591e-15
2.38654e-14
3.18924e-14
1.49656e-14
1.46553e-14
1.77608e-14
1.09563e-13
3.74802e-14
1.76881e-14
3.75693e-14
3.27676e-14
4.10256e-14
2.23919e-19
2.65551e-19
1.03046e-18
3.06284e-16
4.51325e-17
1.99676e-16
1.17777e-15
1.48069e-15
1.42742e-15
2.36048e-19
4.22508e-19
1.18895e-18
3.1435e-16
8.288e-17
3.84797e-15
1.26122e-15
3.03763e-15
2.82544e-15
4.14341e-19
4.09701e-19
1.12114e-18
5.88971e-15
3.36325e-14
8.33951e-14
1.28241e-15
4.34043e-15
3.17e-14
1.76882e-19
2.33825e-19
7.66078e-19
7.13729e-15
2.88791e-14
5.42928e-14
1.31918e-15
8.40531e-15
2.43479e-14
5.70195e-20
1.05633e-19
2.83197e-19
5.42737e-15
1.14051e-14
2.55664e-14
1.38951e-15
4.54359e-15
2.20018e-14
1.45658e-20
3.18009e-20
9.69976e-20
2.65275e-15
5.75291e-15
1.75063e-14
1.29482e-15
5.32832e-15
1.99701e-14
8.00762e-20
2.12625e-20
4.87149e-21
7.1143e-18
1.95589e-18
9.93354e-18
7.37519e-17
7.76885e-17
4.70496e-17
1.31712e-19
3.67614e-20
6.05548e-21
4.6355e-16
2.94313e-18
1.10141e-17
2.05192e-16
2.22452e-16
5.37063e-17
1.29005e-19
4.24664e-20
3.72377e-20
1.15107e-14
4.55022e-15
8.16274e-16
3.20816e-15
3.34497e-16
5.5391e-17
7.23332e-20
2.3217e-20
1.51851e-20
6.09034e-15
3.39959e-15
7.12498e-16
2.43336e-15
4.72805e-16
5.92274e-17
1.63119e-20
8.90908e-21
3.32337e-21
2.4076e-15
1.082e-15
4.998e-16
1.88243e-15
3.66194e-16
6.73066e-17
7.54374e-21
2.42746e-21
1.07521e-21
1.44467e-15
4.7434e-16
2.07797e-16
1.58321e-15
4.64786e-16
6.00887e-17
)
;

boundaryField
{
    fuel
    {
        type            fixedValue;
        value           uniform 0;
    }
    primary_air
    {
        type            fixedValue;
        value           uniform 0.23;
    }
    Secondary_air_RHS
    {
        type            fixedValue;
        value           uniform 0.23;
    }
    Secondary_air_LHS
    {
        type            fixedValue;
        value           uniform 0.23;
    }
    outlet
    {
        type            inletOutlet;
        inletValue      uniform 0;
        value           nonuniform List<scalar> 
18
(
0
1.44467e-15
0
0
4.7434e-16
0
0
2.07797e-16
0
0
2.65275e-15
0
0
5.75291e-15
0
0
1.75063e-14
0
)
;
    }
    stove_body
    {
        type            fixedValue;
        value           uniform 0;
    }
    frontAndBack
    {
        type            empty;
    }
}


// ************************************************************************* //
