/*--------------------------------*- C++ -*----------------------------------*\
  =========                 |
  \\      /  F ield         | OpenFOAM: The Open Source CFD Toolbox
   \\    /   O peration     | Website:  https://openfoam.org
    \\  /    A nd           | Version:  6
     \\/     M anipulation  |
\*---------------------------------------------------------------------------*/
FoamFile
{
    version     2.0;
    format      ascii;
    class       surfaceScalarField;
    location    "1.5";
    object      phi;
}
// * * * * * * * * * * * * * * * * * * * * * * * * * * * * * * * * * * * * * //

dimensions      [1 0 -1 0 0 0 0];

internalField   nonuniform List<scalar> 
675
(
2.38722e-06
-7.11755e-06
0.000134795
-7.19073e-06
-9.14851e-06
0.000148792
-8.41937e-06
0.000131295
1.73383e-05
-1.22705e-05
0.000202725
1.38755e-05
3.65899e-05
0.000172635
2.75112e-05
0.000192856
-1.78208e-05
0.000135637
-9.81941e-06
0.000158678
0.000147781
1.18523e-05
-4.45372e-06
0.000127646
-3.85799e-06
-3.11058e-05
0.000195871
-8.64085e-06
0.000136351
1.68905e-05
-8.3148e-06
0.000190127
1.24757e-05
6.2318e-05
8.40892e-05
4.23887e-05
0.000154727
-1.77901e-05
0.000145355
-9.83795e-06
0.000213333
0.000180618
-4.19999e-06
2.27606e-06
2.39745e-05
3.65233e-05
3.02395e-05
2.10724e-05
-4.60043e-05
-2.54865e-05
-5.35316e-05
-5.36631e-05
-2.52507e-05
3.38987e-06
-0.000422152
0.00701209
-0.00345032
0.00547303
0.00634239
-0.00911273
0.00720846
0.00136861
-0.000884529
-0.00537078
0.018459
-0.000175693
-0.00472396
0.0155211
-0.00634779
0.018525
0.000875171
-0.00306807
0.00286098
-0.00356761
-0.00037118
0.00555019
0.00933596
-0.0183948
1.09711e-05
0.00885602
-0.0125057
0.0105179
-0.00918899
0.001345
-0.00705292
0.0334154
0.000681575
-0.00539075
0.0303045
-0.00887481
0.0384951
0.00903673
-0.019226
0.00406317
-0.00407645
-0.00523538
-0.00237856
0.0244921
-0.0405611
-0.0035473
0.0132738
-0.0246271
0.0245953
-0.037299
-0.0457219
-0.023716
0.127301
0.0438819
-0.0144603
-0.0315927
-0.0248985
0.131867
-0.00230373
-0.0406318
-0.0030548
-0.0178112
-0.0331599
-0.00788579
-0.0145164
-0.0280557
0.0505337
0.00548799
0.0031357
-0.0441791
0.0278227
-0.01514
-0.0273317
0.0480163
0.0116752
0.0164086
0.0567237
-0.0993834
-0.00886271
-0.00275707
-0.014456
0.0409659
0.0136326
0.0673144
-0.104882
-0.00534524
-0.0288663
0.0507191
0.00990304
-0.0399338
0.0220653
-0.0202663
0.0439539
-0.00121393
-0.00774718
-0.0186106
-0.00318599
-0.00991089
-0.0329857
-0.0101773
-0.0199373
0.0175615
0.00967028
0.0218482
-0.0163133
0.00817172
0.00193612
0.00864859
0.0324196
0.00289984
-0.0223277
2.08587e-05
-0.0287818
-0.0116828
0.00701873
-0.00699212
-0.0185865
-0.00331021
-0.00227532
-0.0209366
-0.0053639
-0.0174539
0.000744343
0.00277999
0.0113586
0.00584221
0.00252159
-0.00742286
0.00909707
0.0240234
-0.00392885
-0.015855
-0.0126679
-0.0176323
-0.0152843
-3.2863e-05
-0.00236334
-0.0434103
-0.000184245
-0.000833412
-0.0236341
-0.0023003
-0.0404343
-0.00343933
0.00236376
0.117584
0.00344858
0.000310278
-0.0396197
0.0019495
0.122633
4.72337e-06
-0.0435163
4.64772e-05
-0.0175383
-0.0364124
-0.000418077
-0.00107111
-0.0471546
0.00029402
8.57775e-05
-0.0244218
-0.000948453
-0.0444316
-0.00174217
0.00107364
0.108782
0.00158423
-0.000236619
-0.0426177
0.00084067
0.114027
-0.000373251
-0.0473016
0.000458299
-0.0186014
-0.040351
-0.000416742
-0.00143287
0.000244907
0.00275021
-0.00140465
-0.00197572
0.00152055
0.00180947
-0.00268068
0.00113154
-0.000289549
0.000498804
0.00531698
-0.00374733
-0.00590675
-0.0142056
-0.00491453
-0.00191844
-0.00876084
-0.00326993
-0.0046057
-0.0144234
-0.00194307
0.00209946
0.000243283
0.00718815
-0.000143574
0.000948892
-0.0120341
0.00274386
0.0121244
0.00579165
0.00471636
-0.00437883
-0.0140673
-0.00643291
-0.00552727
-0.00380727
-0.0151339
0.00614562
0.000651147
-0.000207593
-0.0124697
-0.00444387
0.00112647
0.000760504
0.000232236
0.00265849
-0.011872
0.000591907
-0.00162006
-0.00309519
0.00496399
-0.00155846
-0.00139019
-0.00733556
-0.000787732
0.00418376
0.00745316
0.0037413
0.00191341
-0.0116415
-0.00664217
0.0034745
0.00134168
-0.0125182
-0.00108028
0.00367048
-0.00277549
-0.00411256
0.0038658
0.00271748
-0.00410181
-0.00242675
-0.00317473
0.00615179
-0.00279419
-0.00307037
-0.0025797
0.00676063
-0.000366474
-0.000876581
4.6774e-05
-0.00112721
-0.0140323
-0.0023409
0.001945
-0.015108
0.000777902
0.000285236
0.00269202
-0.0066033
-0.0112179
-0.000795643
0.00104504
0.00323996
-0.00241063
0.00211644
0.000281618
0.00191115
0.00237586
-0.00401744
-0.0160998
0.00204117
-0.0162514
0.0022994
0.00245808
-0.0167709
-0.0114604
-0.00157038
0.00310987
-0.0125747
0.00107498
0.000311219
4.15118e-05
-0.00884252
-0.0103994
0.00731576
0.000956569
0.000860201
0.00633377
7.35761e-05
0.00226985
0.000453347
0.00745271
0.000846455
-0.0124315
0.00294559
-0.0121187
0.00209088
0.00235794
-0.0115402
-0.0013459
0.000359119
-0.00202359
0.000979413
-0.00147895
-0.0094008
0.00823452
-0.000236175
0.0116039
-0.000109992
0.00114334
0.0164264
0.00161808
0.00363248
0.00715395
0.0146589
0.00258697
-0.00672034
-0.0105334
0.0137827
0.000150663
0.000718824
-0.00249602
0.00207332
-0.00122243
0.00169798
0.00473759
-0.00262647
-0.00479972
0.00170454
0.00202877
0.000581816
-0.000712022
0.0154936
0.00239653
-0.0161929
0.0150754
0.00212791
0.00160351
0.0123981
-5.02872e-06
-0.00920491
-0.00991732
0.0115369
0.00135155
0.000220367
-0.00134639
0.00248452
-0.00386443
0.00100638
0.00732643
0.000256286
-0.00326499
0.000457412
0.00230917
0.000531564
-0.000908161
0.0117567
0.00275503
-0.0111124
0.0121447
0.00220594
0.00264518
0.0016823
-0.00144016
-0.00945422
0.000920336
0.000975492
0.000627024
-0.0100461
0.000956379
0.0149683
-0.00642279
-0.000347905
-0.000562891
-0.00307067
0.00677995
-0.00120968
-0.00376401
0.00252821
0.00123012
0.00381953
0.00266609
-0.0102571
0.00237566
-0.0090962
0.000685013
-0.0014184
0.00325736
0.00120537
0.000303363
0.00183795
-0.000661936
0.00161276
0.0109502
-0.0123681
0.0171383
-0.00588995
0.000279667
-0.00199942
0.00196204
0.00126133
0.00529058
0.00225855
-0.0198084
0.0016181
-0.0153458
0.00146963
-0.00113464
0.00487978
0.00190337
0.000435169
0.00322089
-0.000603161
0.00598731
0.00808863
-0.0215719
0.0124713
-0.00983719
0.00102873
-0.00398733
0.00120891
0.00402433
0.008293
0.00553505
-0.0376255
0.00209472
-0.0186056
-0.00371475
-0.0036693
0.0134698
-0.00788016
0.000804677
0.012107
0.00130728
0.0138562
0.00917078
-0.0344165
0.00347671
-0.00332833
0.0125877
0.0166448
0.0106956
-0.0233297
-0.00219169
0.0154863
-0.0342852
0.0149014
-0.0357221
-0.00724577
-0.00160307
0.0329683
-0.00657277
0.00441383
0.0224499
0.00289734
0.019235
0.0088548
-0.0449665
0.014499
-0.00462936
0.029929
0.00773046
0.00672206
-0.0377855
0.00509573
0.0073394
-0.0389896
0.00761696
-0.0382437
0.0130035
-0.00384655
0.030521
0.01409
-0.00300553
0.0317022
0.00137487
0.0395548
-0.00457113
-0.0442549
0.00214775
-0.0143734
0.0334326
0.000877019
0.0149366
-0.000102571
0.0159649
0.0153531
0.00547947
-0.0238827
0.00539903
-0.0224578
-0.021279
-0.01693
-0.014683
-0.00405631
0.00229421
-0.00947127
0.00390007
0.00272381
-0.0106946
0.00270403
0.00118043
-0.00225713
-0.000649893
0.0011648
-0.00139008
0.00028406
0.00154831
-0.00151136
0.00279767
-0.0176687
0.000264422
-0.0112861
-0.00608451
-0.0127805
-0.00580447
0.00169076
-0.0157636
0.00180909
0.00233394
-0.0206441
0.00214913
0.000828913
-0.00201503
-0.000615698
0.00632923
-0.0017068
0.000416798
0.00313354
-0.00123097
0.00444143
-0.0128228
0.000946563
-0.00832492
-0.01015
-0.022302
-0.00851651
0.00125362
-0.017899
0.00332838
0.0046833
-0.0371662
0.00130417
0.00284741
0.00895544
0.00130455
0.0137524
0.00400032
0.000755726
0.0120142
-0.00372483
0.01344
-0.00333779
0.012751
-0.00946546
-0.00325358
-0.0354555
0.00320066
0.0151309
-0.0361524
-0.0150776
0.016189
-0.0350121
0.0115945
-0.0237586
0.00633645
0.00273427
0.0196507
0.00730111
0.00413376
0.0229333
-0.00153205
0.0336904
-0.0149531
0.0303248
-0.00858796
-0.0055986
-0.0457751
-0.00496601
0.0076215
-0.0389764
-0.00784125
0.00726399
-0.0395675
0.00661739
-0.0383844
-0.0139819
0.00147544
0.0396422
-0.0128179
-0.00302721
0.0319195
-0.00368477
0.0310201
-0.00182104
0.0335918
0.00485988
-0.0153405
-0.0446344
5.51157e-06
0.0150467
-0.000915669
0.0156966
0.0146275
-0.00547377
-0.0208972
-0.00559323
-0.022213
-0.0237428
0.0151699
0.0168292
)
;

boundaryField
{
    fuel
    {
        type            calculated;
        value           nonuniform List<scalar> 
36
(
0.000129754
0.000214457
0.000129777
0.000129754
0.000214457
0.000129777
0.000129754
0.000214457
0.000129777
-0.000129754
-0.000214457
-0.000129777
-0.000129754
-0.000214457
-0.000129777
-0.000129754
-0.000214457
-0.000129777
0
0
0
0
0
0
0
0
0
0
0
0
0
0
0
0
0
0
)
;
    }
    primary_air
    {
        type            calculated;
        value           nonuniform List<scalar> 9(-0.00319589 -0.00528002 -0.00319227 -0.00319644 -0.0052803 -0.00319278 -0.00319613 -0.00528076 -0.00319278);
    }
    Secondary_air_RHS
    {
        type            calculated;
        value           nonuniform List<scalar> 9(0.00525017 0.00843522 0.00524845 0.00523939 0.00840416 0.00523825 0.0052345 0.00842401 0.00523427);
    }
    Secondary_air_LHS
    {
        type            calculated;
        value           nonuniform List<scalar> 9(0.00524937 0.0084292 0.00524387 0.00523893 0.00839989 0.00523316 0.00523486 0.0084207 0.00522895);
    }
    outlet
    {
        type            calculated;
        value           nonuniform List<scalar> 
18
(
-0.0540445
0.0810651
-0.00247611
-0.0543592
0.069947
-0.0392131
-0.0539443
0.0637951
-0.0515478
-0.0536071
0.0638438
-0.0512165
-0.0539806
0.0701954
-0.0390874
-0.053705
0.081571
-0.00254737
)
;
    }
    stove_body
    {
        type            calculated;
        value           uniform 0;
    }
    frontAndBack
    {
        type            empty;
        value           nonuniform 0();
    }
}


// ************************************************************************* //
