/*--------------------------------*- C++ -*----------------------------------*\
  =========                 |
  \\      /  F ield         | OpenFOAM: The Open Source CFD Toolbox
   \\    /   O peration     | Website:  https://openfoam.org
    \\  /    A nd           | Version:  6
     \\/     M anipulation  |
\*---------------------------------------------------------------------------*/
FoamFile
{
    version     2.0;
    format      ascii;
    class       volScalarField;
    location    "1.5";
    object      T;
}
// * * * * * * * * * * * * * * * * * * * * * * * * * * * * * * * * * * * * * //

dimensions      [0 0 0 1 0 0 0];

internalField   nonuniform List<scalar> 
297
(
291.058
291.044
291.052
292.913
292.913
292.913
291.063
291.053
291.062
291.681
291.093
291.087
293.046
293.075
293.019
291.246
291.068
291.059
338.304
298.132
300.101
311.42
318.821
307.678
305.641
296.374
295.126
326.364
327.051
310.687
300.726
309.754
297.561
321.973
322.009
309.236
357.497
338.963
358.928
332.83
322.672
329.133
356.03
349.097
358.158
357.135
329.837
363.064
338.58
338.824
337.843
356.239
332.304
366.74
338.778
325.224
341.093
358.598
354.584
360.558
337.85
326.132
341.924
335.112
325.158
332.645
358.707
359.432
360.437
330.463
326.362
337.824
323.461
315.435
324.11
358.72
332.052
356.137
312.758
315.325
326.151
358.383
324.922
363.396
346.575
351.744
349.059
357.358
326.563
366.742
351.026
323.94
351.425
351.429
351.748
351.223
350.056
326.137
353.068
344.905
323.876
347.947
356.445
352.019
358.336
344.022
326.109
349.155
312.482
310.339
313.922
352.884
317.488
355.511
309.554
306.231
307.669
303.594
306.28
308.957
310.581
316.923
351.898
303.199
304.293
304.491
304.766
308.177
308.529
308.163
313.041
325.178
303.405
304.45
304.818
306.764
302.018
302.414
347.824
304.262
304.077
301.606
299.967
299.322
309.086
303.82
304.134
350.713
346.323
332.923
304.452
301.272
301.143
308.152
305.784
305.639
327.307
328.513
330.308
304.597
303.511
307.255
302.037
301.719
307.86
311.906
347.44
350.148
299.478
304.275
305.339
302.478
302.185
303.688
317.16
323.328
309.994
300.429
301.778
302.937
302.721
303.013
303.615
311.966
308.096
306.896
302.932
302.379
303.271
302.582
302.297
301.909
303.095
304.046
303.606
299.323
299.64
298.959
302.971
302.041
301.553
303.24
303.989
303.881
298.955
300.077
299.882
303.401
301.697
300.942
303.538
306.483
309.591
298.372
300.452
302.641
301.531
301.229
300.337
301.318
305.909
307.26
297.152
300.612
300.52
298.301
298.094
297.179
300.619
303.198
305.098
294.183
294.793
296.52
291.612
291.437
290.72
291.544
288.875
285.924
290.59
290.298
298.715
301.949
302.326
302.669
303.732
303.929
303.304
299.158
299.939
299.646
301.805
302.332
303.067
304.501
304.035
303.508
300.356
300.698
299.418
301.56
302.185
303.684
323.906
312.605
305.004
306.952
301.214
298.922
300.88
301.684
302.234
314.75
310.915
302.757
303.577
301.607
297.679
296.821
298.216
297.974
311.069
306.397
301.739
299.504
295.56
294.454
290.751
291.484
291.608
288.938
289.925
292.159
301.655
291.265
290.799
)
;

boundaryField
{
    fuel
    {
        type            fixedValue;
        value           uniform 293;
    }
    primary_air
    {
        type            fixedValue;
        value           uniform 293;
    }
    Secondary_air_RHS
    {
        type            fixedValue;
        value           uniform 293;
    }
    Secondary_air_LHS
    {
        type            fixedValue;
        value           uniform 293;
    }
    outlet
    {
        type            inletOutlet;
        inletValue      uniform 293;
        value           nonuniform List<scalar> 
18
(
293
288.936
293
293
289.924
293
293
292.157
293
293
291.541
293
293
288.871
293
293
285.921
293
)
;
    }
    stove_body
    {
        type            fixedValue;
        value           uniform 293;
    }
    frontAndBack
    {
        type            empty;
    }
}


// ************************************************************************* //
