/*--------------------------------*- C++ -*----------------------------------*\
  =========                 |
  \\      /  F ield         | OpenFOAM: The Open Source CFD Toolbox
   \\    /   O peration     | Website:  https://openfoam.org
    \\  /    A nd           | Version:  6
     \\/     M anipulation  |
\*---------------------------------------------------------------------------*/
FoamFile
{
    version     2.0;
    format      ascii;
    class       volVectorField;
    location    "1.5";
    object      U;
}
// * * * * * * * * * * * * * * * * * * * * * * * * * * * * * * * * * * * * * //

dimensions      [0 1 -1 0 0 0 0];

internalField   nonuniform List<vector> 
297
(
(84.0514 -0.0356659 0.199452)
(84.0461 -0.0121296 0.167784)
(84.0489 -0.00378368 0.179657)
(0.00337779 0.0587561 0.308937)
(0.00338399 0.0495545 0.299312)
(0.00338548 -0.0172743 0.311264)
(-84.0383 -0.0606917 0.173841)
(-84.0051 -0.0697007 0.195256)
(-84.013 -0.00708872 0.19531)
(84.2346 -0.00135644 0.187614)
(84.0475 0.00746045 0.28356)
(84.0594 0.0445329 0.200426)
(0.00337973 0.0736301 0.286361)
(0.00338475 0.0541187 0.248607)
(0.00338388 -0.0532946 0.229794)
(-84.0894 -0.0978661 0.221382)
(-83.994 -0.0676411 0.30363)
(-84.0033 0.0167261 0.257381)
(86.2069 -0.456672 0.482006)
(86.0974 0.0859276 0.521975)
(86.6796 0.370131 0.463242)
(0.00342421 0.485249 0.0078104)
(0.0032413 -0.309936 -0.193679)
(0.00329336 0.178372 0.0952733)
(-81.2896 -0.309295 0.449949)
(-85.5707 -0.0478189 0.545302)
(-85.2219 0.216399 0.506943)
(61.5323 1.56935 0.521319)
(62.006 1.20807 -4.22829)
(58.3817 2.34089 -2.6784)
(-0.0144931 -0.241849 5.2936)
(-0.0151765 -0.331696 3.56294)
(-0.0132572 1.0708 4.26637)
(-60.6503 2.80918 1.08417)
(-60.7353 1.13986 -1.25189)
(-57.9663 0.247403 -2.04119)
(68.1714 7.01217 2.45489)
(64.6765 3.66811 -7.62904)
(68.488 -9.01818 15.5328)
(-0.0157749 7.55776 36.0987)
(-0.0117684 0.799767 21.6368)
(-0.00711982 -6.4881 37.4182)
(-67.9388 11.0236 1.23696)
(-66.595 4.93207 0.148009)
(-68.4017 -1.89122 14.0008)
(67.2065 8.35519 -7.72718)
(62.4811 -1.26941 -18.1265)
(68.3308 -14.1703 -2.48994)
(-0.0098717 -3.92396 47.626)
(-0.00837963 -0.790943 11.453)
(-0.00303741 3.53121 49.7411)
(-67.0786 13.8477 -6.84109)
(-63.0714 -5.9513 -5.10183)
(-69.0671 -7.93434 7.49062)
(64.0674 0.949581 -44.2466)
(61.7363 0.501772 -30.1167)
(64.4443 -4.77118 -42.234)
(-0.00613638 -1.32253 7.12889)
(-0.0137311 1.34468 -8.49229)
(-0.024667 0.569569 13.5708)
(-63.8249 5.71836 -44.5241)
(-61.9774 -2.36902 -26.13)
(-64.8687 2.4171 -37.6942)
(64.1109 9.77874 -27.7718)
(61.542 0.573219 -34.3312)
(63.4965 -15.0456 -26.9969)
(0.00226281 1.24282 3.23755)
(-0.00851582 0.514644 2.06106)
(-0.0176092 -1.90646 11.812)
(-63.1558 15.4386 -28.8017)
(-62.0437 -4.58967 -31.0755)
(-64.7153 -5.70235 -19.8172)
(61.8083 24.4256 -31.9443)
(59.8854 3.37141 -34.3712)
(61.8774 -25.4021 -31.5304)
(0.00905815 -0.924976 7.98498)
(-0.00382625 2.22698 -8.03201)
(-0.0174871 0.575803 13.5483)
(-59.8444 21.9888 -30.556)
(-60.0377 -11.6016 -28.4383)
(-62.2997 -20.7347 -22.9459)
(60.0603 11.4479 -42.1634)
(58.6137 0.258567 -20.6787)
(61.3858 -17.0833 -39.283)
(-0.016295 -2.64892 63.0496)
(-0.0185738 -0.380174 -22.8592)
(-0.00512641 2.00451 65.7734)
(-60.0619 17.2538 -42.2092)
(-60.0878 -3.25868 -15.1438)
(-62.5542 -10.3901 -36.0801)
(57.571 5.62431 -46.6005)
(60.134 0.610086 -22.2396)
(58.1688 -10.1381 -44.3687)
(-0.0142137 -2.24826 69.3141)
(-0.0188529 -0.250253 -23.434)
(-0.0027401 1.51385 72.4476)
(-57.5679 10.6915 -46.7051)
(-60.9231 -3.20902 -16.8265)
(-58.985 -3.31149 -40.2234)
(53.7531 3.9581 -46.2331)
(61.3975 0.381499 -24.2673)
(54.1574 -8.10597 -43.9849)
(-0.0138138 -1.78625 68.1714)
(-0.0196695 -0.0677894 -19.9241)
(-0.000490504 0.999992 71.5973)
(-53.0735 8.89172 -46.3331)
(-61.9001 -2.88464 -19.4739)
(-56.4243 -1.32543 -40.0948)
(58.2701 37.092 -8.1076)
(58.0718 2.02508 -9.85174)
(58.5296 -38.0495 -7.17162)
(-0.0270149 -8.64801 5.84268)
(-0.0191411 -3.24259 -6.95606)
(-0.0377117 6.60409 11.5846)
(-58.2344 35.0644 -6.66568)
(-57.6482 -4.59101 -7.87369)
(-57.8153 -36.7413 -7.79652)
(57.2651 33.4731 -3.1577)
(57.7891 4.85646 -6.09642)
(58.3057 -33.3194 -2.18111)
(-0.0270086 -0.0610236 -3.10851)
(-0.0213396 -3.34483 -3.41983)
(-0.0364191 5.02501 7.12838)
(-57.5352 27.6823 1.23272)
(-57.6072 -7.88492 -1.20515)
(-57.817 -30.2955 2.42505)
(57.9101 -4.34379 1.6668)
(58.6516 -5.70603 2.66215)
(58.5929 -11.6421 4.98113)
(-0.0308256 -8.04841 -1.49285)
(-0.0234278 -4.35884 -1.34925)
(-0.0338234 2.99581 -0.693693)
(-57.7897 -5.59683 -2.15459)
(-57.9868 -4.11399 1.29416)
(-58.1074 10.7744 -3.23513)
(55.8783 -40.1735 -2.74816)
(56.5587 -44.2093 -10.6629)
(56.9249 -27.5165 -21.0327)
(-0.0885549 8.60594 8.95702)
(-0.110746 -3.47437 -5.79305)
(-0.200629 -6.3626 -10.041)
(-56.4769 -41.9665 -3.22317)
(-55.7932 -47.6835 -7.75487)
(-55.5703 -51.5694 -8.59952)
(57.2972 -34.0956 3.25395)
(57.7001 -39.9443 -7.31559)
(56.6575 -24.9791 -21.7958)
(-0.054042 16.0182 4.22783)
(-0.0865993 14.7803 4.75043)
(-0.184634 8.93567 10.6479)
(-57.2494 -33.2486 7.91158)
(-57.2711 -39.2194 6.96392)
(-57.1598 -41.6967 4.37817)
(58.3067 -11.4444 12.2501)
(58.2398 -4.31171 5.04572)
(56.7201 -21.9907 -29.3582)
(-0.0345681 14.4695 -2.02084)
(-0.0546192 17.4664 0.114994)
(-0.10199 30.4342 7.40071)
(-57.8428 -1.64417 7.59348)
(-57.8155 4.61922 8.79714)
(-58.0243 17.4129 12.228)
(56.841 26.1287 -20.9804)
(56.2837 43.3291 -8.46604)
(55.8672 39.1826 -2.25915)
(-0.20653 3.01438 -3.48979)
(-0.134363 -10.4359 5.92787)
(-0.0961634 -12.2985 4.38888)
(-55.7308 50.5325 -7.77944)
(-56.7017 44.1532 -5.46907)
(-57.3546 40.5267 -2.67713)
(56.2713 23.7246 -22.0096)
(57.4389 38.8565 -7.27514)
(56.3712 34.9757 2.92289)
(-0.171932 -5.04411 8.46729)
(-0.0814758 -7.00459 -0.30314)
(-0.0513079 -9.36974 -4.18426)
(-56.7201 39.8604 4.93802)
(-57.1296 35.7488 6.51371)
(-57.0543 32.4219 6.94568)
(56.1208 20.9998 -30.0356)
(57.6168 2.0991 9.2783)
(57.4153 10.7493 11.3701)
(-0.0915971 -25.6714 8.65985)
(-0.052349 -14.0028 2.44196)
(-0.0395729 -12.4696 0.198607)
(-57.259 -15.2551 11.6008)
(-57.6223 -5.042 7.22272)
(-57.6219 1.00088 6.26242)
(56.4891 -8.66102 -11.6754)
(56.4133 1.94498 -30.6406)
(56.4673 19.5517 -27.2822)
(0.00428564 2.81781 -4.77619)
(-0.100983 -3.51799 -8.24969)
(-0.209636 9.16794 -8.29069)
(-55.0485 23.4413 -29.6605)
(-54.4295 29.4767 -21.3365)
(-56.2438 48.4242 -15.8724)
(56.5052 -4.61609 8.80332)
(56.545 6.49939 -38.0035)
(56.3921 19.3126 -37.0216)
(-0.0690826 1.65309 12.7627)
(-0.182855 -0.258518 8.20299)
(-0.230972 7.68757 10.0886)
(-55.5666 6.57495 -51.6762)
(-55.4557 20.0706 -27.4057)
(-57.0416 38.0484 -3.84629)
(56.2698 0.428543 6.06913)
(59.2976 3.2529 -45.9849)
(57.5312 11.1817 -47.9865)
(-0.153698 -0.625891 9.12748)
(-0.236392 -11.1949 10.6155)
(-0.225198 -19.8487 16.4225)
(-58.0415 3.90204 -66.8429)
(-55.8538 19.6182 -20.4148)
(-55.9954 -7.15833 21.7335)
(56.4947 5.74633 -11.1995)
(57.0532 3.014 -63.535)
(56.7179 -7.61552 -81.3726)
(-0.365191 1.10673 59.4279)
(-0.373945 -1.41068 34.6898)
(-0.384861 -12.1242 32.8492)
(-57.371 -8.39525 -97.2307)
(-57.6147 8.94675 23.1938)
(-57.6613 -0.0272598 62.663)
(55.6535 0.874812 -124.688)
(55.7307 1.88712 -131.283)
(55.5503 6.42491 -127.632)
(-0.217488 3.30131 80.5483)
(-0.21343 4.71857 70.2026)
(-0.224136 0.704081 67.283)
(-56.0734 2.77399 -130.753)
(-56.1202 -5.9672 -45.5924)
(-56.007 2.96814 106.875)
(53.4117 0.173006 -158.636)
(53.4635 0.210592 -160.225)
(53.2326 -0.880728 -159.049)
(0.35816 -0.00293139 160.421)
(0.380883 1.9559 175.309)
(0.407154 0.605384 202.517)
(-52.6159 -6.84345 -150.489)
(-52.1306 -7.04121 -106.724)
(-53.315 -2.38682 -3.04675)
(56.4171 -21.3353 -28.4566)
(56.3857 -1.69486 -31.3555)
(56.5052 8.68159 -11.8053)
(-0.215595 -9.51988 -10.0287)
(-0.099869 1.26656 -9.41484)
(0.0186545 -3.59171 -6.1881)
(-56.2223 -50.1992 -16.5783)
(-54.354 -30.3995 -22.0176)
(-55.0073 -24.0872 -30.6321)
(56.2871 -19.4333 -37.4621)
(56.3886 -8.38047 -39.3854)
(56.5672 4.26846 9.16114)
(-0.243577 -7.71571 11.5149)
(-0.184811 -0.28352 8.73403)
(-0.0536922 -1.96187 12.6738)
(-57.1135 -39.6093 -3.90324)
(-55.4829 -20.698 -28.162)
(-55.5718 -6.56627 -52.8418)
(56.6342 -11.5859 -48.0548)
(58.3357 -7.79188 -49.2428)
(56.5007 -0.827025 2.67558)
(-0.247359 23.6434 16.8952)
(-0.24614 12.05 10.2613)
(-0.142331 1.17152 8.38705)
(-56.6934 8.62989 22.1305)
(-55.941 -20.5372 -21.1851)
(-58.1273 -4.0075 -68.6421)
(56.6907 7.53259 -81.2978)
(57.033 -1.95366 -65.9676)
(56.5434 -5.47093 -12.7151)
(-0.448039 13.4709 35.3666)
(-0.441827 0.912556 36.4788)
(-0.431206 -0.770844 60.9596)
(-58.2992 0.735204 65.6861)
(-57.8739 -9.49199 26.7701)
(-57.5404 8.45927 -98.7367)
(55.4533 -7.17864 -130.374)
(55.7342 -1.44144 -132.637)
(55.5457 -1.16284 -126.039)
(-0.24481 -0.489767 69.0642)
(-0.230319 -4.81516 71.9369)
(-0.231978 -3.33068 82.9155)
(-56.5692 -2.67501 109.174)
(-56.2767 6.34775 -52.29)
(-56.1239 -2.86026 -132.201)
(53.2458 1.03375 -160.389)
(53.4751 -0.364969 -161.744)
(53.4035 -0.125534 -159.966)
(0.417238 -0.457858 203.389)
(0.387279 -2.08605 175.344)
(0.363991 -0.0190634 160.669)
(-53.8097 2.74564 -2.77416)
(-52.2894 7.14971 -107.072)
(-52.656 6.87662 -151.762)
)
;

boundaryField
{
    fuel
    {
        type            fixedValue;
        value           uniform (0 0 0.25);
    }
    primary_air
    {
        type            fixedValue;
        value           uniform (0 0 2.5);
    }
    Secondary_air_RHS
    {
        type            fixedValue;
        value           uniform (0 41.6667 0);
    }
    Secondary_air_LHS
    {
        type            fixedValue;
        value           uniform (0 -41.6667 0);
    }
    outlet
    {
        type            pressureInletOutletVelocity;
        value           nonuniform List<vector> 
18
(
(0 0 -160.389)
(0.417238 -0.457858 203.389)
(0 0 -2.77416)
(0 0 -161.744)
(0.387279 -2.08605 175.344)
(0 0 -107.072)
(0 0 -159.966)
(0.363991 -0.0190634 160.669)
(0 0 -151.762)
(0 0 -158.636)
(0.35816 -0.00293139 160.421)
(0 0 -150.489)
(0 0 -160.225)
(0.380883 1.9559 175.309)
(0 0 -106.724)
(0 0 -159.049)
(0.407154 0.605384 202.517)
(0 0 -3.04675)
)
;
    }
    stove_body
    {
        type            noSlip;
    }
    frontAndBack
    {
        type            empty;
    }
}


// ************************************************************************* //
