/*--------------------------------*- C++ -*----------------------------------*\
  =========                 |
  \\      /  F ield         | OpenFOAM: The Open Source CFD Toolbox
   \\    /   O peration     | Website:  https://openfoam.org
    \\  /    A nd           | Version:  6
     \\/     M anipulation  |
\*---------------------------------------------------------------------------*/
FoamFile
{
    version     2.0;
    format      ascii;
    class       surfaceScalarField;
    location    "0.005";
    object      phi;
}
// * * * * * * * * * * * * * * * * * * * * * * * * * * * * * * * * * * * * * //

dimensions      [1 0 -1 0 0 0 0];

internalField   nonuniform List<scalar> 
10143
(
-3.49112e-07
3.11453e-05
2.58706e-05
-2.43708e-07
3.27009e-05
2.4172e-05
6.92168e-07
3.26332e-05
2.33772e-05
1.50494e-06
3.24789e-05
2.37397e-05
1.45166e-06
3.24008e-05
2.47127e-05
6.9045e-07
3.16984e-05
2.61973e-05
3.02512e-05
2.69835e-05
4.37139e-07
2.31349e-05
7.16068e-06
6.50612e-07
2.30198e-05
7.88048e-06
-4.0069e-07
2.27288e-05
9.43061e-06
-1.16091e-06
2.29929e-05
8.76171e-06
-7.3279e-07
2.32796e-05
7.04688e-06
-6.78527e-07
2.30684e-05
7.02223e-06
2.34796e-05
5.0615e-06
5.31276e-08
6.07507e-06
1.06954e-05
2.38287e-07
5.8643e-06
1.10586e-05
-1.83974e-07
5.42891e-06
1.20103e-05
3.14597e-08
5.52076e-06
1.14941e-05
7.38491e-07
5.55179e-06
1.12229e-05
-4.38689e-07
5.22294e-06
1.31898e-05
6.10512e-06
1.13656e-05
1.99535e-07
-5.94312e-06
6.74049e-06
9.84219e-07
-5.72278e-06
5.63545e-06
1.63049e-07
-5.2699e-06
6.4689e-06
-8.01571e-07
-5.33365e-06
6.78249e-06
-1.57956e-06
-5.49706e-06
6.78543e-06
-1.02452e-06
-5.31247e-06
4.85603e-06
-5.93075e-06
5.84831e-06
-5.22213e-09
-2.32186e-05
1.17134e-05
2.35896e-07
-2.30394e-05
1.15492e-05
-3.05046e-07
-2.25645e-05
1.20409e-05
-9.4848e-08
-2.30703e-05
1.17218e-05
6.81842e-07
-2.31335e-05
1.10619e-05
-1.34287e-07
-2.2674e-05
1.23307e-05
-2.30503e-05
1.1412e-05
5.31464e-07
-2.97387e-05
4.91285e-06
1.39978e-06
-3.09839e-05
5.54122e-06
7.21521e-08
-3.11545e-05
8.46401e-06
-4.6514e-07
-3.14213e-05
7.47573e-06
-8.82304e-08
-3.20919e-05
7.11759e-06
-6.44678e-07
-3.19382e-05
8.22059e-06
-3.00698e-05
5.37827e-06
-6.20662e-07
2.7504e-05
-1.30973e-06
2.67866e-05
-8.9038e-07
2.54449e-05
-8.94015e-07
2.54701e-05
-4.01055e-07
2.43051e-05
2.89428e-07
2.4399e-05
2.68859e-05
-1.0811e-06
5.29139e-05
3.31326e-05
-4.50864e-07
5.27516e-05
2.95512e-05
6.65205e-07
5.28389e-05
2.82503e-05
1.9214e-06
5.2689e-05
2.881e-05
2.11263e-06
5.25349e-05
3.09522e-05
1.04489e-06
5.19806e-05
3.42073e-05
5.22703e-05
3.52656e-05
4.39242e-07
3.42925e-05
2.64703e-06
-5.74467e-08
3.39212e-05
5.742e-06
-3.54171e-07
3.24715e-05
8.41773e-06
-5.38391e-07
3.28041e-05
7.15781e-06
-2.35809e-07
3.3238e-05
4.28962e-06
-2.93526e-07
3.38447e-05
3.8638e-06
3.45809e-05
2.14069e-06
4.26785e-07
1.04834e-05
1.1349e-05
7.3699e-08
1.15978e-05
1.01072e-05
-7.77817e-10
8.24201e-06
1.33353e-05
5.70615e-07
8.5902e-06
1.20918e-05
1.15297e-06
8.87644e-06
1.18192e-05
-1.54648e-07
1.10139e-05
1.40866e-05
1.05717e-05
1.03582e-05
8.82247e-08
-1.08743e-05
5.16381e-06
1.55654e-06
-1.10687e-05
3.91987e-06
1.99663e-07
-1.00716e-05
3.39336e-06
-1.12096e-06
-9.31496e-06
3.27564e-06
-2.16092e-06
-8.94188e-06
2.92791e-06
-1.13875e-06
-1.00205e-05
1.94775e-06
-1.08571e-05
3.22284e-06
7.09584e-08
-3.43843e-05
1.02011e-05
-4.74779e-08
-3.3981e-05
9.46578e-06
-2.73836e-07
-3.33355e-05
1.22236e-05
3.06825e-07
-3.3388e-05
1.19286e-05
9.26354e-07
-3.3022e-05
1.13163e-05
2.34914e-07
-3.32337e-05
1.28619e-05
-3.42875e-05
1.01432e-05
4.49389e-07
-5.16873e-05
1.7159e-06
9.5706e-07
-5.22962e-05
2.89785e-06
-8.4018e-08
-5.12522e-05
6.16401e-06
1.69764e-07
-5.15084e-05
4.13807e-06
3.89304e-07
-5.22531e-05
4.61428e-06
-4.45115e-07
-5.21772e-05
6.54389e-06
-5.21683e-05
2.56439e-06
-8.9443e-07
3.60762e-05
-2.14762e-06
3.48561e-05
-1.15302e-06
3.22186e-05
-1.28235e-06
3.30623e-05
-3.58091e-07
3.0056e-05
6.85084e-07
3.00358e-05
3.50699e-05
-2.06452e-06
6.16321e-05
2.8277e-05
-5.82498e-07
5.63092e-05
2.58587e-05
6.81032e-07
5.6916e-05
2.44917e-05
2.39335e-06
5.69032e-05
2.4719e-05
2.84916e-06
5.69326e-05
2.78743e-05
1.36075e-06
6.04297e-05
2.95139e-05
6.14417e-05
3.00168e-05
1.1554e-06
3.46269e-05
4.44582e-06
-1.39899e-07
3.50568e-05
6.93947e-06
-1.87498e-07
3.22983e-05
1.10223e-05
-6.6693e-07
3.29007e-05
9.66182e-06
-9.61235e-07
3.47706e-05
4.85126e-06
-3.78151e-07
3.56216e-05
6.06607e-06
3.63592e-05
2.18851e-06
4.47239e-07
1.07867e-05
1.14118e-05
-8.03503e-09
1.2718e-05
8.17512e-06
8.01436e-08
7.46806e-06
1.39964e-05
6.48973e-07
7.86313e-06
1.23755e-05
9.8054e-07
9.80595e-06
1.2026e-05
-2.48798e-07
1.39927e-05
1.21462e-05
1.27843e-05
1.0818e-05
-1.57654e-07
-1.1881e-05
5.73088e-06
1.57228e-06
-1.3712e-05
5.773e-06
9.28162e-08
-1.17028e-05
1.59806e-06
-1.21577e-06
-1.09556e-05
1.00126e-06
-2.25152e-06
-9.07087e-06
4.71585e-07
-1.08623e-06
-1.06899e-05
2.67224e-06
-1.27282e-05
5.30487e-06
1.06835e-07
-3.53916e-05
1.07379e-05
1.46043e-08
-3.55238e-05
8.7904e-06
-1.11314e-07
-3.58969e-05
1.204e-05
3.44313e-07
-3.53772e-05
1.07521e-05
6.57961e-07
-3.35119e-05
1.1164e-05
2.50205e-07
-3.44597e-05
1.22569e-05
-3.58154e-05
1.06295e-05
5.20459e-07
-6.11498e-05
2.43566e-06
1.04236e-06
-6.04824e-05
2.66037e-06
-1.52155e-07
-5.58592e-05
5.55025e-06
5.84651e-07
-6.15193e-05
7.32121e-06
-3.44246e-09
-5.65601e-05
6.45671e-06
-8.51714e-07
-5.57246e-05
7.705e-06
-6.12759e-05
2.50585e-06
-1.18294e-06
3.10073e-05
-2.82101e-06
3.02701e-05
-1.18411e-06
2.92185e-05
-1.86843e-06
2.70299e-05
-1.75755e-07
2.61877e-05
1.52631e-06
2.65962e-05
3.02593e-05
-2.55318e-06
6.14829e-05
2.2009e-05
-4.42125e-07
5.07154e-05
2.46562e-05
6.86042e-07
5.2197e-05
2.28576e-05
2.71894e-06
5.18801e-05
2.25516e-05
2.95537e-06
5.63803e-05
2.34852e-05
1.57055e-06
6.0422e-05
2.28126e-05
6.16859e-05
2.26139e-05
1.92477e-06
3.46376e-05
5.84584e-06
-9.05336e-08
3.42672e-05
2.97542e-06
-1.57616e-07
3.35607e-05
9.57752e-06
-1.22689e-06
3.39285e-05
8.63633e-06
-1.42978e-06
3.43588e-05
6.28355e-06
-8.60947e-07
3.51824e-05
6.16017e-06
3.54098e-05
4.06443e-06
3.47393e-07
1.1332e-05
1.12537e-05
2.29136e-07
1.09878e-05
9.7112e-06
1.01952e-07
1.05247e-05
1.32523e-05
7.28378e-07
1.02739e-05
1.14377e-05
6.35123e-07
1.09257e-05
1.1066e-05
-1.5024e-07
1.39832e-05
1.22664e-05
1.24103e-05
1.06499e-05
-8.00402e-08
-1.1726e-05
6.88389e-06
1.036e-06
-1.19591e-05
5.59688e-06
-4.29382e-08
-9.75486e-06
7.80102e-07
-1.30568e-06
-9.76956e-06
2.54835e-07
-1.84836e-06
-1.10566e-05
8.52502e-07
-8.18824e-07
-1.17478e-05
5.17113e-06
-1.27246e-05
7.56329e-06
1.25292e-07
-3.51185e-05
1.09487e-05
4.55452e-08
-3.53368e-05
9.27807e-06
-9.46781e-08
-3.39116e-05
1.1633e-05
5.57751e-07
-3.34124e-05
1.16837e-05
4.59178e-07
-3.42772e-05
1.0004e-05
3.16366e-07
-3.36589e-05
1.21015e-05
-3.52126e-05
1.03747e-05
7.72372e-07
-6.14556e-05
4.51373e-06
9.72078e-07
-5.99424e-05
3.54987e-06
3.34748e-07
-5.49995e-05
7.14455e-06
8.43491e-07
-5.88585e-05
8.00039e-06
-3.7789e-07
-5.34724e-05
6.98431e-06
-1.457e-06
-5.26535e-05
5.38057e-06
-6.13601e-05
3.68205e-06
-1.34123e-06
2.3578e-05
-2.78177e-06
2.40296e-05
-1.63882e-06
2.51163e-05
-1.8852e-06
2.11145e-05
-6.01689e-08
2.26948e-05
1.86624e-06
2.38516e-05
2.3519e-05
-2.35558e-06
6.14475e-05
1.50825e-05
-4.99141e-07
5.51152e-05
1.9435e-05
5.52446e-07
5.50109e-05
1.86098e-05
2.88407e-06
5.43403e-05
1.79525e-05
2.88191e-06
5.97618e-05
1.58855e-05
1.73193e-06
6.01839e-05
1.57394e-05
6.14921e-05
1.50699e-05
1.8567e-06
3.46752e-05
7.08239e-06
3.06943e-07
3.46117e-05
3.38519e-06
-6.743e-08
3.57378e-05
5.92919e-06
-1.48503e-06
3.54814e-05
5.62295e-06
-1.93725e-06
3.52217e-05
6.78454e-06
-1.04542e-06
3.49974e-05
7.51543e-06
3.44779e-05
6.49781e-06
6.03383e-07
1.0787e-05
1.16305e-05
1.31344e-07
1.08767e-05
1.03093e-05
1.41157e-07
1.33459e-05
1.34047e-05
7.37104e-07
1.20381e-05
1.20795e-05
6.20572e-07
1.26755e-05
1.15029e-05
-1.91124e-07
1.25686e-05
1.21517e-05
1.06672e-05
1.14453e-05
-2.77335e-07
-1.14266e-05
7.6262e-06
3.45417e-07
-1.13309e-05
5.33804e-06
-1.13697e-07
-1.05475e-05
3.49633e-06
-1.19306e-06
-1.07969e-05
2.65185e-06
-1.06622e-06
-1.21799e-05
4.02067e-06
-5.08346e-07
-1.13544e-05
6.27067e-06
-1.12425e-05
7.18126e-06
2.00385e-07
-3.48379e-05
1.1197e-05
-1.44142e-07
-3.52592e-05
1.07937e-05
1.44244e-07
-3.42499e-05
1.27257e-05
4.30522e-07
-3.41682e-05
1.21123e-05
4.67957e-07
-3.54244e-05
1.06998e-05
2.22034e-07
-3.35702e-05
1.25096e-05
-3.45305e-05
1.09771e-05
8.91123e-07
-6.11284e-05
6.48453e-06
8.05906e-07
-5.98171e-05
4.53709e-06
8.60885e-07
-5.98862e-05
8.59239e-06
8.47796e-07
-5.59522e-05
6.84816e-06
-1.168e-06
-5.49598e-05
5.64403e-06
-1.42825e-06
-5.67162e-05
5.4206e-06
-6.15991e-05
5.77182e-06
-1.26319e-06
1.58563e-05
-2.64082e-06
1.73266e-05
-2.21346e-06
1.67405e-05
-1.63033e-06
1.64138e-05
2.56161e-07
1.75592e-05
1.7379e-06
1.77428e-05
1.5913e-05
-1.90938e-06
5.91702e-05
9.68569e-06
-3.66279e-07
5.70561e-05
1.21176e-05
3.78267e-07
5.73065e-05
1.29188e-05
2.52867e-06
5.4677e-05
1.2743e-05
2.59952e-06
5.68337e-05
1.06129e-05
1.84909e-06
5.79644e-05
1.00463e-05
5.94736e-05
9.32728e-06
1.3916e-06
3.26842e-05
8.30394e-06
1.11276e-07
3.35522e-05
6.77128e-06
1.75666e-07
3.30786e-05
6.38766e-06
-1.22763e-06
3.35977e-05
5.75392e-06
-2.28084e-06
3.46766e-05
6.22248e-06
-9.69433e-07
3.3257e-05
9.13963e-06
3.32399e-05
7.91907e-06
9.56404e-07
8.27336e-06
1.29291e-05
-1.12349e-08
1.03496e-05
1.0409e-05
1.88381e-07
1.13077e-05
1.28538e-05
6.05644e-07
1.05646e-05
1.22452e-05
5.64128e-07
1.20413e-05
1.24119e-05
-1.6303e-07
1.04323e-05
1.18217e-05
9.58782e-06
1.28114e-05
-7.22417e-07
-9.21643e-06
4.49251e-06
8.67466e-08
-1.15681e-05
4.81137e-06
-2.27912e-07
-1.10606e-05
4.09957e-06
-9.95152e-07
-1.16719e-05
3.67847e-06
-7.02182e-07
-1.09181e-05
4.54379e-06
-5.25109e-07
-9.22186e-06
3.95972e-06
-9.32118e-06
4.03806e-06
6.21286e-07
-3.32134e-05
1.23078e-05
-4.10807e-07
-3.3847e-05
9.15416e-06
2.63402e-07
-3.39898e-05
1.30348e-05
2.20199e-07
-3.4183e-05
1.21337e-05
5.00286e-07
-3.41046e-05
1.05956e-05
5.27634e-08
-3.25433e-05
1.19208e-05
-3.30113e-05
1.2601e-05
6.43826e-07
-5.88058e-05
7.79732e-06
8.83246e-07
-5.85137e-05
7.86726e-06
1.14441e-06
-5.69068e-05
7.66684e-06
6.66357e-07
-5.57278e-05
6.00848e-06
-1.46082e-06
-5.37398e-05
6.28209e-06
-8.77269e-07
-5.66652e-05
8.04551e-06
-5.92968e-05
7.39501e-06
-1.12902e-06
9.98658e-06
-2.59394e-06
1.212e-05
-2.20419e-06
1.09484e-05
-1.52023e-06
1.19806e-05
3.40214e-07
1.28731e-05
1.41312e-06
1.16478e-05
1.00169e-05
-1.81609e-06
5.96868e-05
-5.90378e-08
5.94182e-05
3.01967e-07
6.0954e-05
2.32735e-06
5.94543e-05
2.44258e-06
5.92237e-05
2.02412e-06
5.87857e-05
5.94954e-05
1.47287e-06
3.63529e-05
-4.3692e-08
3.62277e-05
5.19872e-07
3.62217e-05
-9.42327e-07
3.64617e-05
-2.06528e-06
3.64042e-05
-9.11851e-07
3.60344e-05
3.64333e-05
1.06834e-06
1.3704e-05
-1.15721e-08
1.40376e-05
4.17058e-07
1.39362e-05
7.54436e-07
1.38438e-05
4.68352e-07
1.41223e-05
2.313e-08
1.44149e-05
1.44729e-05
-7.54914e-07
-1.36129e-05
1.86699e-08
-1.40139e-05
-3.47821e-07
-1.35713e-05
-9.75715e-07
-1.37717e-05
-8.58869e-07
-1.32191e-05
-7.13227e-07
-1.40664e-05
-1.42551e-05
5.67045e-07
-3.64697e-05
-2.95376e-07
-3.66966e-05
4.36229e-07
-3.6026e-05
1.2303e-07
-3.64016e-05
7.54238e-07
-3.60639e-05
2.43369e-07
-3.5678e-05
-3.61673e-05
6.47212e-07
-5.91315e-05
6.83869e-07
-6.21418e-05
1.31705e-06
-5.87262e-05
6.27883e-07
-5.95841e-05
-1.59378e-06
-6.03301e-05
-7.30504e-07
-5.90038e-05
-5.95279e-05
-1.06531e-06
-2.7303e-06
-2.18578e-06
-1.57834e-06
1.91388e-07
1.21568e-06
-0.000758863
0.0034546
-0.00162361
-0.00128495
0.003675
-0.0020183
-0.000723539
0.00405733
-0.00328498
0.000660854
0.00425442
-0.00410894
0.00120598
0.00406243
-0.00324664
0.000706294
0.00370551
-0.00194828
0.00349294
-0.00152634
-0.000627485
0.00356673
-0.000517593
-0.000919936
0.00365957
-0.00074599
-0.000500976
0.00379714
-0.00123033
0.000384803
0.00385191
-0.0015454
0.00081379
0.00381311
-0.00120516
0.000558035
0.00369825
-0.000654582
0.0036004
-0.000381619
-0.000171182
0.0015098
0.001728
-0.000237608
0.00151361
0.00172261
-0.000154331
0.00150495
0.00172974
1.0925e-05
0.00149625
0.00173633
0.00012059
0.00150953
0.00176408
0.000111444
0.00151586
0.00179796
0.00150878
0.00182939
-2.3802e-05
-0.00112757
0.00244493
-3.3473e-05
-0.00114409
0.00247707
-6.49365e-05
-0.00115744
0.00252806
-0.000111654
-0.0011618
0.00255889
-0.000110646
-0.00117514
0.00254947
-5.50825e-05
-0.001178
0.00251617
-0.00116816
0.00249289
-0.000154186
-0.00322822
0.0018124
-0.000224709
-0.00330426
0.00179696
-0.000188793
-0.00341253
0.0017913
-8.9597e-05
-0.00347132
0.00178493
9.46504e-06
-0.0034563
0.00177631
3.78117e-05
-0.00337456
0.00177755
-0.00330621
0.00178607
-0.00054227
-0.00326334
-0.000252487
-0.000834194
-0.00341889
-0.000471481
-0.00056955
-0.00371332
-0.000898959
0.000128169
-0.00392077
-0.00122009
0.000528895
-0.00378291
-0.00101531
0.00038271
-0.00349463
-0.000599517
-0.00333603
-0.000385075
-0.000624755
-0.00136446
-0.00110621
-0.00169799
-0.000763008
-0.00274345
0.000402591
-0.00360678
0.000923309
-0.00294163
0.000552648
-0.00185056
-0.00147633
-0.00165555
0.00370864
-0.00235535
-0.00311468
0.00428478
-0.00328761
-0.00160517
0.0050322
-0.00736658
0.00157599
0.00525583
-0.00953089
0.0031391
0.00502764
-0.00729163
0.00166351
0.00429862
-0.00326322
0.00369648
-0.00227649
-0.00110341
0.00386416
-0.000315003
-0.0016859
0.00402435
-0.000709376
-0.000915768
0.00411627
-0.00180339
0.00086221
0.00415046
-0.00267652
0.00173105
0.00414362
-0.00187608
0.00113186
0.00407274
-0.000656305
0.00386906
-0.000183808
-0.000176285
0.00149633
0.00355551
-0.000208859
0.00147593
0.00359028
-0.000127266
0.00140414
0.00366269
6.16066e-05
0.00135772
0.00369159
0.000179535
0.00140633
0.00370745
0.000168386
0.00147854
0.0036936
0.00149863
0.00370424
4.83017e-05
-0.00118037
0.0047571
8.29254e-05
-0.00118114
0.00481212
4.24403e-06
-0.0011416
0.00489011
-0.000132311
-0.00111401
0.00494272
-0.000183029
-0.00115023
0.00494382
-0.000108355
-0.00120746
0.00489923
-0.00121887
0.0048597
-0.000181024
-0.00346498
0.00364227
-0.000225875
-0.00362436
0.0036476
-0.000195407
-0.00369486
0.00367058
-0.000116866
-0.0037191
0.00368498
-4.87299e-06
-0.00374873
0.00367352
5.04599e-05
-0.00371134
0.00363666
-0.00357412
0.00362039
-0.000998324
-0.00340558
-7.06323e-06
-0.00156492
-0.00390043
-0.000395736
-0.00101021
-0.00448947
-0.00138848
0.000364347
-0.00476606
-0.00213537
0.00118871
-0.00463076
-0.00161093
0.000830708
-0.00401381
-0.000659545
-0.00354339
-0.000281654
-0.0014171
-0.0020525
-0.00274273
-0.00285513
-0.00168877
-0.00610369
0.00104453
-0.00846486
0.00252056
-0.00673362
0.00140354
-0.00322428
-0.00237277
-0.00280517
0.0039744
-0.00188111
-0.00440842
0.00473669
-0.0039699
-0.00187233
0.00471145
-0.0117975
0.00173375
0.00475132
-0.0153641
0.00452523
0.00495891
-0.0121337
0.00290332
0.00473714
-0.00404502
0.00395352
-0.00183604
-0.00166889
0.00405422
0.000754614
-0.00232007
0.00418066
7.06948e-05
-0.00136381
0.00392059
-0.00194263
0.00119159
0.00382571
-0.00399113
0.00261411
0.00400199
-0.00231581
0.00183769
0.00422073
9.49852e-05
0.00405097
0.000860126
-6.71097e-05
0.00145558
0.00552709
2.45275e-06
0.00137643
0.00556608
-2.11734e-05
0.00122465
0.00563395
5.85242e-05
0.00112999
0.00559778
0.00010875
0.00121119
0.00566765
0.000147182
0.00138544
0.00567717
0.00147163
0.00566331
0.000176313
-0.00121018
0.00689525
0.000257994
-0.00116891
0.00693084
0.00012606
-0.00104232
0.00696861
-0.000129874
-0.00101286
0.00701846
-0.000278526
-0.00106177
0.00703534
-0.00020367
-0.0011837
0.00704531
-0.00124584
0.00703752
-0.000145023
-0.00362322
0.00550028
-0.000136353
-0.00377849
0.00550518
-0.000129414
-0.00360591
0.00549597
-0.000159566
-0.00344805
0.00545947
-0.000123768
-0.00364387
0.00550262
-1.14234e-05
-0.00390239
0.00549012
-0.00378267
0.00547481
-0.0016081
-0.00359365
0.000939878
-0.00242114
-0.00430624
0.000309821
-0.0013198
-0.00455674
-0.00178652
0.000500267
-0.00416517
-0.00317966
0.00175951
-0.0045414
-0.00207905
0.00137221
-0.004522
-0.000252928
-0.00383403
0.000452593
-0.00255344
-0.0016351
-0.00422709
-0.00343567
-0.00187727
-0.010303
0.00110419
-0.0132406
0.00365414
-0.0111897
0.00252931
-0.00444213
-0.00227209
-0.0027762
0.00392993
-0.0013739
-0.00309134
0.00423289
-0.00549046
-0.00104888
0.00206004
-0.0143403
0.000990376
0.00252345
-0.0187777
0.00310936
0.00277955
-0.015394
0.00281556
0.00416279
-0.005661
0.00394571
-0.00125486
-0.0015561
0.00401778
0.0017411
-0.00155588
0.00388022
0.000286723
-0.00159627
0.00306681
-0.00295107
0.00130038
0.00294159
-0.00710947
0.00211071
0.0032096
-0.00346814
0.00179143
0.0039005
0.000381485
0.00401995
0.00195318
0.000141074
0.00137285
0.00731455
0.000327657
0.00128133
0.00723487
7.90891e-05
0.00119125
0.00706538
6.74538e-05
0.00102906
0.00685897
-6.17238e-05
0.00114288
0.00712905
1.29308e-06
0.00129892
0.00739481
0.00140994
0.00746572
0.000254933
-0.00120917
0.00884907
0.000349494
-0.0011439
0.00884339
0.000244502
-0.00100938
0.0088658
-9.87007e-05
-0.000962172
0.00891803
-0.000262617
-0.00104225
0.00891971
-0.000220864
-0.00111128
0.00893458
-0.00119621
0.0089457
-3.74438e-05
-0.00361171
0.00715024
-3.77095e-06
-0.00356176
0.007077
-8.11483e-05
-0.0030431
0.0068678
-0.000136098
-0.00282824
0.00666609
-0.000287747
-0.0029798
0.00681787
-0.000136138
-0.00369878
0.00702118
-0.0038476
0.00708498
-0.00170763
-0.0034918
0.00187685
-0.00232067
-0.00369399
0.000624649
-0.00149851
-0.00277561
-0.00293055
0.000703756
-0.00213883
-0.00601489
0.00121221
-0.00230507
-0.00336982
0.00134501
-0.00416435
-0.000362276
-0.00394959
0.00114749
-0.00258261
-0.00101693
-0.00312455
-0.00453186
-0.00103305
-0.0134172
0.000507745
-0.0156222
0.00250458
-0.0139348
0.00264122
-0.00660103
-0.00198144
-0.00234986
0.00370462
-0.00118308
-0.00209116
0.00268127
-0.00682534
-0.00059581
-0.000401334
-0.0145276
0.000874787
0.000469483
-0.0199972
0.00180122
0.000644501
-0.015934
0.0022677
0.00257946
-0.00718529
0.00362824
-0.00112848
-0.00132079
0.00384669
0.00213445
-0.00208459
0.0035128
-0.000134545
-0.0021302
0.00317055
-0.00669794
0.00238074
0.00334387
-0.0139825
0.00273652
0.00329107
-0.00655751
0.00155966
0.00354064
0.000266611
0.00383123
0.00243571
0.000211115
0.00128681
0.00862351
0.000233179
0.00128346
0.00855156
0.00010709
0.00128486
0.00823966
0.000313245
0.00107243
0.008193
0.000124486
0.00121094
0.0084834
-3.89721e-05
0.00128982
0.00877752
0.00132933
0.00884203
0.00026017
-0.00123929
0.0104493
0.000445971
-0.00121782
0.0105026
0.000395239
-0.00115385
0.0107045
-0.000117424
-0.00102038
0.0108456
-0.000281168
-0.00113868
0.0107544
-0.000216304
-0.00115819
0.0105757
-0.00117219
0.0105054
-8.43983e-06
-0.00350229
0.0084112
-0.000163113
-0.00337009
0.00839202
-0.000203182
-0.00324804
0.00805667
-4.52123e-05
-0.00333006
0.00795852
-0.000116087
-0.00318392
0.00805457
-0.000172236
-0.00340425
0.00828993
-0.00379627
0.00834166
-0.00162491
-0.00296345
0.0021786
-0.00300463
-0.0022586
0.000338074
-0.00246983
-0.000571587
-0.00633996
0.00163251
-0.00015468
-0.0130814
0.00198894
-0.000380757
-0.00674604
0.00117902
-0.00257586
-0.000807326
-0.00382554
0.00151091
-0.00174586
-0.000871902
-0.00139019
-0.00576749
-0.000196103
-0.0140088
0.000876563
-0.0159065
0.00181705
-0.0142337
0.0023865
-0.00822019
-0.00178258
-0.00253716
0.0032024
-0.000620184
-0.00251999
0.00089775
-0.00673342
-0.00113554
-0.00108107
-0.0138752
0.00133385
-0.00213477
-0.0195371
0.00181572
-0.000321699
-0.0152465
0.00234122
0.000588659
-0.00740209
0.00314652
-0.000737498
-0.00174914
0.00371614
0.00242598
-0.0039828
0.00347775
-0.00104457
-0.0012658
0.00352438
-0.0139284
0.00260338
0.00214131
-0.0221949
0.00444068
0.00301786
-0.0119225
0.00155318
0.00321478
-0.000149304
0.00346305
0.00271072
0.00026289
0.00133577
0.00945713
0.000239839
0.0013695
0.00944932
0.000771291
0.00112021
0.0089896
0.00020318
0.000786812
0.00911562
4.08969e-05
0.00105353
0.00938072
-0.000221501
0.0013066
0.00962692
0.00129564
0.00955517
0.000427478
-0.00133474
0.011671
0.000827556
-0.00135944
0.0118685
0.00065842
-0.00115956
0.0122271
-0.000296335
-0.000807314
0.0124161
-0.000612921
-0.00100979
0.0122077
-0.000308661
-0.00128858
0.0119192
-0.00126061
0.0118074
0.000105237
-0.00332035
0.00899674
-2.24086e-05
-0.00322249
0.00918827
0.000267461
-0.00333068
0.00889509
-0.000392003
-0.00208727
0.00892081
-0.000232857
-0.00318398
0.00897013
-0.00019884
-0.00340631
0.0092454
-0.00370561
0.00925504
-0.00171331
-0.00246664
0.00205561
-0.00396148
-0.000842671
-0.000380584
-0.00161159
0.000548561
-0.012702
0.00181446
0.00133172
-0.0202878
0.00384845
0.000373307
-0.0125663
0.00163424
-0.001243
-0.00126458
-0.00337058
0.00196517
-0.00140381
-0.000849633
-0.000646063
-0.00643649
0.00134418
-0.014525
0.00258618
-0.0149775
0.00288356
-0.0132596
0.00251259
-0.00802508
-0.0012827
-0.00239215
0.00256024
0.000321793
-0.00335237
8.2114e-05
-0.00492476
-0.00200585
-0.00176021
-0.0125723
0.000960431
-0.00219599
-0.0195092
0.00217426
-0.000891598
-0.014785
0.00212909
4.15882e-05
-0.00656475
0.00267449
-0.000248519
-0.00254445
0.00353081
0.00299129
-0.0044387
0.00269461
-0.002334
-0.00110301
0.00121987
-0.0207605
0.00154219
-0.000586007
-0.0274696
0.00434672
0.000361412
-0.0166334
0.0012984
0.00203668
0.000152448
0.00301003
0.00264624
0.000511744
0.0012988
0.00966299
0.000595718
0.00125304
0.00939851
0.000807906
0.000311688
0.00845258
0.000300876
-0.000458639
0.00834146
-0.000292286
0.000467892
0.00871798
-0.000534052
0.00137312
0.00921997
0.00131993
0.0093317
0.000859374
-0.001558
0.0123422
0.00189289
-0.00160777
0.0124111
0.00127302
-0.0005854
0.0125708
-0.000859244
0.000162888
0.0127861
-0.00152013
-0.000393801
0.0126725
-0.000641525
-0.00124412
0.0125632
-0.00130816
0.0126783
0.000652601
-0.00305001
0.00836216
0.000633739
-0.00200488
0.00829921
0.000446303
-0.00050745
0.00781018
-0.000459026
0.000687147
0.00812954
-0.00069558
-0.000913097
0.00861446
-0.000457049
-0.00276347
0.00932605
-0.00341417
0.00963717
-0.00102181
-0.00236068
0.0012717
-0.0015997
-0.000279916
-0.00239101
0.00168893
0.00102247
-0.018546
0.00172611
0.0012643
-0.0221248
0.00453681
0.00148355
-0.0182802
0.00242976
-0.000349456
-0.0020574
-0.0026721
0.00287935
-0.00159222
-0.000675343
-0.000947588
-0.00648302
0.00322538
-0.0169456
0.00454532
-0.0141122
0.00466921
-0.0110456
0.00291343
-0.00574649
8.00122e-05
-0.00124434
0.000778156
0.00347509
-0.00206056
-0.00256487
0.00110187
-0.00269859
0.00376105
-0.00205204
0.000659967
-0.0115137
0.0112824
0.000489434
0.000969428
-0.0209633
0.0181998
0.00122478
0.00196555
-0.0156887
0.0137594
0.00140161
0.000962568
-0.00625339
0.00591727
0.00160715
0.00179446
-0.000947466
-0.00282907
0.00142679
0.00602575
-0.00456121
-0.00266727
0.000866361
-0.00426001
0.00396939
-0.00257122
-0.00127456
-0.0206939
0.0215454
-0.000936803
-0.000871786
-0.0296246
0.0286808
-0.000172142
-0.0023715
-0.0143291
0.0170556
0.00109644
0.000386586
-0.00267931
0.00110313
0.00121958
0.00484627
-0.00405479
-9.68631e-05
0.00027038
0.00908052
-0.00877597
-2.02907e-05
0.000201309
0.00803863
-0.00838974
-0.000536819
-0.000590985
0.00631713
-0.00741222
0.0010876
-0.00111011
0.00520219
-0.00740878
-0.000208715
-0.000430808
0.00618381
-0.00755812
-0.000341315
0.000277384
0.00736286
-0.00800503
0.000236878
0.00792533
-0.00820726
0.000790627
-0.000530606
0.00960343
-0.0107402
0.00158564
-0.000459867
0.00959061
-0.0108263
0.00125482
8.85749e-05
0.00962435
-0.011007
-0.000442597
0.00119311
0.00966005
-0.0112355
-0.000995952
0.000574358
0.00970521
-0.0112089
-0.000458492
-8.18631e-05
0.00984814
-0.0110914
-0.000141473
0.00998644
-0.0110673
0.000896511
-0.00215735
0.00703999
-0.00737809
0.000882719
-0.00078009
0.00678617
-0.00728391
0.00052216
0.000682782
0.00565268
-0.00646768
0.00146831
0.000396519
0.00617865
-0.00708889
0.00052613
0.00115741
0.00736055
-0.00769571
0.000414226
-0.000901995
0.00861207
-0.00854543
-0.00126865
0.009514
-0.00894237
1.70628e-05
-0.00265353
0.00171863
-0.00217465
0.00500506
-0.00457952
-0.00688435
0.00548696
0.00616725
-0.00426384
-0.0174476
0.0197658
0.00606813
-0.00136566
-0.0205302
0.0213341
0.0043814
-0.000276846
-0.0160544
0.018529
0.00363486
-0.00105702
-0.00274452
0.00337518
-0.000113561
0.00689754
-0.00484747
-0.000643777
-0.00129557
0.000317089
0.00162251
-0.0119822
0.00648814
9.52228e-05
-0.0189762
0.0165921
0.00298694
-0.0158849
0.0123597
0.002484
-0.00830523
0.00923307
0.000775658
-0.00258199
0.00407516
0.00372018
-0.00206803
-1.06253e-05
0.000590838
0.00386907
-0.000340211
3.5174e-05
-0.00157494
-0.00127873
-0.000171865
-0.00954238
-0.000838103
-0.00116136
-0.0194053
0.000360972
-0.000791476
-0.0152268
0.000720497
0.000800754
-0.00649169
0.00145619
0.00196544
-0.00207604
0.0012399
0.00663814
-0.00300765
0.000237992
-0.00393614
-0.00358052
-0.00173526
-0.0193474
-0.00240901
-0.00249509
-0.0304421
-0.00133416
-0.00313205
-0.0137533
0.000247733
-0.000159576
-0.00400546
0.0012234
0.00435121
-0.000530243
0.000554496
0.0093561
-0.00107505
0.000530121
0.00752318
-0.000904061
-0.000249707
0.00380835
0.000779472
-0.00117862
0.00143768
0.00011349
-0.000405146
0.00323199
-0.000189392
0.000373878
0.00622032
0.000353697
0.0075939
0.000629323
-0.000454346
0.00920235
0.00137869
-0.000243593
0.00880458
0.0012663
0.000466127
0.0082619
-0.000354623
0.00117601
0.00809747
-0.000599883
0.000329471
0.00834508
-8.12196e-05
-0.000249469
0.00905192
-0.000201826
0.00951351
0.00170052
-0.00257979
0.00656086
0.0019261
-0.00036585
0.00582285
0.00127596
0.00223679
0.00373066
0.002227
0.0022149
0.0032607
0.00139507
0.00229258
0.00530644
0.000723003
-2.67214e-05
0.00820937
-0.000760059
0.00983586
0.00158425
-0.0034283
0.000215698
0.00622561
-0.00262509
-0.00966359
0.00906336
-0.000771749
-0.017841
0.00689181
0.00288176
-0.0200115
0.00374615
0.00240105
-0.0137875
0.00182686
0.000608567
-0.00189759
-0.000120363
0.0074732
-9.34296e-05
-0.00348556
0.00106857
-0.0146661
-0.00109185
-0.0166846
-0.000613341
-0.0127267
-0.000443374
-0.00520662
-0.00058958
-0.00112376
0.003979
5.74314e-05
0.000699974
0.00404182
-0.000475055
4.35834e-05
-0.000103388
-0.00109813
-0.000209001
-0.00782156
-0.000992068
5.81923e-05
-0.0186469
0.000628308
-0.00116371
-0.0147398
0.000121055
0.00108435
-0.00605765
0.00121582
0.00180309
-0.00166579
0.0010267
0.00735971
-0.00356713
-0.00140379
-0.000982929
-0.00493898
-0.00295956
-0.0158706
-0.00436562
-0.00124999
-0.0305697
-0.000258338
-0.00207005
-0.0172387
0.000844851
-0.000792718
-0.0036107
0.00176807
0.00384395
-0.00153582
0.00102696
0.0101236
-0.00492979
0.0014233
0.00739763
-0.00401573
0.00166905
-0.00229523
0.00118923
0.000658695
-0.00619632
0.00290166
0.00087058
-0.00205538
0.000311634
0.00105189
0.0062114
0.00091537
0.00777424
0.000431363
-0.000600262
0.00975099
0.00079364
-0.000551176
0.00975058
0.000898221
-0.000329345
0.0094428
3.48438e-05
-0.000348919
0.00931367
0.000242418
-0.00120019
0.00943023
0.000235664
-0.000719332
0.00998027
-0.000235877
0.0100657
0.00197118
-0.00336364
0.00648776
0.00139008
-0.00083872
0.00602945
0.00192694
0.00104306
0.00105587
0.00503273
0.00152714
-0.00248188
0.00452735
0.00360434
0.000283212
0.00131574
0.00201059
0.00803335
-0.000387086
0.0105707
0.00157181
-0.00394254
-0.00119629
0.00544324
-0.00223719
-0.0123579
0.00940683
-0.000351993
-0.0209005
0.00734985
0.00244256
-0.0194957
0.00347577
0.0025818
-0.00951813
0.00123178
0.000591915
0.00154019
-0.000298324
0.00828353
-0.000100853
-0.00581919
-0.000991897
-0.0150459
-0.00267797
-0.0144054
-0.00103529
-0.0109765
-0.000160573
-0.00253507
-0.000576434
0.000893511
0.0042376
0.000251995
0.000581055
0.00422304
-7.77836e-05
0.000185941
0.00104287
0.000364916
0.00104334
-0.00834717
-0.000438567
4.2066e-05
-0.0169219
0.000626458
-0.00112788
-0.0137802
-0.000183467
0.000274664
-0.00460878
0.000574628
0.00185729
-0.00102693
-0.000134997
0.00858814
-0.00108464
-0.0037561
0.00266263
-0.00201961
-0.00429369
-0.0100071
-0.00492862
-0.000430818
-0.0278955
-0.000716114
0.000331224
-0.0231671
0.00167812
-0.000771507
-0.0053228
0.00171299
0.00380284
-0.00408841
0.00161172
0.0117451
-0.00843245
0.00222131
0.00527175
-0.00738087
0.00253486
-0.010374
-0.0014766
0.00150383
-0.0144055
0.00347949
0.00162396
-0.00879211
0.00171332
0.00184435
0.00459351
0.00179224
0.00841906
0.000175741
-0.00124983
0.0116694
-0.000139335
-0.000741576
0.0124382
0.000732181
-0.0010442
0.0116546
0.000790483
-0.00176133
0.0120598
0.00134314
-0.00241642
0.0123721
0.000673473
-0.0012394
0.0130669
-0.000484977
0.0122934
0.00145841
-0.00396744
0.00680246
0.00267972
-0.00221104
0.0054812
0.00594756
-0.000658526
-0.0033935
0.00900145
0.00169942
-0.00952914
0.00817369
0.00519398
-0.00694311
0.00377096
0.00438222
0.00634795
0.00102153
0.0123304
0.000474178
-0.0036812
-0.00224723
0.00377464
-0.00179803
-0.0161948
0.00468605
-0.000570764
-0.0224435
0.00255
0.000473593
-0.0167344
0.000406539
0.00165437
-0.00434588
0.000507102
0.000288234
0.00514673
-0.00020276
0.00947772
-0.00193478
-0.0061424
-0.0036519
-0.0141996
-0.00309218
-0.0145678
-0.00190315
-0.0107528
-0.00061901
-0.00120867
-0.000733037
0.00234494
0.00447593
0.000217643
0.00079072
0.00421463
0.00257093
0.000171068
-0.000483953
0.00500819
0.00220451
-0.0118509
0.0014787
0.00223143
-0.0146071
6.44411e-05
-0.00113648
-0.0103411
-0.00022285
-0.00128035
-0.00205153
0.000274262
0.00223088
-0.000346765
-0.000842739
0.0100397
0.00273927
-0.00366522
0.00315163
0.00597707
-0.00461733
-0.00668179
0.00432693
-0.00138501
-0.0231623
0.00332766
0.00224219
-0.0260756
0.00364171
0.00169885
-0.00886026
0.00187864
0.00547094
-0.00367341
0.00110285
0.0127768
-0.00481802
0.00121405
0.00118789
-0.0068615
0.000526698
-0.0136152
-0.00572827
-0.000137231
-0.0171754
-0.00129819
-0.000698141
-0.0108903
0.00219331
0.000800287
0.00117326
0.00199267
0.00960559
0.000694697
-0.00187803
0.0132561
0.000540309
-0.000404902
0.0136745
0.000804421
0.000279395
0.0112545
0.00154206
-0.00102931
0.011852
0.000864688
-7.83973e-05
0.0119123
0.000275157
0.000312104
0.0135565
0.000332925
0.0137019
0.00127875
-0.00542803
0.00811185
0.00698067
-0.0039945
0.00261849
0.0110396
-0.00086845
-0.00708985
0.00847003
0.00416928
-0.0127097
0.00490238
0.00531393
-0.00914486