/*--------------------------------*- C++ -*----------------------------------*\
  =========                 |
  \\      /  F ield         | OpenFOAM: The Open Source CFD Toolbox
   \\    /   O peration     | Website:  https://openfoam.org
    \\  /    A nd           | Version:  6
     \\/     M anipulation  |
\*---------------------------------------------------------------------------*/
FoamFile
{
    version     2.0;
    format      ascii;
    class       volScalarField;
    location    "0.005";
    object      T;
}
// * * * * * * * * * * * * * * * * * * * * * * * * * * * * * * * * * * * * * //

dimensions      [0 0 0 1 0 0 0];

internalField   nonuniform List<scalar> 
3773
(
240.047
237.315
237.283
237.644
237.748
237.964
240.985
283.391
283.148
283.187
283.043
282.939
283.174
283.358
310.333
311.019
311.062
311.036
311.017
311.041
310.365
318.433
318.576
318.598
318.596
318.59
318.608
318.447
310.408
310.481
311.141
311.1
311.077
311.103
310.435
283.652
283.951
283.435
283.067
283.111
283.406
283.533
241.041
238.44
238.55
238.94
238.311
237.93
241.305
219.223
217.809
217.549
217.615
217.942
218.475
218.88
271.572
275.631
276.007
275.909
275.707
276.142
272.69
313.737
311.526
311.657
311.69
311.927
311.424
313.755
324.501
324.526
324.612
324.648
324.651
324.48
325.023
313.957
313.891
312.07
312.044
311.931
311.896
314.043
272.273
272.053
275.774
275.842
275.762
276.175
272.397
219.369
218.367
218.383
218.584
217.956
218.134
218.981
213.948
214.5
213.432
213.448
214.015
214.542
213.883
267.543
272.239
270.954
270.283
270.213
271.743
267.727
313.979
311.787
313.845
313.914
313.486
311.235
313.711
325.253
324.443
324.939
325.356
325.439
324.511
325.206
313.85
311.886
312.341
313.118
313.762
312.551
313.741
267.753
270.981
271.766
268.82
270.836
272.159
267.759
213.898
214.481
213.839
212.915
213.603
214.799
213.869
213.124
215.61
215.024
215.109
214.308
214.055
213.171
267.709
274.327
273.32
272.89
270.881
271.723
267.758
314.002
311.478
312.338
312.569
313.305
310.876
313.817
325.265
324.559
324.88
325.192
325.003
324.597
325.188
313.95
310.723
313.373
314.53
313.574
311.101
313.804
267.815
272.034
271.018
268.4
271.775
273.913
267.78
213.081
214.111
214.337
212.276
214.783
215.172
213.148
213.041
215.052
214.665
214.623
213.986
213.784
213.02
267.803
274.012
273.288
273.697
272.559
272.586
268.049
314.092
311.323
311.113
312.072
311.567
309.919
314.091
325.299
324.457
324.794
324.742
324.551
324.663
325.276
314.053
310.783
312.047
313.142
312.777
310.735
314.043
268.066
272.845
271.993
271.092
272.169
273.201
268.006
213.074
214.097
213.919
213.212
214.512
214.086
213.024
213.289
214.784
212.73
214.999
214.734
214.234
213.223
269.09
274.107
275.591
274.611
274.191
273.899
268.973
314.497
311.19
311.118
310.577
310.393
310.308
314.308
325.395
324.448
324.339
324.587
324.216
324.879
325.363
314.396
311.429
310.76
311.069
310.745
311.749
314.337
269.276
274.968
274.134
275.735
274.75
272.903
269.036
213.357
213.234
214.257
212.828
215.528
214.275
213.243
212.774
210.352
212.268
212.54
212.562
212.722
212.83
271.95
273.785
272.467
272.131
272.184
272.551
271.942
311.952
312.274
311.119
311.583
310.895
311.574
311.187
326.924
327.784
327.542
327.561
327.96
326.875
327.998
311.938
315.6
311.703
311.103
316.419
311.86
311.233
272.161
266.252
272.45
272.605
267.972
272.506
272.027
213.035
211.816
212.684
212.399
210.11
212.813
212.921
241.369
241.517
243.159
245.2
243.013
241.516
241.164
290.546
290.127
289.688
289.619
289.603
289.821
290.503
345.052
344.955
344.797
344.656
344.781
344.902
344.813
361.771
361.75
361.714
361.709
361.705
361.732
361.732
345.113
344.983
344.828
344.737
344.77
344.899
344.95
290.389
290.268
289.96
289.784
289.966
290.335
290.634
240.049
240.732
241.943
243.676
242.288
240.745
240.498
242.351
244.916
258.149
270.729
258.022
245.246
242.461
291.457
290.5
290.425
291.539
290.408
289.174
292.118
340.452
340.053
339.684
339.432
339.699
340.933
340.143
361.083
361.135
361.199
361.052
361.219
361.115
360.997
341.239
340.408
339.973
339.886
339.812
340.228
340.483
291.93
291.734
291.331
291.842
291.406
291.413
292.308
241.188
243.684
254.151
265.413
256.205
244.072
241.587
245.764
258.208
296.068
318.122
296.394
259.162
245.939
287.966
286.791
290.186
294.477
290.056
285.849
288.653
336.76
335.905
335.666
335.429
335.638
336.69
336.396
360.88
360.773
360.818
360.886
360.788
360.621
360.639
337.537
336.385
336.174
336.131
335.962
336.094
336.802
288.822
288.417
290.337
293.73
290.766
287.634
288.626
245.783
255.144
288.491
308.111
292.266
257.322
244.603
254.843
279.27
322.533
338.654
324.236
282.186
255.708
288.257
288.396
296.699
304.102
296.999
288.061
288.346
332.935
331.864
332.681
333.24
332.64
332.831
332.564
359.691
359.668
359.618
360.032
359.765
359.676
359.577
333.461
332.91
333.101
333.919
332.959
332.082
332.86
288.627
289.569
296.19
302.284
296.938
288.954
288.06
255.161
277.181
317.134
329.051
319.336
280.51
253.977
270.969
308.008
326.54
336.022
330.467
309.423
271.477
292.17
295.963
304.502
318.792
305.671
295.962
292.092
330.504
330.019
331.748
333.123
331.862
330.844
329.707
358.403
358.16
358.384
358.836
358.699
358.783
358.856
331.367
331.24
332.238
333.433
332.238
330.263
330.08
292.262
296.719
305.065
317.348
305.632
296.742
291.605
269.154
302.027
326.375
329.945
326.052
311.515
270.363
285.035
315.259
326.252
331.511
329.338
315.546
283.266
298.827
303.144
315.611
339.482
316.135
303.924
297.946
330.642
330.197
331.575
334.581
332.328
331.182
329.273
356.733
356.127
356.443
356.884
356.908
357.053
357.723
330.306
330.905
331.964
334.548
332.235
330.41
329.983
297.867
304.196
316.711
335.811
316.972
304.892
298.057
279.105
308.734
329.182
328.98
326.093
318.53
287.017
289.655
315.17
327.517
330.278
329.196
313.837
289.742
299.188
309.33
336.171
348.045
330.544
309.697
298.713
327.94
328.765
332.238
335.348
332.517
330.408
327.479
354.175
354.264
355.489
357.07
356.014
355.447
353.531
327.041
328.805
331.21
334.345
331.747
328.77
327.981
297.717
307.067
327.081
340.953
332.389
309.92
298.056
284.859
308.565
329.927
328.196
326.188
318.404
292.407
278.083
313.935
324.141
327.158
329.263
308.596
277.04
285.269
302.906
337.82
345.525
331.062
296.968
284.877
323.574
324.808
328.878
334.711
327.842
325.021
324.041
353.774
351.295
353.596
354.959
353.525
350.835
352.545
321.99
321.31
325.572
333.221
329.375
324.554
326.927
283.866
299.833
324.753
338.321
334.54
306.748
285.344
267.602
316.412
325.096
324.127
323.764
315.822
283.996
269.002
302.485
318.71
323.776
326.519
306.287
269.214
284.264
311.475
337.235
342.532
331.379
299.937
280.686
318.048
318.437
320.878
328.266
321.591
318.972
318.647
350.586
347.575
348.894
351.181
348.788
346.578
349.22
314.394
315.904
320.114
326.804
322.006
318.545
323.268
281.421
306.138
327.66
336.818
333.857
310.407
282.358
268.161
323.734
321.91
322.41
322.377
303.496
273.27
261.737
298.41
316.512
321.431
326.013
305.31
262.741
286.177
317.121
336.831
341.691
336.654
310.545
280.937
317.028
318.038
322.633
331.2
323.145
318.873
317.441
347.285
343.138
346.019
349.962
346.218
343.172
347.157
310.923
315.165
320.411
327.463
321.74
317.885
322.677
281.432
312.701
336.388
338.702
334.03
314.965
282.861
276.354
324.234
322.528
321.044
321.528
295.691
266.665
259.948
296.968
311.23
320.911
324.995
304.84
260.66
293.487
321.382
336.157
340.026
342.602
320.749
286.562
319.971
324.647
337.635
342.829
335.476
324.837
321.521
344.781
341.435
343.298
347.111
343.277
341.618
345.927
311.649
320.007
331.198
339.253
336.245
323.563
323.131
285.716
327.523
341.636
339.723
335.22
318.377
289.875
294.972
323.466
323.094
318.259
319.079
295.084
264.777
260.236
297.723
308.946
321.196
322.405
303.68
263.123
299.514
328.807
332.868
335.403
344.289
330.853
303.035
322.978
333.813
342.944
346.684
341.219
334.035
325.725
344.656
342.331
343.952
347.314
344.11
342.74
346.301
317.558
330.089
336.686
344.347
343.575
333.682
326.024
300.409
337.803
341.779
337.522
335.46
328.245
299.283
304.564
324.14
323.618
315.827
308.949
298.951
264.917
262.383
299.304
313.588
326.831
319.639
298.551
266.2
301.871
327.927
330.742
334.008
343.453
337.135
306.452
329.044
340.874
343.607
347.29
343.665
341.062
332.007
347.582
347.204
347.414
349.733
347.717
347.404
349.019
325.58
340.726
342.782
346.516
345.658
343.318
333.179
315.237
341.692
339.844
336.029
332.107
329.382
304.119
300.933
324.89
328.645
317.9
313.393
299.565
269.199
303.436
316.761
327.937
333.176
308.139
292.431
287.261
321.692
331.682
334.753
337.467
344.612
335.683
305.258
332.274
343.937
344.351
347.045
345.438
341.336
331.339
347.589
349.442
347.823
348.908
346.966
348.369
348.329
326.914
342.919
345.31
346.324
346.064
346.618
338.355
314.657
341.779
339.109
336.519
334.429
333.701
326.493
285.006
306.683
331.088
329.075
325.891
323.207
314.135
297.336
312.088
325.918
328.495
329.636
309.013
296.261
301.358
311.207
338.251
346.638
332.09
312.364
300.593
328.706
329.254
332.485
335.72
332.605
330.791
328.257
354.407
352.583
354.518
357.013
354.999
353.661
353.665
327.723
329.116
331.351
334.388
331.821
329.142
328.727
301.515
306.623
326.075
338.9
335.053
309.803
299.628
288.252
306.341
326.647
326.724
325.594
315.609
300.463
292.427
311.766
325.476
328.363
329.573
308.707
284.798
302.527
307.636
338.139
346.583
331.903
310.82
301.556
329.185
329.996
332.633
335.89
332.768
331.459
328.704
354.594
352.535
354.422
356.929
354.856
353.425
353.783
328.69
329.772
331.62
334.579
331.98
329.909
329.686
300.596
303.08
325.256
338.875
335.045
307.796
300.394
280.714
306.912
326.126
326.417
325.233
315.612
295.236
286.889
311.659
325.207
328.121
329.536
308.341
277.709
301.994
306.021
338.08
346.261
331.751
307.521
300.472
330.789
330.438
333.054
336.375
333.153
332.323
329.35
354.682
352.469
354.234
356.8
354.596
353.199
353.866
329.746
330.63
332.454
335.257
332.308
330.91
330.74
298.306
300.683
325.035
338.903
335.038
306.967
300.209
275.865
307.918
325.669
326.04
325.061
315.351
291.741
283.16
311.819
325.145
328.076
329.558
308.02
273.599
299.257
303.239
338.054
346.123
331.487
304.761
299.954
331.944
332.067
334.15
336.839
334
333.259
331.237
354.7
352.473
353.958
356.605
354.2
353.071
353.909
330.951
331.463
333.568
335.93
333.145
331.44
331.873
295.823
300.146
324.913
338.865
335.055
306.82
299.463
276.374
309.795
325.399
325.94
325.016
315.244
291.473
283.481
312.229
325.175
328.185
329.767
307.778
277.305
297.854
302.369
338.027
345.885
331.272
302.534
297.606
332.406
333.118
335.57
337.297
335.32
334.057
332.483
354.701
352.795
353.779
356.255
353.887
353.092
353.94
332.039
332.037
334.624
336.465
334.228
332.954
332.701
294.275
299.903
324.864
338.869
335.022
306.804
298.664
283.518
310.48
325.204
325.982
324.96
315.337
294.915
286.649
312.652
325.177
328.18
329.784
307.842
284.865
297.394
302.312
337.989
345.769
331.097
301.494
297.214
333.896
333.929
336.263
338.371
335.972
334.495
333.675
354.702
353.263
353.739
355.814
353.757
353.263
354.045
332.681
332.8
335.785
337.751
335.076
333.684
333.637
294.373
300.321
324.865
338.8
334.954
307.175
297.787
284.469
312.519
325.233
325.808
324.537
315.765
297.365
289.39
313.428
324.744
327.715
329.589
308.161
288.578
298.184
302.94
337.974
345.733
331.074
298.614
297.602
334.608
334.949
337.983
340.154
337.553
335.866
335.168
354.759
353.734
353.871
355.63
353.831
353.54
354.188
334.523
333.107
336.999
338.898
336.912
334.261
334.83
297.792
300.976
324.807
338.672
334.839
307.171
297.914
279.461
313.131
325.163
325.283
324.123
316.164
297.37
320.352
335.533
348.044
323.959
316.395
315.335
316.057
341.61
343.125
345.104
350.697
335.477
334.836
335.068
342.592
345.126
344.87
346.82
346.006
340.373
331.833
347.602
345.497
340.203
341.49
336.858
337.778
347.823
328.197
340.488
346.294
346.965
348.63
354.339
355.809
335.577
335.885
345.536
346.174
340.404
340.447
337.451
316.634
318.89
320.252
323.88
348.808
347.948
324.576
333.573
352.3
340.061
331.304
329.325
327.154
324.927
344.638
347.391
348.428
346.111
338.701
338.225
340.901
347.331
346.899
345.591
347.692
347.813
340.179
332.11
347.323
338.258
338.226
337.62
338.191
338.256
346.691
328.201
339.495
345.039
347.69
349.069
355.391
355.714
340.364
334.8
337.517
343.368
345.992
347.082
343.087
324.75
325.009
324.314
326.031
330.922
340.73
340.703
342.216
352.101
341.862
338.191
335.001
331.614
331.237
345.436
349.293
350.435
349.18
345.055
344.146
344.245
347.95
347.314
346.295
349.897
350.095
340.946
332.509
346.294
337.326
340.35
342.504
342.703
339.692
345.699
328.295
339.16
346.573
348.315
349.055
354.384
356.055
344.025
338.639
339.02
342.705
348.819
350.397
347.25
332.151
330.764
331.94
335.39
337.755
339.831
355.624
352.633
350.189
342.828
341.197
338.719
336.465
335.712
346.105
348.926
352.306
350.366
346.448
344.58
344.453
345.79
347.546
346.961
352
350.317
344.649
333.948
345.113
337.668
340.898
344.894
345.176
341.116
344.216
328.916
339.695
347.229
348.736
348.889
350.551
355.992
343.166
343.2
343.741
345.124
349.964
350.427
350.825
336.824
337.215
337.408
338.977
339.835
341.261
349.32
350.648
349.27
343.479
341.58
338.506
336.499
336.684
346.442
348.752
351.375
350.459
345.71
342.849
342.458
344.247
348.145
347.918
351.825
349.404
345.852
334.678
343.97
339.501
341.735
347.72
346.2
342.194
343.98
330.889
343.588
347.03
348.656
349.826
349.434
353.208
341.892
342.86
344.014
346.625
349.051
349.194
349.158
336.95
338.726
339.472
340.769
339.158
340.416
344.589
349.855
349.054
343.767
341.52
338.385
336.153
336.138
346.234
348.176
349.938
349.659
345.109
341.736
340.622
344.435
350.301
350.361
352.171
349.447
346.82
336.334
341.155
341.638
344.882
348.813
347.817
343.908
342.727
332.005
345.04
346.444
348.753
351.235
351.742
351.505
338.976
342.429
343.277
346.094
347.473
347.262
346.877
336.336
337.043
338.741
340.052
338.037
339.017
343.932
346.372
347.311
345.249
341.489
336.299
334.859
332.959
344.75
346.344
347.746
347.9
345.751
344.071
342.45
346.733
351.58
351.199
351.71
350.344
349.533
343.024
342.098
345.855
348.873
351.421
349.771
347.421
344.102
337.111
347.859
348.053
350.389
350.686
350.85
349.802
340.78
344.088
344.432
346.31
346.002
345.111
342.346
334.583
335.841
338.119
339.537
337.451
337.862
341.243
315.871
314.279
313.076
313.732
317.292
324.068
337.879
339.745
338.477
336.876
336.398
336.845
340.14
343.421
351.22
356.029
355.165
354.73
354.344
354.805
355.138
349.601
353.717
355.944
356.159
355.742
355.416
355.211
352.602
351.193
350.974
350.932
351.262
352.053
354.12
336.789
336.39
336.836
337.895
341.725
345.174
349.754
323.868
322.316
322.084
325.425
329.116
335.987
346.658
324.137
321.932
321.578
321.601
323.296
331.238
335.172
341.363
340.4
339.351
339.42
340.008
342.447
343.641
354.399
354.961
353.741
353.347
353.228
353.584
353.906
348.956
352.25
354.24
354.768
355.016
354.73
354.438
352.85
352.437
352.559
352.906
353.299
353.814
354.697
342.187
341.095
341.745
342.969
346.336
348.832
352.362
337.513
333.616
333.104
333.832
335.538
342.761
349.148
330.507
328.087
327.468
327.062
327.092
329.464
335.239
344.503
343.51
343.271
342.847
343.82
345.207
347.005
352.311
354.876
353.473
353.117
352.818
352.957
353.148
347.436
349.476
350.985
352.281
352.17
352.173
352.514
353.349
353.078
353.08
353.293
354.371
355.189
355.664
346.031
346.486
346.707
348.26
349.828
352.089
355.616
347.944
346.804
346.063
347.646
349.365
346.746
350.321
334.375
333.408
332.372
332.122
332.673
333.841
335.59
344.53
343.584
342.419
341.798
342.139
342.841
346.724
347.564
354.374
352.592
351.716
351.529
351.75
352.736
345.919
346.919
347.485
348.287
348.693
349.381
350.587
353.277
351.125
351.048
351.048
353.466
355.711
356.398
346.239
340.339
344.498
348.633
351.403
353.786
356.035
353.036
351.219
348.038
351.073
355.95
356.207
352.943
335.409
334.898
334.391
332.919
332.992
334.129
337.686
342.29
342.154
341.531
341.153
340.646
340.533
340.958
338.306
345.163
348.567
350.275
350.623
350.687
349.769
344.581
344.673
345.168
345.341
345.252
345.155
345.133
351.968
350.238
349.926
349.889
350.04
350.816
351.968
347.654
345.613
345.531
345.975
347.319
349.999
351.388
346.848
347.517
349.082
353.957
355.84
356.132
354.354
335.34
335.075
334.965
334.606
334.479
334.883
338.097
339.71
339.372
338.901
338.588
338.876
339.798
341.132
337.044
338.937
341.498
342.653
343.695
344.941
346.1
342.538
342.243
341.927
341.043
340.887
340.16
340.165
350.289
349.123
348.402
347.873
347.487
347.345
347.646
345.161
343.381
342.148
342.792
344.192
346.642
348.634
343.841
344.027
344.609
349.513
351.457
354.9
355.256
332.071
331.946
331.994
332.327
332.776
333.601
334.16
341.205
340.343
339.646
339.455
339.525
340.003
340.6
339.298
338.827
338.808
338.687
338.471
337.965
336.905
343.694
342.43
341.71
340.812
338.199
336.505
333.358
348.341
347.914
347.467
347.48
347.421
346.491
344.523
341.195
339.725
339.535
341.315
343.204
344.941
347.323
340.137
339.578
341.01
344.264
346.605
349.773
352.848
341.048
333.445
326.75
319.754
318.755
319.755
319.708
346.804
344.275
341.844
340.935
339.78
339.726
340.124
355.263
354.68
354.477
354.474
354.689
355.835
356.785
354.732
355.032
355.742
355.851
355.527
353.467
349.221
355.004
354.668
354.912
355.658
355.853
356.431
342.695
343.464
337.866
336.127
335.735
336.451
337.898
339.616
336.07
325.901
319.554
314.975
314.574
315.414
315.473
345.023
339.956
332.111
329.215
328.022
329.684
332.89
349.632
346.357
344.985
344.099
342.977
342.343
343.095
355.004
354.152
354.007
353.896
354.069
355.299
356.39
353.164
353.302
353.982
354.14
353.699
352.105
348.764
354.159
353.43
353.346
353.763
354.395
354.965
344.05
344.693
340.596
339.005
338.573
339.009
341.421
342.732
340.303
330.763
327.359
323.807
324.405
324.181
326.768
346.307
341.537
339.203
339.051
338.275
338.817
340.786
351.646
349.585
346.092
345.217
344.939
344.602
345.258
354.811
354.349
353.128
352.915
353.097
354.396
355.77
351.034
350.997
351.356
351.306
350.454
349.364
347.795
352.89
352.59
352.725
352.981
353.933
354.627
342.945
345.617
344.091
344.066
343.868
344.344
344.176
344.852
336.541
335.24
333.386
333.059
333.076
332.307
332.526
345.161
347.036
348.565
346.719
344.251
341.903
345.663
351.866
349.741
347.887
346.669
346.067
344.926
344.782
354.554
353.359
351.769
350.991
351.041
353.214
355.686
348.461
348.016
347.803
347.738
347.36
347.214
346.197
351.963
351.67
351.677
351.744
352.806
352.833
338.479
347.555
344.505
344.299
343.585
343.387
343.534
343.656
336.514
336.978
336.336
335.484
335.946
336.223
336.532
348.489
349.553
348.535
347.369
346.669
346.51
348.32
348.292
345.934
345.083
344.125
343.978
344.445
345.533
350.639
349.837
349.506
350.132
350.276
350.54
347.052
344.33
344.603
344.851
344.92
345.124
345.212
345.021
349.044
350.112
350.752
350.606
349.656
344.75
334.837
339.545
338.399
341.182
342.045
342.494
342.691
342.002
336.415
335.252
334.056
333.156
334.57
335.293
336.345
349.415
350.181
350.671
348.974
348.143
347.22
348.918
347.625
346.382
345.145
344.134
343.765
344.026
344.871
345.764
344.822
344.605
344.564
344.346
344.216
344.296
337.961
337.838
338.444
339.107
339.754
340.625
340.856
344.733
343.786
342.02
340.112
338.459
335.075
333.352
340.438
339.683
338.823
338.095
337.898
337.677
337.685
338.965
336.334
335.29
335.058
335.223
335.238
335.402
348.904
347.138
347.426
345.213
343.941
343.649
344.571
345.855
345.338
343.657
342.826
342.301
342.968
344.264
340.509
342.15
342.476
343.104
343.892
344.733
345.292
331.629
334.883
336.349
337.81
338.847
340.501
341.101
335.983
336.461
336.424
336.335
335.943
335.762
335.967
338.833
338.67
338.395
338.333
338.487
339.045
339.691
337.463
336.042
334.842
334.027
333.891
333.746
333.811
364.522
363.728
365.184
363.934
357.793
355.53
349.29
362.873
360.26
360.741
359.812
357.496
355.013
352.843
359.779
359.328
359.17
358.802
358.005
357.144
356.375
357.711
357.306
355.725
355.049
354.113
353.936
354.05
356.676
357.01
356.62
355.463
354.955
354.918
354.996
356.274
356.052
354.049
352.396
351.324
349.851
345.401
364.296
363.561
360.146
358.675
355.744
350.872
345.618
363.081
359.311
360.957
357.687
356.807
355.498
349.441
362.577
354.413
352.709
352.966
353.157
352.718
350.912
359.535
357.877
356.954
356.277
356.053
355.46
355.293
357.161
355.924
354.34
353.74
352.885
352.714
352.884
354.313
355.288
355.043
354.551
354.15
354.03
354.199
348.666
351.421
351.89
351.476
351.016
349.438
346.418
359.182
363.71
362.389
358.757
356.789
349.866
344.387
356.566
355.57
358.019
353.2
350.336
352.403
348.703
351.2
346.868
347.786
350.768
353.134
353.783
353.374
357.279
355.689
354.616
354.414
354.92
355.03
355.014
356.033
354.564
352.519
351.781
350.871
350.648
350.714
353.388
353.662
353.696
352.779
352.514
352.549
352.937
344.767
346.695
348.743
348.312
349.069
348.698
347.084
354.148
356.383
355.924
349.321
347.079
341.978
337.095
355.772
349.116
348.167
339.943
345.119
347.954
341.058
345.24
342.221
346.473
351.31
355.974
355.761
354.345
353.79
352.338
352.024
352.726
353.872
355.035
355.058
355.224
353.715
351.448
349.372
348.558
348.309
348.383
349.768
349.598
349.439
350.412
350.78
351.341
352.197
334.998
338.641
343.132
347.41
350.697
350.682
349.919
345.332
351.6
349.018
344.209
343.017
339.385
335.103
352.262
340.864
342.89
335.92
335.466
341.683
337.24
339.313
340.062
346.709
351.784
356.304
353.635
350.616
351.697
350.931
351.278
352.598
354.521
354.426
352.62
352.847
351.315
350.078
348.095
346.875
345.59
344.709
347.299
346.401
347.592
349.624
350.633
351.422
351.082
332.101
333.341
341.477
348.072
350.903
351.559
348.68
343.326
344.097
346.384
341.052
334.15
332.452
327.05
344.469
338.671
340.352
331.459
331.708
339.701
335.018
333.343
336.148
344.534
349.864
355.785
352.468
349.556
347.613
347.535
348.268
350.087
351.819
350.217
346.899
351.113
348.578
345.891
342.327
341.129
338.912
337.775
346.669
344.568
345.104
346.636
348.219
347.925
345.999
329.906
331.491
340.796
347.978
349.268
344.586
341.684
341.802
341.996
342.912
334.468
332.091
324.5
324.437
341.056
335.725
337.432
329.572
329.334
336.736
335.669
329.996
332.896
340.225
342.241
355.724
353.19
348.355
344.6
344.546
345.903
346.9
345.639
340.789
338.975
347.493
342.89
339.131
336.203
333.023
330.384
329.712
344.212
342.54
343.308
343.943
342.837
338.939
336.189
328.724
330.183
337.821
345.316
345.059
341.357
339.434
337.073
339.194
336.453
330.841
328.219
322.01
322.396
334.876
333.117
333.518
327.817
325.708
318.587
333.941
324.631
328.65
327.946
332.62
336.118
334.777
330.367
336.035
335.685
334.036
334.433
334.732
332.994
327.355
336.012
333.822
332.995
332.066
332.191
329.391
323.313
338.976
334.134
333.538
333.294
333.384
334.153
327.9
323.839
324.037
328.612
331.239
334.331
332.354
330.648
332.998
330.963
329.732
327.624
325.301
320.576
318.695
304.726
303.618
302.881
303.172
302.286
302.617
300.928
317.336
316.724
317.324
317.211
318.284
318.706
318.997
330.826
330.793
329.684
329.726
328.891
328.811
324.498
328.747
327.208
326.852
326.971
324.888
324.235
321.524
327.964
329.938
329.042
327.957
328.384
330.327
328.601
314.921
315.625
318.078
318.203
318.125
317.638
319.909
304.764
301.967
301.287
303.432
301.755
302.363
302.675
287.45
287.74
287.519
286.86
288.482
289.003
288.079
307.237
308.178
308.662
308.427
308.453
309.458
309.602
318.61
324.77
325.168
325.729
325.773
325.72
322.132
322.147
319.335
320.241
320.999
320.603
320.514
317.067
324.856
325.926
326.13
325.207
325.331
327.465
325.784
305.404
308.184
309.541
309.326
309.434
307.528
309.756
287.364
287.183
287.247
287.532
287.625
287.367
288.989
278.84
278.913
279.153
280.055
280.418
279.909
279.977
304.194
302.546
302.918
303.989
303.631
304.565
304.972
314.421
315.252
317.168
318.503
318.822
319.445
319.627
304.695
306.211
307.281
308.755
309.757
310.577
309.458
317.312
316.725
318.455
320.601
321.397
320.767
317.847
302.02
302.536
303.115
303.765
304.278
303.012
305.249
278.839
278.862
278.847
279.722
278.591
279.193
279.645
277.288
277.291
277.187
277.621
277.428
277.127
277.709
301.111
301.098
301.282
302.919
301.842
301.763
303.259
314.003
314.583
315.61
314.62
317.05
318.73
319.452
299.927
300.158
301.649
303.047
305.22
307.344
308.972
315.68
315.333
315.684
315.118
315.906
317.474
316.688
300.418
300.854
301.071
302.084
302.646
300.762
302.622
276.576
277.476
276.378
276.497
277.264
276.328
277.542
277.762
277.793
277.965
278.836
278.016
278.152
278.923
301.962
302.186
302.191
303.081
302.55
301.971
302.98
315.432
315.306
315.922
314.43
316.852
319.273
320.144
296.512
298.044
299.75
301.179
303.498
305.988
307.795
316.382
315.871
316.034
314.477
315.017
317.053
318.101
301.467
301.644
301.691
302.574
302.641
301.713
302.603
277.568
278.386
277.541
277.698
278.462
277.789
278.419
292.549
292.545
292.378
292.153
292.534
292.16
292.165
305.348
305.356
305.283
305.432
305.39
305.192
305.422
309.649
308.763
309.054
308.354
308.917
310.356
313.208
281.509
285.372
287.491
289.333
291.69
293.792
296.723
309.704
309.226
309.367
308.051
308.251
308.66
312.387
305.228
305.08
305.206
305.175
305.201
305.112
305.249
292.57
292.169
292.572
292.181
292.18
292.19
292.199
342.73
349.242
356.781
359.747
363.368
361.78
362.187
347.39
352.33
353.917
356.602
358.597
357.473
360.388
355.854
356.298
357.205
357.954
358.359
358.46
359.056
354.923
354.703
354.806
355.297
356.095
358.36
358.829
354.884
355.672
357.4
358.018
358.574
359.255
359.7
352.127
354.822
358.787
360.23
361.334
361.325
363.674
350.688
355.963
361.856
365.081
367.482
367.736
367.733
343.015
347.882
352.283
354.563
356.632
354.647
360.132
347.4
348.632
349.229
349.288
349.744
350.992
358.57
354.478
354.621
355.127
355.345
355.678
356.622
358.4
354.33
354.097
354.058
354.346
355.179
357.767
358.294
355.066
355.698
356.128
356.531
356.719
357.299
359.279
353.694
355.605
356.287
356.57
355.227
355.176
362.483
351.708
357.217
359.336
362.522
365.402
364.857
365.596
338.454
343.661
347.95
350.055
351.36
352.172
356.529
347.889
348.678
348.671
346.624
345.049
344.114
348.782
353.464
353.301
353.169
353.576
354.191
354.547
354.677
352.564
352.673
353.043
353.052
353.429
355.211
356.517
356.021
356.177
355.93
354.82
354.28
355.153
355.497
357.36
357.951
357.985
355.562
352.206
349.799
351.146
350.827
353.288
355.208
355.246
358.022
356.712
358.788
338.096
340.85
346.566
349.31
350.136
350.835
355.306
350.089
351.101
351.155
348.254
344.658
340.898
343.377
352.984
352.519
352.216
352.046
351.57
351.699
353.019
350.774
350.977
351.666
352.424
352.909
354.634
355.473
356.94
357.121
356.233
354.451
353.606
352.876
353.729
358.349
359.761
360.565
357.326
353.331
346.827
347.858
346.561
350.642
349.329
349.227
354.448
351.292
357.118
336.08
337.659
345.308
344.49
349.329
349.767
354.265
346.425
352.054
353.436
347.763
345.442
340.027
340.404
350.965
352.483
352.36
351.051
349.952
350.347
351.458
345.462
346.024
347.346
349.607
351.085
353.024
354.766
354.768
356.791
357.446
354.783
352.496
351.352
352.19
354.627
358.403
360.719
356.618
355.816
345.333
343.98
338.603
343.824
344.496
336.749
346.676
348.159
353.776
335.819
333.188
343.528
336.469
346.748
347.198
352.607
343.6
347.853
355.514
347.768
342.578
337.049
337.923
347.3
348.708
350.19
348.662
348.145
348.894
347.777
340.382
341.514
342.415
343.548
346.486
351.009
352.223
347.337
351.422
355.538
352.417
350.698
349.721
347.854
353.077
356.664
360.063
353.424
356.276
343.854
335.651
335.819
335.59
334.761
331.279
343.631
343.216
346.755
329.627
325.242
339.545
328.378
340.049
343.111
342.096
342.451
347.74
354.742
345.67
340.264
334.323
332.974
336.914
339.248
344.255
345.469
346.856
344.647
345.818
331.885
332.674
335.77
339.935
340.508
344
348.636
344.387
344.032
347.434
349.238
349.857
345.587
345.736
348.934
351.636
357.66
350.223
352.906
341.299
332.749
333.749
332.937
331.554
330.537
339.835
341.551
343.159
322.27
321.269
319.822
322.864
326.918
318.299
330.775
332.012
330.848
332.305
330.58
327.731
327.613
325.36
323.335
330.382
332.698
333.48
333.916
336.922
338.524
323.325
330.17
332.18
334.07
334.428
334.754
335.605
330.801
336.756
337.305
336.066
335.589
337.51
339.106
332.904
337.485
338.971
331.034
328.731
327.112
326.902
332.99
325.038
328.27
329.379
335.09
318.986
335.824
300.979
303.122
300.928
301.661
300.377
301.004
303.89
317.652
318.628
318.593
317.359
316.372
315.506
316.013
325.26
328.263
327.615
328
329.191
330.203
328.453
319.644
325.785
326.407
327.406
327.94
328.298
330.005
328.17
329.813
329.38
330.531
331.301
331.561
327.771
319.336
318.667
317.86
318.706
319.179
318.563
317.565
304.781
305.769
304.771
305.211
305.334
298.042
306.817
288.03
287.598
287.006
287.55
286.613
286.691
287.566
309.784
309.094
309.113
307.881
306.778
307.08
307.123
323.201
325.538
324.383
325.19
326.108
327.078
324.538
316.643
321.257
321.526
321.984
322.19
322.421
324.432
322.76
326.955
325.448
325.9
326.952
325.965
324.13
314.64
312.25
311.266
309.014
308.222
308.826
310.917
289.912
290.268
289.33
288.493
289.897
290.228
290.064
280.076
279.677
279.197
279.1
279.706
278.335
280.166
304.832
304.542
304.416
304.322
303.757
301.591
303.946
318.209
319.731
321.029
320.234
318.977
318.319
315.688
308.672
310.791
310.778
309.824
308.783
309.075
307.066
320.495
320.493
320.914
320.806
319.157
315.354
315.358
305.409
304.818
305.107
304.833
304.309
303.341
303.65
281.35
281.205
281.253
281.239
279.709
279.813
279.957
277.931
277.052
276.889
277.666
277.677
277.112
277.415
303.006
301.747
302.811
302.902
302.596
300.206
301.475
317.877
318.328
316.475
314.775
315.05
316.12
315.282
307.726
306.844
305.729
302.821
301.597
301.124
302.469
319.01
317.929
316.63
315.276
315.596
313.87
314.902
303.246
302.655
303.152
303.125
301.647
301.547
301.651
278.563
277.765
278.355
278.543
277.931
278.116
278.266
279.284
278.054
277.953
278.852
278.947
278.113
278.039
302.78
301.951
303.014
302.881
302.777
301.849
301.791
319.07
318.394
315.8
314.34
315.273
316.273
317.044
307.793
305.875
304.222
300.93
299.608
298.729
294.762
319.873
318.48
316.047
314.529
315.35
314.203
316.262
302.967
302.954
303.045
303.019
302.235
302.364
302.056
279.513
278.676
279.462
279.521