/*--------------------------------*- C++ -*----------------------------------*\
  =========                 |
  \\      /  F ield         | OpenFOAM: The Open Source CFD Toolbox
   \\    /   O peration     | Website:  https://openfoam.org
    \\  /    A nd           | Version:  6
     \\/     M anipulation  |
\*---------------------------------------------------------------------------*/
FoamFile
{
    version     2.0;
    format      ascii;
    class       volVectorField;
    location    "0.005";
    object      U;
}
// * * * * * * * * * * * * * * * * * * * * * * * * * * * * * * * * * * * * * //

dimensions      [0 1 -1 0 0 0 0];

internalField   nonuniform List<vector> 
3773
(
(24.2818 -0.0725767 0.169696)
(23.9184 -0.00431117 0.146454)
(23.9139 0.0332996 0.129147)
(23.9571 0.0401604 0.134799)
(23.9694 0.0554527 0.145881)
(23.9997 0.0470874 0.157907)
(24.4036 0.0659604 0.175348)
(7.8135 0.01749 0.0321181)
(7.79313 -0.0412421 0.0365176)
(7.79695 -0.0349272 0.0499064)
(7.79147 0.00167717 0.0489146)
(7.78581 0.00193555 0.0468533)
(7.79389 0.01593 0.0620156)
(7.81189 -0.00839351 0.0678343)
(3.17961 0.0351079 0.0413008)
(3.17486 -0.0126202 0.0494367)
(3.17533 -0.0317058 0.0592029)
(3.17498 0.0114748 0.0572248)
(3.17479 0.0238415 0.0589874)
(3.17515 0.0125841 0.0759344)
(3.17982 -0.0153075 0.0655398)
(-5.65456e-05 0.00766669 0.0509277)
(0.000107226 0.020757 0.0497304)
(3.59813e-05 0.0219599 0.0520173)
(-8.51497e-06 -0.00788341 0.05152)
(-1.58435e-05 -0.0310215 0.0492832)
(-3.31198e-05 -0.0337649 0.039276)
(-4.9007e-06 -0.0186902 0.0420924)
(-3.18036 0.0298106 0.0475863)
(-3.17664 -0.0127524 0.0507397)
(-3.17608 -0.029299 0.0549107)
(-3.17567 0.00789418 0.0546465)
(-3.17551 0.0196865 0.0551969)
(-3.17587 0.0127637 0.0687587)
(-3.18053 -0.0115809 0.0605629)
(-7.8203 0.0138352 0.0136893)
(-7.81653 -0.03587 0.025875)
(-7.8043 -0.0183076 0.0468959)
(-7.79122 0.0140304 0.0431911)
(-7.79184 0.0164492 0.0470116)
(-7.80171 0.0294877 0.0667921)
(-7.81728 -0.00429652 0.0697907)
(-24.4035 -0.0596188 0.187081)
(-24.0503 -0.0369604 0.168448)
(-24.0659 -0.0401581 0.156318)
(-24.1091 -0.0436257 0.157601)
(-24.0328 -0.0340311 0.143657)
(-23.9897 -0.00856792 0.145457)
(-24.4389 0.0448556 0.181465)
(20.6819 -0.0863208 0.455015)
(20.4516 -0.0200203 0.415292)
(20.4237 0.0225353 0.392455)
(20.4338 0.0464462 0.399255)
(20.4714 0.0673083 0.420485)
(20.5319 0.0554435 0.445926)
(20.6559 0.0757646 0.465519)
(6.93071 0.013054 0.000605115)
(7.02428 -0.0483464 0.0197212)
(7.03669 -0.0445763 0.0473096)
(7.03264 0.00581236 0.0412015)
(7.02502 0.0205659 0.027881)
(7.03783 0.0336661 0.0459778)
(6.95723 0.000283318 0.0415515)
(2.96232 0.0406399 0.0539174)
(2.94299 -0.00742697 0.0561339)
(2.94545 -0.0324641 0.0800665)
(2.945 0.013128 0.0737102)
(2.94685 0.0369664 0.0730881)
(2.94519 0.0210766 0.0969071)
(2.9621 -0.0187773 0.0744461)
(-0.000192111 0.00661808 0.0473473)
(7.67775e-05 0.0248695 0.0412811)
(3.41723e-05 0.0272486 0.0415783)
(-7.39642e-07 -0.0107825 0.041093)
(-1.64055e-05 -0.0389713 0.0379076)
(-3.71721e-05 -0.0383959 0.0236946)
(-1.74215e-05 -0.0184329 0.0299751)
(-2.96406 0.0334155 0.0529354)
(-2.95854 -0.0140088 0.0536465)
(-2.94908 -0.0332099 0.070008)
(-2.94832 0.00910135 0.0688881)
(-2.94644 0.0305128 0.0672098)
(-2.94813 0.0193609 0.0855453)
(-2.96469 -0.014734 0.0681432)
(-6.94711 0.0171449 -0.0191131)
(-6.92892 -0.038845 0.000546016)
(-7.03014 -0.0312997 0.0363997)
(-7.02897 0.0149752 0.0227428)
(-7.026 0.0334636 0.0315412)
(-7.03938 0.0437886 0.0652777)
(-6.94986 0.0008651 0.0450984)
(-20.7142 -0.0646904 0.486903)
(-20.5308 -0.0510424 0.464654)
(-20.5266 -0.0573054 0.438527)
(-20.5515 -0.0478635 0.435001)
(-20.4759 -0.0354168 0.413659)
(-20.485 -0.00312508 0.414159)
(-20.6687 0.0546916 0.470248)
(19.8972 -0.104367 0.492729)
(19.8756 -0.0436975 0.43533)
(19.771 0.0189426 0.407786)
(19.7751 0.0575485 0.413475)
(19.8318 0.0854434 0.456362)
(19.892 0.0730718 0.513635)
(19.8944 0.0876798 0.532168)
(6.80758 0.0131449 0.0437888)
(6.91293 -0.0366206 0.0668587)
(6.88004 -0.0385593 0.0907625)
(6.86293 -0.00163427 0.0812551)
(6.86107 0.0150669 0.0502009)
(6.90065 0.0299951 0.0539536)
(6.81234 0.0020488 0.0281116)
(2.95575 0.0382527 0.0892096)
(2.93039 -0.00615729 0.0702048)
(2.94971 -0.0295699 0.100455)
(2.95023 0.00995443 0.0907048)
(2.94636 0.0389283 0.0870566)
(2.92526 0.0214277 0.0935674)
(2.95342 -0.0233077 0.0761206)
(-2.07598e-05 0.00635705 0.0401074)
(0.0002423 0.0219417 0.0354873)
(5.32623e-05 0.0249897 0.0194358)
(5.09156e-05 -0.0113051 0.0173299)
(-1.26383e-05 -0.0415696 0.0142297)
(-3.52877e-05 -0.0386098 0.0172133)
(-2.13482e-05 -0.0179132 0.0294454)
(-2.95477 0.0322731 0.0784732)
(-2.93124 -0.0117855 0.0680028)
(-2.93562 -0.0307313 0.0894003)
(-2.94296 0.00746932 0.0833329)
(-2.9488 0.0315944 0.0806535)
(-2.93791 0.0186946 0.0877961)
(-2.95378 -0.0183707 0.0738359)
(-6.81296 0.0112846 0.0398969)
(-6.8818 -0.0313919 0.0406277)
(-6.90104 -0.0270685 0.0642178)
(-6.82612 0.00853336 0.0679471)
(-6.87707 0.0371691 0.0603309)
(-6.91119 0.0387169 0.0714172)
(-6.8132 -0.00291028 0.0316016)
(-19.896 -0.0782139 0.541046)
(-19.886 -0.0702685 0.520724)
(-19.815 -0.0641647 0.475365)
(-19.7372 -0.0568065 0.477692)
(-19.791 -0.0474144 0.436511)
(-19.9055 0.0185383 0.446172)
(-19.8941 0.0793066 0.532956)
(19.7759 -0.114287 0.36544)
(19.9423 -0.0492884 0.368826)
(19.8872 0.0193665 0.343495)
(19.8956 0.064605 0.341941)
(19.8261 0.0940157 0.37866)
(19.8035 0.0778547 0.384313)
(19.782 0.0929845 0.39157)
(6.81048 0.0177896 0.0472437)
(6.96515 -0.0232458 0.0445437)
(6.93869 -0.0354737 0.0860608)
(6.9279 -0.01223 0.0754824)
(6.87683 0.00691837 0.0463617)
(6.89899 0.0220446 0.04845)
(6.81193 -0.00355512 0.0235046)
(2.95588 0.0337107 0.0852452)
(2.92697 -0.00331072 0.067393)
(2.93488 -0.0250699 0.100303)
(2.93704 0.0074267 0.0892439)
(2.94401 0.0390502 0.0858387)
(2.92145 0.0193915 0.0872789)
(2.95429 -0.0245899 0.0776577)
(4.61476e-05 0.0084469 0.0424572)
(0.000150156 0.017943 0.038347)
(1.78542e-05 0.0177423 0.0101495)
(0.000164142 -0.0126251 0.0058573)
(-6.21804e-06 -0.0390697 0.00588188)
(-2.50183e-06 -0.0331131 0.0269322)
(-2.29179e-05 -0.015889 0.0422385)
(-2.95549 0.029726 0.0792134)
(-2.92 -0.00909172 0.0667013)
(-2.94453 -0.0274876 0.0862567)
(-2.95563 0.00607364 0.0814984)
(-2.94657 0.0338847 0.0769414)
(-2.92363 0.0190218 0.0860312)
(-2.95418 -0.0203885 0.0744195)
(-6.81336 0.0100264 0.0384297)
(-6.90714 -0.0238588 0.033874)
(-6.88046 -0.0181089 0.0560326)
(-6.81447 0.00910056 0.067164)
(-6.89987 0.0386626 0.0573537)
(-6.95481 0.028971 0.052319)
(-6.81255 -0.0119851 0.0256026)
(-19.7735 -0.0873517 0.401841)
(-19.8085 -0.0724437 0.401766)
(-19.8269 -0.0677462 0.402739)
(-19.6359 -0.0679913 0.34299)
(-19.869 -0.048218 0.358795)
(-19.9048 0.0266833 0.374405)
(-19.7799 0.0941005 0.398815)
(19.7636 -0.104136 0.267704)
(19.8877 -0.0477335 0.326486)
(19.851 0.0132522 0.29993)
(19.848 0.0648524 0.290323)
(19.792 0.0981897 0.278916)
(19.7732 0.0776667 0.277346)
(19.7626 0.0932619 0.276068)
(6.81253 0.0161383 0.0586012)
(6.95659 -0.0158287 0.0312128)
(6.93814 -0.027372 0.068908)
(6.94879 -0.019594 0.0643462)
(6.91985 0.00204998 0.0587544)
(6.92033 0.0169895 0.0583996)
(6.81901 -0.00846987 0.0449025)
(2.95672 0.0311769 0.0829613)
(2.92557 -0.000116241 0.0727118)
(2.92358 -0.0224911 0.0993075)
(2.93258 0.00447248 0.087162)
(2.92785 0.040514 0.0836634)
(2.91231 0.0180299 0.0879614)
(2.95683 -0.0263461 0.0802109)
(6.09753e-05 0.00663386 0.0485462)
(0.00019346 0.0102255 0.0360671)
(4.11501e-05 0.0103974 0.0146093)
(3.33422e-05 -0.0123178 0.00973703)
(-2.73692e-05 -0.0313004 0.0163697)
(7.74786e-05 -0.0240836 0.0369886)
(-1.79258e-05 -0.0116966 0.0472854)
(-2.95639 0.0268113 0.0797258)
(-2.92059 -0.00817224 0.0728007)
(-2.93238 -0.0246803 0.0887216)
(-2.94277 0.00420553 0.0867834)
(-2.93929 0.0345909 0.0746188)
(-2.92006 0.0182963 0.0868451)
(-2.95638 -0.0228832 0.0753567)
(-6.81941 0.0106125 0.0505832)
(-6.92737 -0.0182246 0.0365208)
(-6.90545 -0.0126903 0.0713958)
(-6.88273 0.0110398 0.0637183)
(-6.91021 0.0331607 0.058697)
(-6.93642 0.0214298 0.0514579)
(-6.81799 -0.016919 0.0442325)
(-19.7683 -0.0839609 0.283454)
(-19.8023 -0.0678026 0.292812)
(-19.7857 -0.0766352 0.298833)
(-19.7189 -0.0720676 0.261404)
(-19.8407 -0.0408619 0.289918)
(-19.8014 0.0310971 0.305501)
(-19.7636 0.0930588 0.288434)
(19.7849 -0.0899534 0.144426)
(19.8635 -0.0364088 0.203876)
(19.6736 0.00872052 0.201084)
(19.8826 0.0577638 0.19824)
(19.8587 0.0867066 0.161786)
(19.8133 0.0752644 0.156811)
(19.7796 0.0925991 0.143746)
(6.84468 0.0116539 0.0752279)
(6.95834 -0.0166551 0.0658409)
(6.99643 -0.021107 0.0859791)
(6.97173 -0.0175591 0.0875887)
(6.96114 -0.00136138 0.0941095)
(6.95317 0.0137882 0.105814)
(6.84202 -0.0112733 0.0899575)
(2.96031 0.0290482 0.0973259)
(2.92426 0.00404427 0.081474)
(2.92356 -0.0190389 0.106129)
(2.91842 0.00122118 0.100254)
(2.91679 0.0384705 0.0998311)
(2.9158 0.0170439 0.0974533)
(2.95869 -0.0277532 0.0968164)
(5.74475e-05 0.00221859 0.0460585)
(0.000170252 0.0029891 0.0385322)
(2.97794e-05 0.0067439 0.0283796)
(-2.62623e-05 -0.0111703 0.0233601)
(6.6875e-05 -0.0268117 0.0296855)
(-4.3529e-06 -0.0205715 0.0350207)
(-1.99061e-05 -0.00954811 0.0413731)
(-2.95942 0.0261805 0.0913472)
(-2.92664 -0.00513204 0.0758545)
(-2.92026 -0.0222052 0.10258)
(-2.92324 0.000353316 0.099441)
(-2.9202 0.03294 0.0898756)
(-2.92936 0.0167683 0.0983166)
(-2.95897 -0.025164 0.0957143)
(-6.8497 0.00693539 0.0708135)
(-6.98052 -0.0115409 0.0732152)
(-6.95966 -0.00572352 0.10152)
(-7.00042 0.00730201 0.09114)
(-6.97567 0.0322418 0.0905187)
(-6.92802 0.0196927 0.0920537)
(-6.84369 -0.0174023 0.0805095)
(-19.7924 -0.0811395 0.156286)
(-19.7214 -0.0635959 0.185298)
(-19.8144 -0.077906 0.167522)
(-19.6835 -0.0680064 0.175713)
(-19.9317 -0.0366812 0.195459)
(-19.8175 0.024088 0.182678)
(-19.782 0.0887229 0.153198)
(19.6773 -0.0878371 0.162622)
(19.4532 -0.0254782 0.185085)
(19.6321 0.0111915 0.194631)
(19.656 0.051152 0.190255)
(19.6578 0.0794147 0.172687)
(19.6726 0.0751068 0.176859)
(19.6828 0.09383 0.164586)
(6.90357 0.0123282 0.0181915)
(6.95004 -0.01254 0.0234002)
(6.91657 -0.01744 0.0379081)
(6.90818 -0.0160694 0.0358237)
(6.90951 0.00610096 0.0378431)
(6.91875 0.0188698 0.0542107)
(6.90357 -0.0142875 0.0406723)
(2.93144 0.0270164 0.0417592)
(2.93455 0.00484754 0.027001)
(2.92362 -0.01489 0.0408632)
(2.92792 0.00261816 0.0418444)
(2.92153 0.0414095 0.0427473)
(2.92787 0.0180877 0.0393202)
(2.92445 -0.0299718 0.0409965)
(6.09275e-05 0.0024135 0.00184419)
(0.000274341 0.00153604 0.00257248)
(8.81671e-05 0.00510501 -0.00248911)
(-4.54841e-05 -0.012047 -0.00482942)
(0.00024638 -0.0294856 -0.00253495)
(-9.68796e-06 -0.0221427 -0.00408437)
(-1.80941e-05 -0.0104637 -0.00111682)
(-2.93137 0.0223007 0.0357709)
(-2.966 -0.00489879 0.0167991)
(-2.92911 -0.0169631 0.040225)
(-2.92351 -0.00129875 0.0383381)
(-2.97378 0.0370454 0.0353013)
(-2.93057 0.0223938 0.0405981)
(-2.92489 -0.0268285 0.0430866)
(-6.9092 0.0106727 0.0166251)
(-6.75951 -0.0100031 0.0359672)
(-6.91639 -0.00499488 0.0398762)
(-6.92025 0.00587338 0.037555)
(-6.80352 0.0338423 0.0388693)
(-6.91777 0.0180798 0.0424421)
(-6.90578 -0.0213817 0.028743)
(-19.7021 -0.0789369 0.171898)
(-19.5891 -0.0656304 0.196584)
(-19.6692 -0.0798365 0.179444)
(-19.6441 -0.0649039 0.18685)
(-19.4304 -0.0420586 0.192174)
(-19.6821 0.0152119 0.181813)
(-19.6918 0.0891965 0.167879)
(22.0657 -1.478 -4.6988)
(22.0702 -3.85973 -5.65564)
(22.1798 -3.92864 -8.46887)
(22.3388 -0.123067 -10.2219)
(22.1688 3.68676 -8.38879)
(22.0848 3.61746 -5.44669)
(22.0723 1.33808 -4.38628)
(7.23281 -0.591263 -0.719231)
(7.21634 -1.4723 -0.995681)
(7.19327 -1.39553 -1.52926)
(7.18281 -0.117252 -1.84719)
(7.19442 1.1937 -1.49023)
(7.22008 1.31912 -0.856485)
(7.24751 0.527454 -0.5314)
(3.14414 -0.132209 2.08375)
(3.14136 -0.344945 2.07694)
(3.13646 -0.339335 2.09153)
(3.13328 -0.117176 2.10247)
(3.14074 0.117101 2.13207)
(3.15086 0.199603 2.16678)
(3.15498 0.0919686 2.19538)
(-0.0304278 -0.0250171 2.8471)
(-0.028965 -0.0509794 2.88755)
(-0.0271914 -0.0768123 2.94747)
(-0.0256777 -0.142623 2.984)
(-0.02328 -0.17842 2.97318)
(-0.0220902 -0.130068 2.93468)
(-0.0222719 -0.0434303 2.90818)
(-3.20607 -0.124305 2.19206)
(-3.19964 -0.318511 2.18037)
(-3.19069 -0.351655 2.17737)
(-3.1855 -0.234175 2.17002)
(-3.18726 -0.0613232 2.15757)
(-3.19483 0.0472336 2.15462)
(-3.20076 0.0317599 2.15779)
(-7.28673 -0.493439 -0.348406)
(-7.27459 -1.32441 -0.632867)
(-7.25063 -1.39375 -1.11942)
(-7.23627 -0.41009 -1.45704)
(-7.24774 0.674434 -1.26055)
(-7.27314 0.880958 -0.798708)
(-7.292 0.361642 -0.538195)
(-22.0229 -1.17267 -3.90277)
(-22.0718 -3.28774 -4.78935)
(-22.1423 -3.68709 -7.20157)
(-22.2733 -0.690317 -8.97214)
(-22.1666 2.65353 -7.63409)
(-22.0684 2.8127 -5.19385)
(-22.07 1.06577 -4.20669)
(22.1384 -3.27203 -11.6938)
(22.3497 -9.42825 -14.6035)
(23.4441 -10.0953 -25.6501)
(24.5266 -0.0489289 -34.393)
(23.4247 10.026 -25.5531)
(22.3743 9.54445 -14.3645)
(22.1422 3.26858 -11.2172)
(7.26209 -1.03854 -1.38908)
(7.22159 -2.71837 -2.06646)
(7.19212 -2.74676 -3.60864)
(7.20492 -0.0604701 -4.82916)
(7.18659 2.7413 -3.63835)
(7.18537 2.78872 -1.83514)
(7.27469 1.06219 -1.01545)
(3.11777 -0.142687 6.30108)
(3.10778 -0.334224 6.33709)
(3.09624 -0.30331 6.44345)
(3.08887 -0.0514486 6.4944)
(3.09337 0.223441 6.54275)
(3.11278 0.300393 6.5772)
(3.11235 0.13646 6.59617)
(-0.014353 0.0353147 8.45617)
(-0.0152079 0.0995192 8.56451)
(-0.0163912 0.0681049 8.72016)
(-0.0162492 -0.103989 8.81856)
(-0.0161636 -0.252226 8.81295)
(-0.0152402 -0.227451 8.7192)
(-0.0139579 -0.0830393 8.64193)
(-3.15599 -0.144101 6.54084)
(-3.14478 -0.344691 6.51946)
(-3.13575 -0.370213 6.54444)
(-3.13085 -0.261673 6.56177)
(-3.13117 -0.0783836 6.53017)
(-3.13943 0.0519095 6.48416)
(-3.14539 0.0385302 6.46751)
(-7.30883 -0.945773 -0.560242)
(-7.2929 -2.51785 -1.26088)
(-7.26053 -2.68724 -2.73034)
(-7.26267 -0.633889 -3.83808)
(-7.25744 1.72411 -3.10448)
(-7.27728 1.99992 -1.77244)
(-7.31236 0.787353 -1.1356)
(-22.089 -2.78609 -10.1617)
(-22.3022 -8.24314 -12.6951)
(-23.1672 -9.33097 -21.7558)
(-24.1521 -1.40824 -30.2367)
(-23.3499 7.69464 -23.5037)
(-22.3258 7.83253 -14.0345)
(-22.1193 2.77464 -11.2916)
(22.4726 -5.94952 -12.6063)
(23.5907 -16.923 -20.1699)
(26.8246 -14.2721 -65.9496)
(28.762 0.128853 -93.8635)
(26.8815 13.3945 -64.5795)
(23.6612 17.6105 -20.0672)
(22.4745 6.13027 -12.2567)
(7.19031 -1.53232 0.345464)
(7.15376 -4.12617 -0.903518)
(7.22495 -4.20364 -5.25988)
(7.32341 -0.17901 -9.34693)
(7.21489 4.29541 -5.5553)
(7.12044 4.58808 -0.782392)
(7.19843 1.68986 0.66775)
(3.09808 -0.0531663 10.8691)
(3.08996 -0.0958493 10.9475)
(3.09181 -0.0842291 11.1156)
(3.08958 0.0314675 11.1285)
(3.08583 0.201285 11.2253)
(3.0896 0.251545 11.2305)
(3.0871 0.122454 11.2328)
(-0.00683903 0.136542 13.8536)
(-0.00525917 0.340517 13.9516)
(-0.00284108 0.30636 14.1064)
(-0.00188911 -0.00446045 14.2379)
(-0.00502714 -0.327106 14.252)
(-0.00723094 -0.377676 14.1902)
(-0.00796335 -0.157312 14.1397)
(-3.11994 -0.115019 10.9892)
(-3.10697 -0.263184 10.9748)
(-3.10413 -0.271313 10.9961)
(-3.10322 -0.243601 10.9807)
(-3.10141 -0.180016 11.0066)
(-3.09836 -0.0700765 10.9377)
(-3.10345 -0.00980869 10.9239)
(-7.22905 -1.47746 1.02587)
(-7.21103 -4.13298 -0.190241)
(-7.24849 -4.16264 -4.09925)
(-7.32931 -0.833796 -7.67053)
(-7.25487 2.75362 -5.0135)
(-7.17706 3.30813 -1.20869)
(-7.20551 1.27944 -0.00706509)
(-22.5069 -5.3079 -11.0863)
(-23.3434 -15.6498 -17.1695)
(-26.2659 -13.4192 -51.7137)
(-27.9642 -1.75338 -81.4436)
(-26.5655 10.3225 -59.8965)
(-23.5118 14.5233 -20.7555)
(-22.364 5.39259 -13.7153)
(23.3476 -6.99124 -10.2098)
(25.6163 -17.8491 -31.6838)
(29.2459 -8.38712 -110.76)
(30.7814 1.77964 -148.566)
(29.5257 5.31359 -117.679)
(25.8614 18.6026 -32.6245)
(23.4339 7.29184 -9.6444)
(7.20954 -1.38455 3.31734)
(7.23439 -3.9713 0.275353)
(7.44438 -3.68931 -8.75665)
(7.62939 -0.271696 -17.3139)
(7.45716 3.84436 -10.3065)
(7.22037 4.79385 0.454449)
(7.2178 1.65073 3.7672)
(3.06866 0.115012 15.5242)
(3.06836 0.296599 15.4307)
(3.08405 0.241413 15.3506)
(3.09169 0.11616 15.1511)
(3.08772 0.0883223 15.4854)
(3.07947 0.0399061 15.8071)
(3.06977 0.00650971 15.8393)
(-0.0070614 0.201167 19.037)
(-0.0056344 0.475104 19.1103)
(-0.000126627 0.469732 19.2031)
(0.00254752 0.117758 19.3648)
(0.00323996 -0.285417 19.3619)
(0.00202033 -0.3788 19.3599)
(-0.000893534 -0.172076 19.32)
(-3.0917 -0.0267417 15.3344)
(-3.08715 -0.104552 15.2319)
(-3.08685 -0.14149 14.9992)
(-3.09011 -0.184969 14.8027)
(-3.08506 -0.279666 14.9313)
(-3.06701 -0.262797 15.0978)
(-3.06832 -0.107128 15.1867)
(-7.24591 -1.54422 3.75532)
(-7.27324 -4.72428 1.0907)
(-7.44362 -4.29226 -8.27881)
(-7.58909 -0.815769 -13.6731)
(-7.45219 2.38182 -9.40656)
(-7.23041 3.38653 -1.00532)
(-7.1972 1.2426 2.1302)
(-23.428 -6.53631 -8.38559)
(-25.4497 -17.2708 -26.5398)
(-29.0807 -6.9395 -100.058)
(-30.1119 -1.07055 -121.921)
(-29.0136 4.66918 -105.289)
(-25.6468 15.4438 -36.2589)
(-23.2486 6.70843 -12.9878)
(24.8551 -6.67904 -8.85038)
(28.2329 -16.9754 -47.869)
(29.8845 -5.91132 -113.401)
(30.8646 4.17673 -159.481)
(30.3601 0.534824 -127.287)
(28.4222 17.6321 -50.4798)
(24.9334 6.74789 -8.24614)
(7.31345 -1.31242 5.16446)
(7.42691 -4.78384 -0.272165)
(7.64249 -4.78565 -10.006)
(8.00327 0.302614 -26.3744)
(7.68598 5.65659 -11.3204)
(7.44118 5.65285 0.310586)
(7.33215 1.65272 5.9372)
(3.04262 0.15835 19.3264)
(3.04743 0.240411 19.0819)
(3.06086 0.168718 18.8564)
(3.07552 0.332962 18.5972)
(3.07025 0.468028 19.1003)
(3.06716 0.197071 19.6059)
(3.05575 -0.0155819 19.6685)
(-0.0117792 0.19511 23.4506)
(-0.00869785 0.549743 23.5131)
(-0.00497112 0.655739 23.7826)
(-0.000566319 0.227289 24.0201)
(0.00262464 -0.303136 23.8988)
(0.0083242 -0.384997 23.7262)
(0.00892785 -0.164414 23.7041)
(-3.07872 -0.00772912 18.9562)
(-3.0786 -0.245687 18.775)
(-3.07575 -0.410168 18.4291)
(-3.0768 -0.212063 18.2003)
(-3.06721 -0.0315715 18.3675)
(-3.04792 -0.120483 18.617)
(-3.04081 -0.138471 18.7724)
(-7.35596 -1.61358 5.6552)
(-7.48021 -5.83084 1.23447)
(-7.67755 -6.12863 -10.0064)
(-7.96003 -0.807377 -22.6269)
(-7.6724 4.17277 -11.2213)
(-7.44118 4.41759 -2.29085)
(-7.299 1.26348 3.41513)
(-24.7646 -5.53288 -6.75569)
(-27.8596 -14.9611 -39.7516)
(-30.1427 1.38207 -111.846)
(-30.4385 1.9777 -128.019)
(-29.8503 4.10189 -111.601)
(-28.4767 15.7209 -58.7509)
(-24.792 6.69429 -12.7479)
(26.213 -7.93715 -7.00462)
(29.0144 -21.7229 -55.2376)
(30.1246 -8.90627 -114.928)
(30.2533 5.43997 -162.485)
(30.4045 -0.918066 -129.504)
(28.9472 22.7084 -59.372)
(26.0642 7.45479 -7.52692)
(7.50402 -2.12257 6.79302)
(7.62642 -7.81626 -0.332575)
(7.9195 -6.0938 -31.6089)
(8.50234 1.07259 -69.9306)
(7.94746 8.71472 -30.1607)
(7.66133 7.90301 1.27794)
(7.49036 2.00359 7.57101)
(3.0603 0.183311 23.0963)
(3.0507 0.245897 23.2872)
(3.05793 0.607932 22.4265)
(3.09241 0.825066 22.0709)
(3.07694 0.434937 23.0969)
(3.07798 -0.00803372 23.776)
(3.05271 -0.185398 23.568)
(-0.000327817 0.344938 27.7805)
(-0.00333248 0.924727 28.0108)
(-0.00545878 1.10679 28.877)
(-0.0024482 0.279791 29.4307)
(0.000822991 -0.615437 29.0178)
(0.0079683 -0.664232 28.3101)
(0.00799971 -0.275865 27.9989)
(-3.06238 0.12837 22.2801)
(-3.07201 -0.0621229 22.8122)
(-3.08195 -0.0525862 21.9187)
(-3.09746 -0.0929862 21.4826)
(-3.06906 -0.297936 21.9902)
(-3.05949 -0.206687 22.5385)
(-3.04971 -0.15188 22.2974)
(-7.50174 -1.93564 6.25733)
(-7.68047 -8.0744 1.01322)
(-7.97525 -6.02024 -29.9738)
(-8.4053 0.00936561 -66.3475)
(-7.95745 7.15659 -31.0116)
(-7.66722 7.18012 -2.21981)
(-7.48364 2.05305 5.05801)
(-25.7171 -4.87408 -7.00707)
(-28.4838 -19.4147 -49.209)
(-30.3143 13.0962 -115.255)
(-30.3368 9.86708 -128.271)
(-30.0656 11.7745 -112.745)
(-29.2367 20.6348 -66.5713)
(-26.3816 8.0897 -11.3048)
(26.6973 -11.9071 -2.86833)
(29.0732 -24.764 -54.127)
(30.0654 -14.076 -112.556)
(29.783 4.48952 -165.312)
(30.134 -5.03749 -129.494)
(28.7691 25.3312 -59.9658)
(26.66 11.3747 -4.65708)
(7.53974 -3.93167 6.92044)
(7.81009 -13.9754 -11.189)
(8.44842 -1.22397 -69.1057)
(8.69038 -0.894451 -94.2717)
(8.3242 3.23065 -56.3893)
(7.8384 12.5312 -9.00109)
(7.51758 2.60833 6.5801)
(3.0494 0.349386 24.0759)
(3.05999 0.340092 23.1608)
(3.10457 0.990565 20.8822)
(3.12489 0.987379 21.528)
(3.12214 0.218301 21.9241)
(3.09418 -0.187718 23.1034)
(3.04419 -0.415274 23.3702)
(0.00997397 0.568474 30.6061)
(0.00365533 2.00522 30.6649)
(-0.00462429 2.52141 31.2842)
(-0.00258335 0.379916 32.1386)
(0.00231451 -1.89963 31.5029)
(0.0019061 -1.59221 31.0685)
(0.00174213 -0.468895 31.2361)
(-3.03322 0.646152 21.3816)
(-3.07065 0.586862 21.089)
(-3.11625 0.621399 19.6425)
(-3.12557 -0.01881 20.8319)
(-3.10176 -0.679245 21.2879)
(-3.07289 -0.476178 22.6932)
(-3.04477 -0.394549 23.7907)
(-7.49373 -1.92007 2.85805)
(-7.767 -11.5436 -11.8305)
(-8.24308 9.04877 -63.0245)
(-8.5281 1.37929 -81.3412)
(-8.36425 4.40495 -60.0262)
(-7.83112 12.6573 -11.6623)
(-7.51284 3.92245 5.64513)
(-26.2248 -8.10189 -6.91546)
(-28.3521 -26.6988 -54.4947)
(-29.989 24.7587 -132.31)
(-29.9486 17.726 -125.962)
(-29.9315 20.8959 -105.074)
(-29.3568 28.5371 -62.2091)
(-26.958 13.2428 -6.15458)
(25.7549 -14.0977 21.0385)
(29.048 -18.5717 -30.7626)
(30.0359 -5.58405 -91.6555)
(29.8003 8.1239 -151.617)
(30.2527 -22.6397 -117.672)
(28.5295 21.3625 -47.3826)
(25.574 12.107 11.0423)
(7.2417 -7.06688 14.1079)
(7.68545 -12.0239 -15.2798)
(8.51212 0.849782 -75.0659)
(8.58251 -5.53857 -102.298)
(8.31733 -9.01917 -58.1224)
(7.52439 8.63838 -10.7446)
(7.19924 4.79437 11.4611)
(3.0424 -0.341937 20.1693)
(3.06757 -0.800494 17.709)
(3.09236 -0.49317 13.8049)
(3.14185 0.460357 10.2574)
(3.08557 0.950085 13.786)
(3.04682 0.116378 16.6407)
(3.02998 -0.0824971 17.9506)
(0.0249776 0.551417 22.8564)
(0.0271137 2.08856 22.7868)
(0.011467 2.8304 22.8207)
(0.0152899 0.812245 22.9353)
(0.00660898 -1.63193 23.0615)
(-0.00125095 -1.31133 23.4296)
(-0.00785121 -0.245273 23.6247)
(-2.97617 0.598923 15.793)
(-2.98736 0.615671 14.9553)
(-3.05616 1.37802 11.2869)
(-3.11945 1.93313 12.6823)
(-3.09396 1.68263 15.8025)
(-3.04956 1.53398 18.7852)
(-3.06744 0.703996 21.0278)
(-7.12863 -3.30861 3.90806)
(-7.5289 -6.56485 -18.8003)
(-8.13794 29.295 -65.4272)
(-8.5392 14.4849 -75.2208)
(-8.4691 6.65463 -63.7354)
(-7.80344 14.4265 -13.4483)
(-7.24657 8.09314 15.3589)
(-24.5903 -11.0577 -6.95574)
(-28.9057 -2.71494 -87.2526)
(-29.8827 26.5214 -134.002)
(-30.1272 4.40398 -108.2)
(-30.1555 2.89241 -76.1433)
(-29.3797 12.4876 -34.9602)
(-26.3346 16.8642 23.6023)
(24.9465 -8.49182 23.1212)
(28.0942 -11.8213 -16.1027)
(29.5488 -1.29574 -77.4155)
(29.5263 8.75755 -157.873)
(29.8258 -26.7142 -122.488)
(28.3589 20.5884 -48.5196)
(24.8625 7.71438 9.50378)
(7.23685 -6.12973 16.4694)
(7.93485 -11.755 -15.3453)
(8.57506 -2.76104 -68.1782)
(8.56818 -7.82002 -101.472)
(8.36484 -12.0224 -41.9851)
(7.60873 7.47908 -12.1546)
(7.09627 3.41734 11.7568)
(3.00118 -0.772489 20.7338)
(3.00795 -2.36073 17.4317)
(3.0243 -1.90847 12.2381)
(3.07493 -0.11018 9.85272)
(3.01008 1.04979 11.3714)
(2.98344 0.787135 15.0987)
(2.97567 0.272171 17.4397)
(0.0248807 0.498842 21.7019)
(0.020508 1.4704 21.2355)
(0.0118817 2.60806 20.7081)
(-0.000153402 0.903829 20.6001)
(-0.00748624 -1.14086 20.8745)
(-0.0133907 -0.371564 21.7868)
(-0.0148343 0.0150394 22.3938)
(-2.90171 1.13814 14.8819)
(-2.92747 2.21129 13.6373)
(-2.99046 2.66587 11.0715)
(-3.06766 3.20642 12.1384)
(-3.03458 3.24301 15.0605)
(-3.006 2.85318 18.6629)
(-3.04828 1.03414 22.2163)
(-7.05084 -0.387322 2.14578)
(-7.69028 -2.27886 -26.3843)
(-8.24187 28.9668 -53.381)
(-8.51469 19.1171 -66.4626)
(-8.50046 10.147 -49.5982)
(-7.91614 11.6163 -9.66609)
(-7.19081 6.19683 18.8316)
(-24.5879 -5.31817 -15.7399)
(-29.6443 5.80608 -112.22)
(-29.4895 -2.8124 -139.583)
(-29.9369 -11.8076 -106.719)
(-29.9725 -2.69406 -46.984)
(-28.2048 5.07905 -15.0593)
(-25.354 8.89547 25.247)
(24.2631 -5.6275 25.9086)
(27.71 -14.467 -6.03471)
(29.3567 2.52361 -66.4604)
(29.7212 17.1382 -154.193)
(29.9052 -29.9899 -121.82)
(28.2396 18.2415 -49.3644)
(24.2521 6.32358 12.7175)
(7.29568 -6.21783 21.7017)
(8.09479 -13.8849 -9.97416)
(8.57667 -3.37959 -61.0669)
(8.60143 -6.78447 -107.083)
(8.47995 -23.6654 -45.495)
(7.85466 13.8193 -12.7304)
(7.09571 3.59934 12.6847)
(3.00683 -2.16275 24.4952)
(3.0079 -5.63344 20.2831)
(3.03313 -8.65216 11.6056)
(3.07634 -3.06999 4.15739)
(2.98639 4.86344 9.83924)
(2.96269 2.77423 16.5226)
(2.94896 1.01258 19.4509)
(0.0357441 0.0184456 24.0237)
(0.0223124 1.1851 22.8686)
(-0.000410811 1.87288 22.7748)
(-0.0151131 0.956089 23.5723)
(-0.0248177 -0.228966 23.2011)
(-0.025833 0.217623 23.4057)
(-0.0243261 0.553918 24.6546)
(-2.85446 1.02894 16.2963)
(-2.90335 2.74515 15.2758)
(-2.98335 2.04525 10.9351)
(-3.07534 6.87599 9.39974)
(-3.03875 9.16516 15.301)
(-3.00961 5.1057 21.9492)
(-3.05622 2.10805 25.9179)
(-7.02067 0.0232579 -0.856844)
(-7.84523 -3.76274 -35.2608)
(-8.48022 31.1154 -65.0669)
(-8.58602 18.6909 -68.3395)
(-8.50842 10.6728 -39.3668)
(-8.03986 11.2727 -1.76533)
(-7.21455 5.93825 24.3397)
(-25.2079 -1.89137 -30.5592)
(-29.8319 -0.263397 -122.595)
(-29.6836 -18.4429 -120.465)
(-29.7428 -21.328 -90.9213)
(-29.7965 1.95506 -26.1336)
(-27.4442 5.72537 1.66573)
(-24.7308 5.39161 27.7152)
(24.0643 -4.22228 26.8734)
(27.566 -17.7042 1.77817)
(28.7785 10.798 -60.584)
(29.2636 21.2031 -142.749)
(30.0171 -29.4904 -118.751)
(28.1859 13.648 -44.4506)
(24.03 5.71874 11.6756)
(7.47525 -4.86504 24.7761)
(8.20683 -14.2404 6.7094)
(8.56748 6.41777 -47.5295)
(8.56899 6.47472 -106.072)
(8.58081 -37.6036 -72.8837)
(8.048 16.9989 -8.87205)
(7.19608 4.09786 12.652)
(3.04236 -2.48878 29.5594)
(3.0747 -13.6075 21.525)
(3.18075 -15.0136 -19.4519)
(3.18185 -9.7475 -34.3149)
(3.07036 2.58439 -16.8817)
(2.96847 6.76742 18.3356)
(2.9482 0.751563 22.8943)
(0.0604772 0.239723 27.3445)
(0.0377382 0.381324 28.2064)
(0.00374778 0.399567 27.0397)
(-0.0199649 1.39183 25.6237)
(-0.0347199 2.08455 26.9408)
(-0.0459428 1.17035 28.8276)
(-0.0509223 0.533644 28.1922)
(-2.82433 1.77898 18.3219)
(-2.91105 1.72371 17.6106)
(-3.07798 7.76201 -1.71035)
(-3.20565 15.354 -19.5067)
(-3.19195 16.6372 -9.84023)
(-3.07398 12.867 23.2736)
(-3.07736 1.90107 31.1377)
(-7.08496 -1.8331 -3.93388)
(-8.16131 -1.89841 -44.4375)
(-8.61568 21.5179 -81.6827)
(-8.66567 -2.09313 -68.8427)
(-8.58943 2.81051 -25.6522)
(-8.12885 10.2646 16.3008)
(-7.39916 3.24877 27.6394)
(-26.7347 -5.10024 -44.5869)
(-29.7179 -21.7983 -119.072)
(-29.8609 -26.0148 -118.258)
(-29.5208 -31.3479 -90.3157)
(-29.59 2.90976 -16.8674)
(-27.3835 5.61425 11.9912)
(-24.5382 3.11484 29.3274)
(24.0428 -1.00959 29.1382)
(27.5503 -21.0251 6.05911)
(28.1793 50.5546 -86.2207)
(29.0133 26.3832 -137.011)
(29.719 -22.0297 -111.063)
(28.0444 8.37171 -26.953)
(24.1973 3.91377 14.4789)
(7.61644 -4.52267 29.5034)
(8.35999 -12.6472 8.20486)
(8.45839 18.2378 -36.6612)
(8.46133 35.922 -102.486)
(8.57935 -11.4818 -98.9809)
(8.19037 15.2477 -23.2716)
(7.54645 7.9072 15.0895)
(3.06019 -5.05442 31.2199)
(3.16658 -13.0775 2.41449)
(3.26609 -7.54408 -42.7926)
(3.26486 -12.0923 -48.8675)
(3.10297 -12.4945 -34.8272)
(2.97588 7.03561 5.33874)
(2.9294 2.88342 24.4979)
(0.0874732 1.22225 33.5621)
(0.0734478 0.492468 32.4022)
(0.0398694 0.712581 26.6129)
(-0.008769 2.26963 28.5063)
(-0.0521786 2.33076 29.133)
(-0.0819385 1.89781 33.5227)
(-0.0825364 -0.280337 34.5627)
(-2.80263 1.58461 21.5379)
(-2.94369 1.72884 12.0135)
(-3.11421 22.7609 -19.4678)
(-3.27466 18.5895 -37.1769)
(-3.26963 9.51239 -33.4785)
(-3.16757 12.7492 5.92467)
(-3.09801 3.91907 32.1949)
(-7.38085 -5.17768 -4.30031)
(-8.32892 -4.20842 -62.5305)
(-8.59492 -24.9608 -83.8391)
(-8.6154 -34.1512 -63.7216)
(-8.5574 -3.10154 -17.5246)
(-8.33484 6.48387 15.5213)
(-7.61916 3.37889 32.0801)
(-27.7297 -14.8515 -44.7613)
(-29.6259 -33.2153 -103.404)
(-29.6129 -38.1553 -115.162)
(-28.9509 -57.7233 -97.6366)
(-28.5608 -11.4996 -15.1066)
(-27.6375 2.68583 18.1608)
(-24.5195 1.60809 30.1971)
(24.2155 -2.71777 32.245)
(27.5254 -15.8225 -42.8353)
(28.0527 75.2013 -129.843)
(29.6276 19.5352 -131.626)
(29.4542 -13.7225 -81.7065)
(27.5161 7.5524 -13.8553)
(24.4578 -0.400209 17.0023)
(7.67664 -1.08084 32.4253)
(8.29513 -10.3939 -1.30626)
(8.34214 36.8566 -42.7482)
(8.33471 67.2327 -89.8061)
(8.4635 49.594 -92.093)
(8.29673 17.9466 -38.9103)
(7.60451 10.1432 19.7987)
(3.11978 -3.70056 30.2914)
(3.25104 -3.98588 -6.34525)
(3.29018 9.12499 -41.3406)
(3.2856 -6.00831 -50.5612)
(3.12871 -21.5893 -29.0198)
(3.02873 4.35281 -2.41027)
(2.96499 6.18345 30.7735)
(0.102958 1.30591 37.0963)
(0.0992049 -0.876959 32.8861)
(0.0670851 0.59165 26.68)
(0.00570022 1.82779 28.3433)
(-0.0553618 2.14698 26.8706)
(-0.0960734 2.18392 31.6577)
(-0.0890784 0.279479 36.4171)
(-2.80604 -4.04814 29.4017)
(-3.0101 0.338267 1.10625)
(-3.16831 24.2658 -20.9902)
(-3.28126 3.72768 -37.5218)
(-3.28246 -12.3121 -26.026)
(-3.25573 1.53489 5.36766)
(-3.15441 1.87574 31.1547)
(-7.67141 -12.5158 -4.70068)
(-8.33168 -49.7363 -62.4945)
(-8.47572 -76.072 -63.4724)
(-8.50686 -59.6665 -54.4329)
(-8.38474 -21.7214 -19.6194)
(-8.30065 2.82711 9.70858)
(-7.70132 -0.71782 34.0249)
(-27.6853 -13.2928 -12.2853)
(-29.8049 -32.6474 -82.2282)
(-30.0033 -53.0518 -108.772)
(-28.7975 -73.995 -101.978)
(-28.5304 -81.1838 -78.0182)
(-27.4032 2.10592 -10.4431)
(-24.8012 -1.9012 34.7139)
(28.0012 64.5331 -34.4617)
(28.2345 132.155 -101.401)
(28.3034 99.8625 -117.34)
(29.813 -63.5253 -81.8853)
(28.0911 -35.5861 3.04452)
(26.627 -12.6865 25.4937)
(26.2965 -37.8931 42.2876)
(8.21371 30.268 4.11984)
(8.23432 49.4397 -28.2244)
(8.04778 107.257 -68.6218)
(8.1836 100.04 -80.5378)
(8.56105 67.4192 -80.7842)
(8.32651 27.2192 -22.7284)
(7.52023 1.31289 49.6605)
(3.10538 -3.01292 23.3565)
(3.19825 -6.89677 -15.157)
(3.13997 18.9988 -29.8977)
(3.16711 24.6513 -45.698)
(3.22187 -15.2311 -26.8472)
(3.14272 12.6215 3.97699)
(3.00153 1.05284 45.7521)
(-0.0162905 -1.10626 47.4617)
(0.0243963 -5.05461 23.5864)
(0.00949774 -1.8044 16.4286)
(-0.0119827 0.429678 17.0296)
(-0.00232132 1.19412 13.4339)
(0.0137573 6.79311 18.394)
(0.0357986 2.86562 44.3368)
(-2.86178 0.351556 47.1228)
(-3.08876 -8.6553 3.22669)