/*--------------------------------*- C++ -*----------------------------------*\
  =========                 |
  \\      /  F ield         | OpenFOAM: The Open Source CFD Toolbox
   \\    /   O peration     | Website:  https://openfoam.org
    \\  /    A nd           | Version:  6
     \\/     M anipulation  |
\*---------------------------------------------------------------------------*/
FoamFile
{
    version     2.0;
    format      ascii;
    class       volScalarField;
    location    "0.0025";
    object      p;
}
// * * * * * * * * * * * * * * * * * * * * * * * * * * * * * * * * * * * * * //

dimensions      [1 -1 -2 0 0 0 0];

internalField   nonuniform List<scalar> 
3773
(
39763.9
39766.8
39770.4
39770.8
39768.3
39764
39761.8
98356.3
98357.5
98354.9
98354
98356.1
98358.4
98358.7
134058
134058
134058
134057
134058
134058
134058
145983
145983
145983
145982
145982
145983
145983
134060
134057
134057
134057
134057
134056
134057
98352.8
98353.8
98353
98350.8
98352.3
98354.5
98353.2
39759.1
39761.9
39763.2
39764.7
39765.2
39762.9
39761.5
39764.1
39764.8
39767.5
39768.7
39766.8
39763.4
39761.9
98356.5
98359.2
98357.4
98356.7
98357.8
98358.7
98358.1
134057
134057
134058
134057
134057
134058
134058
145983
145983
145983
145982
145982
145982
145983
134059
134057
134057
134057
134057
134057
134057
98353.2
98355.6
98354.8
98351.9
98354.1
98355.1
98352.9
39759.4
39760
39761.7
39764.7
39763.3
39761.5
39761.6
39764.7
39762.4
39764.5
39765.7
39764.4
39762.4
39762.8
98358.5
98362
98360.7
98361.6
98361.5
98360.6
98359.5
134057
134058
134059
134057
134057
134058
134058
145983
145983
145983
145982
145982
145982
145982
134058
134057
134056
134057
134057
134057
134056
98355.3
98359.1
98358.7
98356.7
98357.7
98357.1
98354.7
39759.9
39758.3
39759.5
39762.3
39760.6
39760.2
39762.3
39768.3
39763.6
39767
39768.2
39766.5
39764.2
39766.9
98356.7
98360.5
98359.3
98360.3
98360.4
98360.7
98357.4
134056
134059
134058
134057
134057
134057
134057
145982
145982
145982
145981
145981
145981
145982
134058
134056
134056
134057
134058
134057
134056
98354.1
98358.7
98358.6
98356
98356.5
98357
98352.9
39763.2
39759.4
39761.3
39764.5
39762.3
39761.8
39766.2
39767.7
39764.8
39768.8
39768.3
39766.9
39763.9
39767.2
98356.1
98357.3
98356.5
98358.5
98359
98359.9
98356.4
134057
134059
134059
134058
134058
134058
134058
145982
145982
145982
145981
145981
145981
145982
134058
134057
134057
134057
134058
134058
134056
98353.4
98355.8
98357.3
98352.6
98354.7
98356.8
98352.1
39763.1
39761.7
39761
39766.7
39762.7
39761
39766.5
39764.1
39766.8
39768.3
39768.7
39767.2
39763.9
39763.7
98357.1
98354.6
98356.5
98357.8
98357.8
98359
98357.9
134058
134060
134060
134058
134059
134059
134059
145982
145982
145982
145981
145981
145981
145981
134059
134057
134058
134058
134058
134059
134057
98354.7
98356
98356.8
98353.4
98351.3
98355.6
98353.6
39759.4
39761.5
39760.7
39764.3
39766.3
39761.3
39762.8
39761.4
39767
39770.3
39767.7
39766.1
39762.4
39760.6
98357.8
98355.4
98353.6
98358.4
98358.8
98359.8
98359.1
134059
134061
134060
134059
134059
134059
134060
145982
145982
145982
145981
145981
145981
145981
134060
134058
134059
134059
134059
134060
134058
98355.9
98354.8
98357.1
98351.6
98352.9
98355.3
98354.7
39756
39761
39759.4
39763.9
39765.8
39761
39759.7
47022.6
47022.8
47023.8
47024.1
47023
47022.7
47023.7
116122
116123
116124
116125
116125
116126
116127
158179
158179
158180
158181
158182
158182
158183
172234
172233
172232
172232
172233
172234
172234
158200
158198
158195
158193
158193
158194
158194
116155
116150
116145
116142
116141
116142
116143
47037.7
47037.3
47033.3
47030.9
47030.5
47031.1
47032.6
47091.7
47092.4
47095.3
47097.2
47094.2
47094.1
47095.4
116303
116305
116310
116312
116313
116310
116309
158463
158464
158468
158471
158472
158469
158467
172551
172550
172552
172553
172553
172551
172549
158484
158478
158476
158475
158475
158473
158472
116331
116328
116322
116320
116321
116321
116320
47091.6
47097.3
47098.1
47097.1
47098.3
47099.9
47101.1
47268.1
47269.4
47271.9
47274.1
47270.9
47274.3
47274
116865
116869
116871
116876
116870
116866
116862
159278
159279
159282
159281
159286
159282
159277
173452
173452
173453
173455
173455
173455
173454
159283
159282
159281
159281
159282
159279
159276
116876
116874
116876
116874
116874
116871
116867
47266.3
47267.7
47267.3
47265.1
47266.2
47265.8
47263.7
47755
47755.7
47749.1
47745.1
47746
47749.7
47745.2
118052
118051
118044
118038
118036
118032
118029
160843
160839
160833
160831
160834
160832
160835
175135
175136
175133
175133
175137
175144
175144
160834
160835
160835
160837
160838
160837
160834
118040
118046
118047
118045
118043
118038
118033
47760.6
47763.8
47762.4
47750.5
47742.6
47737.8
47731.3
48581.4
48578.5
48571.9
48566.4
48575.4
48574.8
48581.8
119833
119886
119843
119840
119840
119830
119839
163124
163121
163123
163125
163124
163111
163107
177578
177584
177571
177566
177571
177575
177569
163157
163162
163161
163152
163154
163153
163151
119878
119883
119866
119869
119861
119865
119865
48589.9
48598.7
48584.3
48578.4
48560
48577.6
48572.6
49500.3
49541.3
49534.7
49532.3
49531.9
49517.8
49514.8
121865
121809
121895
121877
121861
121866
121863
165735
165800
165821
165815
165803
165786
165776
180403
180424
180450
180445
180450
180431
180407
165814
165808
165814
165822
165828
165822
165809
121906
121913
121912
121930
121917
121913
121915
49564.7
49560.3
49550.2
49564.2
49545.5
49535.4
49558.4
50343.6
50328.7
50363.2
50348.7
50329.6
50348.7
50329.7
123587
123633
123631
123638
123632
123629
123633
168058
168092
168130
168105
168096
168114
168093
182906
182967
183064
183003
182965
182959
182894
168038
168064
168167
168178
168157
168135
168095
123640
123603
123687
123694
123701
123686
123675
50344.2
50360.5
50356
50349.8
50365.2
50354.9
50348.2
51431.6
51395.3
51474.5
51428.1
51365.2
51402.6
51421.9
125639
125683
125758
125656
125653
125665
125675
170423
170387
170391
170429
170412
170406
170397
185231
185587
185776
185663
185724
185673
185282
170322
170386
170382
170388
170416
170406
170438
125705
125730
125710
125714
125690
125698
125718
51481.9
51504.5
51418.2
51371.2
51376.5
51370.2
51427.7
51614.2
51588.7
51655.4
51656.7
51602.5
51561.5
51587.6
126131
126202
126274
126270
126223
126163
126097
171065
171088
171093
171104
171085
171035
170983
186054
186090
186043
186064
186079
186040
185991
171040
171066
171096
171133
171128
171077
171042
126116
126197
126257
126280
126260
126223
126170
51611.9
51595.9
51613.7
51648.8
51614.1
51576.1
51620.7
51568.9
51639.8
51723.9
51783
51707.3
51616.7
51545.6
126111
126229
126343
126389
126323
126188
126062
170969
171006
171082
171099
171067
170978
170926
185887
185909
185924
185916
185914
185882
185855
170965
171009
171082
171111
171091
171019
170974
126102
126215
126345
126401
126363
126251
126139
51552.3
51629.6
51713.7
51782.1
51725.3
51653.8
51588.6
51274.2
51466.9
51598.2
51693.9
51594
51456.3
51256.3
125573
125763
125933
125984
125925
125751
125543
170202
170279
170349
170373
170351
170264
170179
185016
185048
185045
185047
185045
185037
184996
170212
170282
170354
170367
170358
170293
170216
125581
125771
125929
125995
125955
125804
125613
51269.7
51463.4
51592.9
51682.9
51606.9
51493.4
51305.5
50480.3
50783.5
51224.4
51504.8
51191.4
50769.2
50484.9
124153
124479
124871
124977
124866
124478
124146
168693
168820
168864
168882
168867
168805
168676
183484
183490
183406
183406
183411
183481
183465
168694
168810
168855
168888
168866
168820
168694
124166
124492
124880
124991
124896
124514
124180
50495.1
50786.9
51245.6
51479
51198.1
50808.4
50519.4
48559.1
49294.8
51260.8
52569.2
51055.8
49170.9
48574.8
120747
121731
123968
125063
123959
121740
120784
165486
166247
167148
167462
167152
166238
165461
180500
181081
181396
181511
181401
181072
180479
165477
166239
167153
167500
167166
166241
165478
120791
121755
123988
125054
123931
121753
120777
48600
49328.5
51537.5
52559
51046.6
49306.2
48611.6
45019.1
48080.5
53724.6
56642.3
54037.3
48335.6
44953
114884
119590
126050
129364
126131
119718
115151
160466
163976
166954
167918
166946
163967
160470
176169
178725
180216
180513
180238
178733
176182
160444
163948
166928
167970
167028
163936
160404
115064
119679
126107
129456
126107
119620
115003
44991.2
48142.6
53529.1
56708.9
54059.6
48197.4
45033
50789.2
50783
50782.6
50821.2
50802.8
50798.7
50791.9
124306
124353
124255
124371
124375
124278
124326
168878
168749
168669
168754
168734
168690
168770
183681
183595
183445
183610
183607
183372
183497
168826
168732
168714
168780
168762
168683
168791
124339
124199
124394
124425
124465
124407
124395
50830.2
50949.7
50769.6
50791.3
50830.4
50828.4
50822.3
50853.6
50843.4
50840.6
50873.5
50858.5
50870.5
50852.7
124409
124458
124356
124469
124483
124376
124425
168963
168817
168727
168820
168797
168752
168840
183753
183635
183483
183653
183646
183413
183545
168911
168796
168758
168842
168819
168748
168868
124439
124300
124488
124540
124568
124508
124497
50892.7
51006.1
50830.9
50845.9
50894
50886.7
50881.5
50923.9
50909
50908.8
50928.6
50911.9
50944.3
50915.9
124509
124564
124463
124594
124584
124476
124526
169038
168880
168780
168880
168849
168816
168903
183833
183669
183536
183705
183681
183468
183596
168986
168849
168819
168896
168876
168815
168938
124541
124397
124640
124648
124670
124610
124599
50957.5
51062.9
50898
50902.8
50918.8
50943.6
50940
51005
50978.5
50982.5
50987.5
50970.9
51016.9
50987.6
124603
124665
124562
124699
124682
124570
124627
169108
168947
168836
168946
168903
168880
168966
183932
183732
183626
183777
183736
183555
183667
169062
168909
168886
168953
168932
168884
169005
124642
124493
124740
124748
124766
124709
124699
51030.1
51123.3
50971.2
50969.2
50994
51006.4
51006.6
51089.5
51046.4
51054.1
51047.5
51032.9
51093.7
51060.7
124681
124748
124639
124750
124762
124643
124713
169171
169020
168910
169026
168963
168941
169027
184031
183813
183742
183856
183797
183657
183750
169130
168976
168949
169022
168990
168955
169071
124732
124588
124796
124832
124842
124796
124786
51104.7
51180.6
51047.6
51040.4
51066.8
51071
51078
51169.2
51107.6
51126.3
51108.6
51087.1
51178.7
51123.8
124751
124831
124707
124817
124838
124711
124798
169236
169101
168989
169113
169034
169010
169096
184133
183909
183875
183945
183879
183775
183847
169201
169051
169031
169101
169063
169035
169142
124823
124675
124869
124916
124923
124880
124872
51169.4
51240.5
51120.4
51101.5
51124.6
51127
51143.8
51229.1
51151.2
51184.1
51154.5
51128.3
51252.6
51166
124842
124932
124808
124924
124936
124805
124903
169341
169217
169103
169238
169154
169124
169216
184261
184059
184058
184092
184035
183952
183987
169314
169163
169152
169220
169183
169161
169262
124933
124784
124974
125020
125022
124981
124974
51213
51287.4
51162.6
51143.8
51160.3
51163
51186.1
48302.2
51662.7
57614
60900.9
57782.2
51813.7
48327.1
119178
123781
130727
134559
130775
123978
119398
162577
165833
168790
169968
168784
165876
162647
176816
179321
180859
181266
180870
179330
176822
162521
165841
168768
170002
168811
165818
162566
119345
123851
130805
134730
130814
123901
119312
48446.2
51749.2
57699.4
61051
57826.1
51781.8
48386.3
49583.9
52823.1
58476.6
61698
58606.6
52976
49643.2
120804
125229
131979
135737
132084
125429
121006
163479
166632
169473
170659
169467
166679
163567
177256
179748
181219
181683
181237
179774
177263
163435
166657
169445
170688
169472
166621
163514
120950
125293
132083
135922
132111
125355
120924
49732.5
52906.7
58605.2
61863.5
58660.5
52946.1
49682.4
50259.4
53649.3
58921.1
61875.8
59037.5
53828.9
50353
121740
126232
132520
135945
132699
126413
121871
164208
167296
169987
171076
169981
167337
164320
177701
180145
181584
182054
181599
180170
177703
164237
167304
169953
171104
169989
167302
164253
121813
126293
132667
136128
132654
126391
121810
50362.1
53718.4
59065.7
62033.6
59100.1
53781.5
50364.9
50265.4
54228.5
58965.5
61504.6
59107.2
54414.1
50377.6
122001
126773
132559
135537
132682
126996
122151
164722
167740
170261
171281
170247
167791
164864
178077
180501
181907
182377
181917
180514
178063
164816
167756
170224
171311
170265
167764
164791
122055
126867
132676
135682
132706
126906
122096
50341.1
54288.3
59129.6
61673.7
59138.9
54370.7
50378.5
50073.5
54452.9
58749.3
60912.9
58918.7
54639.9
50220.4
122044
127031
132319
134925
132439
127229
122279
165026
167981
170383
171366
170354
168028
165151
178333
180738
182136
182642
182151
180749
178315
165146
168015
170348
171405
170381
168013
165095
122140
127167
132420
135024
132462
127179
122158
50132.4
54556.5
58930.9
61056.8
58907.8
54611.5
50196.2
50132.4
54541.7
58459.5
60353.4
58643.6
54729.3
50323.1
122158
127177
132086
134413
132192
127367
122450
165127
168073
170414
171362
170386
168116
165247
178497
180865
182277
182795
182297
180879
178476
165277
168127
170376
171406
170422
168110
165175
122291
127358
132197
134479
132198
127329
122284
50178.9
54692.8
58656.2
60476.4
58609
54716.8
50278.1
50209.8
54562.2
58306
60082.1
58472.6
54758.6
50427.1
122245
127243
131959
134170
132082
127397
122566
165123
168095
170431
171361
170414
168127
165241
178551
180886
182339
182874
182363
180914
178532
165282
168157
170400
171410
170434
168127
165158
122395
127448
132073
134200
132061
127404
122372
50253.4
54756.9
58507.3
60194.8
58457.6
54769.7
50363.9
48287.1
48491.8
49314.6
51715.3
56444.5
63678.5
72646.3
118738
118618
118946
120884
124003
128561
134956
161046
159967
158894
158051
157647
157507
157698
175003
173751
172314
170764
169059
167265
165539
160995
159907
158828
158046
157782
157816
158089
118777
118797
119322
121414
124710
129679
136050
48421.5
48747.7
49689.5
52195.7
57176.1
64663
73408.1
48751.8
48221.9
48372.4
49965.9
53571.5
59684.8
68409.5
119224
118395
118325
119482
121856
125756
131685
161397
160072
158909
158034
157511
157156
157112
175156
173820
172350
170812
169168
167424
165605
161330
160013
158856
158034
157642
157412
157415
119308
118558
118555
119900
122474
126600
132511
48840.8
48358.7
48576.3
50322.6
54172.8
60401.1
68942.7
48606.8
47382.6
46880.8
47456.3
49377.5
53652.8
61348.9
119134
117790
117064
117193
118494
121279
126087
161756
160199
158866
157862
157159
156558
156148
175368
173912
172371
170861
169359
167648
165699
161663
160129
158801
157829
157244
156727
156352
119239
117925
117217
117493
118947
121809
126651
48632.4
47430.1
47016.5
47740.1
49824.1
54114.8
61694
47887.3
46621.8
45851.3
45791.5
46543.8
48690.1
54184.1
118909
117255
116071
115453
115818
117480
120874
162041
160331
158820
157615
156754
155975
155137
175588
174011
172420
170935
169515
167840
165785
161940
160224
158730
157545
156768
156053
155239
118979
117358
116177
115652
116123
117858
121222
47898.4
46643.7
45973.9
46006.6
46806.1
48943.7
54569.8
47443.1
46264.9
45544.5
45355.5
45798.7
46589.5
49492.5
118822
117074
115688
114751
114590
115287
117431
162255
160452
158677
157370
156468
155639
154406
175781
174124
172476
170971
169559
167937
165768
162088
160289
158611
157273
156420
155609
154390
118821
117119
115734
114851
114652
115362
117492
47443.9
46312
45671.8
45530.2
45955.9
46712.2
49608.8
47472.9
46278.5
45701.4
45679.8
46139.9
46557.3
47907.4
118952
117106
115611
114612
114384
114582
115517
162341
160412
158523
157185
156326
155518
154124
175910
174240
172533
170975
169539
167909
165658
162218
160277
158400
157052
156233
155420
154032
118858
117080
115597
114613
114366
114468
115352
47468.3
46340
45842.2
45823.7
46209
46557.2
47836.5
47679.6
46582.2
46079.4
46131.7
46496.1
46914.5
47284.6
119040
117167
115808
115044
114746
114757
114643
162321
160402
158551
157189
156343
155392
153832
175974
174305
172590
170980
169510
167757
165126
162173
160245
158408
157051
156237
155270
153683
118887
117104
115787
115026
114682
114592
114416
47670
46663
46228
46246.5
46504.4
46826.3
47176.4
72459.7
63957
56761.1
51998.9
49600.6
48684.3
48348.8
135411
129358
124815
121347
119471
118862
118751
158107
157811
157817
158109
158887
159909
160958
165549
167323
169089
170749
172317
173770
175005
157961
157672
157713
158023
158820
159870
160903
135951
129463
124591
121385
119340
118799
118799
73292
64488.5
56954.2
52042.6
49611.4
48707.1
48431.8
68218.1
59831.7
53824.3
50185.9
48527.8
48318.5
48776.1
132017
126367
122549
119918
118656
118555
119226
157489
157408
157664
158100
158891
159998
161296
165645
167456
169186
170798
172363
173836
175154
157358
157278
157577
158020
158849
159963
161237
132403
126460
122392
119852
118578
118563
119295
68833.8
60255.6
54014.8
50235.2
48544.7
48365.3
48878.5
61194
53685.7
49534.2
47595.2
46937.5
47387.3
48557.3
126244
121618
118944
117521
117240
117867
119112
156435
156753
157277
157881
158823
160103
161640
165769
167676
169373
170878
172395
173924
175369
156407
156594
157166
157823
158805
160094
161615
126457
121720
118906
117431
117196
117892
119148
61465.5
53930.6
49710.8
47674.5
47009.1
47467.6
48672
54124.7
48642.1
46586.5
45835.2
45848.5
46586.5
47817.5
120972
117633
116016
115599
116123
117259
118831
155316
156087
156827
157606
158753
160202
161950
165866
167880
169544
170975
172456
174030
175597
155281
155994
156741
157557
158747
160267
161972
120980
117654
116025
115568
116116
117340
118921
54066.3
48754.6
46697.7
45928.2
45947.9
46683
47929.9
49357.3
46505.8
45762.2
45362.9
45513.6
46214.3
47351
117246
115180
114587
114739
115625
116991
118677
154464
155663
156496
157332
158630
160277
162100
165834
167977
169607
171022
172520
174140
175794
154469
155617
156425
157306
158648
160392
162222
117352
115259
114572
114768
115683
117089
118792
49273.7
46529.8
45818.1
45414.5
45588.1
46264.8
47429.7
47747.1
46435.3
46040
45672.7
45651.7
46221
47354.3
115223
114313
114238
114488
115451
116920
118706
154092
155472
156303
157110
158418
160252
162177
165716
167946
169587
171027
172577
174264
175934
154171
155478
156281
157142
158492
160403
162343
115392
114472
114312
114568
115558
117048
118840
47772.8
46484.3
46136.4
45721.4
45715.6
46227.5
47376.2
47152.6
46730.8
46334.4
46063
46053.5
46525.9
47544
114318
114422
114529
114881
115626
116939
118740
153723
155308
156301
157100
158437
160214
162153
165176
167789
169556
171034
172633
174350
176002
153849
155359
156313
157175
158542
160392
162326
114560
114644
114680
115023
115758
117072
118871
47330.3
46882.7
46546.1
46215.4
46102.7
46505.2
47530.2
89573.3
90140.6
90105.2
89365.5
87760.5
84244.5
79310.5
156937
156929
156089
153903
150780
146461
141351
160936
160821
160535
160124
159687
159049
158533
160203
160318
160660
161208
161945
162910
164078
160750
160533
160205
159855
159423
158822
158348
157664
156896
155197
152955
150388
146644
141891
91346.6
90775.8
89912.8
89314.3
88082.5
84745.8
80033.9
87915.1
88109.4
87799.9
86763.3
84332.4
80605.1
75576.6
154692
154393
152988
150766
147310
143059
138117
160013
159889
159572
159104
158616
158203
157835
159865
159994
160358
160956
161771
162844
164104
159719
159613
159350
158962
158495
158073
157693
154967
154301
152555
150378
147234
143289
138483
89089.8
88548.5
87817.7
86815.2
84334.1
80662.7
75943.1
84802.6
84376.9
83690.3
81835.4
78531.8
74566.1
69227.7
150420
149523
147701
144939
141206
136931
132056
158220
158013
157602
157142
156794
156676
156529
159146
159311
159743
160428
161379
162644
164081
157884
157802
157611
157274
156900
156692
156493
150071
149304
147671
145035
141311
137080
132224
85125.8
84545.5
83787.7
81942
78198.6
73981.6
68949.1
80586.4
79633.3
78005.7
75307.5
71762.6
67730.5
62376.9
144914
143640
141441
138206
134385
130279
125842
155737
155431
154975
154571
154455
154718
154974
158136
158340
158834
159630
160774
162322
163988
155531
155454
155278
154928
154721
154832
154996
144260
143455
141603
138245
134296
130174
125793
80309.1
79853.7
78504.9
75337.3
71198.3
67013.2
61934.1
75562.1
74587.9
72554.1
69531.5
65937.3
61965.8
56632
138414
137136
134743
131480
128216
124852
121188
152819
152411
151968
151760
151998
152629
153425
156897
157140
157658
158527
159865
161683
163666
152787
152732
152485
152130
152216
152758
153471
137944
137202
134982
131462
128009
124655
121122
75122.5
74825
73031.3
69446.5
65710.7
61537.5
56442.6
70351.2
70045.9
68740
66193.1
62036.3
57489.6
52822.9
131726
130798
128777
125833
123232
120743
118067
149954
149566
149150
149053
149578
150593
152089
155602
155829
156361
157261
158699
160617
163029
150126
150049
149733
149506
149915
150834
152238
131540
131066
129196
126045
123347
120834
118123
70057.5
69715.5
68556.7
66121.6
62209.2
57729.1
52981.1
64024.1
64470.6
64479.8
63552.9
58207.3
53409
49766.6
124932
124666
123635
121518
119000
116801
115070
147345
147034
146673
146682
147322
148619
150533
154250
154477
155000
155868
157242
158960
161343
147591
147474
147204
147135
147729
148909
150720
125180
124731
123537
121700
119278
117130
115319
64467.8
63626.2
63327.4
63569.8
59044.8
53907.1
50183.5
42433
42133.7
41836.5
41360.3
40976.5
40788.6
40733.8
104831
104543
104225
104018
103808
103410
102880
138442
138487
138574
138804
139139
139442
139560
149561
149694
149933
150222
150485
150582
150291
138655
138666
138744
138935
139296
139623
139772
105006
104728
104401
104208
104000
103554
102986
42529.2
42503.3
42385.7
42083.3
41856.3
41475
40981.6
38619.5
38551.1
38470.4
38468.6
38606.3
38662.5
38661.7
93655.5
93726.3
93879.3
94017.5
94111.4
94189.3
94287.7
125992
126035
126111
126223
126325
126388
126454
137013
137034
137062
137087
137095
137075
137042
125989
126045
126139
126258
126363
126433
126497
93695
93761.4
93920.7
94096
94187.3
94270.9
94384.2
38703.8
38727.9
38734.3
38706.4
38828
38880.4
38942.8
36990.2
37037.1
37108.5
37158
37210.9
37261.9
37286.7
87719.9
87788.4
87895.2
88012.7
88105.1
88167.7
88192.1
117810
117815
117824
117823
117810
117782
117766
127848
127835
127812
127786
127751
127714
127705
117825
117829
117832
117844
117820
117788
117770
87744.5
87804.4
87897.1
88004
88084.8
88142.4
88161.7
36999
37047.5
37115.3
37154.9
37189.4
37223.4
37234.9
36793.2
36800.6
36802.6
36805.7
36819.6
36825.1
36840.2
85050.1
85048.2
85046.6
85052.3
85053.8
85045
85035.2
112885
112875
112861
112846
112832
112825
112825
122010
122010
122006
122000
121997
121992
121990
112889
112879
112862
112847
112832
112823
112823
85046.8
85052.7
85059.9
85070.6
85073.4
85066
85055.9
36799
36808.1
36808.4
36805
36822.5
36838.9
36863.1
36446
36442.3
36436.2
36430.2
36425
36422.9
36430
83944.9
83939.3
83928.8
83917
83908.7
83901.1
83902.6
110124
110123
110125
110130
110136
110140
110144
118202
118207
118219
118237
118261
118281
118295
110105
110102
110098
110099
110099
110098
110099
83927.5
83932.1
83936.3
83935.1
83929
83918.6
83915.3
36450.1
36447.7
36441.3
36430.8
36428.7
36438.3
36449.1
38205.9
38206
38206.6
38208.6
38216.6
38217.2
38226.9
84889.1
84889.5
84888.5
84888.4
84892.2
84891.7
84893.9
107722
107727
107741
107758
107766
107760
107745
114168
114173
114183
114199
114219
114237
114250
107696
107700
107711
107723
107723
107714
107697
84882.8
84886.3
84892.1
84897.9
84901.5
84895.8
84894.8
38202.2
38204.7
38212.5
38217.2
38221.9
38229.1
38233.7
48969
48970
48967.1
48960.7
48951.8
48952.9
48942.2
84488
84490.2
84490.8
84491.5
84494.6
84497.7
84503.9
102903
102908
102917
102924
102926
102923
102918
108015
108018
108027
108030
108038
108044
108051
102899
102903
102907
102916
102919
102917
102912
84480.1
84478.7
84477.3
84478.5
84484.6
84486
84492
48949.8
48953
48951.4
48947.5
48941.3
48934.8
48923.9
79896.2
85143.8
88706
90142.9
90278.3
89587.8
88020.2
141096
146218
150355
153127
154752
154962
154071
157992
158411
159049
159457
159779
160026
160103
164003
162796
161819
161064
160527
160207
160110
158396
158770
159226
159507
159776
160047
160240
141905
146679
150499
152981
154767
155988
156661
80193.6
84951.2
88287.4
89609.8
90097.7
90444.7
90697
75816.1
80793.5
84580
87013.5
87824
87336.4
86563.4
137822
142619
146613
149870
151721
152528
152440
157332
157606
157983
158418
158840
159145
159251
164007
162710
161615
160784
160198
159852
159726
157659
157921
158197
158543
158907
159153
159266
138529
143363
147412
150519
152519
153965
154442
76258
81143.9
84798.7
87287.7
88331.9
88775.4
88922
69088.4
74195.5
78279.7
81613.4
83365.4
83890.1
84489.5
131841
136521
140525
144181
146911
148482
149559
156138
156184
156253
156579
157026
157405
157625
163971
162493
161185
160208
159520
159123
158957
156364
156428
156451
156730
157185
157444
157523
132346
137221
141598
145363
148146
149722
150310
69651
74924.9
79086.1
82659.5
84817.8
85443.8
85705.8
62388.5
67674
71679.3
75250.1
78093.5
80132.3
81477.7
125749
130014
133831
137555
141063
143715
145439
154716
154397
154106
154190
154598
155064
155397
163855
162153
160555
159369
158557
158091
157897
154821
154477
154128
154274
154764
155110
155242
126091
130580
134908
139001
142351
144313
145126
62818.8
68235.7
72610.9
76589.5
79705.1
81096.9
81606.4
56848.6
62169.3
66339
70070.2
73209
75518.6
76748.1
121278
124775
127999
131280
134857
138005
139841
153279
152424
151756
151489
151769
152323
152809
163532
161515
159636
158255
157359
156836
156641
153289
152470
151857
151703
152021
152439
152616
121411
125126
128690
132255
135715
138132
139052
57161.4
62547.7
66862.5
70761.1
74011
75918.4
76569.7
53038.5
57796
62603.4
67376.8
69555.6
70505.2
70544.2
118257
120885
123284
126098
129499
131886
133073
152045
150498
149473
148935
149091
149647
150224
162920
160431
158467
156994
156059
155533
155331
152002
150521
149558
149103
149317
149824
150000
118178
120979
123617
126368
129605
131711
132423
53221.8
57920.8
62665.9
67073.5
69733.6
70533.2
71005.4
49931.6
53619.7
58741.7
64935.6
65127.9
64583.5
63599.3
115347
117078
119108
121911
124186
125470
125908
150587
148689
147445
146705
146713
147155
147615
161218
158776
157023
155621
154726
154222
153994
150460
148584
147375
146747
146819
147278
147492
115182
117056
119237
121793
124215
125158
125660
50005.3
53784.3
58459.5
63975
65560.4
64404.9
64623.1
40702.2
40936.5
41016.8
41006.4
41557.8
41827.9
42215
103054
103591
104071
104296
104495
104795
105099
139569
139457
139180
138838
138598
138501
138438
149995
150296
150216
149968
149682
149445
149311
139493
139390
139112
138774
138570
138482
138466
103087
103599
104033
104277
104459
104746
104993
40748.4
41008.3
41236.8
41617.7
42087.5
42470.7
42559.6
38958.3
38895.4
38808.3
38645.5
38676
38787.7
38885.3
94255.4
94138.6
94032.5
93929.7
93779.9
93635.8
93576.1
126401
126330
126261
126160
126047
125968
125920
137009
137039
137061
137054
137025
136997
136977
126431
126367
126298
126201
126104
126032
125986
94400.3
94291.1
94213
94116.4
93955.1
93813.2
93755.4
38927.3
38865.4
38783.8
38658.6
38656.5
38797.4
38874.1
37257.1
37252.3
37230.5
37202.5
37173
37106.8
37052.4
88197.1
88189.1
88144.5
88070.2
87968.2
87870.3
87806.2
117812
117830
117858
117871
117876
117868
117864
127711
127716
127751
127786
127812
127833
127844
117744
117759
117787
117803
117793
117781
117776
88136.1
88121.8
88071.2
87988.5
87875.6
87768.8
87701.3
37236.8
37234.6
37208.2
37168.2
37123.4
37052.1
37001.2
36859
36836
36828.1
36812.9
36802.3
36791.3
36775.5
85036.3
85051.9
85064.6
85062
85053.2
85051.8
85052.6
112819
112823
112835
112851
112866
112879
112887
121985
121989
121997
122004
122012
122020
122022
112826
112826
112834
112849
112864
112879
112888
85035.1
85043.4
85050.2
85050
85044.2
85045.9
85046.7
36847
36831
36818.9
36797
36797.3
36801.3
36798.8
36457.5
36450
36448.1
36445.2
36442.1
36439.9
36438.7
83897.3
83906.6
83917.9
83922.2
83929
83941.1
83949
110119
110117
110115
110119
110122
110123
110124
118311
118299
118278
118253
118236
118226
118226
110163
110162
110160
110161
110155
110152
110146
83900.3
83904.7
83914.5
83929.2
83939.4
83942.8
83943.8
36417.2
36412.9
36410.9
36408.3
36417.8
36430.9
36443.6
38231.4
38231.7
38230.5
38218.9
38207.3
38203.1
38204.7
84887.1
84891.2
84897
84895.8
84899
84906.1
84911.3
107733
107744
107745
107747
107743
107734
107729
114267
114257
114241
114227
114211
114200
114192
107763
107777
107782
107783
107765
107748
107732
84884.9
84885
84887.1
84887.6
84887.4
84883.2
84880.5
38214.9
38211.2
38207.2
38201.5
38199.3
38199.6
38202.3
48924.4
48931.6
48937.8
48944.7
48950.6
48953.7
48950.1
84479.7
84472.7
84472
84470.3
84472.5
84475.5
84477
102913
102915
102916
102914
102910
102905
102901
108042
108040
108037
108032
108027
108020
108016
102911
102915
102917
102914
102906
102896
102888
84503.1
84495.6
84492.3
84485.2
84484.5
84480.9
84480.1
48948
48953.5
48959.4
48967.3
48971
48972.1
48970.6
)
;

boundaryField
{
    fuel
    {
        type            zeroGradient;
    }
    primary_air
    {
        type            zeroGradient;
    }
    Secondary_air_RHS
    {
        type            zeroGradient;
    }
    Secondary_air_LHS
    {
        type            zeroGradient;
    }
    outlet
    {
        type            totalPressure;
        rho             rho;
        psi             none;
        gamma           1;
        p0              uniform 100000;
        value           nonuniform List<scalar> 
98
(
44308.3
73090.9
100000
100000
100000
73092.3
44282.8
44240.7
73101.4
100000
100000
100000
73096.2
44243.1
44245.8
73099.4
100000
100000
100000
73080.7
44256.8
44255.1
73087.5
100000
100000
100000
73089.8
44224.7
44258
73090.1
100000
100000
100000
73086.3
44223.6
44241
73089.1
100000
100000
100000
73082.8
44203.8
44305.4
73093.5
100000
100000
100000
73085
44236.7
44249.1
73084.5
100000
100000
100000
73089.9
44281.2
44209.1
73081.5
100000
100000
100000
73073.8
44258.1
44210.7
73085.9
100000
100000
100000
73089.5
44220.7
44266.9
73079.9
100000
100000
100000
73081.8
44271.2
44254.7
73097.7
100000
100000
100000
73085.7
44289.3
44245.6
73080.7
100000
100000
100000
73084.5
44259.9
44282
73092.3
100000
100000
100000
73085.2
44318.8
)
;
    }
    stove_body
    {
        type            zeroGradient;
    }
    frontAndBack
    {
        type            empty;
    }
}


// ************************************************************************* //
