/*--------------------------------*- C++ -*----------------------------------*\
  =========                 |
  \\      /  F ield         | OpenFOAM: The Open Source CFD Toolbox
   \\    /   O peration     | Website:  https://openfoam.org
    \\  /    A nd           | Version:  6
     \\/     M anipulation  |
\*---------------------------------------------------------------------------*/
FoamFile
{
    version     2.0;
    format      ascii;
    class       surfaceScalarField;
    location    "0.0025";
    object      phi;
}
// * * * * * * * * * * * * * * * * * * * * * * * * * * * * * * * * * * * * * //

dimensions      [1 0 -1 0 0 0 0];

internalField   nonuniform List<scalar> 
10143
(
-1.07537e-06
-2.5879e-05
2.43573e-05
-4.36963e-07
-2.4786e-05
2.22652e-05
5.39118e-07
-2.46383e-05
2.15224e-05
7.74629e-07
-2.47282e-05
2.1878e-05
1.00589e-06
-2.47935e-05
2.20678e-05
1.18669e-06
-2.53145e-05
2.30237e-05
-2.65755e-05
2.54793e-05
1.3202e-06
-3.00297e-05
1.09991e-05
1.41129e-06
-3.05361e-05
1.20237e-05
-9.562e-08
-3.07803e-05
1.40114e-05
-6.56295e-07
-3.03127e-05
1.27929e-05
-2.44976e-07
-3.01314e-05
1.17033e-05
-9.25367e-07
-3.05712e-05
1.28945e-05
-3.00219e-05
1.05517e-05
5.39883e-07
-1.44299e-05
1.06475e-05
6.61899e-07
-1.49761e-05
1.11158e-05
-3.01155e-07
-1.56229e-05
1.27296e-05
1.32868e-07
-1.54025e-05
1.16515e-05
8.30594e-07
-1.52595e-05
1.11811e-05
-6.46557e-07
-1.54131e-05
1.31981e-05
-1.43294e-05
1.05035e-05
1.69494e-07
1.43579e-05
6.25405e-06
1.00977e-06
1.4821e-05
4.40458e-06
6.1899e-07
1.55398e-05
4.15444e-06
-8.96049e-07
1.54353e-05
5.59797e-06
-2.06315e-06
1.5239e-05
5.69065e-06
-1.26017e-06
1.53982e-05
3.58017e-06
1.44716e-05
5.18671e-06
-4.2987e-08
3.03332e-05
1.07827e-05
7.09678e-08
3.05165e-05
1.09333e-05
-2.7195e-07
3.10379e-05
1.18182e-05
4.53089e-08
3.05935e-05
1.13947e-05
8.04716e-07
3.0457e-05
1.09111e-05
-3.79474e-07
3.08998e-05
1.2444e-05
3.04506e-05
1.04718e-05
8.16171e-07
2.68364e-05
1.1099e-05
1.20353e-06
2.58266e-05
1.1454e-05
-4.29354e-07
2.58533e-05
1.35384e-05
-4.36038e-07
2.58843e-05
1.2077e-05
-2.75456e-07
2.56216e-05
1.09886e-05
-8.30943e-07
2.57031e-05
1.2094e-05
2.69762e-05
1.04103e-05
-8.66343e-07
2.56075e-05
-5.81314e-07
2.36703e-05
4.75967e-08
2.36019e-05
-7.50883e-07
2.40641e-05
-1.22558e-07
2.32163e-05
1.10163e-06
2.29107e-05
2.58888e-05
-1.8916e-06
-1.218e-05
2.50151e-05
-9.98935e-07
-1.33044e-05
2.20089e-05
1.71609e-07
-1.25192e-05
2.01269e-05
8.65831e-07
-1.25221e-05
2.07375e-05
1.43556e-06
-1.31711e-05
2.1638e-05
1.63305e-06
-1.42227e-05
2.41536e-05
-1.2958e-05
2.66265e-05
1.45425e-06
-1.99757e-05
8.68061e-06
6.58011e-07
-2.04545e-05
1.06041e-05
-2.25713e-07
-2.10346e-05
1.40349e-05
1.35585e-07
-2.15648e-05
1.20183e-05
4.59618e-07
-2.1333e-05
1.03799e-05
-6.71834e-07
-2.0806e-05
1.17296e-05
-2.03038e-05
8.5072e-06
9.79617e-07
-1.10136e-05
1.17634e-05
7.40273e-07
-9.0502e-06
1.07162e-05
-1.47909e-07
-1.06558e-05
1.429e-05
5.56307e-07
-1.19715e-05
1.25658e-05
1.0825e-06
-1.15664e-05
1.18148e-05
-4.94611e-07
-9.35708e-06
1.43273e-05
-1.08321e-05
1.18895e-05
-1.24522e-07
9.89386e-06
4.74055e-06
1.32101e-06
9.57863e-06
3.39354e-06
8.33346e-07
1.11603e-05
1.78036e-06
-1.12783e-06
1.14577e-05
3.08091e-06
-2.53711e-06
1.1313e-05
3.26517e-06
-1.16754e-06
1.06847e-05
1.37635e-06
1.01054e-05
2.30888e-06
1.37574e-07
2.00112e-05
1.12885e-05
-3.57292e-08
2.1231e-05
1.05911e-05
-1.66601e-07
2.17529e-05
1.24341e-05
4.45419e-07
2.14929e-05
1.18041e-05
9.59184e-07
2.14703e-05
1.12208e-05
-1.85767e-07
2.18198e-05
1.32796e-05
2.01156e-05
1.15051e-05
8.2728e-07
1.30643e-05
8.92821e-06
5.38236e-07
1.31116e-05
1.02886e-05
-5.95827e-07
1.35344e-05
1.37029e-05
2.77112e-07
1.35494e-05
9.97942e-06
3.23752e-07
1.32156e-05
9.70238e-06
-4.5553e-07
1.41947e-05
1.13112e-05
1.30999e-05
7.87997e-06
-1.28697e-06
2.70243e-05
-1.39286e-06
2.43337e-05
-1.2001e-07
2.35424e-05
-7.9449e-07
2.54357e-05
1.1011e-07
2.30812e-05
1.47278e-06
2.32645e-05
2.72145e-05
-2.67877e-06
-5.9479e-06
1.96627e-05
-9.49879e-07
-1.06887e-05
1.79317e-05
2.0226e-07
-1.0092e-05
1.60539e-05
9.52902e-07
-8.86102e-06
1.58225e-05
1.91012e-06
-9.58041e-06
1.71704e-05
2.08394e-06
-1.03109e-05
2.08249e-05
-7.2585e-06
2.16381e-05
1.97863e-06
-1.89431e-05
8.93589e-06
7.1745e-07
-1.88568e-05
9.66912e-06
-1.6788e-07
-1.91714e-05
1.33015e-05
1.86193e-07
-2.1251e-05
1.35939e-05
-3.98947e-08
-2.04434e-05
1.11325e-05
-1.10327e-06
-1.84417e-05
1.03036e-05
-1.76228e-05
7.52024e-06
1.04895e-06
-1.03045e-05
1.2867e-05
6.65789e-07
-7.46814e-06
1.0108e-05
-1.03363e-07
-9.04813e-06
1.57461e-05
5.59909e-07
-1.28382e-05
1.42133e-05
9.11967e-07
-1.21954e-05
1.38369e-05
-4.03926e-07
-6.61808e-06
1.45969e-05
-8.62356e-06
1.32208e-05
-3.93603e-07
8.27049e-06
5.53952e-06
1.14928e-06
6.98495e-06
6.23103e-06
9.59335e-07
9.06606e-06
2.55352e-06
-1.13791e-06
9.76516e-06
1.21284e-06
-2.76441e-06
1.14219e-05
-1.22763e-08
-1.17753e-06
1.04126e-05
1.70286e-06
7.79664e-06
3.66246e-06
2.18999e-07
1.78256e-05
1.21915e-05
-1.30226e-07
1.87706e-05
9.85395e-06
-4.42651e-08
1.85061e-05
1.36206e-05
4.74707e-07
1.86875e-05
1.29387e-05
7.23008e-07
2.09168e-05
1.20524e-05
-1.12364e-08
2.05758e-05
1.44604e-05
1.74764e-05
1.24709e-05
9.72883e-07
6.75423e-06
8.45714e-06
5.74678e-07
9.7603e-06
8.90876e-06
-7.46456e-07
1.01539e-05
1.25037e-05
5.65173e-07
6.01218e-06
9.89247e-06
-1.88566e-07
1.00979e-05
1.09373e-05
-7.45761e-07
1.17271e-05
1.04462e-05
7.0812e-06
6.82441e-06
-1.69939e-06
2.16191e-05
-1.59187e-06
2.09446e-05
2.35333e-07
1.89663e-05
-1.26378e-06
1.97241e-05
3.02568e-07
1.88088e-05
2.00612e-06
2.03013e-05
2.21888e-05
-3.23629e-06
-6.63439e-06
1.56446e-05
-7.97964e-07
-1.47366e-05
1.77989e-05
1.02223e-07
-1.33363e-05
1.56767e-05
1.10258e-06
-1.31175e-05
1.5553e-05
2.40953e-06
-1.21191e-05
1.5417e-05
2.31411e-06
-9.85507e-06
1.77124e-05
-7.33697e-06
1.69276e-05
2.28226e-06
-1.92555e-05
7.84125e-06
7.26019e-07
-2.04605e-05
6.67378e-06
1.50792e-07
-1.99933e-05
1.04646e-05
1.80456e-08
-2.06995e-05
1.02315e-05
-7.83826e-07
-2.03874e-05
9.23054e-06
-1.37936e-06
-1.84604e-05
8.56103e-06
-1.85851e-05
6.39064e-06
1.02846e-06
-9.21524e-06
1.25216e-05
8.11807e-07
-9.37877e-06
9.96726e-06
-4.49344e-08
-8.44948e-06
1.52323e-05
6.31245e-07
-1.06926e-05
1.43635e-05
6.87773e-07
-1.03664e-05
1.44744e-05
-3.31084e-07
-6.82364e-06
1.41897e-05
-7.76544e-06
1.28472e-05
-2.18692e-07
8.44703e-06
7.04727e-06
6.73335e-07
8.19057e-06
6.54657e-06
7.11536e-07
9.92903e-06
2.76419e-06
-1.36045e-06
1.06746e-05
4.91709e-07
-2.441e-06
9.48143e-06
-1.00433e-07
-1.01806e-06
8.88872e-06
3.45057e-06
7.45333e-06
6.32206e-06
1.70668e-07
1.8556e-05
1.25347e-05
-9.6473e-09
1.83369e-05
1.06392e-05
8.61115e-08
2.00498e-05
1.39489e-05
4.78728e-07
2.06522e-05
1.30012e-05
7.33501e-07
2.00569e-05
1.1797e-05
1.06623e-09
2.05933e-05
1.36113e-05
1.86034e-05
1.20173e-05
1.18875e-06
6.96626e-06
7.6732e-06
4.94766e-07
9.41144e-06
7.59381e-06
-8.19848e-07
1.24985e-05
1.04153e-05
9.47493e-07
6.65995e-06
1.07096e-05
-9.5265e-07
1.35585e-05
8.68674e-06
-9.09754e-07
1.223e-05
8.16238e-06
7.16839e-06
5.89472e-06
-1.80848e-06
1.65565e-05
-1.74001e-06
1.65484e-05
3.42513e-07
1.70695e-05
-1.46017e-06
1.4826e-05
6.7708e-07
1.79246e-05
2.17353e-06
1.85663e-05
1.75107e-05
-3.21893e-06
-6.40235e-06
1.07563e-05
-8.97136e-07
-1.3275e-05
1.41743e-05
-6.17819e-08
-1.1896e-05
1.29197e-05
1.14727e-06
-1.25792e-05
1.33154e-05
2.7675e-06
-1.2169e-05
1.24783e-05
2.39291e-06
-8.13636e-06
1.21752e-05
-7.0113e-06
1.1481e-05
2.30763e-06
-1.98228e-05
8.01884e-06
6.01502e-07
-2.08736e-05
6.20733e-06
3.25386e-07
-1.97154e-05
8.42125e-06
4.52809e-08
-1.9916e-05
7.44331e-06
-1.31057e-06
-1.91515e-05
7.34362e-06
-1.53114e-06
-1.88024e-05
8.6555e-06
-2.01895e-05
7.49358e-06
1.14042e-06
-1.01511e-05
1.25131e-05
9.3948e-07
-1.04098e-05
1.081e-05
1.35789e-07
-7.39764e-06
1.39842e-05
7.15169e-07
-8.9233e-06
1.35238e-05
4.18211e-07
-7.18652e-06
1.30451e-05
-3.29346e-07
-7.04663e-06
1.3494e-05
-9.22971e-06
1.23912e-05
-2.88246e-07
8.75621e-06
7.34116e-06
1.57492e-07
8.87765e-06
5.55106e-06
3.54313e-07
9.77129e-06
3.96777e-06
-1.4543e-06
9.85446e-06
2.04089e-06
-1.79065e-06
8.38774e-06
3.3137e-06
-6.39677e-07
8.87997e-06
5.23304e-06
9.06981e-06
6.25436e-06
2.25644e-07
1.95013e-05
1.22488e-05
-7.37558e-08
1.95072e-05
1.12662e-05
1.57906e-07
2.04684e-05
1.39389e-05
4.23075e-07
2.0267e-05
1.3083e-05
6.82433e-07
1.81274e-05
1.18864e-05
-7.22331e-08
2.05811e-05
1.27438e-05
1.99555e-05
1.18175e-05
1.37248e-06
7.25799e-06
7.87456e-06
1.30019e-07
9.85017e-06
7.61309e-06
-3.54511e-07
1.09652e-05
9.66523e-06
7.06466e-07
9.64662e-06
9.2254e-06
-1.51751e-06
1.25119e-05
7.30631e-06
-8.29671e-07
8.89365e-06
8.69921e-06
7.02114e-06
6.90183e-06
-1.83331e-06
1.11923e-05
-1.61508e-06
1.18155e-05
-4.54461e-08
1.28948e-05
-9.98642e-07
1.11628e-05
1.01256e-06
1.39075e-05
1.96169e-06
1.2911e-05
1.2084e-05
-2.99224e-06
-8.22768e-06
7.47504e-06
-8.17691e-07
-1.28199e-05
1.03031e-05
-6.81959e-08
-1.14051e-05
1.04172e-05
1.04168e-06
-1.16094e-05
1.03046e-05
2.50157e-06
-1.20049e-05
9.73718e-06
2.53636e-06
-1.02584e-05
8.71457e-06
-8.2728e-06
7.57733e-06
2.05878e-06
-2.15902e-05
9.70184e-06
3.67491e-07
-2.12671e-05
7.3261e-06
5.01497e-07
-2.14831e-05
8.5499e-06
1.40379e-07
-2.1559e-05
7.85496e-06
-1.55918e-06
-2.0457e-05
7.34723e-06
-1.43965e-06
-2.11598e-05
9.36899e-06
-2.11167e-05
9.37564e-06
1.44735e-06
-1.22004e-05
1.26127e-05
8.12395e-07
-1.03693e-05
1.09114e-05
3.30494e-07
-8.70214e-06
1.18351e-05
5.93505e-07
-9.54672e-06
1.15595e-05
3.20144e-07
-8.18841e-06
1.13617e-05
-3.61662e-07
-8.59241e-06
1.18273e-05
-1.03337e-05
1.20846e-05
-6.47467e-07
1.0467e-05
4.18454e-06
-4.96879e-08
8.48473e-06
4.80114e-06
5.91789e-08
9.19229e-06
4.51819e-06
-1.25181e-06
8.57822e-06
3.6958e-06
-1.4525e-06
9.20261e-06
4.74306e-06
-6.32473e-07
1.07403e-05
3.91025e-06
1.05708e-05
3.58513e-06
5.76732e-07
2.12063e-05
1.17862e-05
-2.59986e-07
2.11724e-05
9.72486e-06
2.46171e-07
2.05084e-05
1.24155e-05
2.48223e-07
2.04376e-05
1.13584e-05
5.40928e-07
1.98197e-05
1.11845e-05
-1.44437e-07
2.22527e-05
1.18701e-05
2.11145e-05
1.19096e-05
1.32665e-06
8.85579e-06
9.24913e-06
-1.41e-07
1.23852e-05
7.73621e-06
1.10169e-07
1.05048e-05
9.21871e-06
3.81569e-07
1.17959e-05
8.07494e-06
-1.53431e-06
1.31064e-05
6.49359e-06
-5.3203e-07
1.01468e-05
9.97709e-06
8.36765e-06
9.07682e-06
-1.88258e-06
7.67688e-06
-1.26607e-06
1.06345e-05
-3.24837e-07
9.08228e-06
-6.46558e-07
9.56185e-06
9.80159e-07
1.08392e-05
1.79126e-06
8.80538e-06
7.94332e-06
-2.75009e-06
-8.84995e-06
-5.9843e-07
-9.03843e-06
-1.25535e-07
-8.67587e-06
9.82082e-07
-7.89632e-06
2.17653e-06
-8.23793e-06
2.59781e-06
-9.01662e-06
-8.92887e-06
1.95633e-06
-1.82202e-05
5.06391e-07
-1.84801e-05
7.95883e-07
-1.83614e-05
2.50202e-07
-1.83625e-05
-1.48468e-06
-1.79722e-05
-1.16947e-06
-1.81732e-05
-1.77617e-05
1.64646e-06
-6.66747e-06
5.88155e-07
-6.3652e-06
5.88103e-07
-6.30279e-06
6.31974e-07
-6.45273e-06
3.19383e-07
-6.0103e-06
-3.12284e-07
-5.59089e-06
-5.48545e-06
-6.29365e-07
6.60249e-06
-4.68988e-08
6.12791e-06
-1.14828e-07
6.41582e-06
-1.17439e-06
6.37217e-06
-1.63883e-06
7.37391e-06
-8.58989e-07
6.03775e-06
5.68683e-06
6.81383e-07
1.82335e-05
-2.77961e-07
1.75052e-05
4.18752e-07
1.85615e-05
3.37861e-07
1.81262e-05
6.53059e-07
1.84208e-05
-7.45673e-08
1.86464e-05
1.79724e-05
1.09132e-06
9.3877e-06
-2.05581e-08
7.71463e-06
3.99464e-07
8.81375e-06
8.55229e-08
9.21134e-06
-1.33346e-06
7.39771e-06
-4.00241e-07
9.35412e-06
9.16897e-06
-1.65006e-06
-1.41317e-06
-3.5641e-07
-5.71545e-07
6.4593e-07
1.63609e-06
1.65652e-06
-0.000346879
-0.000990995
1.45929e-07
-0.000347362
-0.000990381
-2.37736e-06
-0.000348568
-0.000991476
-4.41244e-06
-0.000349098
-0.000990614
-5.48076e-06
-0.000348494
-0.000988205
-4.21071e-06
-0.000347047
-0.000986825
-0.000347419
-0.000987512
2.44544e-06
-0.000479291
-0.00206456
2.10816e-06
-0.000479686
-0.00206436
-7.87628e-07
-0.000478809
-0.00206617
-2.56168e-06
-0.000477542
-0.00206675
-3.63072e-06
-0.000477466
-0.00206587
-4.49107e-06
-0.000475615
-0.00206194
-0.000472718
-0.00206248
-1.62985e-06
-0.00021178
-0.00256755
-7.36742e-06
-0.000206566
-0.00256818
-1.07536e-05
-0.000208936
-0.00256748
-1.37206e-05
-0.000210287
-0.00256673
-1.24321e-05
-0.000209034
-0.00256652
-7.34957e-06
-0.000209572
-0.00256454
-0.000212348
-0.00256176
-6.42341e-06
0.000223724
-0.0027276
-5.00673e-06
0.000221133
-0.00272608
-4.75996e-06
0.000220984
-0.002727
-5.20067e-06
0.000220927
-0.00272674
-3.8434e-06
0.000220197
-0.00272636
-3.13845e-07
0.000219401
-0.00272638
0.000221186
-0.00272621
6.67199e-06
0.000474826
-0.00256339
8.32387e-06
0.000477345
-0.0025621
9.00246e-06
0.00048007
-0.00256314
6.9662e-06
0.000481095
-0.00256342
3.96764e-06
0.000482835
-0.00256616
5.74277e-07
0.000486153
-0.00256935
0.000488419
-0.00257239
1.58331e-06
0.000353214
-0.00208405
4.36294e-06
0.000351315
-0.00208191
5.17786e-06
0.00035222
-0.00207567
8.35951e-06
0.000353683
-0.00207638
8.07474e-06
0.000354372
-0.00207585
3.86085e-06
0.000355077
-0.00207479
0.000355988
-0.00207543
-3.58779e-07
-0.000989938
3.72314e-06
-0.000994691
5.80904e-06
-0.000991923
8.9196e-06
-0.000992157
9.10162e-06
-0.000992447
4.99018e-06
-0.000993123
-0.000993784
3.27696e-06
-0.000300698
-0.00195415
2.00484e-06
-0.000301017
-0.00195264
-1.18441e-06
-0.00030189
-0.00195291
2.84681e-06
-0.00030434
-0.00195453
-2.67145e-06
-0.000302898
-0.00194993
-4.09193e-06
-0.000301317
-0.0019503
-0.000305314
-0.00195077
2.15443e-06
-0.000453757
-0.00410554
9.83963e-07
-0.000453827
-0.00410649
-3.78666e-06
-0.000452874
-0.00410921
1.65104e-06
-0.000451952
-0.00409798
-7.22827e-07
-0.000452597
-0.0041074
-5.92081e-06
-0.000450243
-0.00410355
-0.000446659
-0.00409361
-3.92136e-06
-0.000176541
-0.00506675
-8.57568e-06
-0.00017342
-0.00506764
-6.86131e-06
-0.000175375
-0.00506727
-1.69132e-05
-0.000180665
-0.00507154
-1.0351e-05
-0.000179479
-0.005064
-2.99923e-06
-0.000181146
-0.00506095
-0.000185918
-0.00506251
-3.93474e-06
0.000198657
-0.0053426
-5.39777e-06
0.000197473
-0.00534206
-4.73525e-06
0.000193188
-0.00534086
-3.78756e-06
0.000193705
-0.00534326
-2.09329e-06
0.000190009
-0.00533978
9.14586e-07
0.000187204
-0.00533659
0.000191075
-0.00533582
1.10768e-05
0.00044262
-0.00506204
5.68431e-06
0.000450126
-0.00506301
7.55629e-06
0.00045356
-0.00506021
-1.06031e-06
0.000453864
-0.00506208
-7.32898e-06
0.000456725
-0.00506371
-5.40522e-06
0.000460657
-0.00506514
0.000461662
-0.00506727
8.06406e-06
0.000325648
-0.00411444
1.15069e-05
0.000309104
-0.00411709
4.4752e-06
0.000308492
-0.00412271
7.79795e-06
0.00031184
-0.00411897
5.04063e-06
0.000311522
-0.00411961
3.08587e-07
0.000308452
-0.00412227
0.000307584
-0.00412415
-1.11842e-05
-0.0019686
5.25623e-06
-0.00196386
6.90198e-06
-0.00195867
8.41358e-06
-0.00195674
8.01045e-06
-0.00195498
2.05225e-06
-0.00195393
-0.00195276
3.01054e-06
-0.00022417
-0.00292652
3.06377e-06
-0.000225812
-0.00292628
-6.22714e-06
-0.000228251
-0.00292799
1.64018e-05
-0.000228453
-0.00292006
-3.93378e-06
-0.00023326
-0.00292674
-8.8915e-06
-0.000224161
-0.00292927
-0.000223456
-0.00292247
-1.55052e-06
-0.000351078
-0.00601682
-5.68597e-06
-0.000349565
-0.00601519
1.50901e-05
-0.000350896
-0.0060142
-1.04931e-05
-0.000378455
-0.00601552
7.25312e-06
-0.000353245
-0.00601314
1.29872e-05
-0.000350829
-0.00601373
-0.000380196
-0.00601803
-4.52669e-06
-0.000161999
-0.0073584
-7.82684e-06
-0.000159466
-0.00735656
-1.24876e-05
-0.000164932
-0.00735532
-5.70787e-06
-0.000148068
-0.00735636
2.13404e-07
-0.000164227
-0.00735256
5.63085e-07
-0.000163662
-0.00735195
-0.000149976
-0.00735189
-5.36458e-06
0.000183153
-0.00775627
-2.05567e-06
0.000174015
-0.0077564
-9.26565e-06
0.000184221
-0.00775798
4.25347e-06
0.000175712
-0.00775609
4.43202e-06
0.000175252
-0.00775499
2.06642e-06
0.000177608
-0.00775005
0.000181235
-0.00774688
8.72235e-06
0.000347769
-0.0073607
9.58643e-06
0.000354142
-0.00736153
4.35726e-06
0.000345466
-0.00736026
-5.28406e-06
0.000353064
-0.00735935
-1.38904e-05
0.000352552
-0.0073581
-6.28686e-06
0.000350567
-0.0073522
0.000345084
-0.00735056
8.46368e-06
0.000252581
-0.00600288
4.6623e-07
0.000261873
-0.00600665
1.14351e-05
0.000255312
-0.00600428
8.03983e-06
0.00026056
-0.00600245
5.70319e-06
0.000251275
-0.00600582
2.84169e-07
0.00023854
-0.00601758
0.000236622
-0.00602088
3.51285e-06
-0.00295298
1.69318e-05
-0.00295143
1.03331e-05
-0.00294748
1.13995e-05
-0.00293951
1.23881e-05
-0.00293386
4.8661e-06
-0.00293001
-0.00292569
3.21765e-06
-0.00014815
-0.00396853
2.00217e-06
-0.000148993
-0.00395782
6.40932e-06
-0.000151062
-0.00395967
4.6493e-06
-0.000150007
-0.00394725
-1.36549e-05
-0.000148077
-0.00395226
1.8543e-06
-0.000133551
-0.00395777
-0.000142139
-0.00395176
-1.55941e-06
-0.000245832
-0.00781706
1.75805e-06
-0.000243178
-0.00780325
-4.30774e-07
-0.000239337
-0.00780746
7.23316e-06
-0.000243764
-0.00779245
9.73851e-06
-0.000248118
-0.00780535
-1.14922e-05
-0.000265942
-0.00781137
-0.000249534
-0.00780201
-3.13596e-06
-0.000133806
-0.00944666
-3.39913e-06
-0.000135594
-0.00944193
-8.89517e-06
-0.000137801
-0.00943988
-3.41472e-06
-0.000140585
-0.00944217
6.97543e-06
-0.000136591
-0.00944508
7.90401e-06
-0.000137778
-0.00944513
-0.000147924
-0.00945132
-8.00367e-06
0.000125062
-0.00991623
-7.24753e-06
0.000125059
-0.00991759
-4.84333e-06
0.000127109
-0.00992359
6.60842e-06
0.000127827
-0.00992876
1.22784e-05
0.000134747
-0.00993366
1.05239e-05
0.000149668
-0.00993536
0.000156718
-0.00994403
9.36596e-06
0.000296716
-0.00946324
1.60705e-05
0.000295415
-0.00946399
1.05328e-05
0.000289287
-0.00947187
-2.13635e-06
0.000284473
-0.00947217
-4.94175e-06
0.00027129
-0.00946892
2.21399e-06
0.000252368
-0.0094596
0.000240983
-0.00946174
-1.26281e-06
0.000150639
-0.00785784
3.22915e-06
0.000160288
-0.00786047
1.23969e-05
0.000172581
-0.0078289
8.41423e-06
0.000178749
-0.0078161
-3.76321e-06
0.000175672
-0.00781827
-6.30687e-06
0.000159109
-0.00781741
0.000158556
-0.00780841
7.04104e-06
-0.00399114
2.73416e-05
-0.00399443
2.5513e-05
-0.00398432
2.17552e-05
-0.00396521
1.98871e-05
-0.00394615
1.60482e-05
-0.00394404
-0.00394745
1.09005e-05
-4.85982e-06
-0.00506224
1.4454e-05
-1.09956e-05
-0.00503636
2.47583e-05
-1.5947e-05
-0.00505801
9.64133e-07
-2.8568e-05
-0.0050418
-2.79417e-05
-1.43295e-05
-0.0050463
-6.80329e-06
-2.32264e-05
-0.00505211
-1.67048e-05
-0.00502572
-1.93797e-07
-0.000241476
-0.00938423
2.32602e-05
-0.000244815
-0.00933715
6.15692e-06
-0.000229384
-0.00935993
4.16676e-06
-0.000223496
-0.00932407
-2.27967e-05
-0.000227975
-0.00932222
4.48358e-06
-0.000242486
-0.00934203
-0.000230116
-0.00935208
9.75473e-06
-0.00011955
-0.0112921
3.39662e-06
-0.000135459
-0.0113171
-1.78478e-05
-0.000135543
-0.01132
-2.0356e-06
-0.000128611
-0.0113227
-4.41865e-06
-0.000139718
-0.0113297
8.19258e-06
-0.000153663
-0.011302
-0.000142823
-0.0113216
-1.47076e-05
0.000149685
-0.0119163
-1.40004e-05
0.000152254
-0.0119234
-2.5792e-05
0.000138263
-0.0119355
2.90339e-06
0.000116901
-0.0119281
2.62566e-06
0.00012641
-0.0119421
-1.59302e-06
0.000142089
-0.0119389
0.000127456
-0.0119401
-1.57837e-06
0.000228496
-0.0113531
1.50458e-05
0.000233161
-0.0113191
6.99867e-06
0.000261127
-0.0113355
1.16352e-05
0.00024795
-0.0113535
-1.06674e-06
0.000228275
-0.011359
8.99474e-06
0.000222016
-0.0113417
0.000227068
-0.0113543
-1.64563e-05
-1.46663e-05
-0.00937936
5.63872e-05
5.46023e-06
-0.00939634
3.55388e-05
8.2168e-06
-0.00936808
6.9851e-06
2.84195e-05
-0.00935979
-6.17338e-06
3.76561e-05
-0.00935408
1.71112e-05
3.77169e-05
-0.00935593
3.06513e-05
-0.00936508
6.89207e-06
-0.00504676
6.65057e-05
-0.00506148
6.77523e-05
-0.00506612
5.89414e-05
-0.00506841
1.71686e-05
-0.00504151
1.00115e-05
-0.00503553
-0.00503158
6.41338e-05
-0.000400626
-0.00527846
-3.73196e-05
-0.00041556
-0.00528808
5.88782e-05
-0.000399341
-0.00530656
-5.06493e-06
-0.000384825
-0.00529043
-1.76339e-05
-0.000396605
-0.00528161
2.27157e-05
-0.00039732
-0.00528721
-0.00041098
-0.00528111
4.01625e-05
-0.000356994
-0.0105621
1.28833e-05
-0.000383415
-0.0105011
7.41839e-05
-0.000380027
-0.0106333
-3.38968e-06
-0.000379663
-0.0105442
-5.4908e-05
-0.000393593
-0.0105185
-3.24123e-05
-0.000402669
-0.0106135
-0.000390291
-0.0105429
-1.78826e-05
-0.000160223
-0.0129729
-1.88232e-05
-0.000134527
-0.0130241
5.95043e-06
-0.000134925
-0.0130504
-1.89543e-05
-0.000127716
-0.0130563
5.17524e-06
-0.00013193
-0.013075
-1.46859e-05
-0.000174708
-0.0130246
-0.000144099
-0.0130321
2.27706e-06
0.000134125
-0.0136996
-2.67766e-05
0.000144395
-0.0137119
-4.35186e-05
0.000159273
-0.0137461
-1.42124e-05
0.000104047
-0.0137542
2.66034e-05
0.00010792
-0.0137384
-2.06699e-05
0.000141496
-0.0137288
9.93706e-05
-0.0137044
3.37143e-05
0.000350147
-0.0130071
-1.47324e-06
0.000408188
-0.0130314
1.36157e-06
0.000424423
-0.0130864
6.52906e-06
0.000366934
-0.0130907
7.81309e-06
0.000383919
-0.013081
-6.30575e-06
0.000417901
-0.0130613
0.000404407
-0.0130813
-1.55911e-05
0.000394349
-0.0105631
5.56411e-05
0.000392099
-0.0106511
3.968e-05
0.000368151
-0.0105563
9.3139e-06
0.000388073
-0.0105371
2.3318e-06
0.000418234
-0.0105298
-1.86759e-05
0.000370514
-0.0105628
0.000394589
-0.0105332
-4.96941e-06
-0.00527042
2.55269e-05
-0.00530817
9.28857e-05
-0.00525251
0.000115467
-0.00528561
6.90496e-06
-0.00531325
1.46014e-05
-0.00526613
-0.00526238
-1.02518e-06
-0.00108846
-0.00460856
-4.21704e-05
-0.00103127
-0.0046587
9.6753e-06
-0.00101436
-0.004738
4.55635e-06
-0.000979622
-0.00449233
8.72759e-06
-0.000995506
-0.00451484
6.53027e-05
-0.00102045
-0.00457247
-0.0010441
-0.00453861
5.89358e-05
-0.00142147
-0.0115862
-6.48606e-05
-0.0014752
-0.0113118
0.000130312
-0.00143049
-0.0116252
2.44278e-06
-0.00144319
-0.0113511
-9.01169e-05
-0.00145198
-0.0113843
-8.38898e-06
-0.00146521
-0.0116095
-0.00138972
-0.0115001
-0.000104752
-0.000574844
-0.01506
-0.000118671
-0.000526695
-0.0150753
-8.44038e-06
-0.000551404
-0.0151827
-1.23851e-05
-0.000624468
-0.0150588
5.37482e-05
-0.000600373
-0.0151178
8.69298e-05
-0.000540023
-0.0151744
-0.000542817
-0.0150519
-0.000122903
0.000609787
-0.0160706
-0.000130304
0.000536413
-0.0159122
-3.79244e-05
0.000526276
-0.0159524
1.4151e-05
0.000578194
-0.0161708
2.40304e-05
0.000583068
-0.0160795
4.27514e-05
0.00055404
-0.0159017
0.000527367
-0.015899
-4.32586e-05
0.00134896
-0.0150156
-0.000103403
0.00147852
-0.015103
-5.0114e-05
0.00146115
-0.0153151
1.81758e-05
0.00141547
-0.015179
4.88895e-05
0.00141442
-0.0151217
6.10134e-05
0.00138015
-0.0151551
0.00138041
-0.015138
-9.09517e-05
0.00102552
-0.0114961
7.00916e-05
0.00105475
-0.0116138
6.43955e-05
0.00106116
-0.0114913
-7.93005e-06
0.00106291
-0.011499
-1.14623e-05
0.0010196
-0.0114875
2.23267e-05
0.00103926
-0.0115186
0.00105166
-0.011523
-3.53493e-05
-0.00459205
6.22207e-05
-0.00483521
8.68366e-05
-0.00455876
3.11381e-05
-0.00456815
0.000104136
-0.00458958
1.41984e-05
-0.00457921
-0.00464123
7.59838e-05
0.00141182
-0.00596042
0.00384042
-0.000133563
0.00191671
-0.00596047
0.00367713
2.93778e-05
0.00158104
-0.00604199
0.00387879
6.60089e-05
0.00195962
-0.00615236
0.00364954
6.48394e-05
0.00192444
-0.00609408
0.00364971
-0.000103513
0.0017176
-0.00595917
0.0037431
0.0015102
-0.00595876
0.00375279
-0.000114959
0.00113094
-0.0130243
0.0122456
-0.000152489
0.00188276
-0.0133606
0.0121231
-2.88475e-05
0.00112512
-0.0134855
0.0124327
4.52383e-05
0.0018997
-0.0136798
0.0121985
0.000183598
0.00185685
-0.0136037
0.0121645
8.61459e-05
0.00149694
-0.0133076
0.0123208
0.00141851
-0.0130609
0.0121272
-0.00030195
0.00041103
-0.0163902
0.0166627
-9.24207e-05
0.000642271
-0.0166173
0.0165097
-0.000372889
0.000513771
-0.0167914
0.0166592
6.67878e-05
0.000896095
-0.0167317
0.0164576
0.000362669
0.00070238
-0.0166716
0.0165351
0.000198979
0.000566929
-0.0165829
0.0167026
0.000400637
-0.0163493
0.0166172
-0.000200477
-0.000601951
-0.0170179
0.0178594
-0.000165418
-0.000401543
-0.017397
0.017886
-0.000377106
-0.00068152
-0.0175757
0.018031
6.28389e-05
-0.00083593
-0.0174067
0.0180981
0.000272222
-0.000756901
-0.0174001
0.0181372
0.000283725
-0.000732045
-0.0173398
0.0179216
-0.000449436
-0.0170459
0.0177317
-4.41984e-05
-0.00149173
-0.016355
0.0164869
-0.000336495
-0.00115424
-0.0166465
0.016646
-0.000222626
-0.0018546
-0.016731
0.0166407
5.16593e-05
-0.00192444
-0.0167304
0.0166045
0.000220992
-0.00184493
-0.016702
0.0166104
0.000225215
-0.0018358
-0.0165536
0.0165832
-0.00139612
-0.0162584
0.0165487
-0.000140682
-0.00157353
-0.013098
0.0121106
-0.000156428
-0.00156615
-0.0132441
0.0124166
-1.30852e-05
-0.00185766
-0.0135289
0.0122213
8.5059e-05
-0.00190223
-0.0136443
0.0122432
0.000165589
-0.00188383
-0.0135627
0.0122066
6.52997e-05
-0.00186523
-0.0133599
0.0121824
-0.00154942
-0.0131277
0.0122363
3.93964e-05
-0.00596586
0.00375036
2.14805e-05
-0.00593026
0.00386973
1.1917e-05
-0.00610807
0.00370069
8.42901e-05
-0.00620413
0.00371918
7.24819e-05
-0.00613258
0.00374622
-8.60379e-05
-0.00599972
0.00372424
-0.00601268
0.00382005
8.91923e-05
7.00942e-05
-0.00650948
-0.000230645
0.0011513
-0.0071798
-0.000100092
0.00117232
-0.00767437
0.000132811
0.00118732
-0.00790465
0.000219137
0.00116584
-0.00767588
-6.47019e-05
0.00112308
-0.00720087
8.30304e-05
-0.00652236
-0.000475255
0.00013421
-0.0133641
-0.000510004
0.00116261
-0.014393
-0.000158964
0.00119144
-0.0149827
0.000215183
0.00116613
-0.0150755
0.000479703
0.00115754
-0.0149637
0.00047745
0.00109569
-0.0143704
0.000116187
-0.0133826
-0.000723645
6.60864e-06
-0.0161765
-0.000546341
0.000416517
-0.0167927
-0.000241019
0.000430128
-0.0170666
0.000155554
0.000443225
-0.0171088
0.000548899
0.000462839
-0.0170671
0.000731092
0.000427562
-0.0167861
1.99099e-05
-0.0161549
-0.000736961
-4.80526e-05
-0.0167682
-0.000512346
-0.000461618
-0.0172938
-0.000252141
-0.000508275
-0.0175146
0.000137784
-0.000473416
-0.0175167
0.000521828
-0.000488332
-0.0174686
0.000746429
-0.000458227
-0.0172589
-7.03177e-05
-0.016744
-0.000698507
-0.000124424
-0.0161792
-0.000553637
-0.0011331
-0.0168223
-0.000221658
-0.00115219
-0.0171089
0.000162663
-0.00115682
-0.0171517
0.000517922
-0.00116106
-0.0171076
0.000712486
-0.00111156
-0.0167787
-0.000105634
-0.0161453
-0.000530026
-8.59644e-05
-0.0133896
-0.000486287
-0.00111804
-0.0143586
-0.000214288
-0.00111966
-0.0149098
0.00021395
-0.00114987
-0.0150172
0.000517024
-0.00112383
-0.014921
0.00050621
-0.00113361
-0.0144047
-9.53418e-05
-0.0134272
4.61755e-05
-0.00652619
-0.00020581
-0.00720345
-0.000101709
-0.00767191
0.000156958
-0.00791743
0.000257302
-0.00769439
-4.41953e-05
-0.00722514
-0.00655333
-0.000494712
5.9317e-05
-0.00635595
-0.000833102
0.00138806
-0.00846563
-0.00038333
0.00143789
-0.00971043
0.000383038
0.00146121
-0.0102965
0.000836373
0.00143394
-0.00971685
0.000498864
0.0013701
-0.00846688
5.14217e-05
-0.00635971
-0.00133547
2.64241e-05
-0.0127413
-0.00125413
0.00152749
-0.0155183
-0.000473096
0.00164415
-0.0169332
0.000456035
0.00163152
-0.0170984
0.00127762
0.00162885
-0.0169257
0.00131371
0.00147973
-0.0154234
-7.76944e-07
-0.012757
-0.00139068
-8.70381e-06
-0.0152387
-0.00105957
0.000583306
-0.0167764
-0.000362773
0.000634839
-0.0173876
0.000330733
0.000635077
-0.0173662
0.00103232
0.000642403
-0.0174018
0.00140396
0.00060108
-0.0168428
-1.54381e-05
-0.0152378
-0.00139091
2.83883e-06
-0.0157868
-0.000938661
-0.00062614
-0.0169115
-0.000302816
-0.000674143
-0.0172374
0.000278309
-0.000636257
-0.0172638
0.000918818
-0.000634172
-0.0172346
0.00139532
-0.000582701
-0.0169059
1.06876e-05
-0.0157672
-0.00139178
-2.09862e-05
-0.0152495
-0.00103129
-0.00148574
-0.0168517
-0.000340246
-0.00162927
-0.0174068
0.000324957
-0.00161825
-0.0174227
0.00100031
-0.00165912
-0.017417
0.00138219
-0.00152481
-0.0168064
-1.90903e-05
-0.0152338
-0.00131426
-4.77949e-05
-0.0127642
-0.00128001
-0.00135923
-0.0154231
-0.000501681
-0.00141454
-0.0168961
0.000429043
-0.00144049
-0.0170014
0.00126356
-0.00140632
-0.0168644
0.00134086
-0.00137409
-0.0154781
-5.27049e-05
-0.0127799
-0.000498396
-0.00635303
-0.000835416
-0.00845105
-0.000374315
-0.00969526
0.000390506
-0.0102858
0.000851438
-0.00972486
0.000508352
-0.00848982
-0.00637608
-0.00180817
0.000659925
-0.00540381
-0.00190181
0.00160996
-0.00987908
-0.000806823
0.00169291
-0.0122925
0.000816669
0.00166543
-0.0135327
0.00190072
0.00168816
-0.0123036
0.00180842
0.00159297
-0.00988674
0.000656334
-0.00541507
-0.00292885
0.000661845
-0.0105128
-0.00261437
0.00187248
-0.0167242
-0.000845417
0.0021501
-0.0197758
0.000810882
0.00209385
-0.0199043
0.00259078
0.0021646
-0.0197902
0.00291785
0.00187997
-0.0166037
0.000655058
-0.0105229
-0.00227819
0.000275475
-0.0129151
-0.00175587
0.000749779
-0.016566
-0.000580929
0.000823149
-0.0177779
0.000561059
0.000822155
-0.0176524
0.00174306
0.000816122
-0.0177821
0.00226504
0.000748991
-0.0166654
0.000264378
-0.0129344
-0.00191344
-0.000271119
-0.0135797
-0.00135761
-0.000764294
-0.01617
-0.000416113
-0.000835102
-0.0167675
0.000421571
-0.000819508
-0.0167203
0.0013506
-0.000824941
-0.0167761
0.00191093
-0.000754222
-0.0161783
-0.000266193
-0.0135695
-0.00226495
-0.000675004
-0.0129401
-0.00175059
-0.00186017
-0.0166655
-0.000555296
-0.00212479
-0.0177844
0.000552113
-0.0020812
-0.0176887
0.00172754
-0.00215759
-0.0177706
0.00224839
-0.00189831
-0.0166217
-0.000688943
-0.0129071
-0.00289501
-0.000649339
-0.0105273
-0.00260319
-0.00158171
-0.0166024
-0.000869099
-0.00169297
-0.019734
0.000805624
-0.00164569
-0.0198386
0.00256943
-0.00166878
-0.019705
0.00291449
-0.0015867
-0.0166252
-0.000669185
-0.0105191
-0.00180301
-0.00538994
-0.00188427
-0.00985396
-0.000811176
-0.0122798
0.000815668
-0.0135067
0.00190937
-0.012308
0.00181687
-0.00990657
-0.00541626
-0.00297599
0.000297981
-0.00263553
-0.00333864
0.00134309
-0.0102046
-0.00149558
0.0010705
-0.0144445
0.00151523
0.000329603
-0.016568
0.00333072
0.00105547
-0.0144583
0.00296134
0.00132656
-0.0102261
0.000302519
-0.00267536
-0.00509123
0.000351137
-0.00569109
-0.00496889
0.00126537
-0.0167556
-0.00181994
0.0014399
-0.0234647
0.00179346
0.00119874
-0.0249972
0.00494812
0.00146952
-0.0234939
0.00509571
0.00129394
-0.0167023
0.000359561
-0.00570573
-0.00398123
0.000234907
-0.00886836
-0.00373394
0.000413069
-0.0161501
-0.00132446
0.000708811