/*--------------------------------*- C++ -*----------------------------------*\
  =========                 |
  \\      /  F ield         | OpenFOAM: The Open Source CFD Toolbox
   \\    /   O peration     | Website:  https://openfoam.org
    \\  /    A nd           | Version:  6
     \\/     M anipulation  |
\*---------------------------------------------------------------------------*/
FoamFile
{
    version     2.0;
    format      ascii;
    class       volScalarField;
    location    "0.0025";
    object      T;
}
// * * * * * * * * * * * * * * * * * * * * * * * * * * * * * * * * * * * * * //

dimensions      [0 0 0 1 0 0 0];

internalField   nonuniform List<scalar> 
3773
(
216.358
215.817
215.879
215.92
215.869
215.846
216.34
277.5
277.25
277.195
277.171
277.161
277.269
277.604
312.322
312.574
312.58
312.571
312.567
312.558
312.391
322.209
322.277
322.308
322.307
322.302
322.299
322.218
312.409
312.454
312.633
312.629
312.619
312.608
312.435
277.759
277.419
277.42
277.39
277.372
277.42
277.727
216.321
216.02
215.986
216.017
215.992
215.918
216.382
210.778
210.021
209.692
209.647
209.89
210.142
209.837
271.518
275.202
275.11
275.072
274.978
275.35
272.596
313.876
311.908
311.826
311.963
312.227
311.882
313.895
324.617
324.703
324.643
324.689
324.693
324.591
325.14
314.202
313.926
312.417
312.3
312.24
312.1
314.175
271.955
271.66
274.76
274.959
274.939
275.439
272.261
210.244
210.494
209.755
209.773
209.705
210.004
209.862
209.519
209.863
209.128
209.051
209.52
210.324
209.463
269.724
273.139
273.627
270.526
270.53
273.262
270.234
314.138
312.042
312.103
314.311
314.087
311.779
314.127
325.292
324.594
324.744
325.338
325.381
324.642
325.285
314.132
311.811
313.003
314.059
314.184
312.888
314.122
269.975
273.091
272.501
270.466
271.092
272.353
270.226
209.371
210.221
209.066
208.824
208.966
209.969
209.421
209.372
210.601
210.083
210.146
209.943
210.193
209.425
269.773
274.449
274.126
273.315
271.549
273.653
269.961
314.163
311.14
311.565
312.253
313.399
311.006
314.098
325.299
324.478
324.796
325.116
324.973
324.864
325.263
314.164
310.76
313.259
314.53
313.57
310.874
314.101
269.853
274.215
271.853
270.134
271.916
274.023
269.95
209.328
210.275
210.01
208.72
209.729
210.188
209.384
209.396
210.005
209.887
209.365
209.724
209.963
209.351
269.871
274.218
274.376
274.538
274.462
274.002
269.957
314.213
311.765
311.373
311.995
311.566
310.626
314.159
325.312
324.401
324.741
324.682
324.629
324.918
325.283
314.198
311.241
311.761
312.882
312.993
310.956
314.161
269.965
274.242
274.049
272.577
272.789
273.75
269.986
209.391
210.037
209.878
209.201
209.409
210.044
209.343
209.431
210.071
208.348
210.122
210.215
209.97
209.387
270.19
274.531
275.557
274.284
274.463
274.264
270.224
314.327
311.409
311.545
310.989
310.956
310.847
314.254
325.339
324.424
324.437
324.634
324.361
324.936
325.314
314.307
311.836
311.235
311.54
311.194
311.912
314.258
270.304
275.469
274.631
275.586
274.507
273.328
270.241
209.426
208.555
209.942
208.358
210.479
209.985
209.385
210.072
208.089
209.856
209.842
209.849
209.982
210.062
274.022
275.185
274.206
273.887
273.914
274.172
274.026
311.614
312.102
311.137
311.502
311.021
311.479
311.107
325.448
326.105
325.894
325.907
326.209
325.437
326.255
311.609
314.989
311.538
311.115
315.613
311.562
311.092
274.063
269.201
274.02
274.208
270.475
274.18
274.052
210.152
209.558
209.913
209.904
207.845
210.049
210.12
219.612
219.536
219.543
219.552
219.553
219.56
219.586
285.159
285.12
285.12
285.126
285.103
285.063
285.121
328.456
328.424
328.425
328.415
328.439
328.432
328.387
340.268
340.269
340.265
340.269
340.264
340.266
340.261
328.409
328.444
328.423
328.409
328.403
328.415
328.434
285.072
285.025
285.08
285.098
285.107
285.108
285.125
219.537
219.574
219.567
219.553
219.542
219.534
219.586
220.476
220.413
220.408
220.436
220.375
220.556
220.485
287.257
287.154
287.14
287.424
287
286.849
287.504
326.799
326.833
326.856
326.57
326.966
326.884
326.475
340.228
340.232
340.202
340.25
340.193
340.207
340.227
327.128
327.025
326.996
326.792
326.785
326.919
326.906
287.085
286.731
286.827
287.173
287.231
287.081
287.088
219.797
220.481
220.473
220.426
220.408
220.347
220.434
219.871
219.792
219.69
219.926
219.512
220.311
219.869
285.259
285.079
284.893
286.846
284.978
284.577
286.806
329.003
329.172
329.387
327.615
329.453
329.079
327.594
340.897
340.78
340.861
341.032
340.844
340.949
341.168
328.475
327.658
328.887
327.939
328.482
329.441
329.396
285.78
286.85
285.206
286.739
285.987
284.75
284.555
220
220.166
219.983
219.76
219.73
219.494
219.715
221.192
221.175
221.108
220.843
220.653
220.802
220.897
285.771
285.651
285.803
285.67
285.43
285.647
285.75
328.977
329.312
329.111
329.467
329.721
329.114
329.26
341.863
341.675
341.645
341.786
341.708
342.025
341.972
328.01
327.793
327.504
327.494
328.131
329.762
329.426
287.847
288.043
288.502
288.703
287.404
285.208
285.369
220.476
220.886
220.497
220.272
220.693
220.688
220.764
223.086
223.288
222.867
222.51
222.096
223.059
223.218
288.527
289.447
289
289.379
288.186
289.843
289.644
329.028
329.282
328.68
329.387
329.753
328.72
328.184
343.068
343.283
343.051
343.343
343.052
343.574
343.392
330.701
330.437
329.199
328.769
328.994
329.692
328.347
287.103
288.069
289.205
289.95
288.94
288.483
289.987
223.254
223.618
221.906
221.612
222.018
223.112
222.26
231.6
228.186
231.551
229.074
229.124
230.904
229.602
294.272
297.025
297.13
294.914
297.292
296.374
296.893
333.521
331.477
331.746
332.268
331.879
331.506
331.667
345.718
345.107
345.492
344.96
345.207
345.218
345.947
332.162
332.756
333.632
332.044
332.135
333.063
332.036
295.726
295.141
295.193
297.395
298.332
295.296
298.686
230.405
231.151
231.232
228.882
226.96
229.601
229.058
244.127
243.645
244.627
247.004
248.468
248.026
242.735
306.434
304.258
304.465
303.351
303.013
303.471
304.364
334.653
336.036
334.831
334.925
335.094
334.381
334.511
347.117
346.725
347.056
346.586
346.742
346.841
346.959
335.389
335.829
335.301
335.225
334.826
334.991
335.092
301.254
304.657
302.092
304.5
305.049
303.942
305.127
245.383
244.487
246.877
243.387
241.225
240.573
240.569
225.415
225.316
225.3
225.823
226.023
226.138
225.823
288.434
282.261
284.848
282.654
281.235
285.186
288.063
329.25
332.313
332.518
332.251
332.499
330.906
329.173
347.386
347.18
347.571
346.822
346.85
346.771
346.368
328.4
330.199
329.421
331.137
329.741
329.936
331.108
287.623
287.877
285.525
284.274
285.909
285.633
285.747
226.311
226.056
226.379
226.281
226.243
225.992
225.582
226.334
226.479
226.443
227.195
227.168
227.013
226.118
291.867
285.292
283.657
284.303
284.501
288.044
291.981
331.358
333.376
334.453
334.687
333.283
331.116
331.556
348.127
348.244
348.356
348.298
348.053
347.88
347.727
331.645
330.419
330.932
332.667
332.084
332.746
332.187
291.23
288.902
288.357
287.927
287.049
286.19
291.65
226.897
227.327
227.421
227.431
227.418
227.33
226.194
226.976
228.307
228.523
229.11
228.954
228.772
226.66
292.223
283.75
282.795
284.722
283.13
285.945
292.469
331.842
333.125
333.177
334.221
332.411
331.294
331.839
348.052
348.451
348.321
348.154
347.766
347.639
347.761
332.427
330.136
330.943
332.291
331.74
333.07
332.612
291.137
287.174
285.576
288.213
285.176
284.026
291.662
227.372
229.098
229.203
229.188
229.13
229.038
226.95
228.322
232.503
232.444
231.819
232.586
232.95
227.987
290.855
283.273
283.117
285.677
282.39
285.354
291.169
331.249
333.351
330.696
333.578
330.836
331.05
331.024
347.318
347.957
347.56
347.701
346.976
347.305
347.049
331.672
330.355
331.412
332.345
329.975
331.527
331.879
289.64
286.244
282.563
287.832
285.035
285.814
290.08
228.606
233.367
232.907
231.798
232.515
232.849
228.317
232.134
241.03
239.356
234.803
238.977
241.136
231.641
291.584
287.851
283.614
287.081
282.834
288.761
291.905
331.674
333.468
330.524
333.246
330.63
332.226
331.215
346.673
347.406
346.859
347.128
345.997
346.815
346.492
331.847
331.935
329.468
333.398
329.285
331.85
331.99
290.464
288.866
284.44
287.304
286.122
290.369
291.148
232.322
241.973
239.552
234.711
238.57
240.595
231.647
241.244
256.211
251.29
239.054
248.995
254.593
240.026
296.867
295.949
285.369
282.362
284.503
295.78
297.544
333.661
333.473
328.327
331.036
328.373
333.758
333.383
346.5
346.656
345.565
345.982
344.628
346.224
346.399
334.067
333.671
328.463
331.038
327.004
332.599
333.683
296.348
295.073
285.045
283.005
287.552
298.034
297.755
241.02
256.919
251.47
238.873
248.337
254.569
239.45
279.509
280.815
271.23
255.678
272.935
279.182
272.986
309.405
305.194
289.03
275.375
288.198
306.246
313
330.747
330.817
326.852
325.061
327.018
331.514
331.188
344.337
344.745
343.952
343.839
342.967
344.496
344.288
333.097
331.301
327.053
324.715
323.783
330.42
330.839
308.377
304.231
289.174
276.772
291.992
307.383
312.968
277.422
280.413
275.355
253.713
272.135
278.022
274.229
259.183
244.958
251.71
257.531
255.924
258.582
259.24
300.052
298.17
303.183
297.96
296.383
298.564
298.018
333.302
336.484
334.947
333.606
334.927
333.445
332.973
347.814
347.242
347.601
346.837
346.892
346.733
346.722
332.146
335.038
333.084
334.452
334.235
332.783
334.36
298.11
302.149
297.103
296.142
297.184
298.46
298.324
257.584
248.936
256.832
258.622
255.461
253.885
253.408
253.845
241.015
245.816
253.472
251.878
252.821
250.392
296.746
293.073
300.774
295.821
293.236
296.545
296.277
332.791
335.765
334.666
333.439
334.432
333.014
331.917
347.776
347.219
347.586
346.798
346.837
346.696
346.65
331.684
334.058
332.447
334.44
333.183
332.052
333.797
296.021
298.113
295.002
293.054
293.746
296.377
295.686
252.348
241.769
251.355
252.993
250.734
245.14
246.691
248.354
234.355
238.142
249.346
247.749
247.944
247.12
295.601
291.226
297.761
290.769
289.791
294.338
294.223
331.516
335.428
334.159
333.143
334.181
332.626
331.558
347.733
347.149
347.538
346.765
346.798
346.652
346.549
331.139
333.592
332.126
333.871
332.497
331.831
333.156
293.891
296.314
292.461
289.929
291.787
294.183
293.246
247.019
239.747
245.772
245.056
246.044
241.722
244.427
241.764
231.904
235.497
239.292
238.161
242.148
237.187
293.68
287.816
294.752
289.003
286.787
292.177
292.732
331.099
334.523
333.936
333.034
333.95
332.256
330.723
347.713
347.089
347.472
346.738
346.74
346.589
346.458
330.573
332.736
331.532
333.469
332.207
331.428
332.759
291.991
294.564
290.591
288.968
289.266
292.071
291.147
241.066
234.58
239.786
240.467
240.592
238.055
236.151
234.224
230.544
229.127
231.877
231.902
236.037
234.148
292.453
286.159
290.657
286.34
284.271
290.098
290.377
330.625
334.275
333.501
332.899
333.603
331.915
330.494
347.719
347.07
347.341
346.733
346.717
346.521
346.403
329.804
332.414
331.279
332.589
331.546
330.905
332.392
290.715
291.004
288.587
286.614
288.227
290.117
289.285
233.773
233.646
235.091
233.942
232.952
232.398
233.858
231.698
226.41
227.427
228.869
229.141
231.216
231.39
290.853
283.767
289.335
285.01
283.199
288.253
289.698
329.906
333.352
333.147
332.731
333.159
331.585
330.056
347.718
347.073
347.321
346.79
346.746
346.526
346.408
329.324
331.312
330.323
332.277
330.665
330.729
331.841
289.295
290.154
287.442
285.928
287.172
287.965
286.916
231.531
228.903
230.534
228.724
230.681
231.073
230.66
225.91
225.254
226.223
225.67
225.931
226.653
225.828
289.506
282.828
286.86
283.401
282.004
286.618
288.549
329.684
332.945
332.871
332.557
332.914
331.272
329.663
347.624
347.117
347.368
346.826
346.803
346.613
346.424
328.817
330.96
330.017
331.624
330.288
330.39
331.523
288.074
288.906
286.06
284.708
286.465
286.525
286.317
226.203
227.319
226.29
226.192
225.534
225.894
225.501
304.975
309.014
301.801
275.38
302.232
309.082
304.058
294.099
298.868
296.363
278.133
296.283
297.565
292.525
312.831
321.443
322.39
317.321
322.747
322.224
313.329
338.013
341.633
342.26
341.51
341.143
341.203
337.799
313.407
321.916
322.951
317.024
321.215
321.56
312.95
293.425
298.246
297.179
279.293
297.323
298.902
293.717
305.237
309.664
303.358
275.096
301.686
309.441
305.619
325.819
326.626
310.372
275.621
312.056
327.88
326.449
309.882
307.754
297.995
275.957
298.991
307.081
309.419
314.698
321.016
320.059
313.753
320.392
321.593
315.655
338.27
341.394
341.484
340.457
340.049
340.693
338.002
315.264
321.463
320.62
313.62
319.723
321.455
315.408
310.926
307.279
300.245
276.869
298.993
307.962
309.737
326.436
327.765
313.873
274.346
310.009
326.01
324.918
330.678
331.217
311.079
271.724
316.785
333.479
331.105
311.021
307.558
296.985
274.312
298.304
307.088
310.273
316.207
321.851
319.735
313.972
319.979
322.092
317.386
338.422
341.285
341.397
340.4
339.791
340.619
337.893
317.196
321.785
320.266
313.341
319.908
322.345
317.676
311.511
308.138
299.451
275.524
297.943
308.475
311.324
330.976
332.72
312.374
276.674
312.087
332.551
331.571
324.686
326.415
303.653
263.473
308.498
327.843
326.269
305.816
304.097
292.439
270.468
291.883
303.371
304.832
319.333
322.527
319.893
314.093
319.755
322.771
319.97
338.877
341.477
341.166
340.309
339.805
340.751
338.384
319.447
322.652
319.98
313.641
320.066
323.478
319.881
305.82
303.791
294.112
270.091
292.469
304.578
306.087
325.534
325.213
309.633
263.769
304.231
326.5
324.592
313.528
309.754
287.767
256.646
286.026
312.921
313.247
303.175
298.042
284.681
266.574
282.692
298.007
302.053
321.521
323.304
319.972
314.932
320.484
323.782
323.053
339.836
342.104
341.555
340.158
339.922
341.328
339.429
322.269
323.418
320.537
314.107
320.414
324.247
322.918
303.026
298.655
285.053
265.612
283.846
298.734
303.441
316.382
314.356
288.793
251.978
285.489
314.513
315.159
305.763
292.593
260.921
244.504
258.782
293.06
305.324
299.823
289.186
276.844
263.1
275.778
287.818
298.342
326.034
324.905
322.93
316.655
323.581
325.871
327.256
341.762
342.843
341.571
339.737
339.993
342.016
341.401
327.023
325.928
322.482
314.208
321.88
325.873
327.585
298.307
290.266
276.121
266.161
276.076
289.467
298.065
303.724
298.401
257.089
244.087
259.619
295.059
304.446
265.061
250.264
240.963
239.066
242.18
248.875
265.126
285.375
285.341
277.274
263.358
276.469
280.677
287.439
328.78
325.196
324.619
318.964
325.926
328.791
326.939
342.352
342.932
340.779
338.228
339.419
342.245
342.264
329.895
329.761
319.377
309.554
319.196
325.244
329.453
284.059
279.602
282.762
277.577
284.215
284.356
283.658
260.787
251.686
241.231
239.099
243.001
248.813
263.136
308.857
310.92
313.119
320.533
324.003
333.731
350.096
294.551
298.988
304.439
314.278
317.709
324.654
335.314
301.382
297.725
295.438
294.657
295.639
297.776
300.374
332.464
329.636
325.999
322.007
316.728
312.513
307.838
302.226
298.767
296.492
295.449
296.082
297.222
299.154
295.804
300.316
305.741
311.956
322.57
326.38
336.284
310.247
311.821
313.93
317.676
324.94
335.078
349.94
326.877
326.277
326.568
329.918
333.374
338.291
347.407
317.036
321.528
325.531
331.687
333.654
336.871
346.922
306.861
304.312
303.286
303.552
306.709
309.097
313.382
333.814
331.594
329.118
323.063
317.717
315.606
311.594
307.118
304.878
304.128
304.747
307.553
309.5
313.35
316.571
321.017
325.54
332.416
334.268
337.441
347.181
326.594
325.926
326.257
330.067
332.03
338.026
351.878
329.95
326.485
324.922
324.176
326.049
334.106
337.602
316.606
318.075
320.847
324.74
326.14
329.09
336.395
308.789
307.549
306.531
306.776
309.028
310.701
314.649
334.17
331.939
330.234
323.934
319.644
317.802
314.201
309.385
308.271
307.393
307.401
309.547
311.301
315.4
316.845
318.139
320.597
324.426
326.076
329.392
337.368
330.221
326.732
325.569
325.134
326.104
329.392
339.312
322.273
319.998
316.754
315.708
318.328
322.586
331.761
307.983
309.07
311.874
312.13
314.668
316.459
325.535
311.594
309.229
307.475
306.835
307.815
309.014
312.788
333.823
331.455
330.514
324.837
320.913
319.388
316.158
312.046
309.947
308.275
307.441
308.295
309.559
313.259
309.413
309.977
311.851
314.337
316.081
318.21
326.638
319.412
316.378
313.969
311.633
313.149
322.892
327.393
307.273
301.142
292.024
288.634
291.312
299.43
315.959
303.749
304.473
306.838
307.211
309.427
312.86
320.078
315.852
313.064
310.109
307.99
307.749
308.131
309.517
334.699
331.96
331.196
327.681
324.689
321.605
319.048
315.081
312.917
310.684
308.073
307.759
308.178
309.515
304.869
305.291
306.709
307.837
310.436
313.717
320.795
308.479
304.784
298.796
296.448
300.384
308.284
320.271
297.247
287.693
284.289
275.707
273.742
281.239
309.943
302.403
303.621
307.304
307.086
306.832
308.143
314.3
323.957
320.731
318.441
316.409
314.66
310.922
307.678
338.734
336.306
335.221
333.601
331
327.888
323.788
324.103
321.517
318.65
315.918
314.44
310.742
307.733
303.413
304.41
307.413
307.202
306.852
308.038
314.567
300.964
291.066
286.539
275.852
269.651
273.157
312.363
267.809
266.68
263.848
262.96
263.756
265.989
295.311
291.458
291.896
292.414
293.55
297.784
301.188
311.572
328.526
325.999
326.075
327.242
327.283
320.417
311.357
339.601
337.999
337.225
338.262
337.463
334.307
328.562
328.59
326.471
326.126
327.114
327.097
319.861
311.019
289.895
291.493
291.807
294.59
297.708
300.952
311.597
266.716
265.515
262.052
261.609
262.597
267.349
294.936
349.219
333.025
326.944
315.887
312.568
311.049
309.692
329.754
323.654
317.245
311.046
305.142
300.259
296.172
301.031
298.075
296.398
294.982
295.781
298.053
301.683
307.155
313.412
318.039
322.439
326.508
330.052
332.787
300.124
296.591
295.604
294.679
295.703
298.282
302.107
333.292
324.505
320.855
310.964
304.757
299.625
295.361
346.098
334.937
328.879
317.408
313.565
311.364
309.66
349.484
335.072
330.09
327.02
325.743
325.492
326.215
346.877
336.595
333.374
331.364
325.54
321.71
317.168
312.92
308.93
306.831
303.837
303.262
304.171
306.527
311.611
315.963
318.066
323.575
329.164
331.622
333.867
312.943
309.042
307.015
304.078
303.877
304.827
307.2
346.912
337.418
333.948
331.917
325.808
322.027
317.74
352.612
337.488
332.793
328.592
325.314
325.399
326.504
339.151
332.942
330.389
327.206
326.814
327.21
330.164
336.435
328.552
325.751
324.3
320.81
318.354
316.916
315.454
310.936
309.231
306.894
306.798
307.607
308.653
314.52
318.273
320.154
324.629
330.685
332.198
334.381
314.55
311.174
309.381
307.075
306.99
307.929
309.403
338.437
330.451
327.252
325.58
321.673
319.134
317.589
337.401
335.02
328.472
325.553
325.573
326.475
329.624
326.331
317.907
312.729
311.245
313.402
317.177
319.811
326.941
318.462
316.366
313.957
311.388
309.526
308.89
313.07
309.313
307.968
306.881
307.538
309.071
310.877
316.427
319.961
321.51
325.584
331.118
331.878
334.295
312.896
309.172
307.974
307.027
307.674
309.324
311.88
326.763
317.653
315.597
313.29
312.642
309.456
308.579
332.209
323.871
320.28
317.215
318.928
320.804
323.48
320.505
308.124
299.082
298.058
299.974
305.172
309.91
319.793
312.915
310.193
307.332
306.876
304.886
304.469
309.611
308.185
307.631
307.754
309.844
312.142
314.605
320.036
321.54
325.345
328.144
331.854
332.622
335.321
309.546
308.127
307.643
307.826
309.726
312.547
315.162
320.622
313.99
309.343
307.709
307.403
305.424
304.675
315.269
299.455
290.924
291.913
298.2
303.141
307.193
303.323
272.916
272.823
272.693
285.717
291.343
298.922
315.923
308.737
306.794
306.944
307.334
304.259
303.018
307.551
310.344
313.835
315.769
317.595
319.929
323.295
324.398
328.154
331.356
333.974
335.7
336.756
339.09
307.616
310.265
313.849
315.346
317.621
320.055
323.182
314.392
308.355
307.132
307.155
307.716
304.547
303.278
308.86
281.408
269.373
272.776
285.779
289.998
299.183
294.736
265.493
263.506
261.873
263.461
265.979
267.354
311.582
300.88
297.663
293.751
292.64
291.857
290.385
310.531
319.307
326.66
326.735
325.246
325.09
327.742
328.898
334.506
337.566
338.465
337.725
338.581
340.324
310.283
319.717
326.807
326.964
325.977
325.802
328.143
311.514
301.237
298.747
293.303
292.167
291.817
290.481
294.697
265.633
264.101
263.141
264.737
264.696
265.807
349.601
356.139
362.723
362.941
363.73
360.228
353.667
334.047
338.808
346.594
342.44
344.408
339.95
335.532
305.584
299.755
301.806
305.79
302.984
304.112
303.103
300.935
300.078
300.647
301.715
302.749
303.577
305.471
303.079
303.041
301.146
300.757
304.148
301.695
301.782
344.626
334.034
338.913
340.319
339.594
339.757
335.564
361.369
355.654
356.27
358.747
362.555
359.831
354.105
372.818
373.631
374.197
373.026
370.27
366.587
356.185
363.226
364.343
364.067
363.192
360.614
356.701
350.645
318.85
317.273
319.102
319.541
318.339
316.679
314.403
307.463
306.782
307.552
308.189
308.661
309.331
310.42
318.074
315.945
317.529
318.745
318.077
316.692
314.461
361.048
362.298
361.674
361.464
359.933
356.48
350.066
375.254
374.773
373.569
373.461
370.807
367.057
358.584
369.098
368.524
369.876
366.657
357.935
353.166
347.221
362.233
361.656
360.276
358.171
352.693
345.789
338.654
326.136
324.978
324.616
323.748
321.836
319.031
317.012
310.425
310.101
310.798
311.459
311.248
311.901
313.254
329.886
323.793
323.635
323.264
321.474
319.293
316.551
356.91
360.003
359.528
357.635
352.799
346.64
341.067
370.827
368.419
368.04
364.148
356.93
352.841
345.211
364.252
360.671
354.008
352.607
350.849
345.154
337.623
355.261
353.197
349.852
346.132
341.781
338.211
332.068
325.099
324.049
323.528
321.566
318.859
316.932
314.399
311.923
311.993
312.479
312.51
312.879
314.044
315.367
323.794
322.428
322.414
321.617
319.065
316.957
314.464
352.849
353.165
350.502
346.458
341.747
337.3
332.685
359.382
362.895
355.28
344.9
346.715
344.694
340.209
349.094
347.725
345.407
347.045
334.588
333.916
331.224
345.584
343.763
340.202
340.218
334.136
329.672
324.513
322.986
322.315
320.886
318.295
316.771
314.545
312.219
313.488
313.069
313.304
313.899
314.581
315.134
316.663
326.218
321.892
319.858
318.66
317.062
314.653
311.933
343.953
344.229
342.183
338.209
334.132
331.5
325.207
350.209
348.084
348.647
336.052
330.732
333.933
331.536
344.222
344.143
341.708
338.365
328.578
328.676
324.729
338.834
337.401
335.243
333.477
328.981
327.258
322.921
316.902
315.485
313.892
312.376
311.659
309.813
308.336
314.172
314.098
314.801
314.972
315.944
317.551
320.786
316.819
315.73
314.222
312.659
311.941
310.25
308.451
339.43
337.494
335.086
331.815
328.941
326.342
322.888
345.165
341.914
336.899
325.336
327.443
325.426
324.783
338.281
337.135
335.651
332.556
324.729
321.661
319.389
335.523
334.524
332.593
330.898
327.037
324.396
321.473
319.431
317.97
315.419
310.032
308.612
308.283
307.306
315.374
315.438
315.835
316.304
315.818
318.415
322.526
322.933
319.563
317.168
310.818
309.131
308.676
307.46
335.284
334.494
332.165
329.64
327.132
324.53
321.594
337.435
337.405
333.713
325.008
326.124
321.73
318.329
329.493
329.634
328.947
309.989
321.602
317.797
314.792
328.662
327.92
326.832
324.969
323.372
322.565
320.437
314.407
313.1
310.629
307.711
305.349
306.104
306.14
313.013
312.445
312.189
312.48
312.288
313.518
315.681
314.978
313.13
311.128
308.143
305.519
306.232
306.181
329.007
327.881
326.744
324.909
323.503
322.701
320.426
330.552
330.236
328.647
323.633
323.554
318.715
314.943
292.844
292.27
293.112
291.663
291.711
290.839
290.874
316.622
316.297
315.997
316.246
316.497
316.006
316.676
308.376
306.83
306.085
304.865
304.656
305.691
304.338
305.912
307.501
307.268
307.73
308.9
309.626
311.148
306.527
307.011
305.768
304.627
304.396
305.557
304.319
316.726
316.438
316.123
316.409
316.547
316.057
316.813
292.822
292.768
294.342
292.066
292.321
291.428
291.688
281.519
281.373
281.77
281.685
281.863
282.397
282.438
308.967
309.203
309.13
309.238
309.392
309.15
309.26
301.636
302.754
302.986
302.751
303.322
303.915
303.391
304.459
302.866
302.699
302.729
303.34
303.676
308.051
302.959
301.889
302.395
302.168
303.158
303.822
302.902
308.99
309.204
309.235
309.28
309.337
309.117
309.332
281.584
281.69
281.944
281.721
282.041
282.433
282.627
278.072
278.008
278.048
278.443
278.413
278.564
278.582
304.976
304.889
304.896
304.813
304.892
304.877
305.101
301.356
302.711
302.729
302.483
302.582
302.971
303.135
301.784
302.633
302.494
302.397
302.648
302.853
302.021
302.508
301.693
302.1
302.009
302.56
303.018
302.66
304.891
304.862
304.964
304.899
304.895
304.912
305.187
278.101
278.287
278.095
278.48
278.664
278.595
278.867
276.43
276.338
276.333
276.625
276.375
276.646
276.491
303.279
303.273
303.264
303.164
303.132
303.132
303.265
300.146
300.963
300.603
300.46
300.13
300.161
300.362
300.384
301.894
301.752
301.456
300.922
300.889
300.684
300.761
300.557
300.377
300.391
300.248
300.237
300.145
303.263
303.221
303.272
303.195
303.124
303.159
303.341
276.45
276.626
276.336
276.62
276.65
276.665
276.785
277.282
277.243
277.241
277.515
277.277
277.538
277.331
303.245
303.242
303.24
303.163
303.216
303.179
303.236
303.118
303.435
303.18
303.107
302.968
302.975
302.733
298.779
300.52
300.304
300.003
299.355
299.281
295.918
303.365
303.474
303.121
303.107
302.984
302.963
302.753
303.231
303.171
303.24
303.177
303.165
303.183
303.172
277.276
277.506
277.216
277.524
277.545
277.552
277.615
292.737
292.742
292.743
292.113
292.735
292.115
292.717
305.12
305.119
305.114
304.996
305.1
305.003
305.112
302.369
302.473
302.345
302.348
302.338
302.371
302.014
288.393
289.737
289.34
289.15
288.675
288.607
287.511
302.372
302.687
302.373
302.267
302.226
302.231
301.996
305.099
304.991
305.094
304.979
304.978
304.984
304.987
292.707
292.105
292.741
292.112
292.113
292.111
292.101
355.409
362.14
366.36
366.606
365.704
360.036
339.224
338.783
342.295
347.73
346.906
342.45
338.806
324.543
300.966
303.862
302.092
303.379
306.511
298.632
303.205
305.257
303.416
302.321
301.766
301.294
300.412
301.119
299.873
300.872
301.382
301.445
301.385
300.299
304.234
338.842
342.149
343.533
341.242
340.16
335.473
342.222
353.891
359.759
362.42
359.298
357.087
352.755
357.586
358.212
366.154
370.32
373.184
375.525
374.618
367.231
350.854
356.632
360.415
362.759
363.249
362.388
356.303
314.733
317.235
318.923
320.107
319.208
316.246
315.332
310.563
309.598
308.971
308.512
307.798
306.698
308.169
314.836
316.84
318.145
318.816
317.692
316.856
325.748
350.566
356.144
359.564
360.915
360.881
361.599
358.782
356.916
366.201
369.941
372.303
372.65
374.454
375.647
347.746
355.834
354.939
358.957
366.09
366.033
366.957
338.695
344.822
349.859
354.149
357.311
357.752
356.368
315.913
318.995
322.062
324.212
324.013
323.03
321.959
313.033
312.24
311.72
311.557
311.119
310.606
311.543
316.739
319.758
322.173
324.081
324.141
323.711
325.492
339.51
345.63
352.044
356.971
359.472
361.474
360.673
348.176
352.526
356.096
361.593
367.271
370.762
369.886
339.436
341.86
346.248
352.423
354.151
359.137
364.774
331.403
335.842
339.872
343.766
348.263
351.185
350.206
314.27
317.013
319.317
321.272
324.067
325.451
328.613
315.272
313.83
312.89
312.719
312.658
312.425
313.011
314.524
317.072
319.503
320.854
322.313
323.217
324.101
331.727
336.783
341.038
345.919
350.913
352.876
355.416
339.181
345.92
344.7
354.448
359.803
360.19
365.598
331.523
336.224
334.213
337.204
344.86
349.085
355.058
325.018
331.435
333.855
337.359
341.646
346.131
347.585
311.949
314.619
317.345
319.497
321.56
324.33
327.592
316.297
314.987
314.301
313.7
313.558
313.325
313.954
311.923
314.371
316.639
318.696
319.537
320.022
320.629
325.314
331.416
333.898
337.381
341.14
345.003
343.404
329.727
336.33
338.222
339.147
346.013
354.236
351.12
326.121
329.745
330.684
331.864
340.578
344.281
349.487
322.89
326.749
328.974
332.717
335.866
338.447
343.433
308.246
309.935
311.569
313.012
313.914
316.169
318.153
320.143
316.876
315.477
314.612
314.337
313.871
314.166
308.463
310.121
311.455
312.799
313.569
315.918
318.856
323.226
327.25
328.946
332.815
335.424
337.282
337.882
325.654
326.168
327.691
333.659
341.633
341.725
342.934
318.111
320.99
324.874
329.69
334.258
335.9
338.64
321.761
324.5
326.875
330.744
332.665
335.134
336.741
307.482
308.369
308.739
309.948
314.653
318.428
320.494
321.931
317.684
315.32
315.688
315.197
314.828
314.831
307.657
308.713
309.368
311.089
314.718
318.072
318.701
321.677
324.619
327.025
330.652
332.729
334.326
335.099
319.015
322.554
324.654
331.257
335.943
337.716
338.054
313.918
317.158
319.285
326.31
327.83
328.377
327.894
320.489
322.668
323.417
325.35
326.862
328.156
329.064
306.683
306.046
305.416
306.744
310.358
313.054
314.569
317.301
312.972
311.683
311.654
311.459
311.813
312.614
306.59
306.534
305.685
307.651
310.846
313.905
316.206
320.601
322.738
323.476
325.62
326.9
327.384
328.165
314.765
318.6
321.438
328.066
329.772
329.75
330.181
291.669
291.322
291.937
292.001
293.997
293.39
293.449
316.583
315.997
316.484
316.177
315.837
316.245
316.689
305.174
305.66
304.516
304.617
305.626
306.517
307.421
307.466
309.386
308.279
307.037
306.493
306.691
304.926
305.442
306.126
304.93
305.286
306.496
307.115
306.802
316.751
316.142
316.539
316.391
316.058
316.495
316.912
291.43
291.167
292.268
291.777
293.874
292.453
292.906
282.606
282.202
281.881
281.714
282.061
281.781
281.871
309.247
309.237
309.437
309.315
309.175
309.288
309.117
304.219
304.454
303.74
303.049
302.893
302.439
303.638
305.759
303.903
303.544
302.727
302.591
302.557
303.324
302.295
303.905
303.749
303.398
303.513
303.166
302.593
309.341
309.143
309.352
309.293
309.121
309.254
309.087
282.426
282.232
282.118
281.64
281.959
281.551
281.609
278.867
278.366
278.423
278.574
278.368
278.292
278.33
305.125
304.987
304.985
304.914
304.885
304.898
304.941
303.711
303.577
303.178
302.866
302.695
302.345
302.647
302.219
303.184
303.152
302.619
302.621
302.47
300.446
302.162
302.787
303.1
303.12
303.273
303.091
301.821
305.094
304.882
304.884
304.902
304.862
304.842
304.831
278.573
278.307
278.689
278.175
278.046
277.999
278.087
276.81
276.409
276.404
276.644
276.611
276.583
276.674
303.286
303.203
303.181
303.191
303.197
303.232
303.314
300.424
300.477
300.557
300.864
300.862
300.783
299.98
300.499
301.324
301.936
302.064
302.193
301.959
299.702
300.392
299.902
300.41
300.781
301.069
301.134
299.809
303.354
303.161
303.122
303.241
303.237
303.257
303.259
276.472
276.357
276.637
276.311
276.322
276.343
276.475
277.645
277.266
277.266
277.526
277.499
277.474
277.549
303.146
303.238
303.227
303.167
303.164
303.169
303.166
302.667
303.059
303.113
303.37
303.428
303.403
302.678
298.655
299.619
300.248
300.641
300.847
300.602
295.983
302.987
302.794
303.016
303.231
303.43
303.468
302.714
303.226
303.227
303.16