/*--------------------------------*- C++ -*----------------------------------*\
  =========                 |
  \\      /  F ield         | OpenFOAM: The Open Source CFD Toolbox
   \\    /   O peration     | Website:  https://openfoam.org
    \\  /    A nd           | Version:  6
     \\/     M anipulation  |
\*---------------------------------------------------------------------------*/
FoamFile
{
    version     2.0;
    format      ascii;
    class       volVectorField;
    location    "0.0025";
    object      U;
}
// * * * * * * * * * * * * * * * * * * * * * * * * * * * * * * * * * * * * * //

dimensions      [0 1 -1 0 0 0 0];

internalField   nonuniform List<vector> 
3773
(
(23.8815 -0.0972079 0.1376)
(23.7897 -0.0198168 0.112443)
(23.7992 0.0327118 0.0914642)
(23.8057 0.0117894 0.0968787)
(23.7981 0.020956 0.0992213)
(23.7941 0.0442267 0.0985165)
(23.892 0.0791931 0.129047)
(8.46728 0.0197935 0.0399121)
(8.44977 -0.0289592 0.044423)
(8.44861 -0.0254602 0.0595235)
(8.44764 0.0123868 0.0566451)
(8.44695 0.0151915 0.0583834)
(8.45088 0.0211371 0.0800731)
(8.47153 -0.00501203 0.0880566)
(3.54026 0.0417602 0.032499)
(3.53846 -0.00568904 0.0420503)
(3.53871 -0.0319016 0.0549949)
(3.53865 0.0127161 0.0509466)
(3.5384 0.0265213 0.0523309)
(3.53821 0.0119722 0.0710157)
(3.5409 -0.0170189 0.0568387)
(0.000158464 0.00742963 0.0436386)
(-2.4316e-05 0.0211105 0.040144)
(-5.08962e-05 0.0257708 0.0387992)
(1.19753e-05 -0.00467876 0.0420152)
(-4.73382e-05 -0.0357058 0.0400075)
(-9.26277e-05 -0.0398643 0.0295127)
(-9.45992e-05 -0.020432 0.0340338)
(-3.54144 0.0313165 0.0354418)
(-3.53914 -0.0155831 0.0406465)
(-3.53953 -0.0330239 0.0467121)
(-3.53956 0.010645 0.046064)
(-3.5393 0.0228847 0.0477871)
(-3.5391 0.0119593 0.0636904)
(-3.54178 -0.0136176 0.0511192)
(-8.47672 0.00967057 0.0307011)
(-8.45785 -0.0408096 0.0422378)
(-8.45704 -0.0282469 0.0594658)
(-8.45572 0.0100323 0.0539738)
(-8.45475 0.0164155 0.0550185)
(-8.45601 0.028517 0.0759038)
(-8.47581 -1.4735e-05 0.08824)
(-23.8843 -0.0683057 0.150223)
(-23.8103 -0.0205188 0.117214)
(-23.8163 0.00355222 0.115434)
(-23.8206 -0.0192558 0.120339)
(-23.817 -0.0226111 0.111929)
(-23.8057 0.0138726 0.107364)
(-23.8965 0.0616645 0.143027)
(22.4858 -0.10063 0.383866)
(22.3617 -0.0496138 0.339755)
(22.322 0.00483089 0.310178)
(22.3183 0.0160761 0.316178)
(22.3456 0.0289495 0.324282)
(22.3755 0.0556735 0.34974)
(22.376 0.0862782 0.391942)
(7.96188 0.0199206 0.0402815)
(8.06387 -0.0342328 0.055018)
(8.06187 -0.0379742 0.088589)
(8.06004 0.0146626 0.0776218)
(8.05725 0.0359148 0.0720418)
(8.06923 0.039241 0.105529)
(7.99346 -0.000364489 0.0941165)
(3.40954 0.0454095 0.0568071)
(3.38698 0.00313193 0.0597404)
(3.38675 -0.030103 0.0862536)
(3.38769 0.0120015 0.077124)
(3.39026 0.0376796 0.0742641)
(3.38737 0.0174362 0.100001)
(3.40956 -0.0214621 0.0783501)
(0.000126576 0.00411324 0.0464848)
(-1.29282e-05 0.0220464 0.037738)
(-9.17894e-05 0.0301863 0.0306131)
(5.58097e-06 -0.00573301 0.0382256)
(-2.96144e-05 -0.0421178 0.0370592)
(-6.89904e-05 -0.0422989 0.0194006)
(-9.595e-05 -0.0179767 0.0266165)
(-3.41322 0.0339498 0.0549071)
(-3.40717 -0.0130754 0.0566009)
(-3.39297 -0.033513 0.0716399)
(-3.39146 0.0114315 0.0685961)
(-3.39045 0.0333288 0.0674228)
(-3.38952 0.0159934 0.0891524)
(-3.41293 -0.0182419 0.0709198)
(-7.9757 0.0174113 0.0349627)
(-7.95859 -0.0426399 0.053984)
(-8.05201 -0.0427901 0.0884255)
(-8.05708 0.0111591 0.0679298)
(-8.05584 0.0356311 0.0686691)
(-8.07201 0.0457171 0.102113)
(-7.98397 0.00421836 0.0911696)
(-22.4306 -0.0698968 0.407488)
(-22.4212 -0.0470249 0.364395)
(-22.3356 -0.0190111 0.354006)
(-22.3382 -0.0164761 0.367508)
(-22.3295 -0.0184964 0.345955)
(-22.3579 0.0239219 0.347806)
(-22.3796 0.0687192 0.408054)
(22.2581 -0.112845 0.333942)
(22.2597 -0.0651529 0.296861)
(22.1799 0.00574165 0.261365)
(22.1721 0.0207499 0.263252)
(22.2229 0.0370504 0.285291)
(22.3115 0.0718172 0.342276)
(22.2523 0.0973703 0.369432)
(7.90089 0.0211215 0.082632)
(7.99295 -0.0243126 0.09685)
(8.0071 -0.0320571 0.122727)
(7.91605 0.00753467 0.115811)
(7.91634 0.0341587 0.0990933)
(7.99668 0.0352058 0.100215)
(7.91615 -0.00416237 0.0700706)
(3.40925 0.0433219 0.0961601)
(3.3833 0.00483565 0.0790941)
(3.38422 -0.0274611 0.111325)
(3.40776 0.00764806 0.0998339)
(3.40547 0.0388927 0.0942804)
(3.38063 0.0187706 0.102466)
(3.40917 -0.0242795 0.0898086)
(0.00011408 0.00357931 0.038374)
(-0.000109925 0.0177019 0.0353684)
(-0.000154447 0.0281845 0.01757)
(-1.68322e-06 -0.00372297 0.017519)
(-3.64124e-06 -0.0449788 0.0140492)
(-4.03371e-05 -0.0444789 0.012247)
(-9.64564e-05 -0.0178765 0.0210815)
(-3.40956 0.0328433 0.087501)
(-3.38116 -0.0114888 0.0755661)
(-3.39417 -0.0321108 0.0958157)
(-3.40554 0.00913563 0.0911233)
(-3.40664 0.0346426 0.0842582)
(-3.39263 0.0169691 0.0969921)
(-3.40951 -0.0205079 0.0850165)
(-7.90898 0.0144699 0.08942)
(-7.99176 -0.0347571 0.0939241)
(-7.97496 -0.0394686 0.121677)
(-7.91541 0.00321778 0.0980981)
(-7.93339 0.0369645 0.0978289)
(-7.97046 0.0414996 0.101583)
(-7.91625 -0.000932854 0.0655457)
(-22.2403 -0.0850644 0.36508)
(-22.3007 -0.059137 0.340114)
(-22.1736 -0.0109755 0.309843)
(-22.1505 -0.0192484 0.331468)
(-22.1623 -0.0284679 0.305873)
(-22.2713 0.0386198 0.3273)
(-22.2483 0.086217 0.379001)
(22.2304 -0.120726 0.250179)
(22.3252 -0.0721429 0.252588)
(22.2701 0.00432262 0.21979)
(22.2765 0.0226941 0.214198)
(22.258 0.0505775 0.225212)
(22.2881 0.0833765 0.276589)
(22.2367 0.102054 0.281722)
(7.90191 0.0213594 0.0749837)
(8.03104 -0.015771 0.0731354)
(8.02119 -0.0251578 0.101542)
(7.99723 0.00318239 0.0996715)
(7.94571 0.0275941 0.0846437)
(8.00759 0.0269406 0.0762586)
(7.90761 -0.00738223 0.0547397)
(3.40956 0.0392407 0.0946763)
(3.37336 0.00760923 0.0753106)
(3.37832 -0.0222762 0.113369)
(3.38553 0.00506519 0.105971)
(3.39802 0.039731 0.104078)
(3.37214 0.0175604 0.102562)
(3.40877 -0.0256437 0.0938832)
(8.41011e-05 0.00654197 0.0426241)
(-0.000186606 0.0144769 0.0431603)
(-0.00015766 0.0208211 0.0196472)
(-2.4439e-05 -0.00691577 0.00756695)
(1.47765e-05 -0.0445879 0.00133675)
(-5.34955e-06 -0.0403386 0.0182643)
(-0.000102433 -0.0165681 0.0330518)
(-3.4099 0.029619 0.0897917)
(-3.36957 -0.00880314 0.0753035)
(-3.39663 -0.0275471 0.100102)
(-3.41054 0.00689241 0.093886)
(-3.40008 0.0366156 0.0863382)
(-3.37065 0.0184854 0.0989309)
(-3.40923 -0.0229425 0.0866878)
(-7.90498 0.0131161 0.0767411)
(-8.02468 -0.0274109 0.0763428)
(-7.95514 -0.0362049 0.0990697)
(-7.90489 -0.000405203 0.090334)
(-7.95715 0.0356847 0.0843437)
(-8.01858 0.0332741 0.0770285)
(-7.90762 -0.00577176 0.0527463)
(-22.2277 -0.0918134 0.274248)
(-22.2985 -0.063292 0.270734)
(-22.2669 -0.00909975 0.253637)
(-22.1323 -0.0216498 0.239081)
(-22.2333 -0.0278215 0.259828)
(-22.285 0.0485954 0.281215)
(-22.2324 0.0940593 0.289287)
(22.233 -0.112603 0.18706)
(22.2635 -0.0740444 0.229052)
(22.2496 -0.00514345 0.199376)
(22.1939 0.0214613 0.199704)
(22.236 0.060761 0.193443)
(22.2644 0.0910627 0.212851)
(22.2287 0.100361 0.207695)
(7.90493 0.0206242 0.071564)
(8.02461 -0.0116888 0.057575)
(8.02883 -0.0213355 0.0837835)
(8.03338 8.92448e-05 0.0795984)
(8.03116 0.0245166 0.0737783)
(8.01804 0.0219632 0.0741166)
(7.9074 -0.0121815 0.059251)
(3.41012 0.0355573 0.0908579)
(3.38033 0.0117392 0.0760806)
(3.3764 -0.0161582 0.108179)
(3.3829 0.00427726 0.102484)
(3.37824 0.0394458 0.101091)
(3.36788 0.0148768 0.0998729)
(3.40932 -0.0271259 0.0915131)
(5.89222e-05 0.00578202 0.0482402)
(-0.000188155 0.00893254 0.0398831)
(-0.000146183 0.0128051 0.0224106)
(-2.22742e-05 -0.0105812 0.00841028)
(5.81256e-06 -0.039896 0.01082)
(6.353e-06 -0.0315124 0.0280569)
(-0.000116459 -0.0119051 0.0403272)
(-3.41022 0.0265753 0.089221)
(-3.37496 -0.00692516 0.0798401)
(-3.38044 -0.0247813 0.101692)
(-3.39289 0.00409586 0.0954879)
(-3.394 0.0372654 0.0853527)
(-3.37153 0.0173988 0.0932501)
(-3.40976 -0.0251509 0.0842189)
(-7.90836 0.0144751 0.0702492)
(-8.02546 -0.0229226 0.066513)
(-8.01963 -0.0325412 0.0900154)
(-7.97657 -0.0026671 0.0869631)
(-7.98304 0.0303336 0.0734782)
(-8.01083 0.0280947 0.0762513)
(-7.9086 -0.0105291 0.0587183)
(-22.2343 -0.0893217 0.196209)
(-22.2718 -0.0621742 0.195895)
(-22.2561 -0.0154584 0.208129)
(-22.1797 -0.0180832 0.175523)
(-22.1998 -0.0144902 0.225093)
(-22.2736 0.0507917 0.226822)
(-22.2275 0.0905987 0.215071)
(22.2369 -0.103751 0.100494)
(22.2701 -0.0676399 0.153646)
(22.0874 -0.00723025 0.14035)
(22.2749 0.0211228 0.143748)
(22.2862 0.0535153 0.132883)
(22.2637 0.0894769 0.126589)
(22.2332 0.100309 0.110243)
(7.91419 0.0167371 0.0866809)
(8.03367 -0.0103903 0.0816998)
(8.06319 -0.0166215 0.108705)
(8.02576 -0.00073883 0.10731)
(8.03119 0.0212041 0.105152)
(8.02547 0.0202261 0.116568)
(7.91531 -0.0141951 0.104661)
(3.41107 0.032902 0.0997817)
(3.37663 0.0155045 0.0843248)
(3.37812 -0.0115941 0.104853)
(3.37191 0.00220422 0.103191)
(3.37162 0.037478 0.101825)
(3.37018 0.0133028 0.102637)
(3.4102 -0.0292798 0.0979492)
(4.62631e-05 0.00219029 0.0426393)
(-0.000247596 0.00293083 0.0376754)
(-0.000151136 0.00803378 0.029659)
(-1.56332e-05 -0.0109382 0.0196351)
(-2.2607e-05 -0.0355393 0.0263422)
(1.36761e-05 -0.0279567 0.0300379)
(-0.000131801 -0.00975147 0.0352267)
(-3.41112 0.0252994 0.0930922)
(-3.38142 -0.00383908 0.078337)
(-3.37478 -0.0217586 0.10468)
(-3.37829 0.000375898 0.100129)
(-3.37459 0.0347234 0.0960161)
(-3.38196 0.0153998 0.0995522)
(-3.41061 -0.0267668 0.0966897)
(-7.91819 0.0120403 0.0839886)
(-8.06106 -0.0171212 0.0884599)
(-8.03682 -0.0274739 0.116532)
(-8.06479 -0.00655345 0.112708)
(-8.03318 0.030952 0.101726)
(-7.99857 0.0264512 0.117674)
(-7.91613 -0.0129425 0.0955867)
(-22.238 -0.0907632 0.110546)
(-22.1122 -0.0558016 0.139142)
(-22.2613 -0.0154536 0.130544)
(-22.0895 -0.0143454 0.119993)
(-22.3122 -0.00929414 0.151473)
(-22.2656 0.0442387 0.127648)
(-22.2325 0.0903145 0.115009)
(22.2759 -0.0985258 0.132638)
(22.0621 -0.055101 0.155928)
(22.2484 -0.00674266 0.161973)
(22.2488 0.0176719 0.156301)
(22.2502 0.0475915 0.15232)
(22.2662 0.0845911 0.153991)
(22.2759 0.0984823 0.138327)
(8.01917 0.0163218 0.0238008)
(8.05319 -0.00318101 0.027705)
(8.02433 -0.0099122 0.0476901)
(8.01479 -0.00175609 0.0457668)
(8.01566 0.024874 0.0441816)
(8.02334 0.0248921 0.0562107)
(8.01934 -0.0149703 0.0477401)
(3.37887 0.0301418 0.0411305)
(3.38432 0.0152988 0.0300875)
(3.37399 -0.00802312 0.0375889)
(3.37759 0.00335962 0.0402117)
(3.37233 0.0388576 0.0401435)
(3.37722 0.0130811 0.0397849)
(3.37324 -0.0310054 0.0388309)
(4.67302e-05 0.00221419 0.00533106)
(-0.000196032 0.00225515 0.00738499)
(-0.000117278 0.00636459 0.00380976)
(-9.37722e-06 -0.0116382 0.000234789)
(-3.13036e-05 -0.037498 0.00289204)
(1.43796e-05 -0.0300385 0.000448676)
(-0.000141386 -0.0101807 0.00205639)
(-3.37895 0.0213928 0.0349993)
(-3.41577 -0.00311355 0.020843)
(-3.37812 -0.0165968 0.0383679)
(-3.37388 0.000436017 0.0366606)
(-3.42255 0.0378551 0.0384637)
(-3.37843 0.0179581 0.0408784)
(-3.37345 -0.0278183 0.0411759)
(-8.02101 0.0139303 0.0225848)
(-7.8784 -0.0132347 0.0357711)
(-8.01938 -0.0219729 0.0467185)
(-8.02499 -0.00917317 0.0470515)
(-7.91551 0.0331048 0.0408807)
(-8.02407 0.026303 0.0511095)
(-8.02037 -0.0169935 0.0364435)
(-22.2864 -0.0841727 0.141523)
(-22.2203 -0.0558156 0.171707)
(-22.2592 -0.019636 0.152015)
(-22.2559 -0.00993395 0.155672)
(-22.0366 -0.0166966 0.16156)
(-22.2729 0.0334639 0.146762)
(-22.2815 0.0911159 0.139054)
(23.2661 -0.043663 -3.3906)
(23.258 0.00549414 -3.37248)
(23.2586 0.0150874 -3.37856)
(23.2596 -0.0231773 -3.37678)
(23.26 -0.0135395 -3.36699)
(23.2608 -0.0317482 -3.35758)
(23.2635 -0.00740655 -3.35969)
(8.33391 0.0207525 -3.67217)
(8.33274 0.0197583 -3.66804)
(8.33262 -0.0029342 -3.67265)
(8.33277 -0.0120794 -3.6744)
(8.33227 -0.00227792 -3.67158)
(8.3311 -0.00649386 -3.66396)
(8.33264 -0.014439 -3.67353)
(3.55713 0.0106499 -3.8744)
(3.55667 -0.00797904 -3.88034)
(3.5565 -0.0239072 -3.87811)
(3.55631 -0.0220527 -3.87531)
(3.55662 -0.0273511 -3.87731)
(3.55656 -0.0200293 -3.87623)
(3.55599 -0.00946202 -3.87493)
(0.00129181 -0.0130298 -3.92721)
(0.00112106 -0.0144868 -3.92307)
(0.000878585 -0.0045639 -3.92481)
(0.000712494 -0.0100867 -3.92474)
(0.000668009 -0.00997386 -3.92379)
(0.000704772 -0.00256138 -3.92337)
(0.000700502 0.000425854 -3.92077)
(-3.55409 0.0106045 -3.87031)
(-3.55471 0.0180101 -3.86518)
(-3.55485 0.0187739 -3.86829)
(-3.55497 0.013554 -3.8691)
(-3.555 0.00957223 -3.87429)
(-3.5551 0.00753496 -3.88032)
(-3.55525 0.000221108 -3.88799)
(-8.32954 0.0332166 -3.70485)
(-8.32833 0.00821465 -3.70987)
(-8.33036 -0.00575698 -3.697)
(-8.33117 0.0261917 -3.69897)
(-8.33152 0.0219515 -3.69865)
(-8.33155 0.00652206 -3.69869)
(-8.33191 -0.00832583 -3.70707)
(-23.2575 0.0192215 -3.35646)
(-23.2609 0.017234 -3.39165)
(-23.2607 -0.00336928 -3.37951)
(-23.2595 0.0440386 -3.37922)
(-23.2585 0.0376459 -3.37982)
(-23.2576 0.0222871 -3.38366)
(-23.2628 0.0302389 -3.38673)
(23.3644 -0.0187426 -10.0311)
(23.3579 0.0226867 -10.0154)
(23.3571 0.00890226 -10.0195)
(23.3597 -0.00622134 -10.0255)
(23.3543 0.0148971 -9.99567)
(23.3732 -0.0209816 -9.99309)
(23.365 -0.00967451 -9.99918)
(8.40099 0.0262276 -11.0757)
(8.39787 0.0189621 -11.0728)
(8.39714 -0.0111269 -11.0817)
(8.4053 -0.010013 -11.0752)
(8.39323 0.0121727 -11.0707)
(8.3888 -0.00952184 -11.0486)
(8.40772 -0.0280753 -11.0664)
(3.54254 0.00137226 -11.4719)
(3.54268 -0.0137957 -11.4791)
(3.5426 -0.0162651 -11.4767)
(3.53937 -0.0201776 -11.4722)
(3.54362 -0.0281953 -11.4756)
(3.54285 -0.0175977 -11.4671)
(3.53844 -0.00850771 -11.4501)
(0.00125512 -0.00712221 -11.5992)
(0.000838191 -0.010971 -11.5967)
(0.000489307 -0.00705595 -11.5951)
(0.000257632 -0.00878375 -11.5989)
(0.00018119 -0.00776865 -11.5915)
(0.000256192 0.0019579 -11.5872)
(0.000304686 0.00414696 -11.5842)
(-3.5439 0.0194834 -11.4656)
(-3.543 0.0217421 -11.4623)
(-3.54318 0.0121509 -11.4584)
(-3.54121 0.00392578 -11.4558)
(-3.54111 -0.00765479 -11.4625)
(-3.54246 -0.012762 -11.4764)
(-3.54233 -0.0109157 -11.4847)
(-8.3954 0.0261448 -11.1263)
(-8.38441 0.0200425 -11.117)
(-8.38749 0.010576 -11.1181)
(-8.39772 0.0242877 -11.1282)
(-8.3993 0.0216174 -11.1306)
(-8.39473 -0.00735727 -11.126)
(-8.39483 -0.0214661 -11.1335)
(-23.2969 -0.0309571 -10.0491)
(-23.3665 -0.0134096 -10.0823)
(-23.3648 0.0167503 -10.0506)
(-23.3597 0.0454157 -10.0432)
(-23.3576 0.0330254 -10.0374)
(-23.3505 0.0134673 -10.031)
(-23.3591 0.0266322 -10.0296)
(23.3179 -0.0224674 -16.4543)
(23.3096 0.0215983 -16.4532)
(23.2982 0.00293743 -16.4491)
(23.3227 0.0115087 -16.4431)
(23.2796 0.0429332 -16.4237)
(23.3628 -0.0320448 -16.5042)
(23.315 -0.022367 -16.4404)
(8.3497 0.0194726 -17.9454)
(8.34412 0.006287 -17.9402)
(8.33856 0.00386295 -17.9243)
(8.3952 -0.00379613 -18.0279)
(8.34147 0.01014 -17.9264)
(8.32943 0.0226636 -17.8915)
(8.39483 -0.00863693 -18.0169)
(3.56947 0.00206588 -18.6507)
(3.571 -0.0122041 -18.6583)
(3.57324 -0.0239687 -18.6697)
(3.55376 -0.0137275 -18.5798)
(3.57407 -0.00494326 -18.662)
(3.57028 -0.00548739 -18.632)
(3.55445 -0.00437766 -18.5526)
(0.000302596 -0.00860986 -18.7087)
(0.00016435 -0.00990677 -18.7058)
(-5.79451e-05 -0.00768913 -18.7111)
(4.35518e-05 -0.00514271 -18.7209)
(-0.000258488 0.00567519 -18.7034)
(-0.000132512 0.00966719 -18.6988)
(-3.49975e-05 0.00514713 -18.7036)
(-3.56297 0.0151244 -18.6216)
(-3.5542 0.0231778 -18.5795)
(-3.56754 0.0138718 -18.6402)
(-3.55747 -0.00404002 -18.5858)
(-3.56336 -0.0175353 -18.6173)
(-3.57397 -0.0206329 -18.6639)
(-3.57374 -0.0129769 -18.6575)
(-8.36455 0.0253392 -17.9719)
(-8.39587 0.0103082 -18.0438)
(-8.34752 0.00572246 -17.9522)
(-8.39271 0.0304036 -18.0384)
(-8.37068 0.0246235 -17.9955)
(-8.33461 -0.00476762 -17.9385)
(-8.3291 -0.0197211 -17.9286)
(-23.3341 0.00639513 -16.6372)
(-23.3509 0.0496181 -16.6197)
(-23.332 0.0494449 -16.5755)
(-23.3089 0.0601867 -16.5279)
(-23.3052 0.0504615 -16.4975)
(-23.2798 0.0335949 -16.4607)
(-23.3033 0.0371574 -16.4512)
(23.4557 -0.0199689 -23.1419)
(23.4535 0.0198438 -23.122)
(23.4478 0.0290852 -23.1144)
(23.4202 0.0153838 -23.0258)
(23.3994 -0.0112573 -23.0424)
(23.4129 -0.0280257 -23.0717)
(23.4246 0.00857841 -23.0767)
(8.36004 0.0179876 -24.271)
(8.35627 0.0141059 -24.2485)
(8.36121 -0.00274087 -24.2566)
(8.35786 -0.000751351 -24.2295)
(8.35119 0.0265224 -24.222)
(8.35751 -0.000525588 -24.2763)
(8.36119 -0.029753 -24.2566)
(3.56539 0.0044799 -24.9383)
(3.56918 -0.00689738 -24.9528)
(3.56734 -0.0152047 -24.9299)
(3.57164 -0.0070641 -24.9651)
(3.57471 0.00348716 -24.9761)
(3.56884 0.00877672 -24.9438)
(3.5706 0.00184831 -24.9546)
(-0.000518827 -0.0108457 -25.0379)
(-0.000265105 -0.0166243 -25.0278)
(0.00011942 -0.00996216 -25.0331)
(0.000339366 0.000799265 -25.0574)
(0.000217033 0.0170032 -25.0536)
(0.000251734 0.0239677 -25.0716)
(-9.39287e-05 0.0118688 -25.0731)
(-3.55576 0.0159346 -24.8929)
(-3.55304 0.029474 -24.8858)
(-3.54969 0.0269886 -24.8669)
(-3.54968 0.00510926 -24.8681)
(-3.55695 -0.00495858 -24.9021)
(-3.57547 -0.00133157 -25.0079)
(-3.57222 -0.00474625 -24.9765)
(-8.42077 0.0121202 -24.4922)
(-8.42587 5.78059e-05 -24.5248)
(-8.43928 0.0110113 -24.5061)
(-8.44625 0.0346519 -24.4928)
(-8.40901 0.0143599 -24.3915)
(-8.34538 -0.0223569 -24.2403)
(-8.35063 -0.0255179 -24.2322)
(-23.3762 0.0143098 -23.2531)
(-23.4191 0.0803137 -23.2929)
(-23.3786 0.105434 -23.1869)
(-23.3589 0.123661 -23.074)
(-23.4058 0.0924846 -23.0478)
(-23.406 0.0711089 -23.0428)
(-23.416 0.0625112 -23.0627)
(23.6116 0.0121047 -30.1184)
(23.6406 0.0617781 -29.9626)
(23.5936 0.0949406 -30.0625)
(23.5591 0.0506037 -29.8948)
(23.5127 -0.060307 -29.8821)
(23.6107 -0.0714993 -30.023)
(23.6287 -0.00624826 -29.8923)
(8.42197 0.0272069 -30.1471)
(8.44487 0.0372841 -30.116)
(8.43556 0.0286178 -30.1514)
(8.44741 0.0110969 -30.0728)
(8.41176 -0.0213663 -30.0168)
(8.45994 -0.023431 -30.1883)
(8.45272 -0.00977126 -30.22)
(3.55661 0.0180385 -30.4067)
(3.5565 0.01131 -30.4446)
(3.55184 -0.0172088 -30.3993)
(3.55935 -0.0128933 -30.4335)
(3.56357 -0.00677692 -30.5052)
(3.55358 -0.00304523 -30.3837)
(3.54692 0.000696165 -30.3808)
(0.00195109 -0.0154792 -30.6397)
(0.00243206 -0.0273607 -30.6379)
(0.00229351 -0.0368179 -30.6443)
(0.00158581 -0.0247175 -30.6754)
(0.00177929 0.00639403 -30.6786)
(0.00249612 0.00396749 -30.7001)
(0.00262571 -0.00282859 -30.7183)
(-3.57126 0.0087377 -30.647)
(-3.56824 0.0172744 -30.5855)
(-3.55514 0.0178456 -30.5223)
(-3.55024 0.0171861 -30.4727)
(-3.55346 0.0132608 -30.505)
(-3.561 0.00789301 -30.5299)
(-3.54611 0.00223426 -30.4337)
(-8.37894 -0.0159621 -30.077)
(-8.40637 0.0412704 -30.1662)
(-8.44189 0.109301 -30.2093)
(-8.46316 0.0615467 -30.2579)
(-8.43575 0.00923515 -30.1619)
(-8.42063 -0.00473964 -30.091)
(-8.46487 -0.00392623 -30.2958)
(-23.6353 0.00611199 -30.0818)
(-23.6695 0.160002 -30.1687)
(-23.4918 0.289203 -30.0452)
(-23.4655 0.305143 -29.9079)
(-23.5142 0.173891 -29.796)
(-23.6235 0.0419145 -29.9219)
(-23.5353 0.0377615 -29.823)
(24.4117 0.184206 -37.5137)
(24.0317 0.056406 -37.0231)
(24.3986 0.0402715 -37.5392)
(24.1398 0.143997 -37.2185)
(24.1438 -0.0977108 -37.2192)
(24.3334 0.0357945 -37.548)
(24.2006 0.108613 -37.0912)
(8.56946 0.082751 -35.248)
(8.65394 0.0656944 -35.4089)
(8.65451 0.0959543 -35.5264)
(8.59051 0.0884999 -35.1905)
(8.66067 -0.0788913 -35.3806)
(8.63338 -0.0966023 -35.4132)
(8.64807 -0.041575 -35.3947)
(3.59689 -0.0204621 -34.9813)
(3.57811 -0.0396087 -34.8904)
(3.57688 -0.0133195 -34.9212)
(3.58347 -0.0159078 -35.0303)
(3.5808 -0.00284327 -34.9904)
(3.57569 -0.0103277 -34.8604)
(3.57631 -0.0331961 -34.8678)
(0.0046424 -0.00477323 -35.0172)
(0.000492823 -0.0321107 -35.0522)
(-0.000385602 -0.0600807 -35.1525)
(0.000425308 -0.0461848 -35.0659)
(0.00143764 0.000918683 -35.0937)
(0.0021109 0.00875395 -35.1142)
(0.00191353 -0.0126481 -35.1178)
(-3.5779 0.056151 -34.9732)
(-3.58544 0.0421215 -34.9923)
(-3.59632 -0.0163332 -35.1586)
(-3.5776 0.00258207 -35.0914)
(-3.57959 0.022958 -35.0807)
(-3.58878 0.00352136 -35.1208)
(-3.57639 -0.0161099 -35.0101)
(-8.61013 -0.0409223 -35.2966)
(-8.59251 0.0442239 -35.4227)
(-8.59535 0.134507 -35.237)
(-8.6577 0.053036 -35.4365)
(-8.68691 0.018433 -35.5275)
(-8.60015 -0.0284012 -35.2416)
(-8.6958 -0.0446914 -35.5536)
(-24.2745 -0.0858945 -37.2946)
(-24.3531 0.0318455 -37.6115)
(-24.3646 0.297319 -37.3509)
(-24.1174 0.478329 -37.0919)
(-23.9219 0.298155 -36.8119)
(-24.2 0.0326814 -36.932)
(-24.1361 0.0346179 -36.7865)
(25.6317 0.142281 -40.5931)
(25.5926 -0.127826 -39.9185)
(25.6809 -0.125682 -40.6667)
(25.9363 0.155792 -40.3442)
(26.0955 -0.0800244 -40.3863)
(26.0408 0.169649 -40.6417)
(25.4974 0.251148 -40.2366)
(8.88717 0.133583 -39.6648)
(8.82223 -0.0358582 -39.0171)
(8.82913 0.0648527 -39.6067)
(8.79605 0.225974 -38.9899)
(8.78813 -0.174174 -38.8967)
(8.80095 -0.109447 -39.3759)
(8.82852 0.0499499 -38.975)
(3.59719 -0.141121 -37.9662)
(3.61204 -0.208448 -38.2967)
(3.60422 -0.159756 -38.3853)
(3.6018 -0.0781078 -38.6639)
(3.60174 0.132844 -38.5803)
(3.59348 0.169688 -38.0055)
(3.59129 0.0187994 -37.9957)
(-0.00118838 -0.185572 -38.2578)
(-0.0016351 -0.325512 -38.6655)
(0.00215391 -0.0965188 -38.9919)
(0.00423984 0.0527851 -38.4165)
(0.00355758 -0.0551553 -38.4995)
(0.00125599 0.0696187 -38.7556)
(7.38098e-05 0.0966329 -38.5958)
(-3.60233 0.0433927 -38.4677)
(-3.61223 -0.101335 -38.3822)
(-3.60499 -0.215309 -38.4656)
(-3.59999 -0.0710246 -38.6355)
(-3.59344 0.0938376 -38.6626)
(-3.5962 0.142912 -38.5077)
(-3.59496 0.0539422 -38.407)
(-8.73155 -0.229945 -38.8811)
(-8.83201 -0.0297899 -39.6781)
(-8.76043 0.251914 -38.9839)
(-8.83123 0.013136 -39.2243)
(-8.84546 -0.025659 -39.3141)
(-8.81237 0.0320528 -39.0896)
(-8.84575 0.0155825 -39.1335)
(-25.7698 -0.245401 -40.4957)
(-25.6626 0.0554923 -40.8669)
(-25.9271 0.435922 -40.4709)
(-25.5668 0.264831 -40.2784)
(-25.3336 0.325446 -39.9522)
(-25.27 0.258703 -40.0291)
(-25.2711 0.0756624 -39.8787)
(23.6631 0.0794061 -31.8895)
(23.7148 -0.0873492 -31.6752)
(23.7014 -0.232463 -30.9104)
(23.7534 0.115248 -32.5162)
(23.7951 0.413969 -32.2506)
(23.8009 -0.0879985 -31.0692)
(23.7138 -0.279114 -32.5154)
(8.28657 -0.218017 -41.1499)
(8.17605 -0.266213 -41.0215)
(8.19641 -0.227347 -40.9341)
(8.19049 -0.091414 -42.2365)
(8.15242 0.405379 -41.6916)
(8.21416 0.30572 -40.8457)
(8.31785 0.0582996 -41.7736)
(3.5027 -0.298088 -46.4542)
(3.55486 -0.450432 -46.9555)
(3.55915 -0.476741 -47.1909)
(3.55337 -0.22465 -47.1593)
(3.56619 0.372761 -47.0982)
(3.54537 0.541628 -46.8864)
(3.50543 0.329005 -46.4277)
(-0.00582373 -0.254693 -47.3101)
(-4.75341e-05 -0.35796 -47.2737)
(-0.000516837 -0.551806 -47.3294)
(-0.00233864 -0.348807 -47.9745)
(0.00023367 0.375842 -47.8156)
(3.60526e-06 0.595218 -47.1595)
(0.002318 0.322794 -46.9807)
(-3.48044 -0.18473 -46.142)
(-3.52926 -0.415723 -46.7705)
(-3.53343 -0.526314 -46.9052)
(-3.54268 -0.152284 -47.1509)
(-3.53443 0.263735 -46.8629)
(-3.53317 0.45227 -46.7083)
(-3.52073 0.296157 -46.4743)
(-8.29362 -0.0664837 -42.0409)
(-8.28044 -0.352274 -41.1666)
(-8.26733 -0.357942 -42.2261)
(-8.2347 0.145855 -42.4764)
(-8.28514 0.361521 -42.4192)
(-8.27618 0.262199 -41.9282)
(-8.2507 0.100366 -42.2039)
(-23.7495 0.183341 -32.8401)
(-23.7696 0.141227 -30.5317)
(-23.8256 -0.0133693 -32.5552)
(-23.8297 0.243139 -32.9002)
(-23.8204 0.384447 -32.7315)
(-23.7978 -0.0200422 -32.3037)
(-23.6887 -0.210638 -33.3731)
(23.6698 0.0945517 -41.1448)
(23.8154 -0.346368 -42.2538)
(23.7978 -0.854567 -43.7656)
(23.8764 0.0768461 -44.5054)
(23.8844 0.913827 -43.8945)
(23.8753 0.380582 -42.5935)
(23.654 -0.0662296 -41.0684)
(8.41156 -0.716825 -45.4608)
(8.24548 -1.23497 -46.0674)
(8.18938 -0.821451 -47.0088)
(8.20894 0.0705337 -47.0953)
(8.22033 0.839905 -47.0205)
(8.32134 1.21961 -46.601)
(8.41248 0.738794 -45.463)
(3.54334 -0.874807 -46.3686)
(3.56241 -1.42147 -47.5319)
(3.56249 -0.788872 -48.2174)
(3.56468 -0.0495807 -48.3087)
(3.55979 0.664206 -47.9387)
(3.53869 1.40414 -47.162)
(3.54545 0.92354 -46.3716)
(-0.00144005 -0.922745 -46.3521)
(-0.00127074 -1.36598 -47.2519)
(0.000181604 -0.700898 -47.754)
(0.00167184 -0.101313 -47.6728)
(0.00244855 0.602884 -47.5078)
(0.0024132 1.37727 -47.0999)
(0.00337901 0.906768 -46.2676)
(-3.53565 -0.89664 -46.4071)
(-3.53138 -1.38981 -47.1631)
(-3.53029 -0.723575 -47.7317)
(-3.54583 -0.0693126 -48.1118)
(-3.54388 0.657871 -47.8922)
(-3.55152 1.37405 -47.3475)
(-3.54646 0.897895 -46.373)
(-8.39226 -0.781892 -45.3551)
(-8.34603 -1.31009 -46.6932)
(-8.32948 -0.884132 -47.4715)
(-8.31535 -0.00283958 -47.5766)
(-8.29357 0.918401 -47.2293)
(-8.27039 1.29804 -46.1571)
(-8.40042 0.759205 -45.4858)
(-23.73 0.0214642 -41.191)
(-23.9028 -0.390925 -42.6809)
(-23.9133 -0.828772 -43.9796)
(-23.9049 0.123599 -44.8278)
(-23.9119 1.07406 -44.1179)
(-23.9116 0.511875 -42.7008)
(-23.6612 -0.0178159 -41.2391)
(23.8013 -1.17757 -41.9656)
(23.9912 -3.54045 -49.72)
(23.9983 -3.03894 -54.251)
(24.0448 -0.00577443 -56.6057)
(24.0465 3.07748 -54.4641)
(24.0423 3.55782 -49.8321)
(23.7693 1.15501 -41.9658)
(8.44601 -1.71445 -44.7711)
(8.18873 -3.44924 -48.5419)
(8.15395 -2.0524 -50.9202)
(8.20353 -0.0281416 -51.7103)
(8.16493 2.05957 -50.9146)
(8.25422 3.48717 -48.7334)
(8.45467 1.70569 -44.8799)
(3.54101 -1.53491 -44.9536)
(3.54828 -2.80998 -47.5182)
(3.5423 -1.37856 -48.3867)
(3.54977 -0.033993 -48.5761)
(3.53503 1.32043 -48.3585)
(3.53022 2.77997 -47.3559)
(3.54292 1.54042 -44.945)
(-0.000191102 -1.4939 -44.9462)
(0.000208188 -2.55903 -46.5585)
(-2.81658e-05 -1.14185 -47.1086)
(0.000654383 -0.019918 -47.1416)
(0.00137768 1.10137 -46.9948)
(0.00237262 2.53301 -46.436)
(0.00275354 1.49636 -44.8644)
(-3.54787 -1.53084 -45.0361)
(-3.51722 -2.75505 -47.2396)
(-3.51842 -1.32152 -48.2559)
(-3.52832 -0.0147219 -48.484)
(-3.52506 1.2841 -48.3359)
(-3.54443 2.74352 -47.5279)
(-3.54551 1.52074 -45.0396)
(-8.41581 -1.69107 -44.7022)
(-8.28922 -3.52218 -48.9376)
(-8.23482 -2.1363 -51.1951)
(-8.3041 -0.0742021 -52.0441)
(-8.22165 2.02992 -51.1189)
(-8.19525 3.47652 -48.6186)
(-8.4269 1.71339 -44.8636)
(-23.8468 -1.16938 -42.0868)
(-24.0759 -3.56411 -49.8095)
(-24.074 -3.05642 -54.4297)
(-24.0564 0.0389606 -56.5812)
(-24.0655 3.12039 -54.5605)
(-24.0664 3.61744 -50.0666)
(-23.7955 1.19966 -42.1326)
(24.0328 -4.18739 -36.963)
(24.4192 -10.0041 -57.5934)
(24.3834 -7.08098 -71.3669)
(24.2648 0.0306849 -77.6156)
(24.3988 7.12069 -71.448)
(24.4685 10.0166 -57.743)
(23.9997 4.16077 -36.9553)
(8.40765 -3.42466 -38.909)
(8.1652 -7.65433 -50.9788)
(8.14597 -4.21445 -58.1526)
(8.21255 -0.0391145 -59.7072)
(8.12615 4.1459 -58.0399)
(8.22569 7.65137 -50.8557)
(8.41836 3.44179 -38.9658)
(3.5298 -2.18705 -39.6122)
(3.54187 -4.97241 -46.2267)
(3.50321 -2.22344 -48.7517)
(3.53017 -0.0218668 -49.1591)
(3.50515 2.18524 -48.7677)
(3.51789 4.92352 -46.2529)
(3.52835 2.16086 -39.6)
(0.000585011 -1.73249 -39.6982)
(0.000125736 -3.91072 -44.4061)
(0.000313681 -1.51383 -45.9193)
(-0.000337686 0.00546231 -46.0429)
(0.000395049 1.51043 -45.8383)
(0.00163832 3.89667 -44.3379)
(0.00212814 1.72674 -39.6391)
(-3.53365 -2.1612 -39.696)
(-3.50956 -4.91299 -46.129)
(-3.51081 -2.19443 -48.743)
(-3.51659 -0.00929252 -49.0933)
(-3.49407 2.17235 -48.6005)
(-3.51921 4.88791 -46.1412)
(-3.53253 2.14481 -39.6543)
(-8.37271 -3.39537 -38.7777)
(-8.25084 -7.69607 -51.0473)
(-8.13147 -4.22185 -58.0831)
(-8.27416 -0.0625329 -59.8519)
(-8.19952 4.1566 -58.4106)
(-8.23444 7.63421 -51.1177)
(-8.38125 3.40461 -38.8477)
(-24.0653 -4.17378 -36.9406)
(-24.5126 -9.99191 -57.677)
(-24.4337 -7.05686 -71.3448)
(-24.27 0.00527209 -77.506)
(-24.3917 7.10432 -71.4395)
(-24.4528 10.0664 -57.774)
(-24.0271 4.21948 -37.0206)
(24.476 -6.94062 -20.5412)
(25.358 -16.2351 -70.4324)
(25.076 -12.9843 -99.0484)
(24.3122 0.0780427 -109.393)
(25.0483 12.9751 -98.9797)
(25.375 16.1981 -70.5502)
(24.4211 6.88065 -20.6067)
(8.46209 -5.73238 -21.4599)
(8.32423 -13.9151 -55.3967)
(8.12319 -8.93277 -75.6034)
(8.19758 -0.0313192 -79.2395)
(8.10398 8.8741 -75.4869)
(8.35073 13.9122 -55.3282)
(8.4703 5.76703 -21.5419)
(3.55201 -3.08306 -26.3716)
(3.55095 -10.4845 -46.1228)
(3.49119 -4.94961 -54.1872)
(3.5161 -0.0354357 -54.8545)
(3.49282 4.87839 -54.2244)
(3.53742 10.4294 -46.1796)
(3.54658 3.03264 -26.4236)
(4.21626e-05 -1.56447 -28.8076)
(-0.000576934 -8.12964 -42.9499)
(-0.000528666 -3.07705 -47.3995)
(0.000355026 0.0148664 -47.4616)
(-5.49675e-05 3.07506 -47.3404)
(0.000848962 8.10971 -42.9023)
(0.0010355 1.55948 -28.7612)
(-3.553 -3.02789 -26.4481)
(-3.53409 -10.4059 -46.1528)
(-3.47978 -4.86555 -54.152)
(-3.51676 0.0213698 -54.916)
(-3.47726 4.86623 -53.9828)
(-3.53117 10.365 -46.0347)
(-3.55243 3.00213 -26.3839)
(-8.4276 -5.71509 -21.4354)
(-8.35187 -13.9726 -55.2161)
(-8.1451 -8.94517 -75.4314)
(-8.2056 -0.0193003 -79.0811)
(-8.1953 8.96593 -75.8327)
(-8.39242 13.9664 -55.513)
(-8.44479 5.72522 -21.4225)
(-24.4928 -6.8962 -20.522)
(-25.4583 -16.1849 -70.5852)
(-25.0919 -12.8943 -99.1832)
(-24.3164 0.00135624 -109.261)
(-25.0079 12.9386 -98.8886)
(-25.3096 16.2725 -70.5697)
(-24.4149 6.95491 -20.5735)
(25.5976 -8.61138 -7.635)
(27.0534 -4.33882 -93.5836)
(26.1412 -7.06363 -121.047)
(24.4467 0.217145 -122.822)
(25.9815 7.02231 -121.419)
(26.936 3.87045 -94.0118)
(25.4679 8.3292 -7.81943)
(8.75224 -8.26376 -9.34421)
(8.66403 -13.3782 -70.6463)
(8.10499 -10.7565 -92.3625)
(7.82981 -0.00943403 -96.4973)
(8.09604 10.6953 -92.2648)
(8.66708 13.3509 -70.5779)
(8.76644 8.34262 -9.50543)
(3.66684 -3.1749 -20.2621)
(3.62452 -15.0783 -52.632)
(3.43011 -9.33133 -65.5866)
(3.38605 -0.0515358 -66.1114)
(3.43175 9.23292 -65.6622)
(3.62659 15.1096 -52.7139)
(3.66074 3.11335 -20.4346)
(-0.00052329 0.50216 -25.4797)
(-0.000501095 -12.1109 -46.6456)
(0.000322054 -5.92682 -54.4678)
(0.00220714 -0.0261828 -54.0836)
(0.000806535 5.89311 -54.4372)
(0.00016377 12.117 -46.6309)
(0.000945224 -0.48524 -25.4321)
(-3.66875 -3.10378 -20.3582)
(-3.62534 -15.0571 -52.6845)
(-3.42986 -9.20981 -65.6602)
(-3.38584 0.0154644 -66.1136)
(-3.41992 9.24656 -65.2896)
(-3.61338 14.9652 -52.5057)
(-3.66405 3.06835 -20.3532)
(-8.73009 -8.24692 -9.41705)
(-8.63402 -13.4188 -70.4396)
(-8.0769 -10.7278 -92.4217)
(-7.85176 0.165896 -96.6987)
(-8.18567 10.8743 -92.9732)
(-8.72139 13.5139 -70.9285)
(-8.77137 8.30302 -9.23663)