/*--------------------------------*- C++ -*----------------------------------*\
  =========                 |
  \\      /  F ield         | OpenFOAM: The Open Source CFD Toolbox
   \\    /   O peration     | Website:  https://openfoam.org
    \\  /    A nd           | Version:  6
     \\/     M anipulation  |
\*---------------------------------------------------------------------------*/
FoamFile
{
    version     2.0;
    format      ascii;
    class       volScalarField;
    location    "4";
    object      T;
}
// * * * * * * * * * * * * * * * * * * * * * * * * * * * * * * * * * * * * * //

dimensions      [0 0 0 1 0 0 0];

internalField   nonuniform List<scalar> 
297
(
290.757
292.085
290.76
295.012
297.303
295.018
290.757
292.085
290.76
290.784
292.111
290.787
297.187
303.136
297.204
290.784
292.111
290.787
291.678
293.837
291.687
297.585
303.8
297.606
291.678
293.837
291.687
295.576
301.106
295.577
294.387
296.932
294.388
295.638
301.27
295.639
305.898
303.905
306.168
301.049
299.681
301.218
305.997
304.108
306.198
309.556
303.893
309.785
304.358
306.648
304.479
309.611
304.102
309.775
302.81
299.563
302.945
310.884
308.536
311.04
302.849
299.573
302.944
301.628
299.441
301.757
310.878
310.636
311.035
301.638
299.444
301.735
299.573
298.055
299.72
309.634
307.096
309.721
299.652
298.059
299.718
309.823
301.473
310.05
307.294
307.968
307.432
309.876
301.898
310.04
307.449
299.79
306.739
307.874
307.983
308.015
307.497
300.125
306.737
305.675
299.329
305.832
309.844
308.078
309.998
305.717
299.685
305.831
298.412
297.906
298.49
309.209
300.152
309.228
298.487
297.906
298.504
296.79
296.888
296.835
308.157
300.153
308.287
296.731
297.003
296.841
296.647
296.7
296.735
300.761
300.199
300.703
296.599
296.709
296.768
297.036
295.828
294.749
309.185
309.237
309.239
297.078
295.87
294.789
296.995
295.312
294.914
306.465
306.564
308.032
296.986
295.304
294.899
296.685
295.483
295.197
300.545
300.331
303.923
296.714
295.482
295.195
294.946
295.515
296.963
309.222
309.221
309.169
294.728
295.368
297.063
294.876
295.251
296.914
308.061
306.482
306.379
294.801
295.211
296.923
295.242
295.434
296.574
303.65
300.238
300.572
295.091
295.366
296.53
294.831
294.986
294.389
298.439
298.475
302.142
294.939
295.054
294.456
294.691
294.988
294.73
298.533
298.586
304.326
294.803
295.012
294.748
294.222
295.137
295.173
298.527
300.79
303.971
294.265
295.086
295.095
293.967
294.437
292.864
298.784
298.717
300.26
294.053
294.267
292.739
292.839
293.799
294.204
298.59
296.965
297.46
292.913
293.606
294.155
288.892
288.386
288.392
285.535
283.525
284.529
288.894
288.389
288.395
294.479
295.077
294.954
302.237
298.553
298.526
294.518
295.116
295.034
294.804
295.064
294.803
304.37
298.632
298.597
294.782
295.045
294.765
295.195
295.181
294.381
304.031
300.835
298.576
295.199
295.176
294.301
292.86
294.408
294.012
299.011
298.932
298.812
292.879
294.436
294.122
294.199
293.796
292.593
296.937
296.325
298.347
294.202
293.798
292.403
288.397
288.393
288.891
284.626
283.841
285.391
288.397
288.392
288.889
)
;

boundaryField
{
    fuel
    {
        type            fixedValue;
        value           uniform 293;
    }
    primary_air
    {
        type            fixedValue;
        value           uniform 293;
    }
    Secondary_air_RHS
    {
        type            fixedValue;
        value           uniform 293;
    }
    Secondary_air_LHS
    {
        type            fixedValue;
        value           uniform 293;
    }
    outlet
    {
        type            inletOutlet;
        inletValue      uniform 293;
        value           nonuniform List<scalar> 
18
(
293
284.626
293
293
283.838
293
293
285.39
293
293
285.535
293
293
283.525
293
293
284.529
293
)
;
    }
    stove_body
    {
        type            fixedValue;
        value           uniform 293;
    }
    frontAndBack
    {
        type            empty;
    }
}


// ************************************************************************* //
