/*--------------------------------*- C++ -*----------------------------------*\
  =========                 |
  \\      /  F ield         | OpenFOAM: The Open Source CFD Toolbox
   \\    /   O peration     | Website:  https://openfoam.org
    \\  /    A nd           | Version:  6
     \\/     M anipulation  |
\*---------------------------------------------------------------------------*/
FoamFile
{
    version     2.0;
    format      ascii;
    class       volScalarField;
    location    "0.5";
    object      O2;
}
// * * * * * * * * * * * * * * * * * * * * * * * * * * * * * * * * * * * * * //

dimensions      [0 0 0 0 0 0 0];

internalField   nonuniform List<scalar> 
297
(
0
0
0
0
0
0
0
0
0
0
0
0
0
0
0
0
0
0
0
0
0
0
0
0
0
0
0
0.110278
0.059837
0.13313
0.19257
0.149473
0.195499
0.116324
0.110907
0.164757
0
1.2751e-05
0.00854097
0.0977424
0.109505
0.107801
0
1.19834e-05
0
0
0
0
0.0580861
0.0237316
0.0655073
0
0
0
0
1.58061e-11
0
0
0
0
0
1.70212e-12
0
6.29473e-14
3.16241e-14
7.25594e-17
3.04211e-18
1.70888e-15
3.05353e-19
5.01491e-14
2.22449e-14
1.10252e-14
3.58725e-14
3.23526e-14
1.34352e-14
3.74165e-14
9.60711e-14
1.4127e-14
4.7913e-14
1.89179e-14
1.26047e-14
0
0
0
0.0179124
4.8309e-07
0.0241505
0
0
0
0
0
0
0
6.04587e-09
0.00664546
0
0
0
0
0
0
0
0
0
0
0
0
1.39146e-14
9.68277e-15
7.63161e-15
4.86245e-14
1.74176e-14
2.66039e-14
2.00804e-14
1.10228e-14
4.81935e-15
8.37753e-15
8.42336e-15
5.74164e-15
2.33491e-14
1.59253e-14
2.93202e-14
1.66853e-14
9.55164e-15
3.26332e-15
1.23632e-14
6.0405e-15
5.70907e-15
2.05545e-14
1.31637e-14
1.8327e-14
3.30186e-14
1.28068e-14
3.66226e-15
2.93768e-15
5.4977e-16
5.54706e-16
2.46883e-14
2.79028e-16
2.30342e-16
1.13645e-15
3.14862e-16
3.26738e-16
5.38771e-15
2.22248e-15
2.26145e-15
3.01603e-14
2.95826e-14
2.3857e-14
2.92333e-15
1.19061e-15
1.23549e-15
5.06508e-15
3.6117e-15
3.68681e-15
2.2072e-14
2.25865e-14
2.39386e-14
3.59683e-15
2.75095e-15
6.34299e-15
1.06047e-15
1.12459e-15
9.03798e-15
2.93045e-14
8.92563e-14
5.60839e-14
3.89832e-15
1.25774e-14
1.58693e-14
3.74877e-15
3.76511e-15
6.78877e-15
5.70653e-14
6.50265e-14
2.82514e-14
5.55324e-15
9.49864e-15
1.11586e-14
6.53148e-15
1.16653e-14
1.03652e-14
4.55686e-14
3.00415e-14
2.24646e-14
2.04231e-14
1.81495e-14
1.93402e-14
4.00323e-19
3.31916e-19
6.6947e-19
7.83214e-16
1.18857e-16
4.43722e-16
1.93674e-15
2.19408e-15
2.25741e-15
4.26923e-19
2.99036e-19
6.96564e-19
7.85765e-16
2.37952e-16
2.02731e-15
1.8371e-15
3.02139e-15
3.06669e-15
4.16557e-19
2.88981e-19
6.5611e-19
3.53269e-15
1.53613e-14
3.52915e-14
1.80321e-15
3.89307e-15
1.78106e-14
1.84201e-19
1.79442e-19
5.14597e-19
4.86431e-15
1.46694e-14
2.55772e-14
1.77695e-15
7.35113e-15
1.54824e-14
5.78167e-20
9.58958e-20
2.34193e-19
4.4678e-15
8.38704e-15
1.71662e-14
1.59777e-15
6.05855e-15
1.69447e-14
1.55538e-20
3.07687e-20
8.52205e-20
2.57027e-15
5.07792e-15
1.41214e-14
1.31947e-15
4.84157e-15
1.71462e-14
1.74788e-19
5.37945e-20
4.97148e-20
4.59048e-17
2.44649e-17
8.53978e-17
3.37262e-16
3.38568e-16
2.69767e-16
2.763e-19
9.46809e-20
6.52376e-20
1.06812e-15
3.05761e-17
8.65882e-17
6.15819e-16
6.37095e-16
2.73668e-16
2.61014e-19
1.08422e-19
1.18574e-19
1.86061e-14
8.24111e-15
1.78773e-15
6.05157e-15
9.1914e-16
2.7463e-16
1.73215e-19
6.31059e-20
5.39864e-20
1.13537e-14
7.219e-15
1.88286e-15
4.98199e-15
1.38699e-15
2.75274e-16
4.73208e-20
2.89369e-20
1.16564e-20
5.99002e-15
3.04271e-15
1.53257e-15
4.88212e-15
1.59014e-15
2.78304e-16
2.33191e-20
8.43838e-21
4.02282e-21
4.13338e-15
1.52706e-15
7.14695e-16
4.5853e-15
1.47749e-15
2.10413e-16
)
;

boundaryField
{
    fuel
    {
        type            fixedValue;
        value           uniform 0;
    }
    primary_air
    {
        type            fixedValue;
        value           uniform 0.23;
    }
    Secondary_air_RHS
    {
        type            fixedValue;
        value           uniform 0.23;
    }
    Secondary_air_LHS
    {
        type            fixedValue;
        value           uniform 0.23;
    }
    outlet
    {
        type            inletOutlet;
        inletValue      uniform 0;
        value           nonuniform List<scalar> 
18
(
0
4.13338e-15
0
0
1.52706e-15
0
0
7.14695e-16
0
0
2.57027e-15
0
0
5.07792e-15
0
0
1.41214e-14
0
)
;
    }
    stove_body
    {
        type            fixedValue;
        value           uniform 0;
    }
    frontAndBack
    {
        type            empty;
    }
}


// ************************************************************************* //
