/*--------------------------------*- C++ -*----------------------------------*\
  =========                 |
  \\      /  F ield         | OpenFOAM: The Open Source CFD Toolbox
   \\    /   O peration     | Website:  https://openfoam.org
    \\  /    A nd           | Version:  6
     \\/     M anipulation  |
\*---------------------------------------------------------------------------*/
FoamFile
{
    version     2.0;
    format      ascii;
    class       surfaceScalarField;
    location    "0.5";
    object      phi;
}
// * * * * * * * * * * * * * * * * * * * * * * * * * * * * * * * * * * * * * //

dimensions      [1 0 -1 0 0 0 0];

internalField   nonuniform List<scalar> 
675
(
-6.45787e-06
1.57318e-07
0.00013686
-8.55599e-06
-2.24142e-06
0.000134869
-2.16462e-07
0.000122193
3.07723e-05
-5.81834e-07
0.000185675
1.09291e-05
1.84719e-06
0.000231415
-2.26597e-07
0.000226602
-6.7588e-06
0.000136723
-9.08755e-06
0.000134695
0.000121208
-1.58132e-05
-9.79582e-06
0.00016193
-3.02046e-05
-1.79479e-05
0.000166689
-1.99386e-06
9.36361e-05
6.33976e-05
9.01224e-06
0.000102573
9.73328e-06
1.74524e-05
0.000248717
1.15952e-06
0.000232094
-1.64453e-05
0.000161644
-3.10712e-05
0.000166258
9.09682e-05
-4.78298e-05
7.81096e-05
-1.45246e-05
2.57521e-06
-4.44226e-05
4.4984e-05
-7.8593e-05
8.18967e-05
-2.85049e-06
4.78903e-05
-4.8521e-05
-1.58921e-05
-0.00032382
0.00713019
-0.0036186
0.00560204
0.00641822
-0.00920519
0.00721404
0.00148174
-0.000873217
-0.00535319
0.0185543
-0.000379518
-0.00489712
0.0159891
-0.00659834
0.0185518
0.00143307
-0.00359882
0.00320463
-0.00354126
-0.000288717
0.00636269
0.00935652
-0.0193719
0.000963622
0.00866728
-0.0124783
0.0105373
-0.00816366
0.00202243
-0.00717367
0.0330303
0.00109086
-0.00517285
0.0306751
-0.00891893
0.0389821
0.00975762
-0.0206055
0.00487095
-0.00388624
-0.00439943
-0.00283986
0.0245395
-0.0411185
-0.00400383
0.0132587
-0.0245282
0.0247337
-0.0369188
-0.0460105
-0.0236239
0.127182
0.0438317
-0.0142346
-0.0316385
-0.0249651
0.132496
-0.00243823
-0.041833
-0.00321213
-0.0173314
-0.0325279
-0.00756269
-0.0147472
-0.0285975
0.0510082
0.00568308
0.00320559
-0.0441073
0.0276843
-0.0151553
-0.0266563
0.0476374
0.0120199
0.0166123
0.0556558
-0.0990468
-0.00916267
-0.00215692
-0.0144725
0.0411431
0.0126685
0.0686448
-0.105538
-0.00498685
-0.0301791
0.0518073
0.0111373
-0.0396071
0.0214046
-0.0195192
0.0434406
-0.00107135
-0.00794313
-0.0195005
-0.00252319
-0.0100204
-0.0332584
-0.00981843
-0.0192522
0.0176185
0.00982618
0.0205317
-0.0166236
0.00800081
0.00206278
0.00872149
0.0338317
0.00320124
-0.023686
0.000141177
-0.0284061
-0.0107194
0.00704091
-0.00702759
-0.0194998
-0.0035066
-0.00235345
-0.020929
-0.0052544
-0.0173739
0.00203921
0.00265051
0.00900824
0.00690185
0.00232744
-0.00714235
0.00948521
0.0262568
-0.005301
-0.0159333
-0.0136459
-0.0176053
-0.0149963
-3.07881e-05
-0.00238952
-0.0439442
-0.000192728
-0.000829874
-0.0235317
-0.00229669
-0.0400615
-0.00345414
0.00244694
0.117369
0.00344525
0.000291137
-0.0396514
0.00200008
0.123208
6.32089e-06
-0.0446376
-4.15968e-06
-0.0170291
-0.0357821
-0.000414214
-0.00109505
-0.0476681
0.000292438
8.37314e-05
-0.0243175
-0.000942827
-0.0440585
-0.0017647
0.00111449
0.108522
0.00155963
-0.000248146
-0.0426338
0.000848563
0.114571
-0.000351926
-0.0484057
0.000425752
-0.0180554
-0.0397478
-0.000396752
-0.00149153
0.000244869
0.00272924
-0.00140322
-0.00199306
0.0015562
0.00178681
-0.00253154
0.000996345
-0.000271783
0.000546754
0.00529
-0.00381205
-0.00642298
-0.0145349
-0.0054251
-0.00119879
-0.00904904
-0.00340919
-0.00432398
-0.0150397
-0.00232033
0.00208729
-0.00175033
0.00713706
-0.000234182
0.00111013
-0.0114755
0.00288329
0.0143169
0.00542225
0.00447604
-0.00451697
-0.0138179
-0.00664368
-0.00537359
-0.00358559
-0.0151917
0.00598162
0.000718091
-0.000496245
-0.0126049
-0.00514566
0.00182782
0.000247295
2.05513e-05
0.00295779
-0.0124088
8.24241e-06
-0.00174851
-0.00412801
0.00482249
-0.00157911
-0.00114566
-0.00686938
-0.000759508
0.00577768
0.00774716
0.00332397
0.00174331
-0.0113552
-0.00693726
0.00373262
0.00130236
-0.0125966
-0.00141137
0.00365217
-0.00271441
-0.0051045
0.00395356
0.00252709
-0.00463876
-0.00356804
-0.00317209
0.00624835
-0.00368741
-0.00276476
-0.0024455
0.00709181
-0.00101009
-0.00043392
-5.33166e-05
-0.00120637
-0.014622
-0.00238599
0.00195994
-0.0156723
0.000792501
0.000255946
0.00273599
-0.00706632
-0.0113396
-0.00149131
0.00106547
0.00343301
-0.00304874
0.00222315
0.000119022
0.00201636
0.0022082
-0.00454341
-0.0161758
0.00204977
-0.0162761
0.00232531
0.00248171
-0.0167407
-0.0119742
-0.00168276
0.00321316
-0.0130512
0.00104853
0.000282032
-0.000107859
-0.00935193
-0.0106638
0.00750221
0.000984435
0.000998095
0.00638975
0.000105448
0.00215442
0.000498091
0.00733052
0.000658806
-0.0124815
0.00292342
-0.0121412
0.00209319
0.00237097
-0.0115324
-0.00169817
0.000274036
-0.00236364
0.000945665
-0.00170634
-0.0100191
0.0085844
-0.000218044
0.0117599
-7.73721e-05
0.00119426
0.0161831
0.00150078
0.00351878
0.00708364
0.0148889
0.002618
-0.00684371
-0.0106751
0.0140067
0.000131715
0.000738647
-0.00259142
0.0020632
-0.00146704
0.00166015
0.00496608
-0.0025569
-0.00496213
0.00165547
0.00195635
0.000584087
-0.00103831
0.015181
0.00234697
-0.0158734
0.014786
0.00205034
0.0015577
0.0125609
-2.52263e-05
-0.00939661
-0.00999371
0.0116951
0.0013942
0.000199882
-0.00133937
0.00248978
-0.00373315
0.000982256
0.00741369
0.000257675
-0.00310598
0.000439087
0.00225757
0.000466616
-0.00114087
0.0114613
0.00273077
-0.0108683
0.0118561
0.00209751
0.00252529
0.00167361
-0.00148698
-0.00959396
0.000870604
0.000994257
0.00064322
-0.00987986
0.000971782
0.0148194
-0.00632475
-0.000318337
-0.000586188
-0.00327903
0.00697686
-0.00150198
-0.00378304
0.00254472
0.00123134
0.00384789
0.00269989
-0.0103393
0.00240173
-0.00923688
0.000449493
-0.00138568
0.0034729
0.00110383
0.00032526
0.00171139
-0.000648705
0.00158773
0.0107329
-0.012126
0.0168124
-0.0057618
0.000283613
-0.00202547
0.00197353
0.00127397
0.00526307
0.00227821
-0.0199164
0.00161029
-0.0155864
0.00127227
-0.00111619
0.00528149
0.00184166
0.000402323
0.00300701
-0.00061556
0.00590186
0.00783797
-0.0210939
0.0122358
-0.00976756
0.00102808
-0.00401539
0.00122082
0.00405896
0.00826684
0.00557191
-0.0377807
0.0021154
-0.0190389
-0.00381107
-0.0035608
0.0138655
-0.00778685
0.000769617
0.0117717
0.00131719
0.0137224
0.00891277
-0.0335748
0.00324776
-0.00334234
0.0125633
0.0168313
0.0106462
-0.0234311
-0.00193518
0.0155197
-0.0345419
0.0149352
-0.0359354
-0.00729127
-0.0013257
0.0331005
-0.00687141
0.00470034
0.0221227
0.00291599
0.018833
0.00976307
-0.044694
0.0140987
-0.0030237
0.0295372
0.00785793
0.00654824
-0.0378356
0.00513717
0.00722525
-0.0390407
0.00749175
-0.0382837
0.0130772
-0.00397091
0.0305776
0.0141816
-0.0031613
0.0314007
0.00116547
0.0393286
-0.00412693
-0.0445451
0.00221365
-0.0125412
0.0328977
0.000900484
0.0148225
-0.000109398
0.0159124
0.0152616
0.00540607
-0.0241355
0.00548579
-0.0229083
-0.0216297
-0.0178218
-0.0141267
-0.00411495
0.0023222
-0.00954418
0.00382875
0.00279029
-0.0107313
0.00278463
0.00104738
-0.00255705
-0.000602206
0.000934117
-0.00133293
0.000349438
0.00121434
-0.00146667
0.00291668
-0.0176272
0.00028272
-0.0112513
-0.00602971
-0.0127219
-0.00612275
0.00169596
-0.0157769
0.00195509
0.00247569
-0.0212815
0.00219125
0.000812586
-0.00223511
-0.00056443
0.00608469
-0.001497
0.000476421
0.00247338
-0.00118349
0.00479266
-0.0128023
0.000985377
-0.00827473
-0.0100858
-0.0221854
-0.0101982
0.00180483
-0.017395
0.0041609
0.00604787
-0.0416868
0.00128149
0.00369014
0.00878615
0.00135759
0.0139224
0.00459404
0.000821049
0.011889
-0.0036562
0.0143204
-0.00337671
0.0128006
-0.00941162
-0.00323546
-0.0352589
0.00470981
0.0145074
-0.0366244
-0.0169841
0.0155826
-0.0355963
0.0108496
-0.024163
0.00644857
0.00257026
0.0194132
0.00698104
0.0041084
0.0227861
-0.00159412
0.0337104
-0.0148898
0.0302355
-0.0088721
-0.0051777
-0.0457533
-0.00490458
0.0074117
-0.0391261
-0.00789707
0.00711727
-0.0397118
0.00647697
-0.0385263
-0.0142182
0.00144851
0.0396109
-0.0131681
-0.00303597
0.0318801
-0.00384435
0.0308578
-0.00180721
0.0334858
0.00479559
-0.0148186
-0.04481
1.29423e-05
0.014959
-0.000932478
0.0156763
0.0145623
-0.00561549
-0.0209273
-0.00570969
-0.0222552
-0.0238502
0.0150568
0.017131
)
;

boundaryField
{
    fuel
    {
        type            calculated;
        value           nonuniform List<scalar> 
36
(
0.000131076
0.000216599
0.000131076
0.000131076
0.000216598
0.000131076
0.000131076
0.000216598
0.000131076
-0.000131076
-0.000216599
-0.000131076
-0.000131076
-0.000216598
-0.000131076
-0.000131076
-0.000216598
-0.000131076
0
0
0
0
0
0
0
0
0
0
0
0
0
0
0
0
0
0
)
;
    }
    primary_air
    {
        type            calculated;
        value           nonuniform List<scalar> 9(-0.003195 -0.00527808 -0.00319145 -0.00319548 -0.00527822 -0.00319183 -0.00319509 -0.00527857 -0.00319174);
    }
    Secondary_air_RHS
    {
        type            calculated;
        value           nonuniform List<scalar> 9(0.00524947 0.00843543 0.00524964 0.00523878 0.0084045 0.00523985 0.00523399 0.00842435 0.00523606);
    }
    Secondary_air_LHS
    {
        type            calculated;
        value           nonuniform List<scalar> 9(0.00524763 0.00842716 0.00524266 0.00523714 0.0083982 0.005232 0.00523302 0.00841907 0.0052277);
    }
    outlet
    {
        type            calculated;
        value           nonuniform List<scalar> 
18
(
-0.0540951
0.0811104
-0.00250853
-0.054441
0.0699052
-0.0391532
-0.0540201
0.0635519
-0.0515337
-0.0535427
0.0640949
-0.0508448
-0.0539248
0.0701749
-0.0391314
-0.0536366
0.0817198
-0.00286033
)
;
    }
    stove_body
    {
        type            calculated;
        value           uniform 0;
    }
    frontAndBack
    {
        type            empty;
        value           nonuniform 0();
    }
}


// ************************************************************************* //
