/*--------------------------------*- C++ -*----------------------------------*\
  =========                 |
  \\      /  F ield         | OpenFOAM: The Open Source CFD Toolbox
   \\    /   O peration     | Website:  https://openfoam.org
    \\  /    A nd           | Version:  6
     \\/     M anipulation  |
\*---------------------------------------------------------------------------*/
FoamFile
{
    version     2.0;
    format      ascii;
    class       volScalarField;
    location    "0.5";
    object      T;
}
// * * * * * * * * * * * * * * * * * * * * * * * * * * * * * * * * * * * * * //

dimensions      [0 0 0 1 0 0 0];

internalField   nonuniform List<scalar> 
297
(
291.379
291.375
291.392
293.235
293.234
293.236
291.379
291.375
291.392
291.673
292.131
293.35
294.238
293.942
294.491
291.684
292.126
293.373
304.167
319.044
481.881
395.637
346.159
413.904
304.233
319.733
484.384
322.535
324.372
308.959
300.071
308.521
297.168
320.977
319.691
307.435
352.679
335.98
354.722
329.346
319.393
326.498
349.943
344.453
353.112
352.66
327.982
360.319
334.82
335.969
335.07
349.554
331.111
362.827
335.676
323.006
338.523
353.582
350.892
356.918
332.714
325.347
339.06
331.809
322.829
331.361
353.54
354.949
356.818
324.504
324.873
337.747
316.182
313.465
322.982
353.392
330.021
352.211
309.89
310.377
325.301
353.856
322.771
359.746
342.342
348.38
345.951
349.983
326.019
362.955
347.077
321.824
348.355
346.856
348.384
347.995
343.567
325.498
349.708
341.431
321.749
345.05
351.536
348.642
354.701
338.257
325.411
345.904
310.153
309.646
313.383
341.519
316.802
351.998
307.586
306.494
307.421
303.036
306.195
309.061
307.353
316.801
349.164
302.519
304.088
304.356
304.784
308.28
308.483
309.253
314.723
328.379
303.152
304.244
304.592
306.36
302.352
302.779
342.85
304.476
304.364
301.59
300.083
299.411
309.149
304.281
304.698
347.309
342.936
332.724
304.201
301.302
301.156
308.192
306.13
306.112
329.217
329.447
330.519
304.691
303.595
307.469
302.028
301.708
306.24
311.462
337.29
338.173
299.267
303.151
303.988
302.363
302.059
303.058
314.488
317.942
306.839
300.245
301.35
302.16
302.52
302.829
303.152
310.517
307.9
306.948
302.459
301.982
302.719
302.759
302.454
301.951
303.198
304.234
303.649
299.078
299.422
298.752
302.847
302.097
301.554
303.19
304.113
303.986
298.578
300.019
299.808
302.947
301.65
300.886
303.352
306.222
308.534
297.915
300.469
302.335
301.369
301.027
300.25
301.076
305.423
306.744
297.279
301.306
298.79
298.225
298.024
297.084
300.169
302.851
304.674
292.268
295.384
296.798
291.588
291.417
290.695
291.267
288.755
285.722
290.481
290.197
298.745
302.183
302.598
302.989
304.02
304.239
303.58
299.22
299.992
299.653
301.934
302.505
303.409
305.264
304.338
303.775
300.411
300.731
299.222
301.526
302.216
303.467
324.142
313.338
305.333
307.167
301.272
298.4
300.655
301.248
301.929
314.669
310.848
302.745
303.726
301.605
297.805
296.588
298.149
297.913
311.13
306.447
301.825
299.66
295.547
294.402
290.746
291.481
291.593
289.049
289.983
292.304
301.809
291.275
290.772
)
;

boundaryField
{
    fuel
    {
        type            fixedValue;
        value           uniform 293;
    }
    primary_air
    {
        type            fixedValue;
        value           uniform 293;
    }
    Secondary_air_RHS
    {
        type            fixedValue;
        value           uniform 293;
    }
    Secondary_air_LHS
    {
        type            fixedValue;
        value           uniform 293;
    }
    outlet
    {
        type            inletOutlet;
        inletValue      uniform 293;
        value           nonuniform List<scalar> 
18
(
293
289.046
293
293
289.98
293
293
292.302
293
293
291.273
293
293
288.753
293
293
285.722
293
)
;
    }
    stove_body
    {
        type            fixedValue;
        value           uniform 293;
    }
    frontAndBack
    {
        type            empty;
    }
}


// ************************************************************************* //
