/*--------------------------------*- C++ -*----------------------------------*\
  =========                 |
  \\      /  F ield         | OpenFOAM: The Open Source CFD Toolbox
   \\    /   O peration     | Website:  https://openfoam.org
    \\  /    A nd           | Version:  6
     \\/     M anipulation  |
\*---------------------------------------------------------------------------*/
FoamFile
{
    version     2.0;
    format      ascii;
    class       volVectorField;
    location    "0.5";
    object      U;
}
// * * * * * * * * * * * * * * * * * * * * * * * * * * * * * * * * * * * * * //

dimensions      [0 1 -1 0 0 0 0];

internalField   nonuniform List<vector> 
297
(
(84.7356 -0.0336833 0.17493)
(84.7329 -0.0393462 0.18478)
(84.7389 0.0499978 0.191727)
(8.02125e-05 0.081864 0.316468)
(8.0555e-05 0.0511946 0.333724)
(8.11074e-05 0.00154805 0.327089)
(-84.7353 -0.0345627 0.174783)
(-84.7325 -0.0407419 0.184664)
(-84.7386 0.048473 0.191014)
(84.8186 -0.0819737 0.222896)
(84.9465 -0.0893146 0.220044)
(85.3145 -0.0830663 0.138574)
(8.05112e-05 0.197628 0.1621)
(8.07419e-05 0.110994 0.308385)
(8.15114e-05 -0.0662081 0.375023)
(-84.8215 -0.0838463 0.222516)
(-84.9446 -0.093516 0.219447)
(-85.3211 -0.0839743 0.136621)
(88.4609 -0.351868 0.507402)
(89.3578 -0.218713 0.521367)
(92.9518 0.449829 0.469317)
(7.46999e-05 -0.36663 0.158901)
(7.97133e-05 0.389943 0.127202)
(8.2554e-05 0.035727 -0.0918832)
(-88.4801 -0.35571 0.507255)
(-89.3501 -0.222439 0.520488)
(-93.4343 0.446038 0.463542)
(61.2215 1.70667 0.643527)
(61.9453 1.26713 -4.3078)
(58.4701 2.27848 -2.65523)
(-0.0142764 -0.279508 5.3477)
(-0.0151494 -0.297417 3.59391)
(-0.0133315 0.963861 4.22066)
(-60.9403 3.08491 0.994412)
(-60.7255 1.3797 -1.00077)
(-58.0321 0.42422 -2.09511)
(67.7195 8.00249 1.54299)
(64.5447 3.60033 -7.97178)
(68.1428 -7.26435 15.6599)
(-0.0167839 7.87943 35.5841)
(-0.0126706 0.789328 21.6931)
(-0.00863141 -5.94772 37.1739)
(-67.2476 11.5917 0.153162)
(-66.1591 4.95736 -0.349187)
(-67.9167 -0.844229 14.0054)
(66.8267 8.95251 -8.60743)
(62.559 -2.43299 -17.3562)
(68.2926 -13.4031 -0.951863)
(-0.014125 -3.74533 46.9416)
(-0.0108148 -1.13107 11.5245)
(-0.00579357 3.71958 49.4904)
(-66.2962 14.0482 -8.70395)
(-63.2911 -6.42696 -4.7411)
(-68.828 -7.62937 7.73364)
(63.8978 1.75428 -44.412)
(61.7501 0.0477378 -29.8711)
(64.4248 -4.17522 -41.5266)
(-0.00799011 -1.02682 6.13907)
(-0.0151669 1.33201 -8.51388)
(-0.0276032 0.590427 13.9574)
(-63.3049 5.96994 -44.9064)
(-62.2601 -2.2392 -25.638)
(-64.8757 3.30264 -36.2873)
(63.9213 10.6513 -28.056)
(61.4927 0.19372 -34.0619)
(63.7221 -14.314 -26.2421)
(0.00529191 1.24685 2.28393)
(-0.0268657 0.409215 1.93037)
(-0.0165779 -2.0403 12.6874)
(-62.4452 15.0346 -29.5969)
(-62.2252 -4.70338 -30.7705)
(-65.1664 -5.08416 -18.7979)
(60.8477 25.2544 -32.7169)
(59.8905 2.6662 -33.9965)
(62.1116 -25.6844 -31.4848)
(0.016326 -1.13428 7.31834)
(-0.0188742 3.0327 -7.9388)
(-0.0141188 0.562268 14.2495)
(-59.6907 19.8939 -30.0702)
(-59.5246 -12.4981 -27.4979)
(-62.5588 -20.0673 -21.8529)
(59.678 12.1827 -42.1655)
(58.6498 -0.447132 -20.475)
(61.281 -16.4396 -38.5761)
(-0.0146752 -2.48575 62.1417)
(-0.0193261 -0.747063 -22.6825)
(0.000517766 2.12807 65.4359)
(-59.0991 17.3077 -42.4036)
(-60.4652 -3.89998 -14.6622)
(-62.2882 -10.2057 -35.0052)
(57.2819 6.35258 -46.614)
(60.1766 -0.0310141 -22.0046)
(58.1438 -9.51667 -43.613)
(-0.0126388 -2.05652 68.2857)
(-0.0194519 -0.570125 -23.2473)
(0.00259909 1.60876 72.0795)
(-56.7763 10.9439 -46.9422)
(-61.2639 -3.56486 -16.2636)
(-58.7931 -3.12701 -39.2033)
(53.3065 4.70062 -46.2608)
(61.4176 -0.228303 -24.0242)
(54.1852 -7.49469 -43.2532)
(-0.0124217 -1.57334 67.111)
(-0.0203502 -0.313226 -19.763)
(0.00477455 1.07449 71.2512)
(-52.4301 9.1155 -46.6119)
(-62.1578 -3.21436 -19.0056)
(-57.1632 -0.89372 -39.1197)
(58.1996 38.0273 -8.69713)
(58.5032 0.438144 -10.0511)
(58.7898 -39.493 -7.03481)
(-0.0261485 -8.12198 3.88555)
(-0.0218552 -4.0167 -6.66229)
(-0.0412904 6.46846 12.5595)
(-58.26 34.2865 -6.98602)
(-58.1019 -5.73379 -7.92154)
(-58.1692 -36.6996 -7.74865)
(57.5473 33.6209 -3.21153)
(58.3167 2.55954 -6.08327)
(58.6893 -34.7881 -1.89606)
(-0.0282606 -0.0388672 -3.52111)
(-0.0230608 -4.69264 -3.30742)
(-0.0418135 5.77627 8.58329)
(-57.8289 26.6527 1.41352)
(-57.9563 -9.65198 -0.948318)
(-58.2159 -30.4368 2.59259)
(58.3104 -4.12924 1.18818)
(59.1045 -10.0831 2.53825)
(58.9789 -12.7343 5.46829)
(-0.0331567 -9.40648 -1.68911)
(-0.0263624 -6.80201 -0.983075)
(-0.0405319 2.60989 0.860098)
(-58.168 -7.56054 -2.68692)
(-58.3357 -5.87225 1.52015)
(-58.4957 11.2913 -3.31298)
(56.2034 -41.9413 -2.86332)
(57.0642 -45.7051 -11.0514)
(57.3477 -27.9661 -21.5483)
(-0.0989297 7.33734 8.96726)
(-0.12422 -4.58424 -6.68827)
(-0.217029 -7.442 -10.7084)
(-56.8755 -42.2291 -3.2121)
(-56.1371 -47.6318 -7.68837)
(-55.9217 -51.4227 -8.46887)
(57.6221 -35.4705 3.47862)
(58.1756 -41.614 -7.25217)
(57.0954 -25.3218 -22.9804)
(-0.0649264 16.1864 4.80955)
(-0.0984538 15.0051 5.24846)
(-0.199409 8.92753 11.109)
(-57.6009 -33.3363 7.98631)
(-57.6794 -39.2314 7.10883)
(-57.5862 -41.6396 4.50037)
(58.6807 -12.3643 12.0744)
(58.7063 -5.72727 3.25198)
(57.0904 -22.3112 -30.6021)
(-0.0451212 15.4223 -1.94712)
(-0.0642798 18.0901 -0.303826)
(-0.112597 30.3357 6.88203)
(-58.302 -1.90589 7.45854)
(-58.2802 4.32663 8.76532)
(-58.5084 17.1473 12.1672)
(57.2421 26.5976 -21.3077)
(56.6156 43.9127 -8.39569)
(55.8568 39.779 -2.49673)
(-0.215758 2.59572 -3.23695)
(-0.137482 -10.4759 4.71058)
(-0.0987583 -12.0817 2.64838)
(-56.1083 49.4341 -7.50786)
(-56.9257 43.3041 -5.45721)
(-57.5138 39.5329 -2.76703)
(56.5842 24.0499 -22.3973)
(57.8122 39.2947 -7.47824)
(56.6323 35.5329 2.94309)
(-0.175236 -5.14038 8.62296)
(-0.0834476 -6.2394 -0.164729)
(-0.0538687 -9.29505 -3.98664)
(-57.0789 38.9139 4.96527)
(-57.4571 34.735 6.48927)
(-57.3412 31.6455 6.86467)
(56.4148 21.3183 -30.5088)
(57.9899 1.97131 9.3248)
(57.7375 10.7517 11.498)
(-0.0924116 -25.376 8.79485)
(-0.0542311 -13.6122 2.27604)
(-0.0420166 -12.1381 -0.165961)
(-57.5499 -15.5543 11.0556)
(-57.9365 -5.84031 6.51963)
(-57.9401 0.0411892 5.96091)
(56.9012 -8.69879 -11.9274)
(56.8208 1.98193 -31.0381)
(56.8504 19.7781 -27.7098)
(-0.011594 2.45404 -4.23463)
(-0.115957 -4.08197 -8.88198)
(-0.221687 9.34217 -8.4674)
(-55.439 22.9089 -28.867)
(-54.818 28.8601 -20.7552)
(-56.6147 47.5514 -15.3711)
(56.86 -4.58983 8.99111)
(56.9422 6.32923 -38.2577)
(56.735 19.4226 -37.626)
(-0.0819026 1.40911 12.912)
(-0.193173 -0.672298 8.05671)
(-0.238507 7.79103 9.91556)
(-55.9375 6.19139 -51.0183)
(-55.8843 19.5301 -26.9417)
(-57.4305 37.2792 -3.66317)
(56.5633 0.519108 6.01672)
(59.7338 3.1157 -46.2583)
(57.8914 11.2655 -48.7057)
(-0.162218 -0.80352 10.1136)
(-0.243349 -11.2533 10.1059)
(-0.229416 -19.4702 16.2819)
(-58.3598 3.79956 -66.3271)
(-56.2835 19.3464 -20.3477)
(-56.2959 -8.29218 21.4497)
(56.8636 5.8118 -11.3509)
(57.4307 3.15272 -64.021)
(57.1152 -7.76762 -82.0655)
(-0.367639 1.13289 59.8838)
(-0.375963 -1.53675 33.788)
(-0.386813 -12.0557 31.9528)
(-57.7823 -8.23308 -97.0021)
(-58.1335 9.47288 19.08)
(-57.7388 -0.506082 62.0723)
(56.0534 0.861452 -124.689)
(56.1366 1.9262 -131.312)
(55.9462 6.56107 -127.653)
(-0.211117 3.19378 80.4708)
(-0.206496 4.70087 70.1379)
(-0.216247 0.884687 66.8273)
(-56.1055 2.1654 -130.112)
(-56.6331 -4.77142 -32.0578)
(-56.4561 2.2013 105.662)
(53.8067 0.182388 -158.394)
(53.8637 0.211465 -160.018)
(53.6245 -0.928733 -158.789)
(0.380184 -0.0304446 160.854)
(0.404275 1.94132 175.113)
(0.427762 0.602797 202.685)
(-52.9349 -6.81259 -149.1)
(-52.4654 -7.00129 -106.955)
(-53.6858 -2.68596 -3.92098)
(56.8378 -22.0662 -29.0641)
(56.8276 -1.69858 -31.8197)
(56.9641 8.58592 -12.1514)
(-0.228426 -10.1598 -10.7765)
(-0.114069 1.21699 -10.2853)
(0.00118887 -3.58401 -5.97915)
(-56.6534 -50.05 -16.4568)
(-54.7674 -30.3038 -21.8235)
(-55.424 -24.0263 -30.4237)
(56.8949 -21.1942 -37.3483)
(56.995 -7.79851 -38.7892)
(56.9985 4.13923 9.06604)
(-0.254851 -8.17611 11.7416)
(-0.203016 -0.269864 8.39443)
(-0.0752047 -1.7784 12.9086)
(-57.5612 -39.5293 -3.79084)
(-55.9152 -20.5644 -27.9285)
(-55.9597 -6.51368 -52.61)
(57.939 -12.9255 -47.6603)
(60.0974 -7.43454 -47.6592)
(56.6602 -0.940652 3.64506)
(-0.254136 23.07 16.4383)
(-0.265076 12.4173 9.08986)
(-0.163844 1.86925 9.5775)
(-57.1579 8.39426 22.2383)
(-56.3825 -20.4103 -21.058)
(-58.4746 -4.01224 -68.407)
(57.059 8.51057 -81.2567)
(57.4221 -2.52467 -65.5609)
(56.9074 -5.70292 -11.68)
(-0.404651 13.6262 35.8166)
(-0.394196 0.866025 37.126)
(-0.388397 -0.794991 62.0641)
(-58.6742 0.590435 65.3809)
(-58.2121 -9.46075 25.7129)
(-57.9053 8.381 -98.7529)
(55.816 -7.35937 -131.132)
(56.1357 -1.31105 -133.521)
(55.9486 -1.1996 -126.879)
(-0.228062 -0.567419 68.9444)
(-0.21359 -4.91513 71.9748)
(-0.216159 -3.36911 82.7895)
(-56.9795 -2.70346 109.107)
(-56.6543 6.23627 -48.9454)
(-56.5043 -2.7539 -132.244)
(53.6313 1.06445 -160.609)
(53.8764 -0.369498 -162.101)
(53.7942 -0.127829 -160.293)
(0.427598 -0.510108 203.534)
(0.397561 -2.137 175.219)
(0.373911 0.00169297 160.066)
(-54.2035 2.70098 -2.85324)
(-52.6467 7.15645 -106.883)
(-53.0204 6.99937 -151.728)
)
;

boundaryField
{
    fuel
    {
        type            fixedValue;
        value           uniform (0 0 0.25);
    }
    primary_air
    {
        type            fixedValue;
        value           uniform (0 0 2.5);
    }
    Secondary_air_RHS
    {
        type            fixedValue;
        value           uniform (0 41.6667 0);
    }
    Secondary_air_LHS
    {
        type            fixedValue;
        value           uniform (0 -41.6667 0);
    }
    outlet
    {
        type            pressureInletOutletVelocity;
        value           nonuniform List<vector> 
18
(
(0 0 -160.609)
(0.427598 -0.510108 203.534)
(0 0 -2.85324)
(0 0 -162.101)
(0.397561 -2.137 175.219)
(0 0 -106.883)
(0 0 -160.293)
(0.373911 0.00169297 160.066)
(0 0 -151.728)
(0 0 -158.394)
(0.380184 -0.0304446 160.854)
(0 0 -149.1)
(0 0 -160.018)
(0.404275 1.94132 175.113)
(0 0 -106.955)
(0 0 -158.789)
(0.427762 0.602797 202.685)
(0 0 -3.92098)
)
;
    }
    stove_body
    {
        type            noSlip;
    }
    frontAndBack
    {
        type            empty;
    }
}


// ************************************************************************* //
