/*--------------------------------*- C++ -*----------------------------------*\
  =========                 |
  \\      /  F ield         | OpenFOAM: The Open Source CFD Toolbox
   \\    /   O peration     | Website:  https://openfoam.org
    \\  /    A nd           | Version:  6
     \\/     M anipulation  |
\*---------------------------------------------------------------------------*/
FoamFile
{
    version     2.0;
    format      ascii;
    class       volScalarField;
    location    "1";
    object      p;
}
// * * * * * * * * * * * * * * * * * * * * * * * * * * * * * * * * * * * * * //

dimensions      [1 -1 -2 0 0 0 0];

internalField   nonuniform List<scalar> 
297
(
111913
111913
111913
183556
183556
183556
111913
111913
111913
111913
111913
111913
183557
183556
183557
111913
111913
111913
111913
111913
111913
183558
183557
183558
111913
111913
111913
97262.8
97283.3
97263.8
159755
159741
159755
97263.3
97283.8
97263.9
97216.5
97237.1
97217.6
159554
159587
159553
97216.8
97235.7
97217.2
97115.7
97253.2
97121.6
158208
158957
158210
97117.3
97251
97120.3
97022.3
97144.8
97019
159417
159168
159413
97021.6
97145.3
97020.2
96984.8
97098.2
96981.6
159431
159397
159430
96985.1
97099.3
96984.1
96890.1
97087.3
96887
159210
159289
159209
96890.4
97088.2
96887.8
96759.5
97358.6
96757.5
155512
158400
155508
96758.9
97358
96758
96695.1
97348.5
96692
155217
158480
155212
96694.6
97349.6
96692.8
96661.3
97322
96657.5
155488
158664
155483
96661.2
97326.4
96658.6
97336.4
97398.1
97337.2
159242
159291
159241
97337.6
97397.9
97333.7
97429.7
97463.9
97431.9
159328
159311
159327
97431.5
97463.5
97427.4
97472.1
97478.9
97475.1
159374
159346
159373
97474
97478.3
97470.1
97486.5
97387.4
97320.6
159015
159157
159344
97479.5
97381.4
97318
97401.2
97252.3
97131.7
159159
159201
159341
97394.2
97246.4
97129.3
97364.7
97212.4
97101.2
159218
159178
159172
97357.6
97206.5
97099.3
97316.7
97381.7
97481.1
159343
159158
159016
97318.2
97383.9
97483.7
97129
97247.7
97396.1
159340
159203
159160
97129.8
97248.8
97398.1
97098.6
97208
97359.5
159172
159179
159221
97099.7
97209
97361.1
98599.9
98229.5
97629.7
159379
159351
159385
98603.6
98232.9
97631.9
98186.9
97707.6
97289.2
159211
159118
159247
98191
97711
97291
97764.9
97317.6
97041.2
158982
158792
158874
97769.1
97320.6
97043.1
96320.8
96229.1
96209.7
157528
157430
157370
96322.6
96230.6
96211.2
94775
94835.3
94907.4
153351
153339
153338
94772.4
94832.8
94905.1
91448.1
91523.2
91593
141603
141626
141658
91443.3
91518.3
91588.2
97632.7
98232.6
98602.7
159387
159354
159382
97634.1
98237.6
98609.9
97290.9
97710.2
98190.6
159249
159121
159214
97292.9
97714.9
98196.4
97041.8
97319
97769.3
158876
158794
158985
97045.5
97324.7
97774.3
96203.9
96222.6
96314.6
157372
157432
157530
96220.4
96238.9
96330.6
94908.7
94837.2
94777
153322
153323
153335
94885.2
94813.7
94754.2
91584
91514
91438.9
141656
141624
141601
91586.8
91516.9
91441.6
)
;

boundaryField
{
    fuel
    {
        type            zeroGradient;
    }
    primary_air
    {
        type            zeroGradient;
    }
    Secondary_air_RHS
    {
        type            zeroGradient;
    }
    Secondary_air_LHS
    {
        type            zeroGradient;
    }
    outlet
    {
        type            totalPressure;
        rho             rho;
        psi             none;
        gamma           1;
        p0              uniform 100000;
        value           nonuniform List<scalar> 
18
(
93088.8
100000
93090.4
92746.8
100000
92749.2
91821.6
100000
91836.1
91824.3
100000
91814.9
92758.8
100000
92757.5
93099
100000
93095.5
)
;
    }
    stove_body
    {
        type            zeroGradient;
    }
    frontAndBack
    {
        type            empty;
    }
}


// ************************************************************************* //
