/*--------------------------------*- C++ -*----------------------------------*\
  =========                 |
  \\      /  F ield         | OpenFOAM: The Open Source CFD Toolbox
   \\    /   O peration     | Website:  https://openfoam.org
    \\  /    A nd           | Version:  6
     \\/     M anipulation  |
\*---------------------------------------------------------------------------*/
FoamFile
{
    version     2.0;
    format      ascii;
    class       volScalarField;
    location    "1";
    object      Qdot;
}
// * * * * * * * * * * * * * * * * * * * * * * * * * * * * * * * * * * * * * //

dimensions      [1 -1 -3 0 0 0 0];

internalField   nonuniform List<scalar> 
297
(
-1.46522e-05
0
-1.46522e-05
-2.22192e-05
-3.68714e-05
-1.46521e-05
1.33712e-11
-2.22193e-05
0
1.33712e-11
-7.32612e-06
1.33712e-11
-1.84358e-05
4.27879e-10
4.27879e-10
0
-2.95454e-05
-1.46522e-05
-2.22192e-05
-7.32612e-06
-2.95453e-05
4.27879e-10
-5.55482e-06
-3.66306e-06
-2.95453e-05
-7.32612e-06
-7.32612e-06
4.27879e-10
4.20017e-10
0
-6.28964e-11
4.27879e-10
3.64983e-10
4.27879e-10
-7.86205e-12
0
-7.86205e-12
0
-7.86205e-12
3.96431e-10
0
3.96431e-10
0
4.27879e-10
-7.86205e-12
0
4.27879e-10
0
4.27879e-10
-7.86205e-12
0
0
4.27879e-10
0
0
4.27879e-10
4.27879e-10
4.27879e-10
0
4.27879e-10
0
0
4.27879e-10
-1.39658e-26
4.27879e-10
0
0
4.27879e-10
4.27879e-10
-4.46906e-25
-8.93811e-25
-4.46906e-25
-4.46906e-25
4.27879e-10
4.27879e-10
4.27879e-10
0
4.27879e-10
0
-4.46906e-25
4.27879e-10
0
4.27879e-10
0
4.27879e-10
-5.99826e-17
4.27879e-10
4.27879e-10
4.27879e-10
4.27879e-10
0
0
0
0
4.27879e-10
4.27879e-10
0
0
4.27879e-10
0
4.27879e-10
4.27879e-10
0
4.27879e-10
4.27879e-10
4.27879e-10
0
0
0
4.27879e-10
-4.46906e-25
4.27879e-10
0
4.27879e-10
0
0
-4.46906e-25
-2.23453e-25
-2.23453e-25
0
4.27879e-10
8.55758e-10
4.27879e-10
0
-2.23453e-25
0
0
0
0
0
8.55758e-10
0
0
0
0
-2.23453e-25
-1.11726e-25
4.27879e-10
-1.78762e-24
4.27879e-10
0
-2.23453e-25
0
-5.58632e-26
4.27879e-10
0
-2.79316e-26
0
4.27879e-10
4.27879e-10
-2.23453e-25
-5.58632e-26
-2.79316e-26
0
0
4.27879e-10
-4.46906e-25
0
0
4.27879e-10
0
-2.79316e-26
-5.58632e-26
0
4.27879e-10
4.27879e-10
4.27879e-10
4.27879e-10
4.27879e-10
4.27879e-10
0
0
-5.58632e-26
-2.23453e-25
-1.78762e-24
-1.78762e-24
-1.78762e-24
-2.79316e-26
-5.58632e-26
4.27879e-10
-5.58632e-26
-5.58632e-26
0
-8.93811e-25
8.55758e-10
-4.46906e-25
4.27879e-10
-5.58632e-26
-2.23453e-25
0
4.27879e-10
-3.49145e-27
-8.72862e-28
0
0
-2.18216e-28
4.27879e-10
4.27879e-10
0
4.27879e-10
4.27879e-10
0
0
-8.93811e-25
4.27879e-10
-1.39658e-26
4.27879e-10
-8.72862e-28
0
4.27879e-10
8.55758e-10
0
-8.93811e-25
0
4.27879e-10
-2.79316e-26
0
4.27879e-10
0
0
0
0
4.27879e-10
4.27879e-10
4.27879e-10
4.27879e-10
4.27879e-10
4.27879e-10
4.27879e-10
0
4.27879e-10
4.27879e-10
4.27879e-10
4.27879e-10
-5.32753e-32
-4.26202e-31
0
0
0
-2.23453e-25
4.27879e-10
4.27879e-10
4.27879e-10
4.27879e-10
-3.49145e-27
4.27879e-10
0
-1.74572e-27
8.55758e-10
4.27879e-10
-3.49145e-27
4.27879e-10
0
0
-8.72862e-28
-8.93811e-25
-1.74572e-27
8.55758e-10
4.27879e-10
4.27879e-10
-8.72862e-28
0
-2.79316e-26
4.27879e-10
8.55758e-10
8.55758e-10
-1.74572e-27
0
0
-8.72862e-28
0
4.27879e-10
0
0
8.55758e-10
0
4.27879e-10
4.27879e-10
0
-6.9829e-27
4.27879e-10
0
4.27879e-10
-1.11726e-25
0
-6.9829e-27
-3.49145e-27
0
-8.52405e-31
-4.26202e-31
-5.32753e-32
-2.23453e-25
4.27879e-10
4.27879e-10
4.27879e-10
4.27879e-10
-1.06551e-31
)
;

boundaryField
{
    fuel
    {
        type            calculated;
        value           uniform 0;
    }
    primary_air
    {
        type            calculated;
        value           uniform 0;
    }
    Secondary_air_RHS
    {
        type            calculated;
        value           uniform 0;
    }
    Secondary_air_LHS
    {
        type            calculated;
        value           uniform 0;
    }
    outlet
    {
        type            calculated;
        value           uniform 0;
    }
    stove_body
    {
        type            calculated;
        value           uniform 0;
    }
    frontAndBack
    {
        type            empty;
    }
}


// ************************************************************************* //
