# Probe 0 (0 -0.07 0.25)
# Probe 1 (0 -0.04 0.25)
# Probe 2 (0 -0.07 0.15)
# Probe 3 (0 -0.07 0.18)
# Probe 4 (0 -0.04 0.15)
# Probe 5 (0 -0.04 0.18)
# Probe 6 (0 0 0.18)
# Probe 7 (0 0 0.15)
# Probe 8 (0 0.15 0.18)
# Probe 9 (0 0.15 0.15)
# Probe 10 (0 0.19 0.15)
# Probe 11 (0 0.19 0.18)
# Probe 12 (0 0.22 0.15)
# Probe 13 (0 0.22 0.18)
# Probe 14 (0 0.19 0.25)
# Probe 15 (0 0.22 0.25)
#       Probe             0             1             2             3             4             5             6             7             8             9            10            11            12            13            14            15
#        Time
          0.5 -1.79769e+307 -1.79769e+307 -1.79769e+307 -1.79769e+307 -1.79769e+307 -1.79769e+307       292.971       292.983       292.982       292.981 -1.79769e+307 -1.79769e+307 -1.79769e+307 -1.79769e+307 -1.79769e+307 -1.79769e+307
            1 -1.79769e+307 -1.79769e+307 -1.79769e+307 -1.79769e+307 -1.79769e+307 -1.79769e+307        292.98       292.971       292.977        292.99 -1.79769e+307 -1.79769e+307 -1.79769e+307 -1.79769e+307 -1.79769e+307 -1.79769e+307
          1.5 -1.79769e+307 -1.79769e+307 -1.79769e+307 -1.79769e+307 -1.79769e+307 -1.79769e+307       292.976        292.99       292.969       292.989 -1.79769e+307 -1.79769e+307 -1.79769e+307 -1.79769e+307 -1.79769e+307 -1.79769e+307
            2 -1.79769e+307 -1.79769e+307 -1.79769e+307 -1.79769e+307 -1.79769e+307 -1.79769e+307       292.982       292.991       292.986       292.996 -1.79769e+307 -1.79769e+307 -1.79769e+307 -1.79769e+307 -1.79769e+307 -1.79769e+307
          2.5 -1.79769e+307 -1.79769e+307 -1.79769e+307 -1.79769e+307 -1.79769e+307 -1.79769e+307        292.99       292.995       292.996       292.997 -1.79769e+307 -1.79769e+307 -1.79769e+307 -1.79769e+307 -1.79769e+307 -1.79769e+307
