/*--------------------------------*- C++ -*----------------------------------*\
  =========                 |
  \\      /  F ield         | OpenFOAM: The Open Source CFD Toolbox
   \\    /   O peration     | Website:  https://openfoam.org
    \\  /    A nd           | Version:  6
     \\/     M anipulation  |
\*---------------------------------------------------------------------------*/
FoamFile
{
    version     2.0;
    format      ascii;
    class       volScalarField;
    location    "0.0125";
    object      O2;
}
// * * * * * * * * * * * * * * * * * * * * * * * * * * * * * * * * * * * * * //

dimensions      [0 0 0 0 0 0 0];

internalField   nonuniform List<scalar> 
3773
(
0
0
0
0
0
0
0
0
0
0
0
0
0
0
0
0
0
0
0
0
0
0
0
0
0
0
0
0
0
0
0
0
0
0
0
0
0
0
0
0
0
0
0
0
0
0
0
0
0
0
0
0
0
0
0
0
0
0
0
0
0
0
0
0
0
0
0
0
0
0
0
0
0
0
0
0
0
0
0
0
0
0
0
0
0
0
0
0
0
0
0
0
0
0
0
0
0
0
0
0
0
0
0
0
0
0
0
0
0
0
0
0
0
0
0
0
0
0
0
0
0
0
0
0
0
0
0
0
0
0
0
0
0
0
0
0
0
0
0
0
0
0
0
0
0
0
0
0
0
0
0
0
0
0
0
0
0
0
0
0
0
0
0
0
0
0
0
0
0
0
0
0
0
0
0
0
0
0
0
0
0
0
0
0
0
0
0
0
0
0
0
0
0
0
0
0
0
0
0
0
0
0
0
0
0
0
0
0
0
0
0
0
0
0
0
0
0
0
0
0
0
0
0
0
0
0
0
0
0
0
0
0
0
0
0
0
0
0
0
0
0
0
0
0
0
0
0
0
0
0
0
0
0
0
0
0
0
0
0
0
0
0
0
0
0
0
0
0
0
0
0
0
0
0
0
0
0
0
0
0
0
0
0
0
0
0
0
0
0
0
0
0
0
0
0
0
0
0
0
0
0
0
0
0
0
0
0
0
0
0
0
0
0
0
0
0
0
0
0
0
0
0
0
0
0
0
0
0
0
0
0
0
0
0
0
0
0
0
0
0
0
0
0
0.00243517
0.00135767
0.000803338
0.000730775
0.000756948
0.000792987
0.000987828
0.00270513
0.00170652
0.00117299
0.000996214
0.00094589
0.000945397
0.00101258
0.00416464
0.00354677
0.00335617
0.0030403
0.00290165
0.00300145
0.00319761
0.00837921
0.00825684
0.00911391
0.00911708
0.00883712
0.00810109
0.00805462
0.00441268
0.00318536
0.00308947
0.00308131
0.00319518
0.00340262
0.00403053
0.00202119
0.0010116
0.00102626
0.00107417
0.00125716
0.00187893
0.00285367
0.00125891
0.00072445
0.00073778
0.000784733
0.000920735
0.00147162
0.00268193
0.00193026
0.000247594
8.10868e-06
7.52537e-06
7.42123e-06
7.44381e-06
2.81341e-06
0.00195949
0.000284548
1.33416e-05
1.82959e-05
2.94394e-05
5.14306e-05
3.29286e-05
0.00314558
0.00179251
0.00169315
0.00172424
0.00159292
0.00183354
0.00197847
0.00752557
0.00733259
0.00713373
0.00808496
0.00722589
0.00728317
0.00729118
0.00223068
0.00183704
0.00162533
0.00158992
0.00133503
0.00129649
0.00242775
8.24894e-05
5.63319e-05
4.66019e-05
3.16916e-05
2.07324e-05
8.4362e-05
0.00151058
4.81223e-06
6.70367e-06
8.30024e-06
1.59203e-05
3.63877e-05
0.000150283
0.0017637
0.00143542
4.13863e-05
1.57121e-05
1.1418e-05
1.0057e-05
8.6117e-06
3.59932e-06
0.00103663
5.03523e-05
1.25123e-05
1.70958e-05
4.7999e-05
0.000133476
5.88801e-05
0.00203058
0.00118342
0.00112518
0.00117354
0.0012497
0.00178048
0.00240912
0.00629064
0.00561125
0.00532803
0.00676682
0.00562948
0.00562047
0.00627845
0.00207141
0.00135153
0.00109029
0.00110549
0.000913447
0.000878111
0.00160653
5.12216e-05
5.37234e-05
4.7261e-05
2.62322e-05
2.39563e-05
7.19914e-05
0.000732768
4.73227e-06
8.63349e-06
1.0448e-05
1.96885e-05
5.11636e-05
0.000173573
0.000502039
0.000844114
7.56741e-05
1.76851e-05
1.33686e-05
1.15404e-05
9.83e-06
3.89336e-06
0.000579792
5.04379e-05
1.67991e-05
2.14845e-05
7.16105e-05
0.000178745
6.59256e-05
0.00183194
0.000927411
0.000856052
0.000903362
0.000956808
0.00181042
0.00259348
0.00573103
0.00437704
0.00485918
0.00488712
0.0048436
0.00410851
0.00570187
0.00237815
0.00142081
0.000918169
0.000905332
0.000775761
0.000880504
0.00162951
9.20522e-05
9.47243e-05
5.73422e-05
2.44729e-05
4.10678e-05
0.000152531
0.000352014
5.70253e-06
9.42205e-06
9.28161e-06
1.04366e-05
1.38177e-05
2.00003e-05
2.09609e-05
0.000455843
6.99002e-05
1.45048e-05
1.41481e-05
1.23572e-05
1.02024e-05
3.62753e-06
0.000395533
0.000134608
3.4806e-05
4.50079e-05
0.000107484
0.000193771
7.79672e-05
0.00190537
0.000875991
0.000696656
0.000756608
0.000733548
0.00165442
0.00245814
0.00440185
0.00384646
0.00361751
0.003442
0.00322815
0.0037711
0.00474933
0.00243799
0.00137732
0.000809208
0.000824086
0.000642952
0.000947223
0.00184168
0.000223889
0.000181953
8.82341e-05
2.88006e-05
4.09079e-05
9.24289e-05
0.000126313
6.08865e-06
1.47554e-05
1.156e-05
8.06601e-06
7.71389e-06
6.18323e-06
1.14734e-06
2.55802e-05
5.26733e-06
8.31997e-06
1.49051e-05
1.26006e-05
1.01305e-05
1.55065e-06
0.000106554
6.04216e-05
3.32098e-05
7.06435e-05
0.000129264
0.000169762
8.47627e-05
0.00149988
0.000914928
0.000568185
0.000546907
0.000578379
0.0010944
0.00206411
0.00388349
0.00312438
0.00243543
0.00269598
0.00251987
0.00320967
0.00382936
0.00229579
0.00118949
0.000607373
0.000622335
0.000634297
0.00107243
0.00170217
0.000331552
0.000285316
0.000128276
3.53555e-05
2.48593e-05
2.81847e-05
1.77431e-05
5.8122e-06
2.43977e-05
2.18326e-05
9.65725e-06
8.07867e-06
6.68697e-06
9.47459e-07
0
2.33663e-06
7.84386e-06
1.29146e-05
1.19465e-05
8.63037e-06
0
0
3.51727e-05
5.46969e-05
9.00457e-05
0.000144811
0.000157389
7.74243e-05
0.00122102
0.000892352
0.000477332
0.000459182
0.000514336
0.000805243
0.00170447
0.00272686
0.00229087
0.00168239
0.00204859
0.00172902
0.00237578
0.00314664
0.00149854
0.00102179
0.000481636
0.000431617
0.00057326
0.00105179
0.00156791
0.000348302
0.000338509
0.000193606
7.01623e-05
4.26996e-05
3.4109e-05
1.05367e-05
3.86231e-06
3.41786e-05
3.91436e-05
1.07995e-05
7.00925e-06
4.6096e-06
0
3.03979e-07
9.60332e-08
2.5929e-07
3.26462e-07
2.77451e-07
1.03479e-07
1.1292e-07
9.67475e-07
1.68492e-05
2.9542e-06
4.90127e-06
2.69398e-06
1.12689e-06
5.73833e-07
8.35869e-05
0.000524156
0.000469334
0.000328433
0.000278332
0.000285193
3.74584e-07
0.000961825
0.001268
0.001233
0.00124492
0.000991728
0.00106045
0.000954941
7.61727e-07
0.0004647
0.000370064
0.000342193
0.00042459
0.000371012
3.76217e-05
2.71404e-06
8.44171e-06
1.17948e-05
1.00726e-06
1.15127e-06
1.99845e-06
2.63128e-07
1.74529e-07
5.0976e-07
9.25512e-07
4.9665e-07
5.26319e-07
2.74423e-07
1.38876e-07
3.32449e-07
1.01426e-07
3.56367e-07
4.59732e-07
3.92233e-07
2.26451e-07
1.48961e-07
2.42813e-06
1.8752e-05
5.81805e-06
1.72141e-06
1.26625e-06
1.32948e-06
7.81097e-07
9.72966e-06
0.000227213
0.000257034
0.000197344
0.000124665
9.94672e-06
2.9692e-07
0.000243315
0.000887533
0.000915276
0.000790097
0.000784077
0.000684271
0.000308931
1.51622e-06
9.39628e-05
0.000261658
0.000209545
0.000207669
0.000166481
1.74616e-05
5.37585e-07
1.10567e-06
1.68855e-06
2.56277e-06
8.0874e-06
6.44175e-06
2.74242e-07
9.51309e-08
3.01922e-07
5.62826e-07
7.64611e-07
6.62219e-07
3.46397e-07
1.4074e-07
4.1785e-07
1.04736e-07
4.25164e-07
9.26075e-07
8.33734e-07
7.99123e-07
4.59556e-07
2.24275e-06
7.08471e-06
3.03872e-06
2.03101e-06
3.52493e-06
2.90666e-06
1.43995e-06
1.13285e-06
0.000103116
0.00012916
9.66216e-05
6.31104e-05
6.25434e-05
8.4973e-07
4.8253e-05
0.000577618
0.000654985
0.00067607
0.000625531
0.000438846
7.93935e-05
4.43841e-06
9.58662e-05
0.000188685
0.000140497
9.22882e-05
5.87311e-05
2.61796e-06
6.92088e-07
2.92878e-06
6.46359e-06
1.27987e-05
1.47374e-05
6.24008e-06
5.37737e-07
1.32314e-07
4.48104e-07
1.08737e-06
9.39708e-07
6.6689e-07
3.69713e-07
1.8713e-07
2.90547e-07
1.07002e-07
5.05615e-07
1.33965e-06
1.52902e-06
1.11695e-06
6.41741e-07
2.32587e-06
1.0459e-05
4.02017e-06
4.24933e-06
6.58967e-06
5.33542e-06
2.33358e-06
6.9517e-07
5.16555e-05
6.63917e-05
7.76475e-05
7.83749e-05
8.66974e-05
4.91876e-06
8.61547e-06
0.000372617
0.000469932
0.000529838
0.00039646
0.000248638
1.83432e-05
1.94186e-06
8.50947e-05
0.000114988
8.15781e-05
4.11837e-05
1.54704e-05
2.99364e-07
8.42043e-07
6.25723e-06
1.99846e-05
2.274e-05
1.3955e-05
4.32483e-06
7.16735e-07
9.818e-08
8.45779e-07
1.18502e-06
1.03325e-06
6.36875e-07
3.36952e-07
1.95065e-07
2.40416e-07
1.17931e-07
4.80075e-07
1.33637e-06
1.78871e-06
1.00304e-06
4.53926e-07
1.37687e-06
4.94077e-06
4.91217e-06
5.21197e-06
9.83844e-06
6.46681e-06
2.33682e-06
1.46156e-06
3.49796e-05
4.6291e-05
5.97089e-05
6.29618e-05
5.38455e-05
6.04934e-06
1.40545e-06
0.000229987
0.000304782
0.000344831
0.000244946
0.000140488
4.10108e-06
1.90308e-06
5.69476e-05
6.21347e-05
4.51323e-05
1.59598e-05
3.3549e-06
2.77022e-07
8.17997e-07
9.01105e-06
1.74069e-05
1.53372e-05
7.15838e-06
2.24876e-06
7.16782e-07
1.48172e-07
1.64085e-06
8.8031e-07
1.10652e-06
6.14524e-07
2.05281e-07
1.8709e-07
2.41713e-07
1.14939e-07
2.30935e-07
4.93835e-07
1.53645e-06
5.4841e-07
3.93627e-07
1.10697e-06
2.47465e-06
1.24358e-06
1.45869e-06
8.88809e-06
6.96946e-06
1.46123e-06
2.2715e-06
1.34251e-05
1.77521e-05
2.34164e-05
3.43703e-05
3.18801e-05
8.30157e-06
4.13863e-07
0.000116999
0.000141478
0.000174209
0.000153478
9.1046e-05
2.40114e-06
6.5053e-06
3.08256e-05
2.80743e-05
1.5287e-05
5.84749e-06
5.62456e-06
3.13383e-07
3.17495e-06
7.92919e-06
9.10164e-06
5.9244e-06
2.59658e-06
1.26904e-06
5.26836e-07
8.92225e-07
5.5224e-07
7.09236e-07
5.66191e-07
2.61746e-07
1.50498e-07
2.70602e-07
2.57815e-07
1.31449e-07
1.95509e-07
2.81383e-07
3.7167e-07
3.7569e-07
2.65885e-07
8.22519e-07
6.07373e-07
2.73961e-07
3.86043e-07
4.09224e-06
4.6173e-06
8.64036e-07
2.39702e-06
9.81328e-06
1.74291e-05
8.27792e-06
1.03001e-05
1.33378e-05
7.28054e-06
1.16262e-06
6.42994e-05
0.000100264
0.000126907
9.87811e-05
7.55414e-05
1.18723e-05
3.7208e-06
8.06969e-06
9.46062e-06
5.94462e-06
9.67628e-06
7.01844e-06
2.45844e-06
1.90201e-06
1.69424e-06
1.09091e-06
7.3362e-07
9.87824e-07
8.01389e-07
4.2544e-07
5.74462e-07
3.15522e-07
2.77309e-07
2.07806e-07
1.68225e-07
9.70038e-08
1.89364e-07
0
2.22892e-06
4.1731e-06
8.31066e-06
9.3424e-06
5.76254e-06
0
0
6.19666e-05
8.96628e-05
0.000119551
0.000132737
0.000101984
0
0.00114416
0.000877823
0.000587986
0.00045757
0.000534281
0.000812775
0.00122592
0.00261562
0.00159278
0.00165738
0.00158643
0.00169154
0.00198717
0.00295081
0
0.000986153
0.000513536
0.000455959
0.000609691
0.00106045
0.00132876
0
0.00028525
0.000241205
8.61379e-05
3.10659e-05
2.81612e-05
0
0
4.96399e-05
5.62674e-05
6.15367e-06
1.98532e-06
1.3354e-06
0
0
1.32029e-06
2.31612e-06
4.71722e-06
4.34134e-06
1.91402e-06
0
0
4.00046e-05
7.50223e-05
8.7826e-05
9.73455e-05
7.51875e-05
0
0.00108745
0.000863645
0.000590898
0.000460315
0.000538986
0.000806851
0.00105238
0.0025527
0.00158966
0.00164084
0.00157589
0.00165784
0.00199782
0.00286033
0
0.000962199
0.000510886
0.000455045
0.000621501
0.0010512
0.00117864
0
0.000194299
0.00020992
5.0739e-05
1.72506e-05
1.51881e-05
0
0
2.49379e-05
3.34763e-05
3.0728e-06
1.31782e-06
1.03305e-06
0
0
1.10853e-06
1.85734e-06
3.67584e-06
3.2063e-06
1.29973e-06
0
0
3.57359e-05
7.63523e-05
7.66755e-05
8.13409e-05
6.42383e-05
0
0.000904185
0.000843133
0.000601041
0.000459366
0.000534524
0.000790319
0.00078927
0.00243171
0.00158707
0.00158204
0.00155231
0.00163662
0.00199233
0.00277981
0
0.000913312
0.000506672
0.000448098
0.000632767
0.00103037
0.00107667
0
0.00016311
0.000196646
3.62804e-05
1.60277e-05
1.43363e-05
0
0
1.99902e-05
2.91913e-05
2.51803e-06
1.18655e-06
9.64574e-07
0
0
8.15641e-07
1.7615e-06
2.96936e-06
2.57903e-06
1.0962e-06
0
0
3.85227e-05
7.73846e-05
6.36539e-05
5.028e-05
4.83654e-05
0
0.000764129
0.0008228
0.000601212
0.000454827
0.000530526
0.000774058
0.000507584
0.00234117
0.00158097
0.00155225
0.0015377
0.00158358
0.00196792
0.00260406
0
0.000795942
0.000496759
0.00044048
0.000634771
0.000978723
0.000860976
0
0.000139146
0.000177542
3.2637e-05
1.70256e-05
1.7684e-05
0
0
1.81867e-05
2.78315e-05
2.31945e-06
1.16014e-06
8.86299e-07
0
0
4.93906e-07
1.73025e-06
2.74467e-06
2.00145e-06
8.11253e-07
0
0
4.05355e-05
5.71008e-05
4.29234e-05
3.27203e-05
3.29635e-05
0
0.000688448
0.000806122
0.000598373
0.000452513
0.000518891
0.00075105
0.000294263
0.00213273
0.00157485
0.00152044
0.00151119
0.00155106
0.0018725
0.00249365
0
0.000755262
0.000487057
0.000436952
0.000637164
0.000916147
0.000734819
0
0.000132042
0.000173291
3.32225e-05
1.7986e-05
1.89151e-05
0
0
1.68367e-05
2.71388e-05
1.94918e-06
1.07619e-06
8.6244e-07
0
0
3.01765e-07
5.74992e-07
1.25351e-06
7.04804e-07
5.96873e-07
0
0
3.24621e-05
3.14637e-05
3.24145e-05
1.72751e-05
1.59065e-05
0
0.00052062
0.000792255
0.000588348
0.000442249
0.000508769
0.0007377
0.000185262
0.00203874
0.00155734
0.00150216
0.00149808
0.00146911
0.00169231
0.00224045
0
0.000736397
0.000485636
0.000432096
0.00063949
0.000882665
0.000469826
0
0.000103097
0.000157006
2.63589e-05
1.92877e-05
2.0386e-05
0
0
7.9449e-06
1.38162e-05
1.02292e-06
7.84831e-07
5.51367e-07
0
0
9.14015e-08
3.01753e-07
7.33302e-07
2.9763e-07
1.42495e-07
0
0
2.42683e-05
2.39629e-05
2.58669e-05
5.04e-06
3.81425e-06
0
0.00027317
0.000752527
0.000583449
0.0004385
0.000494803
0.000698663
0
0.00183672
0.00154817
0.00146501
0.00147077
0.00142943
0.00162637
0.00213281
0
0.000713166
0.000484231
0.000432681
0.000633546
0.000790508
0.000213285
0
6.39634e-05
0.000121609
1.67228e-05
9.90097e-06
1.01321e-05
0
0
2.60446e-06
4.82022e-06
4.00607e-07
4.23911e-07
3.25694e-07
0
4.08258e-09
4.21562e-08
1.22172e-07
1.27247e-07
9.82348e-08
6.66e-08
8.7007e-09
1.59619e-08
2.14539e-08
2.64421e-07
8.21068e-07
9.36133e-07
1.00805e-06
2.19942e-07
1.99436e-06
1.29905e-05
1.61724e-05
1.71466e-05
1.77702e-05
9.74904e-06
7.24448e-06
1.10735e-06
4.42858e-05
8.47621e-05
9.99541e-05
7.9266e-05
5.48076e-05
1.10387e-05
3.27447e-07
5.63181e-06
9.64572e-06
1.13716e-05
2.44479e-05
1.4949e-05
3.37575e-06
1.38386e-08
2.8009e-08
1.02917e-07
2.00225e-07
1.34546e-07
1.91345e-07
4.1766e-08
2.66378e-09
3.64829e-09
2.46371e-08
3.07282e-08
2.42506e-08
1.54091e-08
2.84005e-09
2.00498e-08
9.62426e-08
1.01473e-07
8.46748e-08
7.35632e-08
5.02514e-08
2.65663e-08
2.08475e-09
4.28061e-08
3.48858e-07
4.74185e-07
5.27279e-07
5.82728e-07
3.57341e-07
2.01448e-06
1.17376e-05
1.41029e-05
1.51836e-05
1.65508e-05
1.30203e-05
7.88294e-06
1.3253e-06
3.92818e-05
8.06995e-05
9.01812e-05
7.80754e-05
5.05458e-05
1.20902e-05
7.40598e-07
7.15822e-06
1.29185e-05
1.70529e-05
2.4684e-05
1.81725e-05
6.00169e-06
2.72487e-08
3.27011e-08
6.68366e-08
1.16197e-07
1.89134e-07
2.02959e-07
9.00104e-08
7.70601e-09
1.50625e-08
2.32867e-08
2.77684e-08
3.01897e-08
1.64518e-08
8.44539e-09
5.16213e-08
1.27389e-07
1.77592e-07
1.76617e-07
1.34537e-07
9.89236e-08
3.07159e-08
6.47994e-09
4.47151e-08
4.9019e-07
8.2273e-07
1.01578e-06
1.03824e-06
4.6749e-07
1.76601e-06
1.06899e-05
1.67274e-05
1.83146e-05
1.71238e-05
1.50525e-05
8.73586e-06
2.11242e-06
3.70806e-05
7.3759e-05
8.10861e-05
7.45254e-05
4.84046e-05
1.40295e-05
3.88888e-06
1.00767e-05
1.81516e-05
2.64819e-05
2.35189e-05
2.10595e-05
1.19738e-05
8.41422e-08
1.43889e-07
3.0732e-07
6.15477e-07
7.80895e-07
4.43893e-07
3.58928e-07
2.15316e-08
3.44935e-08
7.15391e-08
9.93699e-08
9.07139e-08
4.18933e-08
3.58822e-08
6.1244e-08
1.35373e-07
1.76783e-07
1.53318e-07
1.33567e-07
1.04873e-07
8.21292e-08
2.54247e-08
3.16195e-08
4.23149e-07
4.61136e-07
4.30818e-07
5.05578e-07
4.7254e-07
2.3164e-06
9.80514e-06
1.05512e-05
1.25968e-05
1.63784e-05
1.52023e-05
1.15053e-05
4.12263e-06
3.64286e-05
6.576e-05
6.96242e-05
6.59539e-05
4.68585e-05
1.57784e-05
3.94293e-06
9.50047e-06
1.90818e-05
2.64522e-05
2.37054e-05
2.19514e-05
1.69299e-05
1.15515e-07
3.06286e-07
6.12374e-07
9.03641e-07
1.1624e-06
1.04554e-06
9.46433e-07
3.87261e-08
6.86088e-08
1.12213e-07
1.16639e-07
1.35092e-07
1.19663e-07
9.65854e-08
8.24495e-08
1.29115e-07
1.42569e-07
9.3117e-08
9.33059e-08
1.0177e-07
1.05045e-07
2.75483e-08
2.69024e-08
2.79522e-07
1.74878e-07
1.73757e-07
2.71914e-07
3.39564e-07
4.83683e-06
8.21957e-06
6.27796e-06
8.1237e-06
1.33378e-05
1.42538e-05
1.08805e-05
7.00331e-06
3.70331e-05
5.44681e-05
5.96499e-05
5.90118e-05
4.56452e-05
2.10855e-05
4.34186e-06
9.8616e-06
1.44447e-05
1.68766e-05
2.19879e-05
2.02085e-05
1.76734e-05
2.12765e-07
4.52026e-07
6.07742e-07
9.55027e-07
1.11127e-06
1.17729e-06
1.07122e-06
7.37203e-08
9.2032e-08
1.31424e-07
1.68183e-07
2.43461e-07
2.66686e-07
2.13268e-07
9.22729e-08
1.13083e-07
1.11271e-07
7.58438e-08
4.88527e-08
3.75115e-08
2.91465e-08
3.2603e-08
2.68514e-08
2.13395e-07
1.34736e-07
7.56542e-08
6.83755e-08
5.67525e-08
5.43578e-06
6.60693e-06
3.92402e-06
4.96843e-06
8.92593e-06
1.12657e-05
1.0523e-05
1.10666e-05
3.39368e-05
4.03148e-05
4.14892e-05
4.70463e-05
4.19856e-05
2.49505e-05
4.99918e-06
7.10758e-06
8.54755e-06
9.80138e-06
1.67001e-05
1.47477e-05
1.34646e-05
2.57065e-07
4.36448e-07
5.05523e-07
6.10248e-07
7.00721e-07
7.89789e-07
7.84547e-07
7.73526e-08
8.99545e-08
1.16024e-07
1.31445e-07
1.8398e-07
2.03836e-07
2.00262e-07
7.42435e-08
7.30012e-08
6.14859e-08
5.57502e-08
4.15468e-08
3.5346e-08
2.78475e-08
3.39356e-08
2.62896e-08
9.10288e-08
7.91844e-08
5.31103e-08
4.22485e-08
3.54182e-08
3.10973e-06
2.5741e-06
1.17492e-06
1.7652e-06
4.54863e-06
5.98967e-06
7.58406e-06
1.19809e-05
1.61997e-05
1.89549e-05
1.67058e-05
2.42011e-05
2.39581e-05
2.18908e-05
2.88045e-06
2.63109e-06
3.67073e-06
4.57223e-06
7.81754e-06
7.91171e-06
8.80675e-06
1.85594e-07
2.78778e-07
2.48597e-07
2.11089e-07
2.36337e-07
3.21124e-07
3.68194e-07
6.64435e-08
7.24306e-08
6.42471e-08
6.12563e-08
6.40003e-08
7.54896e-08
9.18279e-08
2.19091e-09
4.52228e-10
3.27317e-10
2.98214e-10
2.9454e-10
3.04534e-10
2.45591e-10
8.47813e-08
2.34168e-08
1.7592e-10
1.57569e-10
1.1858e-10
1.19781e-10
1.12231e-10
4.61482e-06
2.71544e-06
3.26013e-09
4.95244e-09
5.8299e-09
6.31387e-09
9.02189e-09
9.22331e-06
4.01417e-06
6.92005e-07
1.74401e-07
9.65564e-08
8.54262e-08
8.40404e-08
3.03342e-06
2.1846e-06
2.76948e-07
2.41906e-09
2.10351e-09
2.566e-09
3.8065e-09
1.39319e-08
3.51576e-09
3.883e-09
2.33269e-10
2.50593e-10
2.31468e-10
8.09104e-11
1.20377e-09
1.05023e-09
1.17877e-09
1.27054e-09
1.28094e-09
1.09239e-09
4.6322e-10
5.26969e-09
2.93162e-09
2.84755e-09
2.36973e-09
2.03395e-09
1.67527e-09
9.94972e-10
1.17342e-07
7.81171e-08
1.34318e-08
8.37726e-10
7.94979e-10
7.84203e-10
7.53969e-10
4.73592e-06
3.69359e-06
1.22248e-06
5.85725e-09
8.6958e-09
1.09866e-08
1.62572e-08
9.88513e-06
6.2059e-06
3.67517e-06
1.6472e-06
7.69344e-07
6.83174e-07
5.68832e-07
3.7173e-06
2.87837e-06
1.83094e-06
4.04354e-07
4.28013e-09
4.78864e-09
5.57383e-09
7.21739e-08
4.19216e-08
3.70096e-08
5.24617e-09
1.37603e-09
1.37125e-09
8.92718e-10
6.95134e-09
6.05063e-09
6.81779e-09
7.14407e-09
7.00431e-09
5.31956e-09
1.74134e-09
2.06899e-08
1.55633e-08
1.40701e-08
1.20824e-08
1.07686e-08
6.77757e-09
4.06381e-09
1.78909e-07
1.26984e-07
7.51826e-08
2.95192e-08
4.24314e-09
4.47166e-09
4.5696e-09
7.04311e-06
4.77901e-06
3.60146e-06
9.624e-07
9.53561e-09
1.43054e-08
2.35007e-08
1.09615e-05
9.20995e-06
6.23982e-06
4.8913e-06
3.02035e-06
2.41621e-06
1.72284e-06
6.85828e-06
6.08178e-06
3.58124e-06
2.22309e-06
9.12198e-07
1.6568e-07
8.45963e-09
3.38665e-07
1.40335e-07
8.85936e-08
6.32031e-08
2.34372e-08
8.0799e-09
7.5062e-09
2.5012e-08
2.06563e-08
2.5229e-08
2.76793e-08
2.59421e-08
1.92182e-08
6.22728e-09
8.19308e-08
6.00614e-08
3.86122e-08
2.90982e-08
2.66788e-08
1.85803e-08
6.96315e-09
5.81753e-07
3.54371e-07
1.74507e-07
7.71387e-08
1.35759e-08
1.0809e-08
1.28167e-08
8.79097e-06
7.73268e-06
4.94495e-06
3.28194e-06
1.19856e-06
1.92461e-07
2.31252e-08
1.27011e-05
1.02069e-05
9.02052e-06
6.63791e-06
5.5329e-06
4.0696e-06
3.33337e-06
1.1446e-05
9.42148e-06
7.85806e-06
6.18728e-06
3.21431e-06
1.79617e-06
5.63929e-07
6.63932e-07
4.89749e-07
4.18551e-07
2.95291e-07
1.72006e-07
6.45827e-08
2.24965e-08
1.18309e-07
1.10187e-07
9.49671e-08
6.25819e-08
4.59747e-08
3.18592e-08
1.14716e-08
7.32546e-08
6.64473e-08
6.0967e-08
5.25016e-08
4.80557e-08
3.58088e-08
1.60298e-08
3.90433e-07
3.40898e-07
4.21336e-07
2.6981e-07
6.93109e-08
3.49738e-08
1.32671e-08
9.17319e-06
8.07538e-06
7.22137e-06
4.84977e-06
3.38254e-06
2.06946e-06
5.73851e-07
1.43094e-05
1.15715e-05
1.02151e-05
8.67188e-06
7.33085e-06
6.61026e-06
4.78001e-06
1.36062e-05
1.21949e-05
1.09412e-05
9.98429e-06
8.17739e-06
6.47843e-06
3.60549e-06
1.08781e-06
8.82973e-07
8.27347e-07
7.45778e-07
5.76937e-07
3.9062e-07
1.35516e-07
1.46225e-07
1.28715e-07
1.44487e-07
1.05572e-07
6.98723e-08
4.2034e-08
2.24837e-08
3.33133e-08
5.15971e-08
6.11164e-08
5.70376e-08
5.19874e-08
3.71884e-08
2.16096e-08
1.10543e-07
1.92916e-07
2.74604e-07
2.43573e-07
1.73776e-07
9.64519e-08
6.1173e-08
8.88506e-06
8.30832e-06
7.08253e-06
6.59657e-06
5.31257e-06
3.80098e-06
2.49796e-06
1.79905e-05
1.44852e-05
1.32745e-05
1.1749e-05
1.10034e-05
9.704e-06
8.71404e-06
1.21246e-05
1.16295e-05
1.07722e-05
1.03496e-05
9.55548e-06
9.05175e-06
7.34029e-06
5.39958e-07
4.01536e-07
3.58273e-07
3.03253e-07
2.08022e-07
4.26171e-07
2.23975e-07
1.68211e-07
1.33811e-07
1.19566e-07
9.53075e-08
7.92495e-08
6.21997e-08
3.38389e-08
2.85277e-08
3.09992e-08
3.00419e-08
2.91529e-08
2.75126e-08
2.33943e-08
1.93333e-08
1.01544e-07
1.04505e-07
1.08831e-07
1.06498e-07
9.77288e-08
7.47562e-08
7.02653e-08
8.76316e-06
8.66991e-06
8.1659e-06
7.50482e-06
6.80444e-06
5.57922e-06
5.09037e-06
1.92535e-05
1.66187e-05
1.56345e-05
1.45224e-05
1.34521e-05
1.29299e-05
1.18789e-05
8.6855e-06
8.6622e-06
8.44978e-06
8.25067e-06
7.78892e-06
7.62975e-06
7.18278e-06
3.43844e-07
3.07082e-07
2.84303e-07
2.26733e-07
2.4716e-07
2.47731e-07
2.20177e-07
8.77263e-08
8.16521e-08
8.65753e-08
8.53812e-08
7.72658e-08
6.9895e-08
5.22277e-08
2.6345e-10
7.63292e-10
8.94046e-10
9.38286e-10
8.82482e-10
8.48607e-10
7.8996e-10
9.73395e-11
1.52643e-10
2.08029e-10
2.1647e-10
2.15875e-10
2.06831e-10
2.32371e-09
7.05297e-09
5.92155e-09
4.96016e-09
4.38387e-09
2.66272e-09
2.24552e-09
2.8134e-07
6.31467e-08
6.81929e-08
8.59186e-08
1.45473e-07
1.96138e-07
3.61773e-07
8.19213e-07
2.33179e-09
1.82149e-09
1.31983e-09
1.12784e-09
1.01046e-09
9.17965e-10
5.45372e-09
1.378e-10
2.51451e-10
4.26167e-10
7.37205e-10
7.92594e-10
7.76477e-10
8.47481e-10
3.32633e-10
4.53111e-10
7.4814e-10
1.41924e-09
1.68104e-09
1.69345e-09
1.67524e-09
1.08436e-09
3.77042e-09
4.65507e-09
6.1074e-09
5.81815e-09
5.50259e-09
4.34385e-09
4.81216e-10
7.96519e-10
9.41021e-10
1.14255e-09
1.0846e-09
9.82993e-10
1.75462e-09
1.10535e-08
7.92512e-09
6.20544e-09
4.86899e-09
3.09347e-09
1.81702e-09
8.83813e-08
8.39318e-08
8.98023e-08
1.00668e-07
1.57449e-07
2.29412e-07
4.50697e-07
9.07587e-07
2.95652e-09
2.99523e-09
3.14173e-09
2.89364e-09
2.45813e-09
2.08683e-09
7.84251e-08
1.50154e-09
2.33008e-09
4.79754e-09
6.61825e-09
7.0031e-09
6.72422e-09
7.21912e-09
1.95106e-09
2.70633e-09
7.3822e-09
9.3501e-09
9.48098e-09
9.07048e-09
8.81595e-09
3.20674e-09
1.10303e-08
1.65207e-08
1.55824e-08
1.44571e-08
1.33617e-08
1.0811e-08
3.40293e-09
3.85732e-09
4.62074e-09
4.49692e-09
4.03519e-09
3.77422e-09
6.22968e-09
9.8432e-09
7.24084e-09
5.62921e-09
4.45609e-09
3.36558e-09
9.33474e-08
6.87012e-07
1.39316e-07
1.67893e-07
2.14375e-07
2.44783e-07
3.8263e-07
7.07794e-07
1.31987e-06
1.11533e-08
1.42224e-08
1.13906e-08
7.56946e-09
6.20961e-09
3.94098e-08
2.67524e-06
8.04528e-09
1.16155e-08
1.71621e-08
1.72872e-08
1.76939e-08
1.56798e-08
1.05583e-07
4.41471e-09
1.22062e-08
1.94837e-08
1.74003e-08
1.29081e-08
8.47925e-09
7.1753e-09
1.01239e-08
2.22235e-08
2.18972e-08
1.61671e-08
7.33667e-09
1.00556e-08
9.75313e-09
8.39807e-09
9.54036e-09
9.27657e-09
8.12902e-09
9.74829e-09
2.48281e-08
4.86591e-08
7.77561e-09
1.38128e-08
1.64217e-07
3.95995e-07
8.98449e-07
1.43055e-06
1.8566e-06
3.73537e-07
5.00251e-07
6.1997e-07
8.19712e-07
1.1215e-06
1.5301e-06
2.38053e-06
5.38569e-08
1.69287e-07
3.50921e-07
7.561e-07
1.39397e-06
2.35268e-06
3.35646e-06
1.56588e-08
2.90949e-08
3.06343e-08
2.77581e-08
3.84123e-08
6.05007e-08
8.0132e-08
1.32612e-08
2.54259e-08
2.93167e-08
2.33384e-08
2.02164e-08
1.90635e-08
2.35116e-08
1.34735e-08
2.89161e-08
2.86317e-08
2.67297e-08
2.965e-08
3.45175e-08
4.51188e-08
1.11743e-08
1.3596e-08
1.6161e-08
1.97952e-08
2.24619e-08
2.80437e-08
3.55761e-08
2.96606e-07
8.04343e-07
1.10042e-06
1.71431e-06
2.11933e-06
2.35705e-06
3.73726e-06
1.12299e-06
1.58316e-06
1.82095e-06
2.21077e-06
2.39676e-06
3.21016e-06
5.16933e-06
1.16355e-06
1.61649e-06
1.90144e-06
2.28681e-06
2.45306e-06
3.06805e-06
3.38969e-06
4.44925e-08
5.68328e-08
6.56056e-08
6.68024e-08
6.63139e-08
7.35876e-08
9.4036e-08
2.48573e-08
3.55282e-08
4.35682e-08
4.72016e-08
4.99602e-08
5.30117e-08
6.352e-08
1.6854e-08
3.7347e-08
4.42149e-08
4.73774e-08
5.19434e-08
5.51812e-08
6.25094e-08
2.41914e-08
2.69752e-08
2.75337e-08
2.8366e-08
3.04669e-08
3.226e-08
3.3485e-08
1.23045e-06
1.46939e-06
2.01746e-06
2.23539e-06
2.81375e-06
3.40831e-06
4.07038e-06
2.59678e-06
3.55925e-06
3.88086e-06
4.71031e-06
5.22498e-06
7.1814e-06
8.36675e-06
1.57844e-06
1.72871e-06
2.11226e-06
2.41173e-06
2.66994e-06
3.05749e-06
3.8963e-06
5.17468e-08
6.7218e-08
8.83391e-08
1.15894e-07
1.26911e-07
1.61468e-07
1.75957e-07
2.79582e-08
3.89091e-08
4.40948e-08
5.49386e-08
6.018e-08
6.34944e-08
7.19535e-08
1.73813e-08
3.89206e-08
4.84988e-08
5.32422e-08
5.71802e-08
6.56429e-08
6.9166e-08
2.62859e-08
2.79753e-08
2.99765e-08
3.09485e-08
3.46064e-08
3.59684e-08
3.64094e-08
1.65043e-06
1.76627e-06
2.15217e-06
2.32377e-06
2.66498e-06
2.94273e-06
3.06043e-06
4.8535e-06
5.18162e-06
5.93907e-06
6.34813e-06
7.20002e-06
8.27196e-06
9.54808e-06
1.33182e-06
1.38919e-06
1.6013e-06
1.94715e-06
2.42016e-06
2.58378e-06
2.70646e-06
3.38747e-08
3.77303e-08
6.34932e-08
9.15698e-08
1.0694e-07
1.23998e-07
1.61698e-07
2.30401e-08
2.05981e-08
2.73821e-08
4.57157e-08
5.35884e-08
5.84374e-08
6.41749e-08
1.96554e-12
3.31299e-12
5.72653e-12
1.18029e-11
2.57159e-11
2.934e-11
3.90387e-11
2.39821e-12
1.06774e-11
3.71574e-11
7.58548e-11
1.01202e-10
9.69591e-11
8.45626e-11
1.45209e-08
1.59963e-08
1.52985e-08
1.27741e-08
1.03778e-08
8.97608e-09
8.66767e-09
4.57679e-08
4.91701e-08
4.97128e-08
5.04649e-08
5.12464e-08
5.42963e-08
5.61307e-08
1.18545e-08
1.35406e-08
1.24922e-08
7.77614e-09
5.69233e-09
4.19825e-09
3.11962e-09
2.33982e-12
2.97043e-12
3.37064e-12
4.93716e-12
1.08582e-11
1.53451e-11
4.18197e-11
2.1429e-12
2.16852e-12
2.83396e-12
4.18892e-12
7.88284e-12
1.06989e-11
4.6837e-11
1.40514e-12
5.10311e-12
9.81625e-12
3.35886e-11
4.69788e-11
5.20257e-11
7.2691e-11
1.28183e-12
4.70188e-11
1.44184e-10
2.65772e-10
3.28606e-10
3.24084e-10
3.88932e-10
1.57008e-08
1.93959e-08
1.92017e-08
1.62546e-08
1.46596e-08
1.36661e-08
1.30858e-08
5.26087e-08
7.09368e-08
7.79229e-08
8.03235e-08
8.0585e-08
7.98285e-08
8.01309e-08
1.27663e-08
1.65947e-08
1.5656e-08
1.07846e-08
7.40829e-09
4.26365e-09
3.62967e-09
1.88687e-12
3.83625e-12
6.01985e-12
1.72082e-11
4.91417e-11
1.39623e-10
6.23693e-10
1.69944e-12
2.09299e-12
4.77082e-12
5.49707e-12
1.22125e-11
2.62075e-11
2.75394e-10
1.3384e-12
5.90162e-12
1.68216e-11
4.12906e-11
5.95603e-11
5.71984e-11
1.18984e-10
6.38369e-12
1.45816e-10
2.55562e-10
7.40223e-10
1.12909e-09
1.45822e-09
2.94698e-09
1.80889e-08
2.52448e-08
2.93809e-08
2.48786e-08
2.00944e-08
1.44152e-08
1.31709e-08
6.46975e-08
9.65578e-08
1.10686e-07
1.14096e-07
1.14618e-07
1.22023e-07
1.32957e-07
1.52227e-08
2.25156e-08
2.35024e-08
1.51552e-08
7.91362e-09
4.43236e-09
5.49572e-09
1.92864e-12
4.81523e-12
1.42557e-11
1.11233e-10
2.29868e-10
1.28775e-09
5.33125e-09
8.87996e-13
2.13423e-12
5.69e-12
5.87383e-12
2.13583e-11
6.62014e-11
1.08512e-09
2.36351e-12
8.48361e-12
2.43102e-11
4.35426e-11
6.57267e-11
5.57137e-11
1.35206e-10
1.89778e-11
2.67582e-10
1.00823e-09
2.91061e-09
3.17525e-09
5.10075e-09
8.50598e-09
2.01276e-08
2.90293e-08
3.89465e-08
3.1731e-08
2.22699e-08
1.48646e-08
1.17931e-08
8.03657e-08
1.38296e-07
1.45532e-07
1.46196e-07
1.79329e-07
2.37407e-07
3.03708e-07
1.71584e-08
2.52058e-08
2.46997e-08
1.74646e-08
8.65864e-09
5.38131e-09
1.5335e-08
2.5778e-12
1.021e-11
7.76755e-11
3.32003e-10
1.04916e-09
5.37495e-09
1.24796e-08
8.94762e-13
2.31891e-12
5.93702e-12
6.4936e-12
3.01167e-11
1.13091e-10
1.44151e-09
2.94469e-12
1.03632e-11
2.77848e-11
4.36855e-11
6.76607e-11
5.43234e-11
1.49587e-10
3.54868e-11
5.01452e-10
3.51062e-09
4.86425e-09
6.72696e-09
1.25733e-08
1.72574e-08
2.46618e-08
3.56812e-08
4.04649e-08
3.05269e-08
2.00387e-08
3.83025e-08
9.85167e-08
1.1764e-07
1.74673e-07
1.95346e-07
2.75854e-07
4.32261e-07
6.53844e-07
9.24752e-07
2.25214e-08
3.05439e-08
2.32242e-08
2.02791e-08
6.70788e-08
1.99188e-07
5.7069e-07
3.15621e-12
2.32725e-11
1.79742e-10
6.54483e-10
3.9462e-09
1.02518e-08
2.738e-08
9.2112e-13
2.36872e-12
6.27081e-12
7.34891e-12
3.80213e-11
1.27786e-10
1.97181e-09
3.49271e-12
1.30726e-11
3.01562e-11
4.19146e-11
6.79405e-11
5.24991e-11
1.55497e-10
5.31926e-11
1.30607e-09
6.04557e-09
1.16572e-08
1.68099e-08
2.21194e-08
2.56559e-08
3.40662e-08
4.04698e-08
4.24722e-08
3.11261e-08
5.99532e-08
2.50098e-07
6.5585e-07
1.25762e-07
2.05984e-07
2.99044e-07
5.32954e-07
9.55405e-07
1.64664e-06
2.23067e-06
2.89345e-08
3.25687e-08
2.22962e-08
3.79386e-08
2.0918e-07
8.6664e-07
1.19444e-06
3.58995e-12
4.08723e-11
4.31239e-10
7.54293e-10
5.68106e-09
1.5823e-08
3.63866e-08
9.11336e-13
2.40389e-12
6.45262e-12
8.44851e-12
4.54972e-11
1.47622e-10
2.52187e-09
3.65612e-12
1.47302e-11
3.28472e-11
3.87517e-11
6.94967e-11
4.9156e-11
1.47827e-10
6.28481e-11
1.53619e-09
8.32178e-09
1.30934e-08
1.75971e-08
1.91227e-08
2.34589e-08
3.80962e-08
6.25592e-08
8.22789e-08
2.89842e-07
6.06541e-07
1.04451e-06
1.36454e-06
2.1032e-07
5.87138e-07
1.24338e-06
2.09158e-06
3.03108e-06
3.68828e-06
4.17989e-06
3.69598e-08
4.92281e-08
9.9157e-08
3.36271e-07
6.74597e-07
1.04966e-06
1.19393e-06
3.75824e-12
4.95381e-11
4.54036e-10
6.83619e-10
5.48838e-09
1.06643e-08
2.95837e-08
6.77313e-13
2.33391e-12
6.63364e-12
8.80787e-12
4.90627e-11
1.55377e-10
2.68316e-09
8.18145e-13
1.86326e-11
5.76725e-11
3.48469e-11
7.79315e-11
1.33964e-11
1.33688e-10
1.56895e-11
1.50813e-10
2.71599e-09
3.12961e-09
4.35223e-09
9.18759e-10
7.35729e-10
7.24163e-08
6.24561e-08
6.49418e-08
1.51237e-07
4.88099e-07
7.04373e-07
4.40194e-07
3.78948e-07
9.13983e-07
1.35536e-06
1.66625e-06
2.0746e-06
2.18778e-06
2.27769e-06
3.60528e-08
3.12839e-08
6.79819e-08
2.86446e-07
5.09465e-07
5.95555e-07
4.0498e-07
4.0501e-12
8.37933e-11
1.68258e-10
6.85375e-11
1.34635e-10
9.76546e-10
7.8551e-09
1.77975e-13
2.16866e-12
6.70304e-12
8.91232e-12
2.3407e-11
1.61829e-10
4.97628e-10
1.13255e-12
2.16753e-11
8.2988e-11
6.67781e-12
7.66488e-11
1.35751e-11
8.47201e-13
2.89159e-11
2.43338e-10
7.92903e-10
4.84974e-11
6.54504e-10
1.1645e-10
1.08171e-11
5.96161e-08
5.36959e-08
5.05319e-08
8.0571e-08
1.97729e-07
3.15988e-07
2.86672e-07
3.47661e-07
7.36403e-07
1.14522e-06
1.13706e-06
1.43509e-06
1.58138e-06
1.39182e-06
2.65797e-08
2.49902e-08
4.27693e-08