/*--------------------------------*- C++ -*----------------------------------*\
  =========                 |
  \\      /  F ield         | OpenFOAM: The Open Source CFD Toolbox
   \\    /   O peration     | Website:  https://openfoam.org
    \\  /    A nd           | Version:  6
     \\/     M anipulation  |
\*---------------------------------------------------------------------------*/
FoamFile
{
    version     2.0;
    format      ascii;
    class       volScalarField;
    location    "0.0125";
    object      p;
}
// * * * * * * * * * * * * * * * * * * * * * * * * * * * * * * * * * * * * * //

dimensions      [1 -1 -2 0 0 0 0];

internalField   nonuniform List<scalar> 
3773
(
42497
42496.8
42496.6
42496.5
42496.5
42496.5
42496.7
102417
102417
102417
102417
102417
102417
102417
138244
138245
138245
138245
138245
138245
138245
150157
150157
150157
150157
150157
150157
150158
138244
138244
138245
138245
138245
138245
138245
102417
102417
102417
102418
102418
102417
102417
42496.8
42496.7
42496.5
42496.4
42496.4
42496.6
42496.7
42496.3
42496.1
42495.9
42495.8
42495.8
42495.9
42496
102417
102417
102417
102417
102417
102417
102416
138245
138245
138245
138245
138245
138245
138245
150158
150157
150157
150157
150158
150158
150158
138245
138245
138245
138245
138245
138245
138245
102417
102417
102417
102417
102417
102417
102417
42496.1
42496
42495.8
42495.7
42495.8
42495.9
42496
42495.8
42495.6
42495.4
42495.2
42495.2
42495.3
42495.5
102416
102416
102416
102416
102416
102416
102416
138245
138245
138245
138245
138245
138245
138245
150158
150158
150158
150158
150158
150158
150159
138245
138245
138245
138245
138245
138245
138245
102417
102417
102417
102417
102417
102417
102417
42495.6
42495.5
42495.3
42495.2
42495.2
42495.4
42495.5
42495.6
42495.3
42495.1
42495
42495.1
42495.2
42495.4
102416
102416
102416
102416
102416
102416
102416
138245
138245
138246
138246
138246
138246
138246
150159
150159
150159
150159
150159
150159
150159
138245
138245
138246
138246
138246
138246
138246
102416
102417
102417
102417
102417
102416
102416
42495.6
42495.4
42495.1
42495.1
42495.1
42495.2
42495.4
42495.6
42495.3
42495.1
42495
42495
42495.2
42495.4
102416
102416
102416
102416
102416
102416
102416
138245
138246
138246
138246
138246
138246
138246
150160
150160
150160
150160
150160
150160
150160
138245
138246
138246
138246
138246
138246
138246
102416
102416
102416
102416
102416
102416
102416
42495.7
42495.4
42495.2
42495.1
42495.1
42495.3
42495.5
42495.6
42495.3
42495.1
42495
42495.1
42495.2
42495.5
102416
102416
102416
102416
102416
102416
102416
138246
138246
138246
138246
138246
138246
138246
150160
150160
150160
150161
150161
150161
150161
138246
138246
138246
138246
138246
138246
138246
102416
102416
102416
102416
102416
102416
102416
42495.8
42495.5
42495.2
42495.2
42495.2
42495.3
42495.6
42495.7
42495.3
42495.1
42495.1
42495.1
42495.3
42495.5
102416
102416
102416
102416
102416
102416
102416
138246
138246
138246
138246
138246
138246
138246
150161
150161
150161
150161
150161
150161
150161
138246
138246
138246
138246
138246
138246
138246
102416
102416
102416
102416
102416
102416
102416
42495.9
42495.6
42495.3
42495.2
42495.2
42495.4
42495.6
63312.7
63160.9
63342.4
63634.5
63787.3
63807.6
63773.1
150161
149728
149683
149877
150130
150304
150404
200381
200168
200022
199977
200008
200113
200229
216693
216583
216492
216436
216420
216455
216530
200012
199924
199856
199810
199816
199898
200030
149924
149877
149757
149598
149487
149520
149737
63720.9
63766.3
63640.7
63389.8
63115.7
63018.4
63157.7
62671.3
62589
62756.2
63096.6
63307.5
63384.2
63389.9
149148
148784
148763
149001
149306
149498
149639
199851
199635
199505
199509
199552
199639
199739
216435
216322
216233
216174
216153
216177
216243
199662
199528
199421
199356
199328
199385
199519
149322
149164
148989
148848
148754
148783
149024
63372.1
63347.2
63232.2
62988.6
62768.1
62747.5
62945.5
62247.7
62314.5
62405.1
62603
62745.7
62889.2
62919.6
148431
148305
148269
148405
148639
148825
148984
199374
199290
199223
199230
199247
199303
199416
216147
216084
216044
215995
215961
215959
216007
199316
199216
199123
199066
199026
199035
199112
148768
148574
148344
148215
148155
148218
148409
62929
62810.2
62663.9
62558
62519.1
62672.4
62873.5
62210.5
62097.9
62105.1
62180.7
62271.6
62427.7
62533.1
148193
148040
148021
148077
148185
148291
148384
199115
199065
199038
199051
199082
199118
199203
215942
215933
215925
215897
215887
215892
215900
199055
199018
198994
198955
198935
198986
198994
148316
148147
147978
147882
147848
147956
148138
62462.9
62344.8
62197.9
62122.8
62118.5
62246.1
62476.1
62512.7
62217.1
61998.6
61975
61995.3
62195.9
62384.7
148414
148114
148016
147970
147891
147807
147874
199160
199053
199028
199010
198998
198990
198997
215943
215925
215931
215933
215934
215949
215965
198943
198953
199005
199012
199011
199018
199033
147984
147888
147880
147900
147949
148057
148119
62141.2
62061.3
61933.6
61831
61823.1
61895.8
62038.7
62650.9
62505.2
62118.4
61964.4
61875.1
61992.7
62113.9
148619
148440
148194
148020
147879
147748
147806
199329
199178
199090
199038
199034
199025
199010
216046
216002
215983
215978
215978
215940
215941
198954
198983
199047
199077
199074
199044
199080
147768
147744
147835
147938
148077
148216
148264
61817.9
61755.5
61635.5
61602.3
61749.9
61873.8
61999.5
62595.1
62663.6
62202.3
61967.5
61938.7
61949.9
62004.2
148476
148404
148149
148055
148042
148037
148147
199114
199020
198970
198990
199084
199149
199193
215872
215822
215843
215793
215916
215948
215951
198918
198860
198907
198959
198956
198922
198984
147646
147575
147672
147855
148034
148063
148240
61611.5
61530.4
61466.1
61524.5
61824.9
62066.4
62251.6
62264.2
62678.3
62646.4
62365.4
62302.6
62271.7
62310.2
148015
148110
148252
148385
148490
148676
148788
198769
198780
198919
199179
199476
199713
199865
215494
215521
215607
215693
215753
215886
216010
198564
198587
198623
198545
198430
198584
198764
147555
147526
147492
147386
147389
147641
147810
61514.6
61438.3
61352.9
61376
61794.9
62282.5
62630.8
61587.2
61922.2
61826.7
61883.6
62136.1
62269.1
62326.1
147676
147700
147686
147861
148179
148591
148903
198526
198546
198666
198782
198894
199046
199364
215318
215342
215389
215412
215383
215410
215496
198462
198447
198353
198156
198023
198131
198209
147552
147425
147203
146860
146640
146939
147418
61409.3
61343.5
61197.7
61038
61103.1
61494
62069.4
61236.9
61545.8
61452.6
61580.5
62052.7
62209.7
62238.6
147307
147343
147422
147548
147927
148250
148622
198324
198347
198378
198356
198300
198333
198700
215301
215243
215162
215088
215016
215004
215115
198451
198292
198118
197949
197873
197983
198201
147442
147241
146961
146607
146454
146686
147433
61326.3
61264.4
61148.5
61049.4
61125.1
61494.6
62075.3
61132.2
61369.6
61296.5
61260.6
61700.2
61793.3
61861.9
146972
147095
147144
147267
147401
147546
147878
198197
198232
198213
198136
197996
197933
198143
215300
215214
215124
214981
214847
214783
214834
198389
198209
198108
198008
197952
198051
198317
147207
147034
146914
146803
146795
147060
147766
61201.6
61130.8
61150.6
61232.9
61483.9
61877
62286.6
61219.9
61484.5
61292.9
60889.5
61059
61248.9
61438.9
146810
146993
147037
147005
146762
146760
147072
198156
198202
198163
198064
197779
197544
197626
215305
215205
215095
214919
214681
214450
214464
198261
198109
198128
198114
197955
197885
198268
146892
146850
146990
147138
147215
147539
148472
61017.9
60996.3
61263.5
61762.9
61949.9
62165.8
62470
60903.7
62310
62159
60961.2
60792.1
60978.8
61206.2
146371
146932
147656
147111
146620
146470
146660
198111
198290
198330
198112
197756
197340
197293
215311
215189
215007
214769
214412
213978
213906
198108
198060
198113
198088
197738
197474
198069
146329
146521
147035
147414
147466
148094
149835
60561.8
61071.7
61812.8
62054
62010.2
62278.7
62986
60233.1
65724.1
65614
62163.1
61006
61025.9
61134.8
146099
148403
149981
147401
146305
146416
146614
198020
198437
198433
197667
197142
196927
196876
214829
214835
214625
214395
213929
213331
212789
197904
198137
198181
197944
197408
197033
197269
145683
147129
147958
147629
147160
147684
149716
60147.3
62565.9
62943.2
61978.9
61996.3
62432
63086.1
62898.9
64030.4
62909.8
62485.2
62356.2
62310.4
62312.3
148615
148593
148446
148293
148294
148333
148568
198852
198800
198813
198950
199180
199282
199454
215620
215543
215701
215748
215790
215803
215878
198792
198706
198765
198730
198656
198760
198997
147672
147562
147652
147844
147990
148184
148886
61647.3
61584.9
61543.2
61697.1
62206
62895.7
63285.7
62882.1
64183
62941.1
62518.2
62385.8
62342
62328.8
148624
148567
148487
148326
148347
148394
148613
198829
198754
198799
198951
199196
199320
199472
215583
215504
215643
215710
215739
215795
215863
198778
198673
198754
198697
198619
198736
198970
147674
147561
147649
147838
147959
148150
148918
61645.5
61581.5
61534.4
61707.1
62220.5
62984.3
63372
62829
64320.5
62968
62536.3
62420.9
62367.2
62336.6
148574
148513
148511
148353
148409
148459
148660
198827
198716
198792
198962
199220
199371
199492
215570
215480
215585
215682
215692
215788
215871
198761
198638
198738
198673
198580
198705
198947
147671
147558
147640
147815
147911
148071
148868
61642.1
61573
61522
61726.4
62233.8
63054.2
63441.9
62791.7
64490.8
63042.1
62572.1
62471.7
62388.7
62350.9
148480
148449
148554
148383
148465
148518
148713
198823
198691
198788
198977
199253
199421
199512
215568
215470
215547
215676
215665
215783
215892
198736
198608
198722
198655
198529
198658
198930
147664
147553
147628
147790
147847
147987
148738
61637.4
61564.7
61517
61737.2
62281.3
63145.8
63545.7
62792.9
64648.3
63188.1
62646.9
62539.2
62406.5
62372.2
148396
148425
148621
148406
148485
148557
148761
198815
198680
198787
198996
199289
199463
199538
215559
215466
215529
215676
215653
215782
215910
198711
198581
198711
198643
198475
198603
198909
147659
147546
147617
147769
147775
147919
148565
61629.9
61557.7
61516.2
61730.3
62375.4
63265.2
63679.1
62836.2
64649.1
63332.5
62713.4
62585.2
62419.7
62405.2
148340
148469
148675
148416
148479
148567
148783
198806
198682
198792
199018
199324
199499
199573
215545
215468
215529
215677
215652
215787
215923
198691
198563
198707
198630
198432
198554
198895
147657
147541
147607
147743
147727
147876
148376
61618.6
61552.1
61511.5
61709.1
62429.3
63317.4
63729.7
62862.8
64509.1
63306.4
62688.3
62555.3
62409.4
62426.6
148297
148494
148672
148419
148466
148566
148780
198798
198694
198802
199037
199357
199535
199617
215535
215474
215538
215675
215658
215793
215929
198674
198562
198701
198619
198419
198542
198897
147650
147541
147599
147705
147703
147853
148210
61606.2
61541.1
61492.8
61662
62361.1
63216.5
63597.3
68894.2
70584.9
67920.2
63564.9
61728.2
61388.8
61617.2
150872
155153
154587
149204
146612
146198
146398
197958
199290
199287
197605
196914
196554
196073
213591
214472
214555
214245
213986
213294
211112
198610
198666
198292
197916
197655
196972
195132
150411
150916
149473
148210
147623
146958
146622
66944.1
67571.4
65100.9
62451.2
61953.8
62111.1
61717.4
70867.3
70824
67128.7
63679.5
61938.1
61329.7
61227.9
152283
156800
155175
149530
146836
146140
146015
198048
199667
199606
197714
196877
196439
195960
213430
214500
214699
214307
213930
213249
211176
198845
198875
198342
197885
197657
196945
194944
151737
151999
150098
148084
147558
146853
145738
68494.5
67769.6
65002.1
62650.4
61967.3
61826.8
60989.5
70274
69975.1
66308
63629.4
62097.9
61310.5
60900.1
152185
156546
154865
149478
147077
146237
145736
198012
200068
199957
197912
196894
196382
195807
213525
214740
215008
214556
213990
213262
211519
198894
198991
198406
197941
197685
196946
195143
152346
152132
150043
148196
147541
146937
145396
68346.8
67356.4
64665.9
62710.9
61959.8
61562
60369.7
68843.8
68584.6
65807
63593.8
62126.1
61278.2
60825.4
151210
155456
153897
149342
147219
146323
145738
198074
200431
200265
198181
197057
196496
195711
213730
215084
215350
214883
214252
213475
211833
198861
199070
198517
198058
197784
197010
195422
152253
152076
149745
148285
147633
146987
145346
67619.4
66644.7
64253.2
62663.5
61941
61505.6
60152.2
68041.7
67845.3
65550.6
63506.6
62055.8
61244.4
60862.8
150884
154934
153434
149334
147252
146344
145930
198312
200760
200519
198455
197301
196684
195761
213981
215394
215619
215169
214598
213843
212199
198905
199197
198655
198195
197901
197136
195647
152361
151908
149524
148285
147782
147061
145337
67669.1
66258.3
64032.4
62662.4
62034.8
61592.4
60255.4
68194.8
67882.3
65534.2
63493.4
62017.9
61227.9
60960.8
151333
155177
153572
149381
147198
146321
145992
198610
201061
200752
198716
197530
196830
195867
214262
215578
215783
215357
214914
214182
212601
199019
199313
198795
198317
198021
197283
195821
152844
151915
149475
148262
147881
147142
145376
67925.9
66173.7
63951.2
62679.1
62126.1
61675.1
60366.9
69094.7
68339.7
65708.2
63580.6
62055.6
61308.4
61114
152185
155695
153992
149722
147294
146359
146008
198911
201292
200997
198973
197715
196922
195985
214486
215640
215901
215450
215130
214345
212912
199238
199452
198953
198409
198097
197371
195949
153294
152235
149585
148331
147950
147202
145392
68267.6
66280
63986.1
62730.6
62216.8
61730.6
60437.9
63254.5
63506.4
63374.1
63729.3
66042.2
71062.5
79298.7
146370
146511
146686
146645
146583
147610
151219
193877
193948
193787
192726
190773
188116
185458
205767
206445
206342
205134
202853
199806
196264
190866
191127
191468
191062
190071
188684
186993
143913
142373
142102
142808
144489
147879
152748
60376.8
59561.1
59884.3
62011.2
66146.5
73057
82663.8
61984.9
62228.2
62449.5
62856.5
64276.5
67878.4
75241.1
145828
145889
145925
145724
145513
146332
149042
194558
194173
193797
192810
190824
188161
185407
207817
207082
206429
205133
202939
199900
196364
192202
191644
191511
190996
190008
188670
186894
143286
142007
141393
141681
143064
145841
150115
59166.7
58202
58591.1
60415.2
63636
69239.3
78300.1
61078.1
61343.6
61715.5
62046.4
62635.3
64469.2
69297.2
145235
145087
144986
144751
144471
144599
145868
194712
194096
193623
192701
190775
188209
185358
209148
207751
206653
205254
203114
200203
196601
193082
192043
191368
190729
189964
188810
187000
143122
141828
140789
140658
141575
143415
146658
58363.9
57456.5
57748.9
59208.9
61355.3
65019.7
72148.2
60836.3
61034
61420
61799.9
62120.9
62901.6
65082.3
145058
144730
144461
144225
143872
143499
143497
194517
193726
193049
192200
190586
188209
185323
209841
208374
206997
205426
203246
200377
196722
193562
192305
191158
190271
189568
188733
187101
143308
141974
140715
140116
140503
141519
143444
58442.2
57725.5
57703.1
58641.2
60252.2
62196.5
66825
60837
60988.6
61325.1
61728.2
62073
62615.7
63583.9
145413
144974
144484
144053
143585
143120
142667
194426
193488
192531
191607
190180
187936
185328
210311
208911
207388
205635
203350
200082
196038
193771
192398
191018
189845
188857
187889
186518
143529
142266
140936
139995
139893
140323
141042
58817.5
58142.1
57854.4
58332.4
59451
60104.7
62229.5
60964.9
61043.3
61269.7
61684.2
62164.7
62830.2
63701.8
145653
145205
144621
144111
143575
142998
142282
194485
193491
192371
191218
189728
187286
184157
210730
209426
207853
205944
203398
199426
193997
193834
192467
191016
189584
188197
186664
184782
143606
142390
141071
140028
139609
139770
140118
59105.4
58445.5
58055.8
58219.8
58862.1
58731.2
58726.5
61117.5
61186.3
61368.4
61804.1
62381.7
63089.6
63965.9
145694
145240
144670
144221
143714
142995
141839
194601
193578
192414
191130
189449
186652
181904
211088
209885
208325
206327
203543
199122
191071
193883
192608
191104
189533
187857
185849
182354
143669
142483
141168
140173
139816
139978
140139
59288.2
58713.1
58320.3
58384.1
58675.9
58225.1
56723
87571.1
78146.4
69931.8
65281.5
63952.9
65069.6
67319.2
154732
150724
148061
147038
147163
148122
149194
187679
189146
190978
192883
194687
196123
196888
200071
202534
204903
207037
208803
210044
210872
192996
193778
194745
195745
196570
197265
198027
162750
159081
156188
154210
152958
152340
152177
88383.5
79961.4
74161.6
70507
68284.2
67738.6
68200.8
83609.3
73925.7
67089.1
63270.5
62158.7
63375.4
66464
152787
149111
146724
145681
145870
147114
148837
187402
189034
190795
192607
194403
195983
196949
200183
202638
204929
206990
208791
210327
211529
192890
193686
194463
195293
196217
197199
198163
160828
157847
155356
153228
151643
150807
150851
83569.6
77018.5
72885.3
69598.8
67040.2
66021.6
66701.2
77533.2
69336.1
64624.8
61679.7
60601.8
61609.6
64801.7
150492
147407
145607
144750
144900
146035
148022
187274
189071
190756
192385
194107
195801
196839
200296
202748
204893
206929
208823
210583
211955
192934
193644
194262
194938
195867
197187
198191
159087
157163
155120
152904
151033
150146
150576
78706.1
75205.6
72743.2
69536.9
66666.6
65172
65906.8
72962.5
67425.1
63963.9
61351.3
60081.3
60670.9
63590.1
148175
146324
145113
144398
144429
145379
147237
187239
189072
190812
192313
193854
195405
196490
200262
202685
204865
206983
208952
210747
212147
193159
193721
194221
194897
195752
196908
197795
158363
156962
154963
152986
151268
150475
150842
76255
74626.7
72896.7
70190.3
67613.4
66117.2
66081.3
71280.8
67410.7
64422
61994.9
60771.7
61290
63892.8
146617
145947
145042
144439
144432
145325
147138
187288
188862
190580
192138
193670
195100
196361
199463
202199
204851
207248
209271
210991
212355
192548
193349
194025
194832
195771
196751
197651
157713
156630
154873
153103
151606
150957
151265
75454.2
74202.5
72837
70984.7
68949
67621.5
67258.6
71043.5
67867
65159.6
62993.1
62161.6
62986.8
64955.9
146111
145818
145145
144671
144894
145991
147783
186171
188167
190124
191916
193536
195021
196426
197304
201386
204870
207574
209670
211298
212566
190612
192300
193708
194829
195835
196784
197677
156684
156004
154901
153401
152121
151640
151941
74804.7
73658
72735.1
71594.7
70107.3
68988.1
68431.5
68623.1
68293.7
66040.7
64131.4
63549.3
64499.9
66036
146378
146291
145663
145189
145573
146934
148797
183940
187539
189879
191794
193509
195114
196618
194494
200931
204975
207859
209991
211558
212735
188147
191578
193610
194908
195924
196927
197854
155549
155781
155184
153983
152844
152462
152713
74203.2
73433
72807.4
72044.4
70918.8
69906.3
69196.5
100868
103336
102993
101421
98753.1
95888
93014.6
171470
172076
171544
169281
165961
162232
158663
189953
189010
187704
186542
186093
186229
186772
202058
200383
198203
196565
196022
196594
198030
193638
192790
191839
191317
191347
191795
192355
174749
175111
174412
172961
171019
168833
166281
101783
103172
102264
102403
101361
98990.8
95218
98586.1
99434.4
99757.7
98799.5
96038.5
93717.5
90892.4
169878
168972
167888
165897
163021
159824
156651
188755
187527
186355
185479
185168
185476
186242
201432
199740
197456
195860
195567
196452
198062
192867
191912
191072
190790
190973
191498
192145
172903
172498
172148
170845
168890
166648
164014
98656.3
99564.1
99934.5
99825.4
98590.6
95727.8
90859.3
97315
96518
95680.7
94450.4
92269.7
90093.5
86427.6
169196
166457
163909
161566
159189
157086
154336
187171
185942
184840
184216
184123
184716
185795
200477
198640
196436
195071
194903
195946
197892
191766
190963
190261
190157
190621
191449
192273
171885
170553
169704
168382
166325
164057
161633
96333.3
96297.3
96729.5
96138.5
94303.9
90975.4
85358.9
94254.2
92513.6
90980.2
89553
87884
85516.2
80684.1
165992
162017
158728
156701
155260
154196
151587
184932
184034
183179
182921
183465
184650
185818
199334
197620
195490
193980
193695
195094
197665
190265
189704
189312
189523
190369
191454
192384
169861
167887
166517
165506
163645
161771
159887
94138.4
93331.6
92981.5
91944.7
89512.8
85963.1
80980.4
89328.5
87851.9
86313.6
84839.6
83202.5
80787.7
76716.1
160397
156519
154250
152694
151855
150861
148507
182043
181552
181123
181422
182790
184427
185836
198049
196435
194123
192227
191818
193810
196728
188031
187758
187767
188437
189625
190796
191684
166100
164169
162901
162159
160883
159921
158728
91239.9
90350.1
89354.6
87805.8
85146.8
82162.4
78597.2
83607.8
83307.5
82219.2
80855.3
78699.9
76800.3
75042.2
154383
152198
150913
149825
148746
147778
146709
178811
178381
178315
179315
181284
182992
184431
195747
194111
191537
189698
189580
190993
193513
184951
184794
185133
186134
187503
188464
189323
160946
159590
158904
158660
158120
158239
157247
87098.7
87111.8
86268.4
84832.5
82147.4
79833
77127.5
77423
78408.2
77660
76556.3
73859.3
72944
73402.6
148419
148013
146522
146378
145218
145167
145905
175079
174666
175050
176785
178301
178106
178672
192834
190857
187940
185767
184603
184161
186051
181189
180906
181595
182886
183465
182934
183192
154998
154354
153976
154495
154396
154865
154148
81700.6
82779.6
82425.1
81538.2
79016
77098.9
74872.4
57217.4
57020
57004
56808.8
57313.3
57481.8
57316.8
128266
127853
127277
127159
126652
126549
126996
161669
161236
160494
159348
156894
153235
149347
175758
174062
171416
168133
163970
158890
153105
166931
166476
165703
164255
161708
158270
154724
135506
135312
134976
134985
135381
135438
135342
62536.4
62372.2
62449.1
62190.1
62526.2
62399.4
62755.8
48992.4
48902.2
48977.4
49072.5
49092.6
49276.1
49287.7
113779
113948
114292
114188
114015
113684
113556
145515
145282
145124
145006
144700
144484
144313
156636
156143
155475
154869
154388
153993
153325
147784
147651
147471
147330
147146
146876
146524
117169
117175
117025
116876
116991
117192
117484
50993.7
50862.7
50871.9
50933.3
51166.3
51373
51585.4
44699.4
44785.1
44833.5
44725.6
44527.5
44377.3
44277.8
104156
104384
104399
104057
103834
103609
103425
134186
134238
134553
135030
135447
135834
136046
144164
144149
144266
144589
145063
145579
145629
133805
133968
134326
134663
134938
135137
135147
103031
103202
103214
102983
102767
102711
102717
44251.4
44312.4
44362.5
44309.2
44197.4
44123.4
44068.2
41266.8
41239.8
41195.2
41164.7
41125.4
41050.1
41000.4
94927.9
95077.9
95187.9
95143.1
95039.6
94956.2
94923.8
124906
124965
125161
125462
125730
125904
125949
134395
134467
134658
134909
135192
135492
135576
124199
124260
124443
124592
124657
124663
124608
93745.3
93802.7
93854.3
93830.9
93785.4
93735.1
93684.5
40661.9
40639.4
40628.8
40651.1
40653.7
40660.4
40660.4
39875.8
39880.2
39884.2
39886.4
39888
39899.1
39894.3
89963.7
89966.2
89953.4
89949.6
89977.7
90020.9
90034.3
117974
117910
117853
117878
117963
118008
117919
126954
126874
126801
126752
126750
126786
126709
117308
117272
117293
117310
117283
117258
117223
89122.2
89101.6
89105.7
89137.4
89147.4
89148.8
89149.6
39544.2
39559.8
39561.1
39556.9
39543.2
39533.8
39530.5
40459.7
40463.9
40471.9
40483
40497.2
40509.1
40517.7
88791.8
88799
88818.6
88862.4
88931.7
89009
89037.6
113294
113212
113175
113176
113192
113280
113200
120910
120721
120544
120389
120300
120297
120080
112759
112729
112750
112748
112748
112769
112774
88310.1
88326.4
88320.2
88289.7
88256
88238
88234.3
40208.3
40207.8
40203.6
40195.8
40187.5
40182.8
40181.2
48892
48889.8
48882.2
48867.4
48844.8
48822.1
48814.6
87664.2
87681.8
87715.6
87751.2
87777.7
87801.1
87814.4
107898
107857
107909
107960
107938
108014
107948
114273
114085
113951
113790
113654
113725
113447
107294
107278
107381
107437
107501
107557
107575
87120
87147.5
87189.5
87237.7
87269.5
87286.4
87296.5
48871.2
48860.2
48861.1
48878
48890.5
48896.3
48895.8
87713.1
93080.4
97261.8
100409
102479
104301
106330
155994
160326
164418
168193
171398
174480
176670
183666
182740
182581
183356
184943
186587
187552
193185
191297
190957
192161
194381
196790
198349
185675
184793
184267
184480
185380
186397
187340
157463
160829
163386
165378
166689
166541
166035
89674.5
94164
97301
98923.4
99647.5
99446
97006.3
83940.1
90223.6
94524.9
97855.5
100496
101798
102922
153155
157246
161361
165474
169040
171604
173404
183368
182184
181889
182617
184152
185679
186594
193142
190907
190200
191331
193783
196463
198134
185351
184263
183543
183594
184462
185593
186564
154936
158669
161501
163201
164151
164634
165136
85601.8
90490.5
94311.2
96819.2
97226.6
96532.3
95321.1
77780
85362.6
89914
93296.8
96264
97517
97768.4
148797
152266
156176
160441
164629
167384
168488
183019
181452
180750
181193
182572
184016
184884
193038
190248
189163
190164
192716
195725
197694
185109
183661
182594
182431
183221
184373
185298
151122
155561
159175
160471
161480
163207
165049
79837.2
84914
89431.6
92978.5
94101.5
94609.2
95087.7
70930.5
78464.2
84235.1
87831.9
90387
91701.4
91839.4
145150
147750
150992
154677
158941
161807
162886
182918
181008
179528
179227
180132
181490
182360
192793
189061
187504
188630
191450
194901
196987
184980
183415
182025
181280
181500
182321
183042
147095
151845
155943
157176
157859
160024
162777
74640.2
79956.3
84477.8
88255.7
90101.5
91663.8
93349.1
66990.2
72816.9
78391.2
82066.4
84580.9
86051.3
86845.3
142711
144321
147167
150216
153734
156112
157104
182705
180329
178191
176921
177130
178215
179004
191954
187688
185150
186190
189505
193546
196110
184742
182859
181091
179576
178917
179333
179886
143736
148145
152051
153480
153668
155180
157694
69965.8
75751.9
79669.3
83004.2
85484.8
87091.7
88929.2
66073.7
70634.6
73950.5
76610.7
79620.4
81869.9
84266.4
141271
142702
145279
147511
149493
150762
151952
181230
178883
176460
174464
173833
174334
174781
188481
184574
182517
183023
186241
190728
193622
182744
180732
178938
176901
175509
175309
175913
141692
144986
147552
148758
148811
149326
150656
65111.1
70678.6
74301.3
77716.5
80290.4
81931
82798.7
66038.4
69829
70046
71528.6
74595.6
77574
81538.8
139645
142115
143401
144233
144812
145644
147606
175151
174091
173734
172053
170453
170164
170399
179874
176672
176754
178415
181868
186704
190188
175994
174826
174681
173358
171436
170595
171231
140213
141515
141863
142483
142424
142982
142890
60928.8
64959.3
68605.5
72930.3
74737.8
76575.9
75984.5
56207.1
56112.8
56222.8
56261.4
55978.4
55686.4
55141.8
123250
124223
125104
125957
126458
127037
127317
142646
147264
151209
153875
155365
156354
157016
140903
147599
153283
158032
162104
165738
168254
140316
144482
148351
151062
152644
153523
154005
123299
122443
121229
120367
120096
120376
120765
56599.8
55060.6
53958.3
52718.8
52627.5
52372.6
52102.9
46803.7
46411.7
46195.4
46088.4
45996
45914.9
45772.5
106059
105784
105621
105467
105506
105487
105484
134231
134503
134652
134782
134921
135162
135404
140456
141308
141840
142552
143415
144353
145047
132433
132851
133159
133527
134013
134342
134596
104158
103967
103835
103906
104164
103819
103646
46329.7
45802.5
45268.3
44763
44341.6
44098
44195.4
40500.6
40372.8
40199.5
40021.1
39922.8
39832.9
39839.7
94358.8
94086.5
93638.6
93099.8
92683.9
92370.7
92195.7
124384
124078
123450
122767
122219
121919
121814
133563
133489
132845
132321
131971
131833
131857
124386
124337
124068
123844
123689
123251
123088
95036.1
95008.3
95190.5
95571.8
95975.7
95916.5
95606.8
41178.4
41216.9
41355.5
41522.6
41596.9
41606.8
41602.9
38027.9
38090.2
38151
38179.5
38192.5
38236.1
38237.1
87852.8
87723.3
87561.1
87433.2
87265.2
87183.7
87142.8
116369
116331
116133
115876
115651
115522
115482
125980
125986
125742
125501
125314
125205
125192
116718
116751
116675
116605
116488
116276
116180
88207.5
88318.1
88404.2
88523.5
88623.3
88567.7
88450.9
38736.2
38830.1
38849.5
38863.6
38898.6
38926.7
38928.7
37637.7
37590.9
37570.9
37552.9
37535.5
37521.6
37517.2
85890.8
85918
85942.4
85954.8
85964
85976.4
85984.5
112593
112787
112856
112915
112957
113011
113065
121171
121311
121290
121307
121399
121539
121712
112858
112860
112833
112875
112865
112835
112863
86314
86320.8
86335.1
86357.6
86348
86357.8
86351
38337.3
38277.5
38301.9
38297.2
38335.3
38319.6
38375.6
39405.4
39277.7
39179.1
39117.2
39078.4
39055.4
39045.1
87195
87209.1
87232.2
87247.5
87254.3
87258
87259.4
111047
111209
111217
111292
111337
111386
111435
117730
117985
117911
117964
118129
118343
118614
110957
110938
110921
110930
110901
110853
110935
87203.6
87209.3
87220.7
87277.4
87291
87300.6
87300.6
39652.7
39581.6
39611.4
39620.7
39647.5
39644.3
39710.5
49389.6
49422.3
49438.8
49442
49443.7
49444.3
49443.4
87181.8
87131.4
87078.4
87029.2
86985.8
86954.3
86937
107115
107129
107021
107001
106952
106923
106921
112758
113065
112899
113006
113144
113251
113484
106914
106885
106914
106872
106765
106622
106653
87046.5
87040.5
87057.2
87044
86988.6
86912
86888.5
49238.2
49268
49273.4
49268.6
49268.6
49271.8
49249.3
)
;

boundaryField
{
    fuel
    {
        type            zeroGradient;
    }
    primary_air
    {
        type            zeroGradient;
    }
    Secondary_air_RHS
    {
        type            zeroGradient;
    }
    Secondary_air_LHS
    {
        type            zeroGradient;
    }
    outlet
    {
        type            totalPressure;
        rho             rho;
        psi             none;
        gamma           1;
        p0              uniform 100000;
        value           nonuniform List<scalar> 
98
(
44748.8
75838.2
100000
100000
100000
75568.6
44835.7
44892.8
75923.5
100000
100000
100000
75654.8
44986.7
44854.3
75850.2
100000
100000
100000
75747.1
44784.3
44854.5
75751.8
100000
100000
100000
75681.1
45023.9
44836.1
75665.9
100000
100000
100000
75484.4
44807.7
44824.6
75618.2
100000
100000
100000
75307.2
45044.3
44842.9
75567.1
100000
100000
100000
75163.8
44854.3
45140.8
76371.6
100000
100000
100000
75649.8
44982.7
45117.8
76451.5
100000
100000
100000
75621.8
44947.1
45117.6
76599.4
100000
100000
100000
75754.5
44931.8
45113.9
76711.7
100000
100000
100000
76055.1
44940.2
45108.8
76601
100000
100000
100000
76126.5
44938.6
45109.1
76530.1
100000
100000
100000
76043.8
44935.8
45141.5
76541.6
100000
100000
100000
76059
44958.7
)
;
    }
    stove_body
    {
        type            zeroGradient;
    }
    frontAndBack
    {
        type            empty;
    }
}


// ************************************************************************* //
