/*--------------------------------*- C++ -*----------------------------------*\
  =========                 |
  \\      /  F ield         | OpenFOAM: The Open Source CFD Toolbox
   \\    /   O peration     | Website:  https://openfoam.org
    \\  /    A nd           | Version:  6
     \\/     M anipulation  |
\*---------------------------------------------------------------------------*/
FoamFile
{
    version     2.0;
    format      ascii;
    class       surfaceScalarField;
    location    "0.0125";
    object      phi;
}
// * * * * * * * * * * * * * * * * * * * * * * * * * * * * * * * * * * * * * //

dimensions      [1 0 -1 0 0 0 0];

internalField   nonuniform List<scalar> 
10143
(
-1.24054e-07
-4.39152e-05
4.73655e-05
-3.18675e-07
-4.31931e-05
4.66967e-05
-1.39228e-08
-4.35619e-05
4.6558e-05
1.75377e-07
-4.32609e-05
4.63897e-05
5.67471e-08
-4.30209e-05
4.64683e-05
2.50058e-08
-4.32273e-05
4.65518e-05
-4.36954e-05
4.70339e-05
-1.24111e-07
-2.02986e-05
-1.48127e-05
2.88381e-07
-2.01115e-05
-1.46992e-05
-4.61649e-07
-2.02239e-05
-1.36712e-05
-2.93473e-07
-2.00881e-05
-1.45078e-05
1.17068e-07
-1.98305e-05
-1.48041e-05
-4.08535e-07
-1.99038e-05
-1.39014e-05
-2.02003e-05
-1.52218e-05
1.6146e-07
-7.13143e-06
4.56614e-08
7.04429e-07
-7.14929e-06
-2.37163e-08
-2.83728e-08
-7.60704e-06
1.63491e-06
-5.06678e-07
-7.63152e-06
1.53715e-06
-2.37283e-07
-7.42973e-06
8.03261e-07
-5.54641e-07
-7.51784e-06
1.43335e-06
-6.93816e-06
-5.1902e-07
-1.76611e-07
7.07611e-06
1.97755e-06
-4.47528e-08
6.96504e-06
1.73868e-06
-1.75322e-07
7.42046e-06
1.05876e-06
-5.08452e-07
7.59359e-06
1.07846e-06
-5.00871e-07
7.30477e-06
1.23609e-06
-3.19042e-07
7.33162e-06
9.27458e-07
6.88936e-06
1.87803e-06
-5.88751e-09
2.03464e-05
7.42728e-08
3.43963e-07
2.02726e-05
-4.21964e-07
8.99675e-09
2.00328e-05
1.16348e-06
-3.99665e-07
1.98279e-05
1.66417e-06
-1.91377e-07
2.00159e-05
5.38007e-07
-4.59404e-07
2.0092e-05
9.38843e-07
2.02985e-05
-5.90206e-07
3.85764e-07
4.39299e-05
-1.5284e-05
4.9263e-07
4.35423e-05
-1.46569e-05
-4.63397e-08
4.35656e-05
-1.41616e-05
1.21076e-07
4.32651e-05
-1.48174e-05
8.07163e-07
4.32354e-05
-1.51414e-05
-1.47952e-07
4.35852e-05
-1.36164e-05
4.39108e-05
-1.50858e-05
7.59629e-08
4.71325e-05
-1.77494e-07
4.70373e-05
1.04391e-08
4.66177e-05
9.40741e-08
4.64758e-05
3.63274e-08
4.65898e-05
8.79539e-08
4.67698e-05
4.72899e-05
-2.00671e-07
-1.4509e-05
6.35147e-05
-3.79164e-07
-1.59585e-05
6.45444e-05
-7.27576e-08
-1.61211e-05
6.41753e-05
1.63558e-07
-1.59158e-05
6.38238e-05
1.2165e-08
-1.51341e-05
6.35292e-05
4.14063e-08
-1.53188e-05
6.35986e-05
-1.45273e-05
6.29895e-05
-6.62528e-07
4.28165e-07
-3.22826e-05
-2.46774e-07
-1.86066e-06
-3.21303e-05
-4.28301e-07
-1.73369e-06
-3.05166e-05
3.59145e-07
-2.0356e-06
-3.21844e-05
7.79271e-07
-5.13408e-07
-3.32932e-05
2.5078e-07
-3.03739e-07
-3.18233e-05
5.74773e-07
-3.33353e-05
3.37201e-07
4.30979e-08
-8.21343e-07
4.31366e-07
8.66489e-08
-3.04334e-06
6.69185e-09
-4.90509e-07
3.79027e-08
-1.98778e-08
-5.86315e-07
-6.70582e-07
2.37147e-07
-3.35515e-07
-4.91245e-07
-2.92585e-07
-1.00421e-07
9.44432e-07
3.11362e-07
-1.49099e-06
-4.92617e-08
-2.04478e-07
3.44035e-06
2.66572e-07
-3.67533e-07
2.94205e-06
-2.2949e-07
1.96374e-07
1.91055e-06
-8.98363e-07
3.54374e-07
1.86929e-06
-9.85975e-07
2.62695e-07
1.79371e-06
-6.02834e-07
6.44934e-08
1.41591e-06
-3.87185e-07
3.13186e-06
-1.39069e-07
-3.72172e-07
-5.55998e-07
-6.38065e-08
-4.66412e-07
-1.46827e-06
4.1411e-08
2.83118e-07
1.14964e-07
1.81827e-08
7.65976e-07
4.8956e-07
2.98121e-07
5.14598e-07
-8.76965e-07
-6.35189e-08
3.6075e-07
1.38281e-07
-5.00592e-07
-1.49052e-06
-3.35178e-08
1.47937e-05
-3.3615e-05
9.12911e-08
1.4335e-05
-3.27106e-05
-2.03624e-07
1.56686e-05
-3.26796e-05
5.77511e-07
1.52875e-05
-3.3619e-05
1.4297e-06
1.53626e-05
-3.4209e-05
4.482e-07
1.57317e-05
-3.13671e-05
1.47898e-05
-3.31461e-05
1.04255e-07
6.31307e-05
-2.30107e-07
6.32404e-05
1.09112e-07
6.35506e-05
3.55895e-08
6.35278e-05
4.61779e-08
6.36155e-05
1.74504e-07
6.40756e-05
6.35469e-05
-8.28294e-08
6.30733e-06
6.72027e-05
-2.11383e-07
5.60105e-06
7.00986e-05
1.23741e-07
5.65024e-06
6.94926e-05
4.31355e-07
5.8476e-06
6.87593e-05
1.442e-07
6.25055e-06
6.83429e-05
-1.68983e-07
6.10427e-06
6.83541e-05
6.1876e-06
6.62734e-05
-2.45143e-07
3.14927e-06
-3.05743e-05
1.21166e-07
2.53912e-06
-3.15302e-05
-1.85502e-07
2.67807e-06
-2.96244e-05
2.62105e-07
2.26347e-06
-3.10333e-05
4.45118e-07
1.78893e-06
-3.11077e-05
2.4914e-07
2.64034e-06
-3.02527e-05
3.22572e-06
-3.18203e-05
1.01447e-07
6.88172e-07
1.38718e-07
3.67452e-07
8.23562e-07
-2.85767e-06
1.46494e-07
8.71978e-07
7.82491e-07
1.77649e-07
4.20897e-07
-1.15641e-07
6.72519e-08
7.90751e-07
-6.1361e-07
-1.00683e-07
1.70373e-06
7.23579e-07
1.20907e-06
-9.81879e-07
-1.56192e-07
-1.02055e-06
6.22211e-06
1.60198e-07
-1.22649e-06
5.53152e-06
-3.33489e-07
-5.35742e-07
4.67482e-06
-9.23602e-07
-4.50987e-07
4.21664e-06
-9.26246e-07
-7.16418e-07
4.16738e-06
-4.24401e-07
-1.27817e-06
4.74006e-06
-1.23995e-06
6.07895e-06
-2.10791e-07
-3.25427e-06
4.54845e-07
-2.00652e-07
-2.51593e-06
-1.57926e-06
2.34345e-07
-3.10734e-06
8.34857e-07
-1.20349e-08
1.82697e-07
-8.36048e-07
6.39519e-08
-2.87984e-06
-1.53427e-07
1.9727e-07
-3.17711e-06
4.88177e-07
-3.37794e-06
-5.96271e-07
-9.48634e-08
-5.70834e-06
-3.27763e-05
3.34807e-07
-5.77166e-06
-3.18848e-05
-2.83514e-07
-5.73066e-06
-3.14768e-05
6.94928e-07
-5.40065e-06
-3.11379e-05
7.79255e-07
-5.83166e-06
-3.34677e-05
1.66829e-07
-5.71173e-06
-3.03228e-05
-5.76535e-06
-3.2315e-05
3.40615e-07
6.62925e-05
-1.50526e-07
6.81756e-05
6.80183e-08
6.79238e-05
-1.57395e-07
6.86179e-05
-1.01933e-07
6.83084e-05
-1.15884e-07
6.88089e-05
6.69156e-05
-1.0232e-07
1.35972e-05
6.31731e-05
4.76402e-08
1.3392e-05
6.56227e-05
3.81946e-07
1.36004e-05
6.46156e-05
6.37543e-07
1.34332e-05
6.40657e-05
4.21104e-07
1.38421e-05
6.37474e-05
1.88667e-07
1.36324e-05
6.41442e-05
1.36665e-05
6.22329e-05
7.97774e-07
1.80912e-06
-2.25774e-05
2.42872e-07
3.46282e-06
-2.51038e-05
-2.34156e-07
3.44607e-06
-2.30712e-05
-2.42974e-07
2.79862e-06
-2.42886e-05
6.25276e-08
1.94586e-06
-2.30141e-05
1.46821e-08
2.12207e-06
-2.21893e-05
2.53522e-06
-2.36862e-05
-1.8863e-08
3.31933e-07
6.60755e-07
2.67737e-07
4.02253e-07
-1.21069e-06
2.68704e-07
1.12072e-06
1.982e-06
2.2146e-07
7.73291e-07
8.79631e-07
-6.8214e-08
5.52036e-07
3.9704e-08
-3.11316e-08
1.18604e-06
5.73361e-07
7.50118e-07
-2.7344e-07
-1.94392e-07
-5.26473e-07
8.2009e-06
1.56321e-07
-5.58302e-07
6.9856e-06
-4.25668e-07
9.4223e-07
6.28755e-06
-9.24503e-07
5.831e-07
5.77829e-06
-7.83129e-07
-8.34149e-07
6.27898e-06
-3.38498e-07
-1.31478e-06
7.62324e-06
-7.89326e-07
8.20563e-06
-2.30219e-07
-1.51109e-06
7.15093e-07
-2.84418e-07
-1.98962e-06
-1.13241e-06
1.16291e-07
-1.66625e-06
2.071e-06
3.18062e-07
-1.32593e-06
-8.22443e-08
-1.57478e-07
-1.44898e-06
-3.45698e-08
3.57201e-07
-3.53245e-06
1.02864e-06
-2.10446e-06
5.57193e-08
2.55563e-07
-1.27962e-05
-2.46033e-05
2.97938e-07
-1.29871e-05
-2.42611e-05
-1.41736e-07
-1.32284e-05
-2.29188e-05
6.42457e-07
-1.39041e-05
-2.2505e-05
5.02504e-07
-1.3067e-05
-2.52304e-05
-2.18856e-07
-1.34711e-05
-2.33447e-05
-1.29394e-05
-2.45978e-05
1.44864e-07
6.29e-05
-1.47222e-07
6.49499e-05
-1.35617e-07
6.4028e-05
-2.9288e-07
6.4483e-05
-2.17768e-07
6.43805e-05
-2.04103e-07
6.46477e-05
6.34583e-05
-2.23522e-07
1.8816e-05
4.8192e-05
2.1287e-07
1.81693e-05
4.99328e-05
4.32517e-07
1.82103e-05
4.89341e-05
8.24112e-07
1.78699e-05
4.85299e-05
6.97769e-07
1.86565e-05
4.81477e-05
5.14557e-07
1.85018e-05
4.90232e-05
1.89235e-05
4.74788e-05
1.24195e-06
1.88292e-06
-1.11395e-05
1.71183e-07
2.82738e-06
-1.36594e-05
-1.67777e-07
2.46773e-06
-1.19077e-05
-3.19342e-07
1.56736e-06
-1.25689e-05
-2.34234e-07
2.82611e-06
-1.2051e-05
-2.92997e-07
2.73449e-06
-1.11203e-05
2.74582e-06
-1.2127e-05
1.63814e-07
-3.11079e-07
1.8716e-06
1.14386e-07
4.28438e-07
2.60289e-07
3.92675e-07
4.34898e-07
2.80104e-06
1.759e-07
4.7116e-07
1.32231e-06
-1.75935e-07
7.8501e-07
1.44134e-06
5.25337e-08
2.05674e-07
1.91058e-06
3.10327e-07
1.32433e-06
-3.47712e-07
-9.21337e-08
9.26635e-06
1.11158e-07
-5.57608e-07
8.36305e-06
-4.95779e-07
3.23794e-07
7.86413e-06
-7.98974e-07
-1.15579e-07
7.54684e-06
-5.00924e-07
-5.18316e-07
8.14227e-06
-3.51505e-07
-3.87504e-07
8.93562e-06
-2.24148e-07
9.33087e-06
-1.86773e-07
-1.47072e-06
1.49328e-06
-3.1038e-07
-2.61204e-06
7.13246e-08
1.29571e-08
-1.83912e-06
3.03969e-06
4.62698e-07
-4.03513e-06
2.31385e-06
-2.76597e-07
-1.03246e-06
3.95573e-07
3.44007e-07
-3.15154e-06
2.17468e-06
-1.97827e-06
1.31543e-06
5.7496e-07
-1.81974e-05
-1.25216e-05
1.16303e-07
-1.80671e-05
-1.30217e-05
2.40449e-07
-1.82103e-05
-1.12848e-05
3.33667e-07
-1.95205e-05
-1.21543e-05
2.46758e-07
-1.7823e-05
-1.28457e-05
-3.88218e-07
-1.84825e-05
-1.22571e-05
-1.83498e-05
-1.2768e-05
1.61055e-08
4.85786e-05
-3.23735e-07
5.06869e-05
-1.47091e-07
4.88861e-05
-4.9253e-07
4.86452e-05
-2.45992e-07
4.93148e-05
-1.75265e-07
4.94234e-05
4.8909e-05
-2.92165e-07
2.06281e-05
2.82621e-05
3.58584e-07
1.99957e-05
2.92692e-05
3.91451e-07
1.99007e-05
2.89992e-05
7.137e-07
1.92998e-05
2.8713e-05
5.57344e-07
1.99267e-05
2.81978e-05
6.51674e-07
2.0123e-05
2.87362e-05
2.07104e-05
2.78499e-05
1.23908e-06
3.51585e-06
-5.81968e-07
2.81176e-09
4.17334e-06
-2.3894e-06
8.06601e-08
3.48708e-06
-1.29014e-06
-4.30678e-07
3.65684e-06
-2.0845e-06
-6.27059e-07
4.0628e-06
-1.76474e-06
-4.88469e-07
3.97195e-06
-9.10757e-07
3.90664e-06
-1.12485e-06
4.37386e-07
-2.33946e-06
6.46409e-06
-1.10127e-07
-9.37211e-07
4.98681e-06
3.71018e-07
-1.66417e-06
6.61694e-06
1.81811e-07
-1.31017e-06
5.62516e-06
-2.32091e-07
-5.1393e-07
5.49893e-06
5.79502e-08
-1.44173e-06
6.1443e-06
-1.28127e-06
5.71651e-06
-5.54432e-07
1.70848e-06
6.71643e-06
7.54921e-08
4.76336e-07
7.20085e-06
-5.14658e-07
1.02981e-06
6.65692e-06
-7.70452e-07
6.95261e-07
6.6943e-06
-4.76916e-07
9.27892e-07
7.3083e-06
-4.69829e-07
1.68107e-06
6.67975e-06
1.41583e-06
7.12706e-06
6.12436e-08
-3.5533e-06
5.87173e-06
-3.64063e-07
-3.84081e-06
3.89329e-06
9.40311e-08
-3.86014e-06
6.57834e-06
1.64222e-07
-3.74934e-06
5.81173e-06
-1.95647e-07
-3.86737e-06
4.69681e-06
2.27015e-07
-3.60456e-06
6.16487e-06
-3.5105e-06
5.63371e-06
5.73383e-07
-2.03711e-05
-1.52416e-06
1.39329e-07
-1.99509e-05
-2.38486e-06
4.71817e-07
-1.98763e-05
-1.32818e-06
5.01021e-07
-1.99679e-05
-1.84759e-06
-9.93095e-08
-1.89664e-05
-2.96373e-06
-3.00913e-07
-2.01135e-05
-1.28356e-06
-2.04497e-05
-1.38728e-06
3.38664e-08
2.86742e-05
-3.75484e-07
3.1284e-05
-1.26067e-07
2.87111e-05
-3.8947e-07
2.88657e-05
-4.36461e-07
3.02143e-05
-1.51798e-07
2.90286e-05
2.88343e-05
-5.34556e-07
2.4149e-05
5.36635e-07
2.37392e-05
4.0917e-07
2.45273e-05
8.33799e-07
2.36333e-05
5.74592e-07
2.37169e-05
9.0703e-07
2.36881e-05
2.41393e-05
1.12625e-06
7.64778e-06
7.49423e-10
7.59572e-06
7.02459e-07
7.66947e-06
-1.05918e-07
7.67798e-06
-7.63278e-07
7.88566e-06
-2.16953e-07
7.4702e-06
8.03851e-06
8.51164e-07
1.22017e-06
-2.95291e-07
1.68818e-06
5.32737e-07
1.34953e-06
3.82702e-07
1.40764e-06
3.92537e-08
1.59633e-06
4.26067e-08
1.60372e-06
1.67827e-06
-5.46329e-07
-1.35725e-06
1.57636e-08
-1.50522e-06
-6.23595e-07
-1.15243e-06
-8.60664e-07
-1.47197e-06
-6.30646e-07
-1.13969e-06
-6.72857e-07
-1.51545e-06
-1.67595e-06
2.24927e-07
-7.74005e-06
-5.93987e-07
-8.46263e-06
2.2689e-07
-7.38219e-06
2.44172e-07
-7.77548e-06
2.11387e-07
-7.88521e-06
2.67783e-07
-7.37942e-06
-7.88431e-06
-1.89228e-08
-2.39943e-05
4.99675e-07
-2.73522e-05
6.10322e-07
-2.35627e-05
2.76747e-07
-2.41536e-05
-3.60479e-07
-2.60918e-05
-7.46647e-08
-2.37315e-05
-2.41265e-05
3.61602e-08
-6.78873e-07
-2.5449e-07
-2.98955e-07
-6.6547e-07
-6.54058e-08
-0.00396217
0.000648184
0.00331398
-0.00614857
0.00156931
0.000609026
-0.00492704
0.00261964
-0.00381774
-0.00284966
0.00308205
-0.00511504
-0.00149448
0.00333396
-0.0046381
-0.000261245
0.00306963
-0.00423953
0.0027071
-0.00289624
-0.0104954
0.00511359
0.00601972
-0.015097
0.00394702
0.00221495
-0.0142119
0.00394926
-0.00219728
-0.0109566
0.00499687
-0.00509405
-0.00736489
0.00657419
-0.00674725
-0.00347409
0.00667972
-0.00739646
0.00672419
-0.00737239
-0.00505258
0.00377845
0.00641796
-0.00839605
0.00346406
0.0038682
-0.0101012
0.0028617
0.00288843
-0.00936192
0.00240211
0.00202841
-0.00642295
0.00217436
0.001677
-0.00329721
0.00189275
0.00193411
0.00230455
0.00145603
0.00011
-0.0024372
0.00615683
0.000112344
-0.0017416
0.00522392
-0.00034488
-0.00169972
0.0050568
-0.000656724
-0.00231138
0.00507779
-0.000600461
-0.0028832
0.00510354
-0.000453583
-0.00339875
0.0052674
-0.00425362
0.00630685
-3.24492e-05
-0.00567195
0.00347933
0.00188566
-0.00530021
0.00179989
0.00409336
-0.005515
0.00175121
0.00541109
-0.00535936
0.00186567
0.00533597
-0.00477592
0.00209939
0.00396717
-0.00453053
0.00262997
-0.00475308
0.0046124
0.000116707
-0.00348816
-0.00210043
0.00453883
-0.00317574
-0.00638657
0.00816871
-0.00321216
-0.00578501
0.0106411
-0.00271021
-0.00498761
0.0108398
-0.00215497
-0.00272468
0.00744043
-0.00174747
0.000698375
-0.00139131
0.00414046
-0.000876298
-0.0025015
0.000503043
-0.00446929
0.00224355
-0.00489392
0.00421334
-0.0046436
0.00501487
-0.00293776
0.00326149
2.12492e-05
0.00189169
-0.0017092
0.000938558
0.00412926
-0.00148993
0.00173401
-0.00133097
0.000753016
0.0023519
-0.00835777
0.00156526
0.00259079
-0.00846481
0.00140862
0.00269968
-0.00714042
0.000583583
0.00299846
-0.00638389
0.00246147
-0.00475316
-0.00495462
0.00351672
0.00845915
-0.00650795
0.0028586
0.00270171
-0.00428598
0.00282973
-0.00486026
-0.0034144
0.00295965
-0.00632947
-0.00254466
0.00390799
-0.00883942
-0.00179501
0.00430934
-0.00950256
0.00418621
-0.0109247
-0.00243436
0.00308764
0.00935649
-0.00498729
0.00239706
0.0069255
-0.00632924
0.00192865
0.00516574
-0.00649539
0.000996624
0.00422532
-0.00474615
0.000310784
0.00362916
-0.00254476
0.000240607
0.00394372
0.000312676
0.00294314
0.00114242
-0.00107711
0.00922196
0.000752878
-0.000188618
0.00817608
0.000379658
-4.95163e-05
0.00733204
-0.000256682
-0.000537732
0.00711183
-0.000613319
-0.00143312
0.00715051
-0.000737288
-0.00230134
0.00795605
-0.00321159
0.00918923
0.00152027
-0.00396151
0.00494104
0.00232212
-0.00286062
0.00372171
0.00302086
-0.00269407
0.0037265
0.00343222
-0.0028445
0.00376013
0.00350229
-0.00351202
0.00411884
0.0022062
-0.00390387
0.00558675
-0.00381767
0.00750476
0.00229781
-0.00297008
-0.00534822
0.003349
-0.00191533
-0.00834443
0.00408346
-0.00141476
-0.00777177
0.00427466
-0.00176683
-0.00621512
0.00462847
-0.00203414
-0.00449867
0.00330599
-0.00228738
0.000494033
-0.00209383
0.0057947
-0.00273741
-0.00271638
-0.00426304
-0.00481896
-0.00409912
-0.00644037
-0.00288083
-0.00761684
-0.000869222
-0.00695771
6.51539e-05
-0.00316409
-9.95477e-05
-0.000851975
0.000754224
0.00432405
0.00227128
0.00194244
-0.00626742
0.00316434
0.00136411
-0.0105806
0.00328698
0.000838076
-0.00938928
0.00203625
0.00232571
-0.00816401
0.000693195
0.00261984
-0.00763614
0.00172573
-0.0057892
-0.00192229
0.00244749
0.00882181
0.00133017
0.00206966
-0.000556286
0.0020095
0.00163343
-0.00578557
-0.000157103
0.00200526
-0.00537675
-0.000677884
0.00253012
-0.00860588
-0.000593029
0.00256017
-0.00960817
0.0022413
-0.0121054
-0.00115511
0.00293258
0.0102401
-0.00133376
0.0016502
0.00769783
-0.00263954
0.00178081
0.00640508
-0.0033497
0.00100076
0.00598451
-0.00258357
0.000297306
0.0051289
-0.00174028
-0.000320006
0.0059638
-0.000826657
0.0043446
0.00108741
-8.55819e-05
0.0113092
0.000786501
0.000131582
0.0100186
0.000793467
-6.10096e-05
0.00914067
0.000316521
-0.000466731
0.00890251
4.75844e-05
-0.00120927
0.00886669
-0.000124938
-0.00189254
0.00969853
-0.00256632
0.0108716
0.00180004
-0.00269324
0.00585566
0.00237027
-0.00185747
0.00516884
0.00255481
-0.00189042
0.0053597
0.00206017
-0.0021135
0.00585895
0.00173937
-0.00248877
0.00571356
0.00142636
-0.0024372
0.00651237
-0.00285096
0.00927507
0.0015827
-0.0023534
-0.00733437
0.00223769
-0.00206206
-0.00882353
0.0014028
-0.00113874
-0.00772012
-0.00180992
-0.000604927
-0.00457388
-0.00305765
-0.00179783
-0.00397319
-0.00136625
-0.00256637
-0.00101473
-0.0031651
0.00482788
-0.0028937
-0.00221052
-0.00517632
-0.00459664
-0.00600627
-0.00672529
-0.0056272
-0.00859117
-0.00494309
-0.00939125
-0.00252336
-0.00801971
-0.00556642
0.000433963
0.000499774
0.00346086
0.00348567
0.00146473
-0.010756
0.00391082
0.000491467
-0.0114722
0.00403202
0.000154791
-0.00964605
0.00296092
0.00142457
-0.00849298
0.00133124
0.00172354
-0.00776351
0.00137976
-0.00587925
0.00078698
0.00128333
0.00739257
0.00413668
0.00131726
-0.00371924
0.00334158
0.000546678
-0.00508986
0.00122257
0.00102907
-0.00421414
-0.000324667
0.00161696
-0.00731111
-0.000151816
0.00101783
-0.00901938
0.00148193
-0.0123971
-0.00114113
0.00198622
0.0109287
0.000186618
0.00101829
0.00691861
-0.000107524
0.0009749
0.00638411
-0.000498478
0.000706085
0.00672698
-0.000444255
0.000414019
0.00625825
-0.000983755
-0.0004106
0.00802475
-0.000874673
0.00571274
0.000192356
0.00102702
0.0122014
4.93138e-05
0.000625582
0.0106001
0.00043165
-6.41704e-05
0.00975471
0.000603929
-0.000165303
0.00947332
0.000794444
-0.000543516
0.00952743
0.000775423
-0.00100648
0.0102236
-0.00113607
0.0118359
0.00098296
-0.00194579
0.00801126
0.00108079
-0.00158066
0.0073343
0.00102491
-0.00139128
0.00671407
0.000500889
-0.000559497
0.006751
0.000374218
-0.000499392
0.00583159
0.000746272
-0.000933625
0.00615678
-0.00154357
0.0105798
-0.00017298
-0.00213001
-0.00709716
-0.000736343
-0.00221499
-0.00775379
-0.00243174
-0.00155516
-0.00598436
-0.00467032
0.000431964
-0.00345394
-0.00593635
-6.16186e-05
-0.00326712
-0.00406598
-0.00133159
-0.0025209
-0.00191387
0.00121297
-0.00207586
-0.00231561
-0.00417452
-0.00474458
-0.00550545
-0.00698181
-0.00487364
-0.00884423
-0.00439498
-0.00995229
-0.00286847
-0.0108692
-0.0102951
0.00203887
0.00153278
-0.00014123
0.00314974
0.00127159
-0.0131111
0.00448792
-0.000932735
-0.0118487
0.00464511
-0.000640167
-0.0091455
0.00330598
0.000853355
-0.00806398
0.00170074
0.00103786
-0.00733819
0.00108448
-0.00540956
0.00391503
0.00148665
0.00358575
0.00462328
0.000887113
-0.00411861
0.00270322
0.000299224
-0.00455729
0.000117492
0.000765886
-0.00313664
-0.00116585
0.00118092
-0.00625663
-0.000137277
0.000514405
-0.00934927
0.000840131
-0.0122208
0.000676515
0.000697642
0.011217
0.00142813
0.000306418
0.00680421
0.00127487
0.00048524
0.00636681
0.000904785
0.000615005
0.00724718
0.000464939
0.000625902
0.00725777
9.36769e-05
0.000231895
0.00889753
-0.000415704
0.0073097
-0.000136538
0.00061921
0.0124059
-0.000288446
0.000182459
0.0108511
0.000129863
-0.000465934
0.0101738
0.000646867
-0.000428675
0.00987476
0.00102008
-0.000300562
0.0099376
0.000898352
-4.37263e-05
0.0105094
-0.000130971
0.0123741
0.000131929
-0.00118575
0.00981439
-2.43054e-05
-0.000937425
0.00871779
-0.000483503
-0.000706097
0.00743802
-0.000819763
-0.000435616
0.00712895
-0.00104537
-0.000672221
0.00652296
-0.000499775
-0.00144665
0.00728008
-0.00139657
0.0116846
-0.000218307
-0.00195786
-0.00620512
-0.001726
-0.0012572
-0.00605823
-0.00355545
-0.000820253
-0.00416845
-0.00466064
0.000420959
-0.00336112
-0.0066341
0.00103827
-0.00317626
-0.00554829
0.000218608
-0.00521244
0.000241366
-0.00585582
-0.00152305
-0.00278032
-0.00300758
-0.00454121
-0.00441503
-0.00644498
-0.00441937
-0.00848597
-0.00309571
-0.0103085
-0.00175121
-0.012005
-0.0118032
0.00293609
0.00153298
-0.00460928
0.00300583
-1.30012e-05
-0.0131389
0.00414535
-0.00175014
-0.0112069
0.00485761
-0.001696
-0.0081245
0.00342371
0.000290374
-0.00695575
0.00179419
0.000517265
-0.00629683
0.00114096
-0.00483093
0.0055659
0.00173572
-0.00212379
0.00549023
0.00131096
-0.00537709
0.00155653
0.00106725
-0.00364039
-0.00160996
0.000855751
-0.00265309
-0.00197243
0.000167808
-0.00567936
-0.000521835
-0.000188057
-0.00988303
8.43757e-05
-0.0115673
0.00225594
-7.13124e-05
0.0109542
0.00328174
-0.000645289
0.00782864
0.00339797
4.59061e-05
0.00714533
0.00288317
0.000429255
0.00811345
0.00157255
0.000301669
0.0083671
0.000904891
0.000225308
0.00927346
-0.000286183
0.00887492
0.000330208
-0.000369806
0.0123356
-0.000176511
-0.000288419
0.0109849
2.85256e-05
-0.000801648
0.0107361
0.000716187
-0.000788931
0.0103215
0.000893214
-0.000232052
0.010201
0.00027602
0.000485135
0.0108282
0.000127584
0.0122291
0.000143538
0.000415958
0.00907708
-0.00105028
0.000268788
0.00952681
-0.00249856
-0.000548108
0.00866986
-0.0028565
-0.000942097
0.00770371
-0.00302688
-0.000826662
0.00733633
-0.0018731
-0.00113241
0.00792354
-0.000617707
0.0107727
0.000647518
-0.00121828
-0.00522066
-0.00059446
-0.000676778
-0.00394018
-0.00267752
-0.000348771
-0.00235649
-0.0040271
0.000290115
-0.00333712
-0.00542905
0.00234281
-0.00493093
-0.00371281
0.00222947
-0.0101182
0.00171153
-0.0117569
-0.00117017
-0.0028091
-0.00258113
-0.00378947
-0.00432099
-0.00505416
-0.00516436
-0.0073782
-0.00304221
-0.010079
-0.00116982
-0.0115957
-0.0112573
0.00105033
0.000685734
-0.00642523
0.00225011
-0.000987919
-0.0133716
0.00393734
-0.00178234
-0.0110129
0.00424672
-0.00171604
-0.00669288
0.00300836
-0.000207804
-0.00546063
0.00115422
0.000166264
-0.00456621
0.000363182
-0.00401371
-0.000291419
0.00182802
-0.00306272
0.00260767
0.00188695
-0.0111394
-0.00102404
0.00128724
-0.00315612
-0.00289814
0.000979248
-0.00349455
-0.00220979
-0.000593423
-0.00587565
-0.000387026
-0.00103037
-0.0103562
-0.000234118
-0.0111734
0.0024204
-0.00109331
0.01161
0.00367186
-0.00192145
0.0104639
0.00368474
-1.28685e-05
0.00841854
0.00249927
0.00167416
0.00861885
0.00104733
0.00127434
0.00793825
0.00049855
0.00167778
0.00714102
0.00174358
0.00746756
0.000579206
-0.00346136
0.0141681
0.000999053
-0.00307078
0.0117932
4.12046e-05
-0.00245541
0.0141281
-8.14248e-05
-0.00165515
0.0136692
-0.000891773
-0.000285863
0.0125352
-0.000606593
0.00137099
0.0108263
0.00132046
0.0120452
0.00353197
0.00239969
-0.000159569
-0.000838553
0.0014581
0.00947639
-0.00315322
-0.000195524
0.00871163
-0.00423592
-0.000933507
0.00808738
-0.0042634
-0.00112814
0.00832746
-0.00292069
-0.000374053
0.00849142
-0.000251554
0.00959403
0.00143388
-0.000214401
-0.00404257
0.000693928
-0.000171661
-0.00159662
-0.00219286
0.000540045
-0.000191827
-0.00587889
0.00168998
-0.00213132
-0.00594141
0.00310709
-0.00885928
-0.00256685
0.00276931
-0.0164082
0.00189374
-0.0161601
-0.00143315
-0.00156763
-0.0033578
-0.00200028
-0.0052609
-0.00255067
-0.00534887
-0.00552976
-0.00311526
-0.00908112
-0.000912359
-0.0109745
-0.0102191
0.00054714
0.000801754
-0.00653801
0.00517145
0.00101915
0.00377399
-0.0183456
0.0141253
0.00187178
0.00313666
-0.0139293
0.00997569
0.00198576
0.00118599
-0.00662601
0.00537491
0.00114179
0.00177476
-0.0044485
0.00355312
-9.46687e-09
0.0015266
-0.00347085
0.00310825
0.000751401
-0.00321772
0.00248431
-0.00101718
0.000796666
2.79867e-05
0.000981534
-0.00311534
-0.000673773
-0.00581778
0.0122621
-0.002155
3.53454e-05
-0.00204548
0.00427114
-0.00175478
0.000435222
-0.00336746
0.00373874
0.000580354
0.000461872
-0.00733027
0.00635179
0.000477733
0.000507923
-0.00921817
0.0103387
0.00044266
-0.0102305
0.010984
0.00143818
-0.000632438
0.0106404
-0.0108008
0.000485294
-0.000623556
0.0105686
-0.00989692
-0.000151164
-0.000316067
0.010053
-0.00915952
-0.0028778
0.0009449
0.0102433
-0.00808605
-0.00586475
0.00259213
0.00793515
-0.00707027
-0.00414516
0.00362911
0.000478214
-0.00528007
0.00373547
-0.0028772
-0.00455648
0.000751723
-0.00131095
0.0130172
-0.0133113
-9.67812e-05
-0.000857618
0.0138558
-0.0128764
-0.00110413
-0.000840646
0.0141948
-0.0127228
-0.00173562
-0.000177008
0.0138006
-0.0120802
-0.00219534
0.000682814
0.0144254
-0.0121708
-0.00195933
0.00101136
0.0137113
-0.011618
0.000507882
0.0129719
-0.0118592
1.21559e-05
-0.00241307
-0.000719657
0.00176738
0.00105077
-0.000511314
0.00720518
-0.00883343
-0.00159388
-0.000478663
0.0117293
-0.00945178
-0.00307837
-0.00140457
0.0113869
-0.00873309
-0.00406409
-0.000520956
0.0111883
-0.00923969
-0.00396548
-0.000615742
0.0101148
-0.00884053
-0.00288737
0.00733005
-0.00796867
-0.00371781
-0.000648827
-0.00100162
0.00282238
-0.00546174
-8.81766e-05
0.000149867
0.00110725
-0.00623524
0.000610495
0.000369955
-0.000631759
-0.00624393
-0.000487397
-0.00306104
0.00217872
-0.00494546
-0.00208409
-0.0108045
0.0111283
-0.00283216
-0.00337822
-0.0181917
0.01891
-0.0036164
-0.0202422
0.0183562
-0.0013241
0.000585552
5.11198e-05
-0.00189418
-0.000268415
0.000750353
-0.00121374
-0.00107501
0.0010322
-0.00125539
-0.00460038
0.00419313
-0.000244228
-0.0114264
0.00841982
0.000524762
-0.0140382
0.0100359
-0.0121559
0.00912264
0.00106133
-0.000640115
-0.00694532
0.000219471
5.90244e-05
-0.01753
7.43556e-05
0.000792989
-0.0146964
0.000312486
0.000109949
-0.00698093
-3.53075e-05
0.000178789
-0.00427805
-3.36027e-05
-0.000309504
-0.00316394
-0.000518612
-0.00272602
-0.00213583
0.00132115
0.000283795
-0.00375392
-0.00108141
-0.00305398
-0.00486117
-0.00028287
0.000266495
-0.000414646
0.000701545
-0.00837558
0.00378316
0.00109013
-0.0124455
0.0039401
0.00230568
-0.0120144
0.00281864
-0.0096921
0.00137237
-3.07191e-05
0.0105112
-6.12409e-05
-4.6905e-05
0.01081
-0.00244138
0.000805837
0.0112604
-0.00521493
0.00217597
0.0114843
-0.00452982
0.00154789
0.0068489
-0.00218704
0.00193609
-0.00142969
0.00295896
-0.00520852
0.000536929
-0.00072545
0.0129147
-0.000313187
-0.000414071
0.014775
-0.00102097
-0.000543992
0.0160766
-0.00117247
-0.000207531
0.0162321
-0.0021789
0.000379885
0.0164843
-0.00232132
0.000970231
0.0146041
0.00108261
0.0122981
-0.000528913
-0.00217413
0.00113978
0.000637039
-0.000909422
0.00615769
-0.000359893
-0.00119345
0.0132929
-0.00177995
-0.00086858
0.0134289
-0.00301128
0.000795211
0.0119112
-0.00289048
0.000974369
0.00991784
-0.00108341
0.00668258
-0.00427543
0.000457157
0.000484534
-0.00488901
0.000813454
-0.001081
-0.00497922
0.00117054
-0.00194805
-0.00515925
0.00077969
-0.00449462
-0.00488616
0.000271994
-0.0107626
-0.00275346
-0.00117463
-0.0181775
-0.000989644
-0.023022
-0.000427949
0.00139757
-0.0004209
0.000501242
0.000606502
-0.000922498
0.00242813
-0.00560471
0.00289932
-0.0115869
0.00111343
-0.01336
-0.0119699
0.000855813
-0.00119074
-0.00656362
0.000282606
0.000737893
-0.0176526
-0.00112062
5.59596e-06
-0.0132892
6.49162e-05
-0.000227445
-0.00794626
0.00123649
-0.000703003
-0.00473863
0.00179918
-0.00151465
-0.00219511
-0.000967144
5.65828e-05
-0.00355297
0.00142377
0.00127656
-0.00234326
-0.000243897
-0.00321858
0.00374282
0.000934692
-0.00660932
0.00966384
0.000827633
-0.0152872
0.0109671
0.000795776
-0.0152016
0.0087045
0.00146982
-0.0126964
0.00427918
-0.00621648
0.000597595
0.000796256
0.0104726
-0.00167581
0.000803447
0.0119078
-0.00282556
0.00126499
0.0120175
-0.00270825
0.000336169
0.0118381
-0.000794743
-0.00137665
0.00711611
-0.000552748
-0.00255514
0.00230885
0.00170694
-0.00315501
0.0010906
-0.000750041
0.0131287
-0.000920577
0.00172746
0.015571
-0.00117276
0.000836785
0.016566
-0.000273608
-0.00107031
0.0166155
-0.0010775
-0.000873586
0.0166631
-0.00352853
-0.000396976
0.0147854
-0.00087681
0.0113281
-0.0006553
-0.00212883
0.00308914
0.000935367
-0.000865437
0.00692728
0.00182873
5.2046e-05
0.0129779
-6.20283e-05
0.00100551
0.0131249
-0.00312372
0.00286632
0.0111835
-0.00386574
0.00245875
0.00782039
-0.000222561
0.00228024
-0.0036085
0.000631437
0.00128489
-0.00406698
0.000816604
-0.00238175
-0.00346159
0.000633329
-0.00325368
-0.00256512
-0.000179268
-0.00437613
-0.00160837
-0.00063817
-0.00835561
0.000129561
-0.00176042
-0.0158971
-0.00195218
-0.0211981
-0.000535191
0.00257464
-0.000112698
0.000895796
0.00218613
-0.00256815
0.00495901
-0.00851221
0.00501463
-0.0122276
0.00285669
-0.0128857
-0.011039
0.00105892
-0.00106962
-0.00656017
1.89304e-05
0.000880606
-0.0175441
-0.000830141
-0.000383989
-0.0120701
0.00258343
-0.00311556
-0.00823255
0.00386783
-0.00166894
-0.00432328
0.00248557
-0.000642159
-0.000114401
-0.000579171
0.0031706
-0.00247368
0.000392054
0.00229316
0.00324369
-0.00131038
-0.00670685
0.0126817
0.000947852
-0.017291
0.0135363
0.000218158
-0.0193732
0.0124498
-0.000382555
-0.015308
0.00870987
0.00154735
-0.0110565
0.00408842
-0.00209542
6.61668e-05
0.000453672
0.0103133
-0.00157847
0.000102375
0.0120062
-0.00116634
0.000207175
0.0123493
-0.000242783
-0.000931904
0.0120795
-0.000189177
-0.00279436
0.00958717
0.000908542
-0.00398923
0.00681875
0.000957701
0.0009922
0.00118009
-0.000423406
0.0126904
0.000116278
0.00144898
0.0151106
0.00014195
0.000859002
0.0158101
9.50023e-05
-0.000198656
0.0159053
-0.001259
-0.0008425
0.0160348
-0.00368346
-0.00172101
0.0149463
-0.00258717
0.0112913
0.00047348
-0.00113972
0.00338011
0.00106918
5.88108e-06
0.00772513
0.0019048
0.00149138
0.0113612
-0.000855848
0.00329015
0.0122809
-0.00512658
0.00461268
0.00991711
-0.00568782
0.00275053
0.00399239
-0.00114671
-0.00454639
-0.00140269
0.00020297
0.0014282
-0.00146381
0.000660381
-0.00294442
-0.000252708
-1.99223e-05
-0.00303385
0.00127553
-0.00015298
-0.00265036
0.00279682
-0.0004214
-0.00502235
0.00375131
-0.00133844
-0.0128624
-0.00213465
-0.0165001
-0.00010103
0.00297026
0.000296651
0.00121157
0.0044563
-0.00670903
0.00753957
-0.0117739
0.00742711
-0.0125481
0.0047898
-0.0115522
-0.00836536
0.00116132
-0.000971681
-0.00678896
-0.000946208
0.00105205
-0.0165421
-0.000769763
-0.00138915
-0.0108936
0.0029234
-0.00433426
-0.00759378
0.00353073
-0.0019109
-0.00301783
0.0010085
0.000472675
0.00195682
0.000182571
0.00402933
-0.00261682
-0.000857506
0.00487134
0.00704066
-0.00175555
-0.0133919
0.013365
-0.00210566
-0.0228248
0.0130299
-0.00144035
-0.0217954
0.0105629
-0.0021244
-0.0125405
0.00534267
0.000973154
-0.00627094
0.00266515
0.000834314
-0.000710872
-6.07353e-06
0.0101801
-0.000963377
-0.000628254
0.0111251
-0.000348669
-0.000342292
0.0100405
0.00183303
-0.000601379
0.00918017
0.00108391
-0.00150262
0.00984186
0.00198698
-0.00163487
0.00863555
0.00174145
0.00403178
0.000879015
2.8634e-06
0.0118299
0.000240867
0.000889078
0.0142422
0.000353409
0.000762747
0.0146442
0.000875703
0.00019664
0.0146357
-5.7836e-05
-0.000345594
0.0158893
-0.00247345
-0.000642713
0.0164376
-0.00158909
0.0122993
-0.000174559
-3.01329e-05
0.0037659
0.000831036
0.00078245