/*--------------------------------*- C++ -*----------------------------------*\
  =========                 |
  \\      /  F ield         | OpenFOAM: The Open Source CFD Toolbox
   \\    /   O peration     | Website:  https://openfoam.org
    \\  /    A nd           | Version:  6
     \\/     M anipulation  |
\*---------------------------------------------------------------------------*/
FoamFile
{
    version     2.0;
    format      ascii;
    class       volScalarField;
    location    "0.0125";
    object      T;
}
// * * * * * * * * * * * * * * * * * * * * * * * * * * * * * * * * * * * * * //

dimensions      [0 0 0 1 0 0 0];

internalField   nonuniform List<scalar> 
3773
(
290.977
290.846
290.937
290.875
290.82
290.907
290.993
291.172
291.021
291.378
291.13
290.939
291.257
291.227
306.849
308.427
308.424
308.385
308.359
308.392
306.852
311.488
311.741
311.778
311.757
311.756
311.817
311.512
306.885
307.062
308.427
308.388
308.396
308.356
306.902
291.345
291.627
291.503
291.073
291.095
291.566
291.363
291.034
291.054
290.998
290.88
290.875
290.998
291.04
286.239
285.647
285.753
285.643
285.473
285.782
286.457
271.039
275.934
276.253
275.594
274.838
275.535
271.77
314.077
312.636
312.864
313.074
312.998
312.422
314.199
325.431
325.716
326.002
326.042
326.031
325.816
325.899
314.483
314.535
313.066
313.069
313.2
312.923
314.559
271.698
272.482
275.734
274.589
275.319
276.088
271.834
286.712
286.378
286.325
285.913
285.902
286.223
286.796
268.586
264.821
264.456
264.524
264.804
265.973
269.455
261.141
267.678
267.439
266.129
263.855
264.532
261.312
314.344
312.64
313.394
314.644
313.978
311.86
313.947
326.809
326.047
326.618
327.232
327.233
325.919
326.661
314.225
312.922
312.721
313.889
314.165
312.692
313.981
261.843
264.365
265.023
263.015
265.241
265.586
261.81
271.003
267.916
267.667
267.592
266.297
267.214
271.291
239.018
236.382
235.308
235.44
235.997
236.998
239.464
256.425
264.645
264.513
263.44
259.701
260.052
256.323
314.068
312.588
312.535
313.219
313.623
311.451
313.742
326.897
326.458
326.67
327.164
326.875
326.199
326.746
314.083
311.319
314.071
315.544
313.934
311.62
313.767
256.97
260.41
260.66
258.901
261.274
261.157
256.827
240.844
238.138
237.796
236.956
236.7
238.071
241.055
222.908
223.128
222.63
222.204
221.648
221.831
222.966
254.849
262.03
261.707
261.424
258.612
258.675
254.673
314.203
312.082
311.875
312.7
311.932
310.537
313.994
326.986
326.403
326.697
326.713
326.425
326.147
326.95
314.121
311.206
312.984
313.77
313.478
311.415
314.071
255.27
259.276
259.13
258.467
259.956
259.561
255.132
223.53
222.538
222.402
221.127
222.214
222.578
223.611
218.728
219.441
218.802
219.046
218.342
218.034
218.654
257.23
262.476
262.281
263.254
262.021
261.831
256.68
315.244
311.879
312.29
311.629
311.222
311.027
314.678
327.324
326.571
326.454
326.591
326.174
326.885
327.285
314.903
312.108
311.844
312.02
311.932
312.509
314.855
257.32
261.644
261.966
262.298
263.925
261.186
257.078
218.863
218.121
218.423
217.159
219.062
218.436
218.849
213.531
212.803
212.909
214.179
213.79
213.553
213.545
256.196
257.763
255.275
257.058
257.247
257.533
256.086
312.638
312.796
311.169
311.853
310.775
312.278
311.214
333.677
334.996
334.782
334.747
335.321
333.577
335.397
312.579
317.57
312.46
311.159
319.002
312.833
311.396
256.514
246.562
257.365
256.422
249.741
257.26
256.282
213.733
212.693
213.675
212.819
213.086
213.661
213.641
338.96
342.541
343.303
344.049
344.113
344.094
343.861
333.195
336.421
336.984
337.884
338.896
339.248
340.751
324.982
327.328
328.212
329.343
330.058
329.722
330.03
314.401
320.726
323.107
323.914
323.464
321.491
316.598
321.706
326.221
328.059
328.823
328.7
328.132
327.028
335.168
335.477
335.326
334.492
333.739
333.617
331.941
340.844
344.451
345.207
345.11
343.624
342.388
337.494
337.532
340.844
344.758
345.294
344.863
344.793
344.813
330.445
331.566
332.229
335.347
337.433
337.609
341.081
323.747
325.704
326.287
326.982
327.822
327.353
327.208
313.943
319.616
323.906
327.968
324.097
320.6
315.652
321.939
323.799
325.297
326.962
327.216
326.45
325.929
335.735
335.356
334.577
333.298
331.58
329.714
329.583
343.759
346.038
347.054
346.677
343.62
339.44
335.57
333.275
339.018
346.121
346.025
345.196
344.822
344.988
326.322
326.382
330.336
331.018
333.24
331.714
339.927
321.457
321.767
323.823
324.027
323.593
322.351
322.622
312.889
317.933
324.348
331.359
325.421
319.14
314.189
320.6
321.169
323.496
325.524
325.668
323.163
322.578
337.449
335.858
334.272
331.841
331.623
328.782
328.999
343.988
346.6
347.702
347.183
344.875
342.589
339.012
331.025
343.946
346.445
345.823
345.518
345.159
345.065
324.273
327.18
329.063
328.855
330.607
329.523
339.709
315.806
317.985
320.759
322.322
321.074
315.078
316.181
310.725
317.629
326.366
335.479
327.691
318.656
311.973
317.579
317.515
322.339
324.42
323.008
317.553
319.52
337.256
334.43
333.792
330.253
329.627
328.592
328.424
344.119
346.413
348.082
347.151
345.97
346.348
347.022
326.167
343.883
346.27
345.311
345.563
345.693
346.047
317.696
322.034
327.6
328.053
329.455
329.292
340.127
309.515
310.224
316.627
319.718
319.137
310.485
312.999
308.871
317.714
327.69
336.584
328.6
318.973
310.123
310.094
312.376
319.781
322.031
319.992
312.128
310.562
333.948
328.778
331.307
329.717
327.213
324.363
324.063
344.003
345.3
347.391
347.095
345.617
346.14
346.493
337.985
346.065
347.43
345.681
346.184
346.416
346.706
317.254
322.485
327.457
326.982
329.503
333.166
340.798
303.905
304.994
312.763
317.941
317.921
307.904
305.969
308.616
318.362
330.459
336.566
331.267
319.846
309.624
304.519
307.568
318.161
319.191
312.515
306.826
306.431
331.707
324.21
328.561
330.431
332.517
336.605
337.016
344.102
343.875
345.74
347.078
346.337
346.662
346.554
342.492
347.779
352.117
349.474
348.802
347.804
347.132
334.77
340.153
332.191
328.036
331.766
338.42
342.194
305.281
308.474
314.631
317.907
317.911
307.54
303.048
307.958
316.821
330.035
334.648
330.926
319.285
310.477
301.977
303.442
317.874
317.921
311.389
306.693
305.952
330.681
322.079
323.523
330.283
340.324
345.063
346.327
344.502
343.289
343.43
347.382
350.721
351.817
348.962
340.856
352.161
359.363
355.542
352.853
349.665
349.232
341.079
345.889
346.868
344.449
345.658
347.273
348.8
309.581
311.641
319.433
319.931
317.499
313.198
320.959
315.544
317.617
331.981
335.147
330.384
320.266
313.113
343.904
308.362
317.752
320.488
318.989
320.354
323.107
343.368
338.82
339.656
345.739
349.176
350.975
353.433
346.836
348.676
348.936
351.255
353.347
353.583
354.827
339.639
349.557
355.091
354.874
352.512
349.709
349.075
337.735
339.469
340.184
344.826
346.609
347.465
348.344
317.332
318.123
321.532
322.102
325.571
343.294
348.838
323.8
323.233
333.973
335.178
331.191
326.884
325.812
345.951
329.355
319.13
323.179
322.278
323.737
327.308
343.818
342.027
342.153
344.533
345.897
348.596
354.306
346.03
347.539
347.913
350.721
352.446
352.221
353.633
340.071
349.309
353.275
353.999
352.974
351.344
349.306
339.109
340.689
339.85
345.908
347.148
347.384
348.148
323.312
323.18
324.97
326.672
333.765
345.493
349.045
329.202
329.262
335.784
335.896
333.319
331.947
334.423
346.567
336.934
322.946
324.906
325.495
327.58
328.281
345.701
343.98
342.943
341.962
341.39
345.386
353.058
346.141
348.491
350.388
352.544
352.531
352.412
353.564
341.743
348.687
353.338
352.857
353.014
352.396
349.661
336.576
339.893
345.908
348.128
347.693
347.864
348.319
324.464
326.169
327.647
329.626
335.343
343.661
348.744
332.332
332.577
337.654
337.47
335.841
335.384
336.796
347.643
340.672
327.306
327.118
329.031
329.905
331.872
346.798
343.417
339.473
337.169
338.612
344.003
352.552
346.345
348.493
352.612
353.436
354.129
354.289
353.995
343.581
347.909
352.356
352.464
352.858
353.081
349.78
332.03
344.702
347.353
349.258
347.702
347.92
348.666
325.315
330.061
330.801
333.212
337.656
344.379
348.628
335.778
337.432
342.133
341.696
339.162
338.35
339.164
347.556
343.075
335.182
330.358
331.417
333.578
341.819
347.714
343.828
340.427
337.041
339.66
347.473
353.401
346.481
347.786
351.876
352.712
354.153
355.089
354.835
346.297
347.587
351.198
353.883
353.019
351.878
349.196
332.473
347.631
351.428
353.926
348.36
347.724
349.435
327.398
331.958
333.054
334.198
337.149
342.214
347.594
336.34
338.977
342.585
341.738
340.521
339.908
341.246
345.792
342.501
335.42
332.119
333.59
336.066
347.865
346.456
345.745
346.333
347.789
349.209
352.408
357.34
345.758
351.863
351.287
353.954
355.94
356.68
356.969
342.173
347.234
352.565
354.467
352.732
352.337
352.016
342.302
347.745
353.859
355.673
349.66
346.845
349.631
333.378
345.628
351.52
351.804
348.619
344.459
345.899
337.068
342.386
344.377
343.91
343.793
342.06
340.817
348.78
350.87
348.185
346.002
342.501
343.839
349.855
352.269
352.959
354.863
355.104
355.937
356.939
358.983
347.583
347.771
353.452
358.711
359.405
358.98
358.457
340.963
351.333
357.216
353.094
350.718
349.253
348.391
338.716
344.071
335.118
332.511
334.973
341.719
345.307
305.103
308.274
316.291
317.87
318.177
307.229
301.199
308.25
315.448
330.243
334.428
331.256
318.618
310.284
335.176
303.825
318.195
318.189
311.896
306.967
305.775
342.368
323.353
322.178
335.181
347.307
350.166
351.311
345.316
343.002
342.63
350.193
353.868
354.181
353.721
341.084
351.499
357.482
353.558
351.395
349.449
348.692
340.497
344.946
336.517
335.725
337.916
343.103
346.297
304.948
308.014
316.354
317.918
318.336
307.195
300.879
308.298
315.477
330.397
334.495
331.299
318.811
310.35
340.877
304.255
318.127
318.13
311.936
307.017
305.733
343.239
327.598
324.6
338.771
347.831
350.458
352.273
346.261
345.342
345.106
350.675
353.916
354.291
354.148
340.909
351.912
357.82
354.035
351.757
349.502
348.757
341.011
345.078
337.19
337.25
339.08
343.75
346.876
304.74
308.101
316.657
317.929
318.349
307.111
300.619
308.407
315.534
330.408
334.611
331.288
318.873
310.517
342.557
304.659
318.063
317.982
312.311
307.445
305.852
343.671
329.154
325.785
339.941
348.011
350.482
352.617
346.465
345.993
345.609
350.936
353.969
354.517
354.255
340.771
352.166
358.031
354.208
351.908
349.511
348.738
339.844
344.922
337.539
338.357
341.351
344.594
346.833
304.844
308.051
316.713
317.962
318.381
306.864
300.441
308.698
315.58
330.471
334.716
331.259
318.868
310.611
343.381
304.982
318.042
317.919
312.807
308.188
306.171
343.662
329.931
327.023
341.031
347.916
350.262
352.811
346.5
346.061
345.662
351.016
353.999
354.564
354.635
340.665
352.544
358.69
354.681
352.352
349.52
348.758
338.333
344.904
340.421
339.774
342.662
345.505
346.989
304.802
308.067
316.704
318.109
318.42
306.691
300.365
309.199
315.729
330.621
334.789
331.195
318.857
310.702
343.793
304.974
318.038
317.87
313.208
309.159
306.821
343.647
330.667
327.035
342.194
347.895
350.165
352.934
346.545
346.187
345.824
351.14
354.402
354.602
354.783
340.68
352.62
359.107
355.319
352.812
349.64
348.866
337.537
345.517
343.618
341.727
344.172
346.421
347.566
304.712
308.13
316.696
318.166
318.404
306.445
300.357
309.564
315.894
330.792
334.831
331.149
318.851
310.715
343.971
304.874
318.06
317.838
313.304
309.573
306.923
343.66
332.527
327.548
343.829
347.943
350.123
352.997
346.491
347.211
347.387
351.491
354.568
354.544
355.123
340.843
352.596
359.3
355.538
352.985
349.73
349.149
338.983
345.9
345.163
342.62
345.037
347.149
348.703
304.67
308.148
316.715
318.309
318.439
306.184
300.394
309.782
316.357
330.944
334.843
331.281
319.089
310.812
343.961
304.611
318.082
317.88
313.309
309.689
307.363
343.816
335.541
331.466
344.772
348.625
350.623
353.445
347.143
348.336
348.629
351.611
354.555
354.122
355.08
336.616
355.992
340.102
334.25
326.161
323.253
321.26
345.736
353.524
360.75
350.266
348.443
348.141
345.439
334.713
353.297
355.688
354.021
352.494
352.252
347.379
337.712
342.695
345.123
344.848
344.01
343.346
340.851
357.323
356.163
356.033
355.462
347.083
345.047
348.77
346.523
348.767
359.23
358.358
354.188
352.532
351.832
332.661
348.21
343.639
337.901
332.824
335.737
332.098
361.462
346.666
344.274
337.991
335.033
332.994
331.596
351.642
359.996
353.498
350.092
347.873
347.42
346.591
340.081
354.674
355.31
354.255
353.061
352.425
348.855
338.659
342.929
345.565
345.24
344.216
343.449
340.995
357.235
356.766
355.778
353.799
348.851
346.763
347.782
354.721
359.986
357.699
351.57
350.541
349.522
348.693
351.559
347.83
339.78
335.508
334.625
335.535
336.126
362.628
349.225
351.261
347.069
344.699
343.815
345.095
356.624
360.819
355.422
352.549
351.168
350.101
349.317
343.709
354.73
355.331
354.006
353.376
351.8
350.939
339.59
343.523
346.09
345.751
344.389
343.718
341.335
357.756
356.559
353.557
351.634
350.399
348.224
347.748
364.264
361.274
353.466
351.401
350.77
349.797
348.54
363.856
347.055
344.509
342.338
340.803
341.828
342.128
358.96
352.046
353.885
351.329
350.662
351.585
351.943
359.283
359.907
356.513
355.183
354.254
352.937
352.955
346.672
355.159
355.797
354.83
353.285
351.988
351.38
340.699
344.479
346.77
346.343
344.773
344.047
342.009
358.616
355.512
353.026
351.368
350.789
349.05
347.672
365.377
359.975
353.697
352.964
352.981
352.094
349.567
353.97
347.784
346.76
345.457
345.735
350.42
350.665
354.025
352.97
354.616
353.551
353.039
353.473
353.651
360.48
360.819
357.394
355.93
355.012
354.342
354.619
353.224
356.01
357.033
356.012
354.6
351.984
350.891
340.699
345.384
347.532
346.95
345.639
344.979
342.055
355.575
354.455
353.596
353.114
350.66
350.04
347.182
363.616
357.638
355.764
356.906
357.815
357.718
353.777
351.088
350.221
351.313
351.861
354.675
356.396
356.114
353.86
354.838
356.392
355.42
353.749
353.048
353.066
361.229
361.322
358.945
357.966
355.696
355.986
357.114
355.736
357.065
358.064
357.035
355.668
352.858
351.418
341.165
346.446
348.119
347.817
346.465
345.61
342.939
353.146
354.57
354.679
353.714
351.559
351.273
349.119
360.057
357.487
356.609
357.462
359.492
359.838
358.447
351.852
351.492
353.26
353.91
356.207
357.59
357.271
354.343
357.851
357.312
353.514
351.767
351.735
352.646
360.759
361.161
360.274
358.278
357.002
357.124
357.024
355.41
359.094
359.363
358.155
356.748
354.389
352.516
344.064
348.91
349.517
349.761
348.2
347.538
344.489
353.944
355.478
355.166
354.292
352.69
351.646
349.791
358.328
357.848
357.25
356.913
357.474
357.796
357.306
354.375
355.139
354.772
353.705
353.969
354.063
353.31
320.83
321.701
322.397
324.725
326.992
331.725
343.387
344.117
343.463
343.202
342.723
343.198
344.917
348.502
346.238
350.22
358.968
358.225
357.607
357.404
357.79
341.708
346.788
356.07
357.463
357.404
356.962
355.49
348.722
348.282
356.638
358.446
358.223
358.205
359.232
348.517
347.795
346.071
343.638
342.302
344.964
350.459
321.954
314.414
310.643
311.681
316.657
332.15
339.959
332.337
332.151
332.779
333.505
336.641
340.235
345.131
345.891
345.044
345.033
344.197
344.504
345.944
347.872
346.925
347.459
354.703
357.902
357.085
356.802
356.766
341.703
343.252
347.706
351.136
352.975
352.768
352.354
348.135
348.119
349.201
354.348
357.994
357.863
358.548
348.584
348.399
347.03
345.062
344.585
345.216
347.793
329.132
324.561
323.472
324.634
329.031
335.216
337.865
346.208
346.874
346.067
345.669
344.872
344.41
344.75
349.19
348.905
349.212
349.127
349.231
349.44
349.941
348.961
347.768
348.361
355.011
356.407
356.061
355.889
341.785
342.209
342.748
344.528
345.992
347.171
347.605
347.725
347.489
347.19
347.955
350.019
354.68
356.872
346.795
345.892
345.127
344.274
344.209
344.347
345.197
337.251
335.989
336.975
341.346
345.233
344.899
342.797
353.432
354.078
353.988
353.85
353.661
353.158
344.496
353.589
353.822
354.528
354.861
354.961
355.411
355.86
350.941
350.434
348.888
349.443
353.881
355.988
355.922
342.222
342.289
342.234
342.028
342.195
342.631
343.483
347.402
347.183
346.658
346.582
346.417
347.826
352.114
346.668
345.322
343.764
342.964
342.854
343.08
343.004
348.439
348.227
350.319
354.673
356.739
353.796
345.985
353.601
353.628
353.895
354.054
354.115
354.421
351.628
354.72
355.007
355.214
355.315
355.204
355.077
355.496
350.974
350.806
350.293
349.468
349.796
351.022
352.508
342.149
342.102
341.682
341.512
341.13
340.29
339.735
346.987
346.691
346.176
345.878
345.168
345.289
345.726
349.618
348.514
347.167
347.088
348.461
348.954
347.071
354.332
354.041
353.53
354.957
356.17
356.326
346.686
353.237
353.472
353.662
353.975
354.462
354.78
352.97
356.82
355.834
355.264
355.181
354.977
354.464
354.386
351.033
350.51
350.25
349.433
349.326
348.76
349.322
341.885
341.66
340.897
340.294
339.066
338.151
336.175
347.472
346.493
345.988
345.321
345.027
344.198
344.09
356.268
355.483
354.301
353.393
354.528
356.27
356.979
356.573
355.856
354.936
354.327
354.478
353.391
349.208
352.92
353.138
353.333
353.781
354.317
354.993
354.436
356.867
356.594
356.186
356.097
355.734
355.164
353.175
349.339
348.363
348.023
347.308
346.927
345.96
342.597
343.039
342.239
341.675
340.393
339.297
336.633
333.576
349.183
347.79
347.321
346.194
345.345
343.762
342.194
356.703
356.117
355.347
354.573
354.611
354.995
355.059
352.767
351.503
351.104
351.357
351.752
351.178
350.429
346.462
338.487
330.635
322.875
322.301
323.828
329.278
347.208
345.491
342.4
341.627
342.234
343.095
344.496
358.513
358.452
358.637
359.554
360.486
360.374
355.473
356.724
357.067
357.113
357.099
356.049
353.058
343.543
359.748
359.264
358.438
358.333
358.33
358.56
359.138
356.552
353.681
350.472
348.621
346.931
346.647
346.43
353.955
345.013
337.26
332.874
330.425
331.294
332.63
348.163
345.405
339.57
336.52
335.547
338.449
343.064
348.14
347.062
345.176
344.495
344.592
345.681
346.681
357.565
357.703
357.898
358.299
358.783
359.325
358.29
356.847
357.218
357.365
356.864
355.552
352.315
343.854
360.242
360.039
360.349
360.377
360.634
361.565
361.833
358.76
356.327
355.534
355.075
353.89
353.127
353.952
353.349
347.615
347.099
349.076
348.916
347.31
349.866
346.449
349.995
352.619
350.753
350.919
351.431
355.048
356.035
354.528
353.319
353.015
353.053
353.384
353.572
358.16
358.33
358.639
358.692
358.808
356.988
348.492
355.629
355.426
355.382
355.139
353.311
349.143
342.816
362.857
363.489
363.73
363.91
363.662
363.163
357.354
362.356
363.21
365.151
365.556
365.15
364.857
364.281
352.884
360.466
366.157
366.866
366.711
367.298
363.694
350.063
362.642
362.301
359.438
355.378
354.612
356.872
361.287
360.683
360.32
359.265
358.839
358.315
357.541
359.268
359.059
357.943
354.406
351.415
348.85
346.853
350.784
349.779
349.033
348.716
348.367
344.979
342.429
365.499
364.339
363.26
362.044
360.119
358.911
357.758
364.915
366.276
366.513
366.872
366.293
365.456
365.222
360.031
366.363
366.019
363.651
360.845
359.093
356.479
357.372
363.481
360.022
358.4
355.359
355.275
357.667
362.565
361.312
359.555
359.05
358.888
359.144
359.175
356.224
353.608
352.363
351.367
351.054
350.978
351.863
346.171
345.298
344.975
344.848
343.79
342.403
341.797
360.358
359.263
358.475
357.934
357.517
357.462
357.312
364.477
363.493
363.238
363.38
363.649
364.455
364.643
363.277
364.484
361.653
358.364
355.721
353.737
353.015
358.954
363.12
358.986
354.812
352.845
352.766
353.065
360.01
359.56
358.628
358.23
358.208
358.958
359.265
352.78
351.821
352.028
352.396
352.607
353.172
353.439
339.75
339.831
340.766
341.077
341.214
341.232
341.297
355.454
354.515
354.271
354.032
353.899
353.976
353.94
362.692
361.214
360.234
359.565
359.269
359.661
360.146
364.588
363.365
360.926
357.922
355.562
353.583
353.169
357.465
359.687
355.553
353.013
351.718
352.054
353.343
356.629
356.815
356.119
355.918
356.222
357.157
357.761
348.251
350.821
351.492
352.246
352.928
353.334
354.227
334.63
337.838
339.231
339.914
341.196
341.786
342.891
351.176
352.374
352.481
352.297
352.395
352.86
353.457
361.97
362.018
359.801
358.71
357.553
357.286
357.604
364.093
364.523
360.855
359.083
357.553
355.537
354.883
363.353
361.17
361.453
359.119
358.039
355.745
349.585
362.599
357.457
357.384
355.989
353.342
352.511
349.353
361.637
359.618
359.329
359.012
358.057
358.035
358.199
358.114
357.596
356.201
355.592
355.324
355.437
356.212
360.927
360.059
359.953
359.941
359.969
359.916
359.881
362.953
361.097
361.698
361.232
360.913
359.905
358.241
364.908
364.147
365.277
364.426
364.25
361.964
357.86
361.791
357.146
357.943
357.65
359.274
355.488
351.272
362.025
351.689
349.21
349.696
351.244
350.222
349.679
361.203
358.2
356.319
355.692
355.759
356.047
356.919
357.8
356.992
355.982
355.375
355.245
355.562
356.451
360.316
359.376
359.26
359.369
359.634
359.895
360.1
361.554
358.975
360.174
360.452
360.635
360.363
359.849
363.305
361.825
365.936
362.132
363.482
359.147
354.019
357.145
353.501
355.608
354.073
358.202
352.906
345.637
350.128
345.339
346.437
349.871
355.2
356.013
356.429
358.542
356.77
355.45
355.412
355.745
356.307
357.504
357.03
356.456
355.968
355.36
355.207
355.342
355.459
357.867
357.959
358.82
359.176
360.077
360.758
361.991
354.026
356.806
359.87
360.274
362.108
363.011
363.135
357.36
354.875
363.948
352.665
356.528
351.574
350.384
353.236
348.529
352.935
348.794
353.011
344.159
337.933
344.099
343.233
347.87
360.229
362.218
361.468
361.91
355.425
354.451
353.76
354.98
356.225
357.569
358.723
356.355
356.218
355.735
354.626
353.392
352.642
352.255
355.648
356.638
357.67
358.373
360.217
363.243
364.842
350.799
356.421
361.809
360.982
364.417
365.043
364.38
356.029
349.031
359.197
341.713
349.826
345.156
345.776
348.527
343.956
349.8
343.394
346.575
340.675
334.319
339.022
343.204
359.845
365.218
362.941
361.742
362.289
353.007
352.737
353.859
355.912
358.033
359.251
359.275
355.711
355.474
353.955
351.966
349.939
348.692
347.986
353.837
356.303
357.641
359.23
363.047
363.658
362.35
345.39
357.412
362.842
357.958
366.107
365.157
364.429
353.832
347.576
353.679
337.895
346.007
339.937
344.787
342.73
337.048
344.928
335.21
338.66
335.502
333.219
333.597
346.06
364.235
363.559
361.784
361.326
360.944
350.716
349.979
352.274
353.383
355.769
356.014
353.215
353.733
353.315
351.461
348.223
344.774
341.836
340.111
352.143
355.347
355.926
357.936
361.959
359.159
355.778
340.408
359.325
362.254
354.022
367.031
363.894
363.096
350.633
347.815
349.504
336.744
344.049
338.7
344.968
336.765
331.862
340.495
333.099
335.56
331.037
330.32
331.029
347.099
363.581
361.789
359.86
358.632
358.476
348.241
348.752
350.356
350.814
351.115
347.518
347.072
352.397
350.11
343.563
338.937
334.379
332.21
331.77
348.197
353.4
354.074
354.979
355.055
350.996
350.719
337.441
361.952
356.534
346.393
364.261
360.037
362.341
344.686
346.901
348.27
336.26
343.191
337.264
343.151
328.858
321.874
327.931
319.166
331.286
325.022
317.242
324.715
338.335
338.317
344.246
341.803
334.071
334.455
337.521
337.344
338.595
341.423
342.427
339.862
332.621
335.06
335.927
336.653
337.261
333.999
331.971
327.383
339.661
349.014
346.195
345.139
341.592
339.24
336.672
334.075
359.6
342.337
336.794
330.173
331.581
342.831
338.34
331.178
345.714
333.63
330.167
335.159
333.307
303.87
304.298
309.168
299.996
305.529
303.983
304.282
316.938
335.088
342.472
329.021
333.78
323.251
319.371
333.492
333.737
333.536
334.145
332.607
332.961
332.784
329.998
331.434
332.242
330.947
330.763
329.528
327.151
333.699
332.956
330.057
330.778
336.583
337.035
336.634
321.284
332.605
334.511
330.392
321.465
322.58
323.811
304.522
303.356
306.485
309.834
313.722
314.458
313.825
293.078
293.172
292.945
293.783
293.374
292.735
293.016
311.833
312.954
314.055
314.959
315.179
314.047
314.732
328.778
327.917
328.275
329.69
326.258
327.661
330.208
318.855
320.538
324.02
323.217
324.199
324.483
324.09
330.816
330.352
327.934
325.326
329.361
331.221
333.788
312.722
313.131
314.011
315.482
314.156
312.764
313.005
296.449
295.747
296.15
296.533
296.299
297.083
296.779
286.566
286.407
286.166
285.681
285.758
286.122
283.604
306.954
307.094
306.867
306.677
307.582
307.744
308.083
323.765
321.365
322.356
321.898
319.834
325.026
323.267
312.381
315.476
319.412
318.879
319.255
319.99
319.422
324.2
323.896
321.602
322.406
325.937
327.359
330.208
305.829
306.667
307.369
307.672
307.26
309.084
309.067
286.418
286.392
286.277
286.373
286.109
283.7
286.171
281.381
281.259
281.184
281.171
281.167
281.238
281.337
304.187
304.146
304.062
304.16
304.89
304.95
304.676
317.209
316.286
316.598
318.227
316.63
320.352
319.366
308.022
310.935
310.696
310.034
311.205
312.151
312.495
320.488
320.224
317.928
316.109
317.64
319.602
323.07
303.845
304.54
305.015
304.752
304.201
304.175
304.386
281.432
280.969
281.177
280.899
281.093
281.179
281.244
280.926
280.892
280.898
280.884
280.903
280.918
280.941
303.106
303.026
302.976
303.109
303.585
303.626
303.532
317.196
315.637
314.784
317.103
315.851
320.114
320.326
305.611
308.101
307.389
307.14
308.349
309.313
310.022
319.224
319.72
317.676
315.705
316.387
318.587
321.925
303.088
303.351
303.569
303.303
303.179
303.203
303.463
280.617
280.58
280.581
280.583
280.576
280.574
280.621
292.03
292.014
291.992
291.997
291.999
291.979
291.983
305.109
305.133
305.191
305.249
305.374
305.375
305.304
310.951
308.422
305.697
307.309
308.651
312.15
315.318
288.531
290.322
290.044
290.688
292.36
293.347
294.92
312.401
313.164
311.42
308.59
307.958
309.9
312.915
305.124
305.23
305.388
305.287
305.299
305.258
305.328
292.052
292.032
292.116
292.033
292.031
292.029
292.028
347.799
353.659
357.556
360.954
362.359
364.343
364.772
350.653
353.327
356.121
357.686
358.44
359.791
359.414
357.922
357.836
358.166
358.59
358.766
359.157
359.173
354.504
354.109
354.311
355.08
356.319
358.038
358.496
359.686
360.026
360.099
360.158
360.067
360.534
362.268
352.603
356.096
357.619
358.946
358.468
358.187
362.112
345.905
352.446
356.772
360.313
360.477
358.523
360.115
348.066
352.748
357.398
357.936
360.642
363.714
363.04
348.873
350.362
351.013
351.559
353.262
354.381
353.294
356.572
356.026
355.887
356.119
356.36
356.715
356.73
351.043
350.485
350.632
351.791
353.707
356.485
357.979
358.706
358.572
358.546
358.267
358.162
358.85
360.294
349.877
352.576
354.825
356.026
354.81
353.658
357.94
341.353
348.079
352.799
357.81
360.567
357.036
359.222
344.71
345.049
352.419
355.442
356.463
358.885
354.376
350.978
349.888
349.407
346.376
345.256
347.179
347.212
355.337
354.512
354.183
354.126
354.051
354.728
354.899
347.336
347.36
347.518
348.354
350.141
353.438
356.564
357.624
357.71
357.939
357.619
357.124
357.03
356.952
346.703
349.953
354.275
356.682
354.303
350.802
349.116
340.409
345.058
351.894
356.589
358.199
355.834
354.763
340.925
337.984
345.999
349.745
351.093
353.569
350.11
357.779
356.767
351.864
346.193
341.578
342.083
343.853
355.376
353.806
351.997
351.116
350.333
350.527
351.12
343.84
343.625
343.962
345.057
347.487
351.676
354.512
354.979
355.611
356.327
355.882
354.677
353.525
352.953
343.382
342.48
348.691
360.349
356.391
351.72
346.613
341.362
345.11
353.071
358.116
357.232
353.736
355.285
339.874
331.149
340.533
345.448
344.569
348.672
348.065
359.425
359.849
358.791
348.344
337.277
338.885
340.564
355.168
354.999
353.346
349.564
348.755
347.716
349.865
340.579
339.912
340.263
341.654
343.12
346.125
352.158
348.58
350.605
352.985
355.906
354.142
352.48
351.211
344.558
338.307
338.901
362.145
359.953
352.229
342.135
338.587
343.869
352.03
356.021
356.309
347.233
353.22
341.793
329.086
336.061
340.75
340.535
345.553
346.737
354.957
357.491
360.87
351.526
335.413
335.828
337.247
349.366
350.36
350.675
347.634
345.548
345.852
346.941
335.436
335.897
337.249
339.649
342.202
344.805
348.665
343.218
343.926
347.894
352.565
351.069
349.902
347.69
355.562
338.641
336.393
357.949
361.203
351.49
336.313
332.153
339.4
343.171
342.042
351.024
343.812
347.294
341.882
327.928
329.256
331.681
334.772
338.984
344.742
353.022
355.676
360.035
349.523
334.313
332.929
334.684
341.002
341.978
346.324
345.931
343.111
341.486
345.057
327.883
327.753
328.982
332.308
334.98
339.551
346.208
339.515
337.905
340.012
344.896
349.369
346.009
345.801
356.914
338.563
334.625
356.145
361.172
345.842
331.923
324.918
332.276
330.617
329.738
343.67
335.331
336.894
331.549
326.32
324.661
324.926
330.37
330.393
324.55
334.977
329.289
331.389
330.452
329.522
329.474
328.838
326.838
332.105
335.013
335.019
333.404
332.161
331.686
320.176
326.378
328.425
330.847
330.789
327.041
324.029
330.134
337.168
335.367
331.971
329.243
336.753
332.213
337.08
326.678
326.024
336.869
333.499
337.353
326.181
322.687
321.878
316.792
311.999
324.775
317.155
327.34
303.309
301.603
293.989
294.182
296.424
295.166
298.431
321.153
321.123
320.865
317.386
316.512
313.173
311.999
324.59
329.202
329.581
328.571
329
328.174
328.279
321.012
321.776
320.901
320.561
320.167
320.938
317.124
332.791
333.839
328.31
325.093
321.861
324.354
327.504
317.293
315.408
313.65
324.682
338.074
331.665
312.555
302.947
302.195
302.553
298.307
295.491
292.913
299.449
288.745
284.113
285.382
286.568
287.211
286.261
287
315.177
308.863
309.622
310.737
306.844
307.013
307.233
317.262
322.733
322.335
322.445
322.32
321.027
320.748
318.382
317.917
315.985
314.527
312.028
311.168
307.058
331.895
330.599
325.824
321.922
320.386
323.062
325.914
309.645
306.922
308.967
310.356
310.257
310.444
309.615
287.079
283.651
287.846
286.408
287
286.856
288.258
278.153
277.811
277.693
277.874
277.998
278.169
278.735
305.926
303.697
305.963
303.612
303.264
303.292
303.175
313.945
317.387
316.951
316.742
316.828
316.299
316.239
315.575
314.472
311.507
309.93
308.68
307.243
303.12
330.261
323.374
317.498
315.615
317.559
318.503
322.222
306.326
304.025
305.42
305.392
304.837
304.787
304.024
280.886
280.628
279.708
279.303
280.801
279.874
281.816
276.646
276.392
276.337
276.538
276.562
276.543
276.635
303.591
301.279
301.41
301.306
301.151
301.023
300.938
312.564
316.557
315.95
315.391
315.598
315.577
315.779
312.883
310.79
307.556
305.406
304.653
303.813
300.782
326.075
318.501
311.923
313.163
318.016
318.576
321.249
303.061
300.141
302.656
302.982
302.938
302.373
302.546
278.594
277.39
277.982
277.51
277.962
277.635
278.673
278.513
277.643
277.371
277.486
277.458
277.438
277.481
303.101
302.133
302.203
302.171
302.098
302.037
301.989
312.847
317.294
316.573
315.7
316.016
316.392
316.823
311.368
308.938
305.434
303.495
302.719
302.048
299.332
324.489
317.617
311.998
313.776
320.439
321.838
321.879
302.87
301.589
302.385
302.769
302.574
302.055