/*--------------------------------*- C++ -*----------------------------------*\
  =========                 |
  \\      /  F ield         | OpenFOAM: The Open Source CFD Toolbox
   \\    /   O peration     | Website:  https://openfoam.org
    \\  /    A nd           | Version:  6
     \\/     M anipulation  |
\*---------------------------------------------------------------------------*/
FoamFile
{
    version     2.0;
    format      ascii;
    class       volVectorField;
    location    "0.0125";
    object      U;
}
// * * * * * * * * * * * * * * * * * * * * * * * * * * * * * * * * * * * * * //

dimensions      [0 1 -1 0 0 0 0];

internalField   nonuniform List<vector> 
3773
(
(42.7464 -0.0158228 0.55897)
(42.6899 -0.0191433 0.554704)
(42.7534 -0.00967827 0.552963)
(42.74 0.00829523 0.550092)
(42.6999 0.00390657 0.551478)
(42.7124 0.00489628 0.562336)
(42.7136 0.0156765 0.569881)
(11.3326 0.0266506 -0.0866917)
(11.2705 -0.0409973 -0.0822386)
(11.3204 -0.0268005 -0.0686471)
(11.2946 0.00419742 -0.0717051)
(11.271 0.0125743 -0.0694205)
(11.2998 0.0254407 -0.0528417)
(11.3238 -0.0237073 -0.0534137)
(4.56522 0.030554 0.0363251)
(4.55974 -0.00281946 0.0400627)
(4.56475 -0.0188131 0.0498288)
(4.56524 0.00437945 0.0494824)
(4.56345 0.00677319 0.0491062)
(4.56113 -0.00010475 0.0569746)
(4.56335 -0.0163758 0.0475982)
(-1.74166e-05 0.00460994 0.052033)
(-7.02362e-06 0.00715412 0.0531903)
(2.96051e-06 0.00979445 0.0498121)
(8.17343e-06 -0.00906695 0.0483924)
(8.65306e-06 -0.0187835 0.0471923)
(2.59167e-06 -0.0171635 0.0427705)
(-4.3714e-06 -0.0134265 0.0461014)
(-4.56595 0.0249084 0.0392952)
(-4.55489 -0.00778674 0.0393476)
(-4.56499 -0.0193818 0.0451634)
(-4.56604 0.00484669 0.0475888)
(-4.56351 0.0062408 0.045579)
(-4.56217 -0.00082718 0.0518611)
(-4.56365 -0.0147415 0.043081)
(-11.3274 0.0298201 -0.0950574)
(-11.3099 -0.0348866 -0.0853398)
(-11.3156 -0.0173217 -0.0713194)
(-11.2826 0.013884 -0.074764)
(-11.2711 0.0258133 -0.0720993)
(-11.3173 0.0409712 -0.0529155)
(-11.3292 -0.0179497 -0.0542146)
(-42.6848 -0.00651189 0.55825)
(-42.5366 -0.00936629 0.554658)
(-42.6996 -0.00559414 0.557239)
(-42.7303 0.00689033 0.557332)
(-42.6749 0.00182329 0.553986)
(-42.6989 0.00787935 0.568529)
(-42.6826 0.0163363 0.578032)
(40.2557 -0.0236511 0.915997)
(39.861 -0.0175257 0.898518)
(39.9265 -0.010262 0.902475)
(39.8771 0.00427968 0.896725)
(39.8867 -0.00102972 0.897257)
(39.9407 0.00236947 0.895348)
(40.2255 0.022522 0.906793)
(9.08189 0.00647076 -0.278105)
(9.2055 -0.0523728 -0.267569)
(9.22118 -0.0342404 -0.251251)
(9.19601 0.0102847 -0.260577)
(9.16792 0.0312666 -0.270104)
(9.19386 0.0452525 -0.249642)
(9.1048 -0.00257873 -0.25278)
(3.90605 0.0403693 -0.0300813)
(3.89424 -0.00546498 -0.0310086)
(3.9066 -0.0266363 -0.00673347)
(3.90282 0.00770376 -0.0088874)
(3.89713 0.0217306 -0.0102893)
(3.90636 0.0124559 0.00560413)
(3.90501 -0.0213187 -0.0125244)
(-1.18536e-05 0.00838437 0.0208368)
(4.08809e-07 0.0119149 0.0198303)
(2.79726e-06 0.0132511 0.01396)
(6.82584e-06 -0.0124073 0.0130936)
(7.76512e-06 -0.0272581 0.0112819)
(3.42662e-06 -0.0231804 0.00461631)
(-2.33964e-06 -0.0165377 0.0121973)
(-3.91033 0.0324514 -0.0297174)
(-3.89434 -0.0163269 -0.0302132)
(-3.90184 -0.0278895 -0.0139106)
(-3.90213 0.00895145 -0.0103245)
(-3.89723 0.0205282 -0.0156146)
(-3.90328 0.0120085 -0.0023861)
(-3.90895 -0.0185215 -0.0182348)
(-9.10205 0.0179213 -0.290027)
(-9.08633 -0.0444579 -0.271322)
(-9.20178 -0.0297392 -0.268661)
(-9.16014 0.0136156 -0.275367)
(-9.18292 0.0399075 -0.272291)
(-9.21172 0.0579222 -0.243699)
(-9.10625 -0.000454088 -0.250325)
(-40.2197 -0.0116819 0.900911)
(-40.0881 -0.00637359 0.902471)
(-39.9831 -0.00211792 0.895174)
(-39.8976 0.00766487 0.88365)
(-39.8825 0.000184317 0.897296)
(-39.9555 0.00726147 0.897699)
(-40.2362 0.0236946 0.909146)
(36.5184 -0.0544697 1.55219)
(35.5886 0.00035491 1.54793)
(35.5208 0.0106694 1.52731)
(35.5173 0.0125558 1.51713)
(35.5912 0.00126504 1.5097)
(35.8056 -0.00784652 1.52174)
(36.6442 0.0492055 1.53251)
(8.76836 -0.00829034 -0.170505)
(8.9347 -0.0341694 -0.189119)
(8.92641 -0.0235981 -0.177711)
(8.88341 0.00534135 -0.187369)
(8.80996 0.0280507 -0.184716)
(8.83429 0.0365784 -0.175877)
(8.77417 0.0111197 -0.18593)
(3.87265 0.0361066 0.00842092)
(3.83736 -0.00649707 -0.0115893)
(3.84943 -0.0245594 0.0104802)
(3.86365 0.00634691 0.00436434)
(3.85491 0.0250709 0.00211691)
(3.82981 0.0160866 0.0112059)
(3.86833 -0.0234654 -0.00452507)
(-6.17586e-06 0.00925134 0.035091)
(1.02354e-06 0.00909079 0.0305692)
(3.53872e-06 0.00979954 0.0239871)
(6.00892e-06 -0.0123225 0.0224895)
(7.44946e-06 -0.0279509 0.0218062)
(5.34025e-06 -0.0205031 0.0217929)
(1.58334e-06 -0.0156484 0.0305761)
(-3.87192 0.0309232 0.00630045)
(-3.84003 -0.0171037 -0.00388146)
(-3.83947 -0.0273048 0.00953113)
(-3.85396 0.00730155 0.00528988)
(-3.85676 0.0217085 0.000322675)
(-3.84018 0.0142371 0.00523582)
(-3.86869 -0.020046 -0.00416596)
(-8.7899 5.12683e-05 -0.182346)
(-8.82873 -0.0312093 -0.184041)
(-8.84936 -0.0234027 -0.182439)
(-8.77957 0.00588436 -0.179394)
(-8.85621 0.0359184 -0.199246)
(-8.8691 0.0436543 -0.175748)
(-8.78982 0.00759375 -0.189367)
(-36.9047 -0.0376893 1.54999)
(-36.2168 0.0107848 1.5331)
(-36.0922 0.00695225 1.52676)
(-36.0428 0.0025451 1.54173)
(-35.8161 -0.0135797 1.51706)
(-36.0035 -0.0146135 1.5385)
(-36.9668 0.041683 1.55543)
(30.5369 -0.079525 1.31392)
(29.8791 0.0109926 1.32232)
(29.7037 0.0197831 1.30154)
(29.7203 0.02389 1.2905)
(29.8276 0.0137026 1.29886)
(30.0009 -0.00295651 1.31381)
(30.6092 0.0750366 1.31012)
(8.58249 -0.00725245 -0.171885)
(8.80922 -0.0177434 -0.198166)
(8.80352 -0.0222678 -0.182647)
(8.76762 -0.00431709 -0.192116)
(8.64559 0.0226032 -0.179886)
(8.65838 0.0302367 -0.175904)
(8.58026 0.0142966 -0.183966)
(3.86784 0.0312718 0.0101565)
(3.83422 -0.00652 -0.00729179)
(3.83372 -0.0220821 0.0170222)
(3.84197 0.00442742 0.0104769)
(3.84686 0.0264703 0.00522124)
(3.82024 0.0151406 0.00890324)
(3.86388 -0.0245282 -0.000131051)
(4.55518e-07 0.0102614 0.0473935)
(1.29153e-06 0.00867211 0.0414378)
(3.3785e-06 0.00753342 0.0371405)
(6.09079e-06 -0.012855 0.0334272)
(8.47186e-06 -0.0265915 0.0346524)
(9.0728e-06 -0.0190007 0.0403769)
(6.93019e-06 -0.0152062 0.0460347)
(-3.86798 0.027684 0.00911762)
(-3.81846 -0.0153988 -0.00342497)
(-3.85228 -0.0256187 0.0153928)
(-3.87031 0.00563894 0.0020004)
(-3.85062 0.024746 0.0040447)
(-3.82242 0.0150934 0.00833702)
(-3.86408 -0.0211165 0.000783416)
(-8.6015 -0.00528731 -0.183656)
(-8.67135 -0.0229562 -0.183316)
(-8.67792 -0.0192787 -0.178917)
(-8.61995 0.00210313 -0.179377)
(-8.69649 0.033873 -0.195377)
(-8.69525 0.0358499 -0.179611)
(-8.59763 0.00835833 -0.187025)
(-30.8454 -0.0642685 1.32881)
(-30.2284 0.012821 1.33469)
(-30.1225 0.0031955 1.31352)
(-29.9991 -0.00751994 1.31208)
(-29.9352 -0.0185593 1.3133)
(-30.1556 -0.0242452 1.33271)
(-30.8859 0.0602074 1.34313)
(27.5359 -0.0892795 0.91183)
(27.3355 0.0134001 0.943077)
(27.2541 0.0223193 0.91218)
(27.2006 0.0275446 0.907893)
(27.1348 0.0236305 0.900238)
(27.1766 0.00284072 0.91531)
(27.5493 0.0884164 0.90438)
(8.51122 -0.0047332 -0.107262)
(8.70664 -0.0114888 -0.126495)
(8.69435 -0.0194098 -0.116269)
(8.68437 -0.00761289 -0.119793)
(8.59095 0.0211991 -0.113481)
(8.59394 0.02605 -0.109254)
(8.50593 0.0117718 -0.11736)
(3.86941 0.0284216 0.0130331)
(3.82796 -0.00440492 0.00120783)
(3.82522 -0.0187621 0.0240624)
(3.83535 0.00184357 0.0143021)
(3.82594 0.0268518 0.0112161)
(3.80887 0.0135279 0.0131285)
(3.86688 -0.0250377 0.00748395)
(7.15233e-06 0.0087982 0.0573837)
(2.44119e-06 0.00676628 0.0496443)
(4.87934e-06 0.00514682 0.0458604)
(7.03231e-06 -0.0123449 0.0427541)
(9.22862e-06 -0.0223995 0.0464233)
(1.26204e-05 -0.0169129 0.0528778)
(1.19885e-05 -0.0133307 0.0556771)
(-3.86836 0.0247659 0.0112287)
(-3.81705 -0.0134756 0.000797291)
(-3.83877 -0.0252369 0.0218738)
(-3.84846 0.00359609 0.0116865)
(-3.84486 0.026254 0.00549112)
(-3.81961 0.0134824 0.0143165)
(-3.86775 -0.0227314 0.00672994)
(-8.52591 -0.00487833 -0.120133)
(-8.61432 -0.0165882 -0.124984)
(-8.60877 -0.0163223 -0.10948)
(-8.587 2.10914e-05 -0.112949)
(-8.63539 0.0294766 -0.12507)
(-8.62385 0.0306484 -0.11477)
(-8.52165 0.00596407 -0.119801)
(-27.6466 -0.0779728 0.920438)
(-27.298 0.0104486 0.93517)
(-27.2563 0.00195351 0.917495)
(-27.0932 -0.0135207 0.907569)
(-27.2117 -0.0230801 0.919978)
(-27.2781 -0.0248869 0.927874)
(-27.6606 0.0723048 0.933501)
(26.7722 -0.0835006 0.504301)
(26.6214 0.0164961 0.534359)
(26.5406 0.0212212 0.530493)
(26.5691 0.0241661 0.514621)
(26.484 0.0201821 0.497208)
(26.4499 0.00285709 0.509119)
(26.7642 0.0891545 0.494798)
(8.58564 -0.00135627 -0.0458785)
(8.71626 -0.0103121 -0.0510443)
(8.70881 -0.0147768 -0.0294816)
(8.74087 -0.00890304 -0.0359516)
(8.69997 0.0143149 -0.035833)
(8.69417 0.0221162 -0.030585)
(8.56743 0.00634061 -0.03861)
(3.882 0.025784 0.043686)
(3.82547 -0.00160432 0.0330381)
(3.83025 -0.0160562 0.0502469)
(3.82217 -0.000419936 0.0432014)
(3.81719 0.0251468 0.044717)
(3.81484 0.0118914 0.045049)
(3.87508 -0.0263358 0.0405591)
(1.32236e-05 0.00551746 0.062598)
(5.97814e-06 0.00304572 0.0600227)
(9.18904e-06 0.00418515 0.0547854)
(9.96079e-06 -0.0117327 0.0532806)
(8.53364e-06 -0.0217971 0.0562878)
(1.38532e-05 -0.0170169 0.0569916)
(1.63695e-05 -0.011405 0.0623756)
(-3.87779 0.0225906 0.0390086)
(-3.82814 -0.00997633 0.0262615)
(-3.82475 -0.0211965 0.0500182)
(-3.82694 -0.00119642 0.0472546)
(-3.82589 0.0236987 0.0370253)
(-3.83298 0.0121169 0.0451655)
(-3.87722 -0.0242191 0.0409842)
(-8.58891 -0.00391022 -0.0542176)
(-8.68779 -0.0113332 -0.0554178)
(-8.69818 -0.0124189 -0.0338628)
(-8.70915 0.000187144 -0.0359405)
(-8.7632 0.0321912 -0.0461431)
(-8.67258 0.0261495 -0.0353155)
(-8.58094 0.00223552 -0.0447918)
(-26.8033 -0.0778349 0.511318)
(-26.4672 0.0112933 0.544883)
(-26.4986 0.00013366 0.50891)
(-26.3441 -0.01034 0.509691)
(-26.5756 -0.0238942 0.521984)
(-26.5006 -0.0285531 0.516666)
(-26.8025 0.0754019 0.513858)
(25.8548 -0.0872249 0.34228)
(25.7668 0.0192694 0.358831)
(25.7796 0.0223522 0.35497)
(25.9335 0.0246973 0.356096)
(25.8865 0.0215662 0.345396)
(25.8578 0.00804178 0.35267)
(25.8565 0.094202 0.340592)
(8.50618 -0.00583294 0.000464316)
(8.5583 -0.00816483 0.00692443)
(8.47566 -0.00908582 0.0278098)
(8.53492 -0.00439012 0.0220915)
(8.54116 0.0191028 0.0213202)
(8.55064 0.027376 0.029689)
(8.50257 0.00945976 0.0203377)
(3.83475 0.0299437 0.012516)
(3.83669 -0.000553962 -0.000764249)
(3.8167 -0.0167852 0.0137265)
(3.82511 -7.41139e-05 0.0118654)
(3.8119 0.0345569 0.0118768)
(3.83034 0.0164442 0.0139386)
(3.81732 -0.0341257 0.0102041)
(1.6983e-05 0.00793241 -0.00385226)
(7.1761e-06 0.00240725 -0.00332116)
(1.28827e-05 0.0031354 -0.0079792)
(1.13278e-05 -0.0138794 -0.00891524)
(7.66935e-06 -0.0265732 -0.00666597)
(1.45825e-05 -0.0192398 -0.00896499)
(1.94515e-05 -0.0148976 -0.00406038)
(-3.83399 0.0240553 0.00535716)
(-3.89522 -0.0119589 -0.0104209)
(-3.8325 -0.0215109 0.0122683)
(-3.81657 -0.00227979 0.00971875)
(-3.91277 0.0335887 0.00667406)
(-3.83712 0.0198035 0.0141723)
(-3.81953 -0.0310519 0.0116813)
(-8.5167 -0.00764198 -0.001843)
(-8.18626 -0.0114066 0.0273475)
(-8.54504 -0.00945656 0.0213401)
(-8.51376 -0.00208041 0.0245337)
(-8.29189 0.0299168 0.026846)
(-8.54157 0.026076 0.0217747)
(-8.50906 0.00431296 0.0113056)
(-25.8794 -0.0770271 0.350606)
(-25.7528 0.00603502 0.378749)
(-25.8727 -0.00953861 0.350189)
(-25.769 -0.0073333 0.35208)
(-25.8008 -0.0276883 0.371468)
(-25.8709 -0.0339873 0.349738)
(-25.8683 0.0838386 0.346996)
(40.4449 -24.9815 4.49739)
(40.9031 -34.3792 -22.2724)
(40.9106 -24.5867 -35.7505)
(40.8804 -16.6673 -39.9588)
(40.8785 -10.699 -37.0187)
(40.9228 -6.20507 -35.343)
(40.9379 2.2304 -25.0077)
(10.7691 -23.7283 -0.625471)
(10.9078 -33.283 -16.461)
(10.9112 -33.006 -23.5028)
(10.8959 -24.5833 -30.3825)
(10.9061 -19.7781 -31.6794)
(10.9106 -11.4584 -31.5747)
(10.962 1.05503 -27.4719)
(3.82608 -10.2077 3.65959)
(3.87362 -10.9732 -5.02901)
(3.88356 -15.8249 -7.96239)
(3.88773 -15.6884 -10.6667)
(3.88231 -14.1777 -11.5365)
(3.86517 -7.44145 -8.59859)
(3.86361 2.4972 -5.7059)
(-0.0189881 -5.07569 3.22339)
(-0.01281 0.80101 1.49123)
(-0.00875513 -0.295978 1.30656)
(-0.00882639 -0.837013 1.23507)
(-0.0101601 -1.00069 1.18678)
(-0.011333 -1.21569 1.47974)
(-0.0103269 4.73561 2.90614)
(-3.80939 -8.16784 -1.75381)
(-3.86275 3.26739 -10.3549)
(-3.8876 5.16619 -11.5461)
(-3.90326 6.92525 -10.9327)
(-3.90296 9.22467 -8.33253)
(-3.89232 7.46491 -6.90719)
(-3.87063 9.41171 0.667448)
(-10.8022 -6.19833 -14.7374)
(-10.7953 6.81331 -27.784)
(-10.8106 14.7198 -26.6041)
(-10.8132 18.2346 -25.5811)
(-10.8235 23.8979 -19.423)
(-10.8333 22.3314 -14.6989)
(-10.753 17.4298 -3.52838)
(-40.4684 -2.38836 -22.2002)
(-40.8006 -1.26528 -38.6343)
(-40.9641 6.19306 -39.7257)
(-41.0534 12.1951 -39.0628)
(-41.0267 22.725 -31.479)
(-40.9291 27.6506 -22.3468)
(-40.2796 20.5306 -2.64892)
(40.3977 -19.2127 23.1311)
(40.7927 -18.0083 1.08263)
(41.1417 7.40308 -51.8127)
(41.01 10.0671 -60.8021)
(40.9835 9.9455 -53.4365)
(41.0385 4.09845 -48.9438)
(41.0678 4.12056 -36.8009)
(10.772 -16.1507 20.7526)
(10.835 -16.52 9.9795)
(10.8298 -12.8967 -12.8426)
(10.8867 -4.9382 -23.6343)
(10.9051 -4.85127 -31.228)
(10.903 -7.47074 -33.0385)
(11.0073 3.75596 -35.4072)
(3.86503 -7.2233 14.9605)
(3.90609 -5.69894 11.8211)
(3.91378 -10.1228 9.12947)
(3.90653 -9.98085 6.86844)
(3.89699 -10.0215 5.05146)
(3.87877 -6.2494 4.24905)
(3.86917 3.12804 0.562686)
(-0.00971472 -3.20364 13.6201)
(-0.00562574 1.91962 12.2642)
(-0.00446827 1.15629 11.4043)
(-0.00819738 0.0332696 11.3267)
(-0.0118987 -1.08283 11.368)
(-0.0133775 -1.52862 11.9849)
(-0.0113642 3.66129 13.7466)
(-3.83848 -6.28258 8.52585)
(-3.86734 4.8055 6.78663)
(-3.89134 4.87798 6.6556)
(-3.91467 4.53993 6.81743)
(-3.92206 6.28173 7.5428)
(-3.91201 3.80136 9.88345)
(-3.89356 7.89108 11.5492)
(-10.8569 0.570373 -10.5886)
(-10.8284 5.78569 -24.3122)
(-10.8203 9.08518 -22.9661)
(-10.8201 7.59744 -19.8495)
(-10.7906 10.5199 -12.5469)
(-10.7431 7.91948 3.77726)
(-10.708 13.5227 14.9836)
(-40.8374 -6.15446 -23.4962)
(-40.923 -20.7075 -39.184)
(-40.9558 -25.3124 -48.1647)
(-41.1217 -23.2301 -52.7799)
(-41.001 -14.3973 -39.3974)
(-40.5778 3.81413 -4.11029)
(-40.0251 13.8307 11.2391)
(39.9247 -14.8209 36.9249)
(40.5457 0.90472 -16.2937)
(41.2555 20.0326 -78.1151)
(40.9684 18.4849 -73.9809)
(41.1638 16.134 -63.9249)
(41.1111 7.10007 -58.6655)
(41.1226 5.93705 -43.7648)
(10.6789 -10.4607 30.766)
(10.699 -2.12513 9.3393)
(10.8015 5.07458 -17.6624)
(10.8195 1.78566 -18.786)
(10.8448 1.14744 -30.4331)
(10.7609 -5.34411 -32.1724)
(11.0397 7.00672 -38.6681)
(3.8756 -7.35466 24.224)
(3.87912 -0.0683442 19.5971)
(3.91154 -4.09023 15.2667)
(3.90109 -4.91992 13.3685)
(3.88 -5.47579 11.1941)
(3.85399 -4.5057 11.8205)
(3.84702 4.10189 9.3618)
(-0.00296052 -3.21668 21.0615)
(-0.00386454 2.50998 20.054)
(-0.00532726 1.91699 19.0099)
(-0.00888839 0.818149 19.2417)
(-0.0118182 -0.391716 18.5478)
(-0.0140216 -1.35613 19.7389)
(-0.0156755 3.72607 20.7893)
(-3.84488 -5.02413 11.9053)
(-3.86127 4.67305 10.4012)
(-3.90355 4.74094 11.5958)
(-3.93553 3.6907 12.1032)
(-3.93893 3.5241 12.509)
(-3.90054 0.923688 16.1667)
(-3.88751 8.04427 20.5855)
(-10.9568 0.0148363 -23.7756)
(-10.912 3.38441 -29.5907)
(-10.9026 4.43475 -28.1713)
(-10.8403 1.71228 -20.824)
(-10.833 -8.01674 -16.8266)
(-10.7295 -6.71071 -0.299268)
(-10.6993 8.21751 21.8923)
(-40.9284 -9.52915 -19.5738)
(-41.2453 -23.6245 -38.6015)
(-41.2291 -32.7046 -54.9419)
(-41.0613 -32.7759 -66.283)
(-40.9649 -32.0545 -66.6725)
(-40.6907 -16.3517 -38.0596)
(-40.262 1.26993 -5.13425)
(39.5805 -12.8408 34.5538)
(41.1852 14.0645 -79.6623)
(41.4145 22.0486 -90.583)
(41.1722 20.679 -78.2442)
(41.2385 21.741 -66.8567)
(41.2268 14.0172 -61.6653)
(41.1043 6.71915 -46.7534)
(10.6024 -9.66017 28.2267)
(10.735 8.69915 -11.2215)
(10.7779 8.49769 -17.7343)
(10.7806 4.17538 -13.62)
(10.8218 2.4959 -23.5859)
(10.7545 -4.36542 -28.16)
(11.1052 7.28679 -40.5893)
(3.81045 -7.85051 25.8791)
(3.84463 1.34086 17.9048)
(3.88583 -0.363477 17.0136)
(3.8995 -0.292917 16.9249)
(3.87674 -1.14111 14.8006)
(3.79751 -3.1328 17.2423)
(3.80345 4.62013 12.3836)
(-0.0030903 -2.89506 25.6878)
(-0.00246097 1.70723 22.9005)
(-0.00232478 0.987584 21.4086)
(-0.005291 0.808567 21.177)
(-0.00792785 0.558877 20.8375)
(-0.00694594 -0.639188 22.0256)
(-0.010749 3.72846 24.8247)
(-3.82794 -4.39939 15.4402)
(-3.83789 3.3644 14.3567)
(-3.90767 1.95864 14.8797)
(-3.93808 1.31332 16.6826)
(-3.91925 1.29855 15.5556)
(-3.84612 -1.81127 15.1504)
(-3.86193 8.88282 24.7681)
(-11.0144 -3.48099 -25.2177)
(-10.9363 -1.30798 -29.0104)
(-10.944 -4.91385 -23.3551)
(-10.8139 -5.20104 -10.5272)
(-10.8048 -13.7628 -10.3671)
(-10.768 -12.524 -6.4238)
(-10.7185 2.71392 12.6774)
(-41.1277 -8.5283 -17.8046)
(-41.4028 -18.8587 -37.9454)
(-41.5616 -29.6377 -56.6562)
(-41.2218 -29.5143 -73.7336)
(-41.0735 -25.0437 -83.1793)
(-41.2135 -20.5937 -87.9979)
(-41.228 -1.15424 -78.4872)
(38.9548 -2.44477 25.6897)
(41.127 10.6708 -93.4767)
(41.3297 25.4202 -94.5405)
(41.1759 23.5654 -76.4212)
(41.2996 23.6842 -68.6926)
(41.1675 17.0129 -62.4257)
(41.1322 8.22847 -47.1698)
(10.3615 -3.50771 23.5824)
(10.5447 11.6682 -10.7715)
(10.741 9.0663 -13.8466)
(10.7823 3.00051 -10.1838)
(10.8262 -2.25616 -20.3709)
(10.8081 -3.60992 -28.7012)
(11.118 6.07621 -41.9553)
(3.71834 -5.87313 27.3466)
(3.7469 3.68122 15.4268)
(3.83493 2.14352 14.8672)
(3.87582 2.20919 16.369)
(3.87331 0.867135 15.34)
(3.77475 -1.90623 19.8465)
(3.80158 4.00155 14.4041)
(-0.0110347 -2.36227 26.3712)
(-0.00520837 0.77394 22.982)
(-0.00124885 0.301197 21.5897)
(0.000101707 0.592168 21.4357)
(0.000681107 0.895868 21.0358)
(0.00149876 0.246241 22.1515)
(0.00183927 2.93543 25.7182)
(-3.75987 -3.62026 20.4046)
(-3.79294 1.93498 18.9602)
(-3.88286 -0.322697 16.4205)
(-3.90836 -1.2681 16.5168)
(-3.87696 -1.24257 14.0501)
(-3.78047 -3.37226 16.1853)
(-3.75747 5.98131 27.1516)
(-10.9548 -5.63584 -23.9237)
(-10.8043 -1.7828 -23.7024)
(-10.8935 -7.19545 -16.2253)
(-10.832 -6.60737 -9.60068)
(-10.7532 -13.6999 -7.83893)
(-10.6685 -13.355 -6.90037)
(-10.6415 -3.4623 -2.93602)
(-41.2212 -8.11995 -21.9195)
(-41.2559 -12.0113 -38.9695)
(-41.59 -23.6429 -57.0736)
(-41.5593 -27.8252 -73.1865)
(-41.3541 -19.4198 -82.9674)
(-41.518 -13.9956 -96.1207)
(-41.2963 1.78199 -95.4892)
(40.317 24.0521 -27.0745)
(41.1353 2.45451 -116.214)
(41.1911 24.8828 -98.2866)
(41.1276 22.9515 -71.9022)
(41.5226 25.3652 -67.5017)
(41.34 18.2335 -61.8752)
(41.4395 8.34229 -47.4197)
(10.3396 6.51634 1.51648)
(10.5333 12.0517 -11.1823)
(10.723 8.57426 -13.3564)
(10.7432 -0.723677 -9.68727)
(10.8287 -5.86053 -20.9977)
(10.9583 -3.50248 -33.7384)
(11.1681 4.14153 -42.8797)
(3.6453 -1.30654 25.503)
(3.66746 4.84045 17.4163)
(3.77962 5.503 15.4956)
(3.85236 5.62744 17.5057)
(3.85581 3.9133 18.3773)
(3.73919 0.397175 20.1389)
(3.71251 1.85813 18.0031)
(-0.0189807 -0.908168 26.339)
(-0.010202 0.653807 23.6421)
(-0.00232222 -0.0463067 22.7888)
(0.00215829 0.763526 22.6764)
(0.00213325 1.1433 22.4134)
(0.000987169 0.133291 22.5069)
(0.00357063 1.47885 25.6072)
(-3.7041 -2.19368 22.5684)
(-3.73978 1.36858 20.5578)
(-3.86706 -3.039 18.9505)
(-3.87077 -5.12002 16.887)
(-3.78243 -4.77046 15.921)
(-3.70554 -4.37648 17.5745)
(-3.69576 1.39415 25.8452)
(-10.9263 -5.03748 -18.9548)
(-10.6895 1.4269 -16.2104)
(-10.8393 -3.74545 -12.1421)
(-10.8882 -7.18812 -13.9212)
(-10.9426 -11.2053 -14.6455)
(-11.0522 -9.29345 -28.8319)
(-11.0353 -3.94592 -38.4436)
(-41.3432 -9.04178 -27.288)
(-41.2908 -10.6744 -39.1364)
(-41.6952 -23.2643 -55.111)
(-41.9018 -31.1554 -71.7558)
(-41.4837 -19.3585 -85.2697)
(-41.4619 -13.8151 -99.4185)
(-41.2592 3.5301 -97.9364)
(40.7146 30.9084 -63.1337)
(41.0498 -11.1434 -121.389)
(41.6107 24.1431 -98.9959)
(41.6571 22.9883 -72.5591)
(41.8349 23.5372 -63.8069)
(41.7356 12.7738 -53.026)
(41.6793 5.41841 -44.8011)
(10.9147 -0.780422 -25.4691)
(11.0596 1.09408 -35.2681)
(10.8613 3.48977 -20.0482)
(10.7612 -5.95566 -18.2764)
(10.8809 -6.65721 -22.1526)
(11.1064 -2.84094 -35.1276)
(11.2177 4.23986 -41.2944)
(3.66742 1.63376 25.1409)
(3.71207 4.0736 19.127)
(3.80002 6.0209 17.8054)
(3.84125 5.58248 18.0881)
(3.83949 3.61557 18.1784)
(3.71894 -0.00364889 18.6743)
(3.65974 1.50865 15.5332)
(-0.00993132 -0.0737045 28.4558)
(-0.00837447 1.11711 27.8031)
(-0.0034542 0.794065 24.7001)
(-0.00170253 -0.117016 26.058)
(-0.0069606 -0.213578 23.6418)
(-0.0119336 -1.23602 24.2591)
(-0.0106754 0.0845879 26.1634)
(-3.67092 2.38593 19.2585)
(-3.69388 2.7659 20.1976)
(-3.87104 -3.04351 19.9541)
(-3.84747 -6.93992 18.061)
(-3.77087 -7.19025 17.7095)
(-3.71639 -4.99512 18.1613)
(-3.69846 -1.04512 19.6316)
(-10.9032 -4.67607 -15.8776)
(-10.632 3.92713 -11.93)
(-10.6859 1.41055 -9.71233)
(-10.8875 -9.14592 -16.264)
(-11.1656 -15.8106 -24.5016)
(-11.2678 -10.0702 -48.2632)
(-11.2752 -0.218778 -53.3267)
(-41.4946 -12.8019 -27.9396)
(-41.3777 -14.446 -35.0085)
(-41.429 -25.8848 -42.7548)
(-41.8457 -34.2293 -61.9712)
(-41.7069 -19.3427 -86.6484)
(-41.6631 -13.8429 -101.358)
(-41.3398 4.17402 -98.2877)
(40.664 41.8759 -43.7076)
(42.0522 -13.6318 -120.914)
(42.9748 3.16139 -100.211)
(42.5314 17.9025 -50.9512)
(42.2815 8.91822 -33.0892)
(41.939 -0.611324 -26.814)
(41.8309 5.95726 -19.6285)
(11.1625 1.41565 -2.00722)
(11.2679 -10.0785 -23.4952)
(11.2751 -3.7049 -19.7032)
(11.2572 -6.61259 -14.8938)
(11.352 -1.67447 -26.3895)
(11.4242 2.92278 -37.5238)
(11.4767 12.3756 -37.1482)
(3.71671 1.8064 21.6484)
(3.73714 1.78129 20.8666)
(3.82672 -0.0100612 19.9827)
(3.83336 -0.925033 17.4148)
(3.79635 -5.81679 14.5957)
(3.73529 -10.9144 2.70996)
(3.82504 -3.03084 -6.1261)
(-0.0105862 0.576318 25.7528)
(-0.0100644 1.29154 27.2409)
(-0.0160969 -1.21965 28.7685)
(-0.0348235 -2.41137 27.7532)
(-0.056645 -3.04951 27.4418)
(-0.0592553 -3.56174 25.1111)
(-0.0563842 -1.72493 24.4428)
(-4.1792 -9.30256 -3.62625)
(-3.74119 6.7393 16.7496)
(-3.85929 -1.362 22.3931)
(-3.9042 -5.24211 20.98)
(-3.88741 -6.41098 20.767)
(-3.89467 -7.24785 17.192)
(-3.9243 -2.87247 9.97024)
(-11.3298 -14.9653 -5.34172)
(-11.1645 -12.7489 -4.17526)
(-11.206 -12.0619 -1.14263)
(-11.4324 -18.0689 -10.7641)
(-11.4106 -13.9078 -39.7128)
(-11.4173 -7.99967 -66.718)
(-11.573 1.99233 -74.5797)
(-41.8484 -10.9682 1.50492)
(-42.1268 -13.3316 -3.45441)
(-42.1745 -14.7064 -7.93375)
(-42.4794 -12.137 -33.54)
(-42.593 11.7157 -81.4625)
(-42.4171 6.86222 -98.5306)
(-42.1845 6.78009 -87.4441)
(40.9275 38.6253 -51.7115)
(41.8436 -9.09592 -138.043)
(42.5823 -6.1121 -117.965)
(42.5119 10.7665 -51.8645)
(42.2366 -0.367201 -32.2739)
(41.9178 -3.35802 -23.833)
(41.9061 7.26902 -25.0829)
(11.1134 -3.35148 5.1905)
(11.1108 -8.09694 -5.49723)
(11.1717 -12.2992 4.81498)
(11.326 -11.5816 -13.7941)
(11.3455 9.83561 -35.6707)
(11.3105 13.0342 -37.4955)
(11.3622 14.4766 -34.3984)
(3.83126 1.42374 23.1963)
(3.84054 1.56808 23.3337)
(3.88149 -0.476874 22.2553)
(3.88655 -6.4359 22.6008)
(3.89918 -12.4762 14.0278)
(4.08745 -5.04111 -12.0801)
(4.13083 5.97178 -17.9567)
(-0.00342969 0.237385 26.8204)
(-0.00530707 0.988386 28.875)
(-0.0172047 -0.738572 31.0383)
(-0.0345296 -1.7751 30.4873)
(-0.0475055 -3.65303 31.1205)
(-0.0492035 -4.03715 27.2539)
(-0.0617963 -1.09426 24.9842)
(-4.19482 -9.73175 -0.0646868)
(-3.99975 3.26903 12.1188)
(-3.89291 2.20881 27.3938)
(-3.96524 -3.61497 26.1959)
(-3.96357 -4.7877 24.5924)
(-3.95581 -5.5854 22.8151)
(-3.97964 -2.08323 15.7462)
(-11.3243 -15.2668 1.82818)
(-11.2764 -10.376 2.57426)
(-11.3108 -11.4196 0.539232)
(-11.4094 -13.7497 -12.5228)
(-11.4328 -15.555 -39.1391)
(-11.4961 -7.41513 -65.4527)
(-11.6053 3.75894 -79.4439)
(-41.8111 -6.93146 9.41635)
(-41.9654 -4.27488 6.82392)
(-42.0216 -3.11018 -4.20545)
(-42.4121 -1.6696 -34.878)
(-42.495 24.7517 -92.4115)
(-42.3293 19.5845 -109.751)
(-42.1098 10.9396 -98.37)
(41.1092 35.8476 -54.1048)
(42.074 -3.95504 -142.937)
(42.619 -22.4295 -117.487)
(42.5312 15.0619 -58.8284)
(42.3076 3.13194 -31.034)
(42.0765 9.14776 -15.2274)
(42.0008 14.288 -5.53544)
(11.1892 -8.49807 -0.709947)
(11.21 -8.46939 -12.2867)
(11.1874 -3.57069 3.25542)
(11.3509 17.2355 -38.2044)
(11.2543 28.6014 -46.8329)
(11.201 25.4614 -42.494)
(11.3221 23.4056 -25.1212)
(3.9347 0.120021 23.3777)
(3.92831 0.301378 24.9103)
(3.93642 -3.13328 27.4759)
(3.94783 -5.045 27.9643)
(4.0008 -8.17203 14.2511)
(4.12567 -0.0164463 -2.20463)
(4.14362 13.7133 -11.9093)
(0.00690605 -0.593869 28.0195)
(-0.00302725 0.293034 32.7669)
(-0.0144269 -0.911679 35.7452)
(-0.0226008 -1.74092 35.4368)
(-0.0234686 -2.0166 35.835)
(-0.0191989 -3.68974 32.3438)
(-0.0275387 -0.938287 26.4189)
(-4.20848 -11.8998 4.7775)
(-4.09608 1.14832 13.3224)
(-3.9359 5.30071 30.4934)
(-3.98987 0.382921 29.9456)
(-3.99469 -3.7961 26.5867)
(-4.00077 -6.63867 22.1864)
(-3.97391 -2.42623 15.0642)
(-11.4066 -15.8705 1.98831)
(-11.3467 -7.58193 -10.9155)
(-11.3326 -11.506 -17.8068)
(-11.3143 -9.95719 -25.091)
(-11.2993 -7.44441 -39.1628)
(-11.4023 1.69835 -62.2585)
(-11.5702 15.9019 -81.4499)
(-41.8346 -9.46507 18.1281)
(-42.0569 -2.49631 4.82754)
(-42.3103 -4.23659 -15.1185)
(-42.56 14.7934 -65.561)
(-42.444 37.8349 -103.366)
(-42.23 34.0047 -107.902)
(-42.2279 24.0988 -96.0561)
(41.1111 31.418 -52.0707)
(42.0406 0.958213 -150.193)
(42.6531 -32.9155 -112.265)
(42.2442 27.5503 -71.5527)
(42.2167 21.0973 -40.6301)
(42.312 15.906 -15.6388)
(42.0849 18.2461 12.6888)
(11.1403 -7.15181 4.31835)
(11.2204 -8.76707 -15.0352)
(11.4167 27.8772 -49.4517)
(11.421 33.0476 -63.1762)
(11.316 32.78 -55.7483)
(11.3443 26.7705 -44.7935)
(11.3793 25.1908 -17.2539)
(3.97123 -0.675989 24.9843)
(3.96962 -0.639453 28.7317)
(3.99082 -1.69575 28.651)
(3.99987 -3.03486 28.0356)
(4.05221 -3.23754 20.8717)
(4.14023 -2.39215 16.7168)
(4.18076 20.2067 -1.8463)
(0.0104836 0.273118 29.1142)
(-0.00125831 1.49135 35.057)
(-0.00578667 0.17618 37.6225)
(-0.00709962 -0.0240728 37.9229)
(-0.00243601 -1.46274 37.4107)
(0.0065368 -4.13945 34.3762)
(0.00969858 -0.27583 27.1486)
(-4.23702 -11.3829 8.55078)
(-4.15656 1.42141 18.499)
(-3.98268 5.49262 29.7565)
(-3.98695 1.14793 30.8991)
(-4.0048 -5.97161 26.6832)
(-3.99551 -11.0038 17.5268)
(-3.97501 -1.37457 -0.854311)
(-11.4674 -11.7876 2.68532)
(-11.3414 -3.17583 -11.1232)
(-11.2106 -3.86218 -10.2425)
(-11.1283 -1.6587 -8.51077)
(-11.1346 2.60607 -17.5312)
(-11.3004 14.4916 -45.2669)
(-11.5171 28.2668 -65.3111)
(-41.8787 -8.60177 23.0333)
(-42.061 -1.81079 5.59929)
(-42.5999 -1.27646 -35.6191)
(-42.536 41.6561 -87.2551)
(-42.3673 49.8331 -100.299)
(-42.1297 44.0942 -98.8386)
(-42.2406 27.4763 -77.7148)
(41.2545 24.9975 -46.5726)
(41.839 11.3648 -153.293)
(42.4597 -47.4288 -118.617)
(42.4321 27.7043 -76.2083)
(42.4632 23.0116 -44.6742)
(42.554 12.9921 -4.80748)
(42.1529 15.9065 24.1756)
(10.9799 -4.2268 17.1475)
(11.3695 -4.73878 -30.0499)
(11.3874 37.0736 -75.8964)
(11.4816 29.7274 -74.5827)
(11.4534 29.8052 -54.5356)
(11.4695 22.0399 -39.2101)
(11.4559 21.7666 -7.16126)
(3.98789 -1.32426 25.0867)
(4.01323 -0.879735 28.6556)
(4.02385 -1.36666 28.7201)
(4.05101 -0.274174 28.5004)
(4.11093 -0.0924245 24.8996)
(4.18229 -0.200539 17.7716)
(4.21821 19.0721 7.12108)
(0.00579722 0.618917 28.5444)
(-0.00512793 1.56319 34.1919)
(-0.00195381 0.363952 36.7344)
(0.00281973 1.12288 37.7313)
(0.00985202 0.0991651 37.6286)
(0.0190958 -3.00927 36.5644)
(0.0360056 0.0447356 29.1916)
(-4.25584 -12.3574 9.27965)
(-4.19672 2.59335 19.2757)
(-4.07823 4.14283 26.5268)
(-3.99423 0.944597 30.7199)
(-4.00098 -9.75147 24.572)
(-3.99877 -11.6549 4.98015)
(-4.0296 7.28899 -17.5105)
(-11.5298 -10.6244 6.90623)
(-11.3747 -5.28787 -8.63319)
(-11.2327 -5.94774 -8.21979)
(-11.0677 -2.49757 -4.15164)
(-11.1083 4.09781 -11.5225)
(-11.3397 26.1759 -37.9766)
(-11.4641 34.9338 -45.9848)
(-41.7904 -6.13701 32.6965)
(-41.9578 -9.6316 11.088)
(-42.2667 43.2239 -83.6214)
(-41.6058 53.988 -102.32)
(-41.9298 56.5888 -100.288)
(-42.2432 43.8621 -87.937)
(-42.5063 21.9865 -56.1373)
(41.8123 24.9242 -62.0204)
(41.2267 23.4915 -152.964)
(41.9333 -86.6342 -105.223)
(42.7198 5.24871 -72.0919)
(42.6993 10.8494 -26.9986)
(42.3878 -3.611 20.3474)
(41.956 8.90568 33.5736)
(11.0202 -10.5471 16.0311)
(11.3897 19.6131 -79.3337)
(11.3399 43.6846 -86.9486)
(11.6289 18.8817 -77.9237)
(11.5196 19.5736 -32.4981)
(11.4907 10.107 -16.2418)
(11.5113 17.1016 -0.866392)
(4.03017 -3.70883 26.9566)
(4.03934 -4.57825 28.0088)
(4.00473 -1.40156 24.7536)
(4.0469 8.6764 25.1583)
(4.08906 12.7004 29.9503)
(4.13541 8.2371 26.4955)
(4.2013 16.5924 13.2292)
(-0.000161267 0.308124 29.1798)
(-0.0128077 1.53272 34.5619)
(-0.0122195 0.836482 36.838)
(-0.00135749 3.24076 37.9517)
(-0.0010212 3.90748 39.883)
(0.00753002 0.145087 42.2193)
(0.0438292 2.87853 34.4669)
(-4.26867 -9.87977 13.9976)
(-4.20681 -0.506982 22.0461)
(-4.07342 -1.96533 27.2222)
(-3.99343 -1.5918 30.0053)
(-3.99681 -7.16673 25.1718)
(-3.97324 -4.55094 14.5739)
(-3.9903 21.9436 0.562367)
(-11.5371 -13.8834 11.3318)
(-11.4767 -4.85928 -11.7999)
(-11.37 13.9387 -19.5917)
(-11.3561 30.0092 -18.7093)
(-11.3837 50.4445 -23.3249)
(-11.3263 52.2715 -34.6154)
(-11.3288 45.165 -27.0978)
(-41.5599 -15.7795 34.7642)
(-42.306 39.8173 -57.5499)
(-41.3043 69.9865 -107.556)
(-41.6034 63.6547 -103.611)
(-42.445 60.972 -87.6183)
(-42.6449 19.7043 -52.9016)
(-42.7025 18.0796 -18.5897)
(40.9458 127.906 -135.498)
(39.544 75.9982 -131.161)
(40.7384 -124.796 -41.7681)
(42.2118 -76.4532 -20.9615)
(42.5082 -64.0447 -5.54613)
(42.4273 -50.8483 1.69008)
(42.2744 -39.6994 7.45426)
(11.376 11.7399 -8.36719)
(10.8742 79.4016 -74.8211)
(10.9201 53.4486 -85.1333)
(11.5663 -10.3707 -68.5205)
(11.5302 14.9244 -11.283)
(11.4091 9.92305 9.47753)
(11.4857 14.7755 10.9873)
(4.09866 -10.0084 19.4435)
(4.09554 -8.26832 -11.434)
(4.0574 10.0502 -31.7991)
(4.22163 17.7155 -31.1862)
(4.22757 23.2516 -10.6549)
(4.14404 20.8698 14.3695)
(4.11798 22.1304 26.621)
(-0.0064285 0.117046 37.0352)
(-0.0169452 1.75769 36.2196)
(-0.0143641 1.86706 35.7494)
(0.0157973 7.19016 35.6877)
(0.0151447 11.455 34.5439)
(0.00602631 7.61664 40.5191)
(0.0223131 3.71097 52.6044)
(-4.31257 -9.6586 -5.05203)
(-4.24333 -2.59109 -16.9451)
(-4.15043 1.3657 -6.37514)