/*--------------------------------*- C++ -*----------------------------------*\
  =========                 |
  \\      /  F ield         | OpenFOAM: The Open Source CFD Toolbox
   \\    /   O peration     | Website:  https://openfoam.org
    \\  /    A nd           | Version:  6
     \\/     M anipulation  |
\*---------------------------------------------------------------------------*/
FoamFile
{
    version     2.0;
    format      ascii;
    class       volScalarField;
    location    "3.5";
    object      Qdot;
}
// * * * * * * * * * * * * * * * * * * * * * * * * * * * * * * * * * * * * * //

dimensions      [1 -1 -3 0 0 0 0];

internalField   nonuniform List<scalar> 
297
(
-0.000130187
-0.000197422
0
0
-0.000655218
0
-0.000197422
-0.000130187
-0.000197422
-0.000130187
-0.000197422
-0.000327609
0
-0.000394843
-0.000394843
-0.000327609
-0.000327609
-0.000327609
0
-0.000327609
4.75221e-10
0
0
0
0
-0.000197422
4.75221e-10
0
-6.98555e-11
0
0
-2.79422e-10
0
-3.49277e-11
0
0
0
4.75221e-10
0
-1.74639e-11
-1.39711e-10
0
0
0
0
4.75221e-10
4.75221e-10
0
-8.73194e-12
0
9.41711e-10
4.75221e-10
4.75221e-10
0
0
-4.36597e-12
-1.09149e-12
4.75221e-10
1.8987e-09
0
4.75221e-10
9.46077e-10
0
0
-2.66478e-16
9.50443e-10
0
0
-5.32955e-16
-1.33239e-16
-2.66478e-16
9.50443e-10
-4.06612e-21
0
-8.13225e-21
0
-8.13225e-21
-3.2529e-20
-4.06612e-21
0
3.80177e-09
0
4.6649e-10
0
0
1.90089e-09
0
0
0
0
0
4.75221e-10
0
4.75221e-10
-2.18298e-12
0
0
-8.73194e-12
4.75221e-10
0
0
0
0
1.8987e-09
0
0
4.75221e-10
0
3.80177e-09
0
3.80177e-09
0
0
7.60354e-09
-6.20441e-26
-4.96353e-25
3.80177e-09
-7.57375e-30
3.80177e-09
3.80177e-09
0
0
-3.0295e-29
3.80177e-09
3.80177e-09
3.80177e-09
0
-6.059e-29
3.80177e-09
0
0
7.60354e-09
-7.39624e-33
-6.059e-29
3.80177e-09
0
-5.77831e-35
0
-7.57375e-30
-5.77831e-35
0
3.80177e-09
0
3.80177e-09
-4.62265e-34
-2.82144e-38
-1.72207e-42
0
7.60354e-09
0
3.80177e-09
0
0
0
3.80177e-09
-1.72207e-42
0
-1.12858e-37
-6.88828e-42
3.80177e-09
-5.64288e-38
-1.72207e-42
-1.10213e-40
0
0
7.60354e-09
7.60354e-09
-1.89344e-30
3.80177e-09
0
0
3.80177e-09
-3.5268e-39
0
-2.75531e-41
0
-2.31132e-34
0
0
3.80177e-09
0
0
3.80177e-09
-6.88828e-42
-5.64288e-38
0
0
0
0
0
0
3.80177e-09
-1.00238e-52
-8.21147e-49
-6.72684e-45
-5.01189e-53
0
3.80177e-09
0
0
-6.56918e-48
0
0
0
0
0
0
3.80177e-09
0
3.80177e-09
0
0
0
3.80177e-09
3.80177e-09
3.80177e-09
-4.89442e-56
-3.91554e-55
3.80177e-09
7.60354e-09
-1.00238e-52
0
0
0
3.80177e-09
-2.38985e-59
0
-3.05901e-57
0
0
3.80177e-09
3.80177e-09
0
0
3.80177e-09
-4.77971e-59
0
0
-2.50594e-53
0
0
0
3.80177e-09
-1.34537e-44
-8.21147e-49
0
-1.34537e-44
7.60354e-09
-1.00238e-52
3.80177e-09
-8.21147e-49
3.80177e-09
0
0
0
-1.68171e-45
7.60354e-09
-3.13243e-54
0
0
0
-5.25534e-47
3.80177e-09
0
0
0
-1.56621e-54
-5.25534e-47
0
0
0
-3.13243e-54
0
7.60354e-09
7.60354e-09
0
-2.00475e-52
3.80177e-09
0
0
3.80177e-09
0
3.80177e-09
-1.00238e-52
0
3.80177e-09
0
0
-7.64753e-58
0
0
-4.00951e-52
-5.01189e-53
3.80177e-09
-1.52951e-57
-1.91188e-58
-1.19493e-59
)
;

boundaryField
{
    fuel
    {
        type            calculated;
        value           uniform 0;
    }
    primary_air
    {
        type            calculated;
        value           uniform 0;
    }
    Secondary_air_RHS
    {
        type            calculated;
        value           uniform 0;
    }
    Secondary_air_LHS
    {
        type            calculated;
        value           uniform 0;
    }
    outlet
    {
        type            calculated;
        value           uniform 0;
    }
    stove_body
    {
        type            calculated;
        value           uniform 0;
    }
    frontAndBack
    {
        type            empty;
    }
}


// ************************************************************************* //
