/*--------------------------------*- C++ -*----------------------------------*\
  =========                 |
  \\      /  F ield         | OpenFOAM: The Open Source CFD Toolbox
   \\    /   O peration     | Website:  https://openfoam.org
    \\  /    A nd           | Version:  6
     \\/     M anipulation  |
\*---------------------------------------------------------------------------*/
FoamFile
{
    version     2.0;
    format      ascii;
    class       surfaceScalarField;
    location    "3";
    object      phi;
}
// * * * * * * * * * * * * * * * * * * * * * * * * * * * * * * * * * * * * * //

dimensions      [1 0 -1 0 0 0 0];

internalField   nonuniform List<scalar> 
675
(
-2.14408e-06
-0.000208171
0.000327624
2.12902e-06
-0.000218071
0.000331129
-0.000208229
0.00032767
9.10381e-06
0.000208171
-0.000233026
-8.89362e-06
0.000218071
-0.000225666
0.00020823
-0.000232929
-2.14398e-06
0.000327625
2.12906e-06
0.000331131
0.000327672
-2.13094e-06
1.67534e-05
0.00031301
2.11803e-06
9.63638e-06
0.000317273
1.67887e-05
0.000313007
4.33411e-06
-1.67523e-05
-0.00020394
-4.41272e-06
-9.63506e-06
-0.00019758
-1.67873e-05
-0.000203855
-2.13083e-06
0.000313012
2.11809e-06
0.000317276
0.00031301
-6.03335e-06
0.000201736
5.99015e-06
0.000187975
0.000201688
7.00833e-06
-0.000201737
-6.99067e-06
-0.000187976
-0.000201689
-6.03315e-06
5.99017e-06
-0.00617404
0.00601047
0.00336198
0.00623323
0.00276929
-0.0119776
0.00601083
0.00341987
0.00082727
-0.00599998
0.0164364
-0.000821271
-0.00272887
0.0123982
-0.00599956
0.0164403
-0.00621914
0.0034172
0.00625051
-0.0120008
0.00344788
-0.000172049
0.00851752
-0.00498351
-0.000171726
0.00435151
-0.0163691
0.0085309
-0.00528157
-0.00169142
-0.00853068
0.0351782
0.00144935
-0.00448924
0.0180999
-0.00852583
0.0349499
-9.85136e-05
-0.00501203
-0.000148499
-0.0163955
-0.00522274
0.00423759
0.0168964
-0.0261238
-0.00365864
0.00843135
-0.0169767
0.017079
-0.0260218
-0.0364801
-0.0169599
0.105512
0.0364323
-0.00853127
-0.0378511
-0.0170051
0.105469
0.00409504
-0.0260639
-0.00386743
-0.0168923
-0.0260895
-0.0041064
-0.0089533
-0.0211092
0.0341748
0.00423253
0.00800729
-0.0307795
0.0144156
-0.00893765
-0.0208724
0.0340477
0.0193081
0.00893977
0.0429726
-0.0801803
-0.019396
-0.00801102
0.00279257
0.0519269
0.00894401
0.0429309
-0.0802108
-0.00416222
-0.0210088
0.034107
0.00420162
-0.0307686
0.0144036
-0.0209719
0.0341164
0.00153623
-0.00578924
-0.0168584
-0.00146892
-0.00276976
-0.0249975
-0.00573711
-0.0166078
0.00882714
0.00575339
0.0226073
-0.00882594
0.00275893
0.0149194
0.00575588
0.0226145
0.00151065
-0.0167677
-0.0014924
-0.025008
-0.0167085
0.0024321
-0.00287281
-0.0164072
-0.00295935
-0.00100633
-0.0186003
-0.00310498
-0.0164704
-0.0101113
0.00295477
0.0268988
0.0104193
0.00100093
-0.00761719
0.00301862
0.0269062
0.00262941
-0.016443
-0.0027639
-0.0186125
-0.0164491
0.000699514
-0.00245302
-0.0286146
-0.000661796
-0.00183174
-0.013783
-0.00241416
-0.0285136
-0.00327717
0.00244137
0.0970762
0.00327248
0.00174935
-0.0479821
0.00242766
0.0970816
0.00069189
-0.0285555
-0.000675746
-0.0137738
-0.0285785
0.000194176
-0.00128152
-0.0317682
-0.000166084
-0.00107675
-0.0123393
-0.00126333
-0.0316569
-0.00151188
0.00127748
0.0892232
0.00150749
0.00104379
-0.0531192
0.00126805
0.0892524
0.000188635
-0.0317055
-0.000175945
-0.0123709
-0.0317251
9.75197e-05
-0.00192883
-7.52736e-05
0.00225248
-0.00192231
-0.00162901
0.00192524
0.0016235
-0.00219501
0.00192557
8.83796e-05
-7.8771e-05
0.00452488
-0.0035254
-0.00479102
-0.0126146
-0.00462818
-0.000946558
-0.00850209
-0.00358605
-0.00486711
-0.0126487
-0.00128596
0.00354607
0.00946538
0.0116487
0.00133788
0.000945616
-0.0121338
0.0035665
0.00936721
0.0117235
0.0045592
-0.00482037
-0.0126359
-0.0045959
-0.00851065
-0.00484345
-0.0126319
0.00437535
0.000166845
0.00102308
-0.0103555
-0.00449144
0.00164261
-0.00128017
0.000150864
0.000880796
-0.0103939
-0.00082537
-0.00016519
0.0007419
0.00988153
0.000855953
-0.00164375
-0.0105295
-0.000155186
0.000599068
0.00992944
0.00440007
0.000989746
-0.0103755
-0.00447154
-0.00128147
0.000914721
-0.0103811
0.00227751
0.00242754
-0.00368136
-0.00212764
0.00312253
0.00244099
-0.00369181
0.0021937
-0.0024338
0.00341018
-0.00208819
-0.00312597
-0.00243938
0.00339075
0.00223672
-0.00368089
-0.00216927
-0.00368988
-0.0122859
-0.00190012
0.00153718
-0.013126
-0.000738686
0.0015808
-0.000787716
0.00141576
-0.0137508
0.00799667
0.0018991
-7.18311e-05
0.0065075
0.000738309
1.32685e-05
0.000788301
0.00345291
0.00147993
-0.012269
0.00153774
-0.0131112
0.00158127
0.00141602
-0.0137398
-0.0100697
-0.0018785
0.00309107
-0.0103067
-0.00044701
0.00226648
-0.000163854
0.000829431
-0.0095533
0.00900449
0.00187833
-0.002903
0.00749271
0.00044629
0.000632695
0.000163805
0.00620198
0.00441779
-0.0100567
0.00309334
-0.0102958
0.00226735
0.000832111
-0.00954905
-0.000922006
0.000320702
0.000511583
0.000834154
0.00048179
0.000861967
0.00112794
-0.000318815
0.00342821
-0.000832231
-0.000476627
0.0105896
-0.00091354
0.000522117
0.000876425
0.0130977
-0.000789403
0.00141064
-0.0137186
0.0122591
-0.000732865
0.00157193
-0.00189291
0.00153789
-0.00644627
0.000786369
0.00341501
0.00145544
-0.00790325
0.000731969
-7.81982e-06
0.00189808
-4.53454e-05
0.0131235
0.00140564
-0.013743
0.0122802
0.00157506
0.00154222
0.0102829
-0.000163376
0.000828755
-0.0095374
0.0100407
-0.000443513
0.00225803
-0.00187395
0.00309753
-0.00745384
0.000157385
0.00616542
0.00438257
-0.00895716
0.000442022
0.000610024
0.00187915
-0.0028739
0.0102973
0.000815569
-0.00955006
0.0100558
0.00225836
0.00310147
-0.000527778
0.000476292
0.00088045
0.000900702
0.000829897
0.000317234
-0.00344156
-0.000480066
0.0105633
-0.00117182
-0.000829752
-0.000318108
-0.000530652
0.000865925
0.000897709
0.00845343
0.000575083
-0.00902854
0.013806
-0.000764192
-0.00458845
0.000189677
-0.000102119
0.00603953
-0.000575752
-0.00488893
0.00238428
0.000758224
0.00213265
-0.00018989
0.00421916
0.00846258
-0.00903845
0.0138239
-0.00460321
-0.000109189
0.00607099
0.000448067
-0.0155477
0.00926936
-0.000413452
-0.00737346
0.000527516
-0.000897695
0.00494144
-0.000452137
-0.00893046
3.37876e-05
0.000413611
0.00621304
-0.000528186
0.00969111
0.00607121
-0.0155619
0.0092735
-0.00739203
-0.000914097
0.00550632
0.0027602
-0.0238144
0.00494361
-0.00101034
-0.00580051
-8.77465e-05
0.00501407
0.00187103
-0.00276802
-0.00527351
-0.00598183
0.00101988
0.0120355
8.33008e-05
0.0141014
0.00550289
-0.0238329
0.00496365
-0.00583301
0.00499866
0.00241971
0.00776221
-0.0339971
0.00571571
0.00343819
-0.0125355
0.00291006
0.00781884
0.0102112
-0.00777586
5.27555e-05
0.0106205
-0.00344599
0.0185099
-0.00292277
0.0305542
0.00240282
-0.0340113
0.0057334
-0.0126094
0.00780951
-0.0141731
0.00994687
-0.0297709
-0.0132268
0.00658101
-0.0200629
0.00648522
-0.0118933
-0.00140822
-0.00995343
0.021361
-0.00481142
-0.00656887
0.0350627
-0.0064781
0.0387059
-0.014171
-0.029794
-0.0132424
-0.020107
-0.0119112
-0.00750985
0.0218086
-0.00672444
0.0209658
0.0223243
-0.00809453
-0.0217994
-0.00823526
-0.0209374
-0.0223104
-0.007502
-0.00672937
-0.0138341
0.000191189
-0.000105425
-0.00846868
-0.00075504
-0.00460827
0.000578847
-0.00904586
-0.00237169
-0.000188404
0.00423247
-0.00604273
0.000761616
0.00215519
-0.000575714
-0.00488796
-0.0138266
-0.000103297
-0.00846506
-0.00460246
-0.0090437
-0.00927869
0.00053019
-0.000907775
-0.00607118
-0.000411621
-0.00740239
0.000453903
-0.0155712
-2.94711e-05
-0.00052826
0.00973929
-0.00495011
0.000413463
0.00625134
-0.000450811
-0.00893344
-0.00928127
-0.000901252
-0.00607528
-0.00739746
-0.0155727
-0.00497164
-8.23199e-05
0.00500989
-0.00550056
-0.00102163
-0.00585137
0.00277018
-0.0238492
0.00598351
8.70434e-05
0.0141754
-0.0018801
0.0010164
0.0120768
-0.00276786
-0.00527598
-0.0049615
0.0050219
-0.00551089
-0.0058335
-0.0238505
-0.00574418
0.00295455
0.00781995
-0.00240382
0.00344228
-0.0126234
0.00778777
-0.0340557
-0.0106072
-0.00294851
0.0306799
-0.010221
-0.00344237
0.0185851
-0.00778278
6.74639e-05
-0.00576351
0.00781352
-0.00245623
-0.0125941
-0.034059
0.0132354
0.006481
-0.0119288
0.0141388
0.00658321
-0.0201305
0.00992497
-0.0298256
0.00491937
-0.00649433
0.0387361
0.00153241
-0.00659621
0.0350789
-0.00990858
0.0214373
0.013273
-0.0119197
0.0142042
-0.0200996
-0.029787
0.00674705
0.022292
0.00752746
0.0209337
0.0217818
0.00824253
-0.0223007
0.0081489
-0.0209513
-0.0217783
0.00674358
0.00752905
)
;

boundaryField
{
    fuel
    {
        type            calculated;
        value           nonuniform List<scalar> 
36
(
0.000117305
0.000192433
0.000117305
0.000117305
0.000192433
0.000117305
0.000117305
0.000192433
0.000117305
-0.000117305
-0.000192432
-0.000117305
-0.000117305
-0.000192432
-0.000117305
-0.000117305
-0.000192432
-0.000117305
0
0
0
0
0
0
0
0
0
0
0
0
0
0
0
0
0
0
)
;
    }
    primary_air
    {
        type            calculated;
        value           nonuniform List<scalar> 9(-0.0031984 -0.00525341 -0.0031984 -0.00319908 -0.00525295 -0.00319908 -0.00319844 -0.00525344 -0.00319843);
    }
    Secondary_air_RHS
    {
        type            calculated;
        value           nonuniform List<scalar> 9(0.00424239 0.00681836 0.0042424 0.00423951 0.0068054 0.00423954 0.00423801 0.00681728 0.00423804);
    }
    Secondary_air_LHS
    {
        type            calculated;
        value           nonuniform List<scalar> 9(0.0042425 0.00681853 0.00424244 0.00423968 0.00680559 0.00423962 0.0042382 0.00681749 0.00423816);
    }
    outlet
    {
        type            calculated;
        value           nonuniform List<scalar> 
18
(
-0.0409706
0.0750852
-0.0409614
-0.0418465
0.0770353
-0.0418351
-0.0440808
0.073147
-0.044036
-0.0440699
0.073063
-0.0440918
-0.0418144
0.0771062
-0.0418175
-0.0409423
0.0751048
-0.0409513
)
;
    }
    stove_body
    {
        type            calculated;
        value           uniform 0;
    }
    frontAndBack
    {
        type            empty;
        value           nonuniform 0();
    }
}


// ************************************************************************* //
