/*--------------------------------*- C++ -*----------------------------------*\
  =========                 |
  \\      /  F ield         | OpenFOAM: The Open Source CFD Toolbox
   \\    /   O peration     | Website:  https://openfoam.org
    \\  /    A nd           | Version:  6
     \\/     M anipulation  |
\*---------------------------------------------------------------------------*/
FoamFile
{
    version     2.0;
    format      ascii;
    class       volScalarField;
    location    "3";
    object      T;
}
// * * * * * * * * * * * * * * * * * * * * * * * * * * * * * * * * * * * * * //

dimensions      [0 0 0 1 0 0 0];

internalField   nonuniform List<scalar> 
297
(
291.583
292.146
291.594
296.47
297.425
296.489
291.583
292.146
291.594
291.612
292.162
291.624
300.748
303.472
300.797
291.612
292.162
291.624
293.096
293.908
293.116
301.354
304.089
301.409
293.096
293.908
293.116
295.577
301.11
295.578
294.387
296.932
294.388
295.634
301.265
295.635
305.894
303.909
306.18
301.053
299.686
301.215
306.002
304.104
306.175
309.548
303.893
309.79
304.362
306.653
304.479
309.617
304.099
309.758
302.81
299.563
302.943
310.888
308.538
311.038
302.849
299.568
302.935
301.616
299.436
301.756
310.884
310.637
311.035
301.639
299.44
301.722
299.56
298.045
299.719
309.637
307.097
309.719
299.654
298.052
299.711
309.809
301.473
310.049
307.298
307.969
307.431
309.882
301.894
310.026
307.44
299.791
306.737
307.878
307.984
308.014
307.501
300.121
306.727
305.67
299.329
305.83
309.849
308.079
309.997
305.719
299.68
305.822
298.409
297.895
298.482
309.213
300.159
309.229
298.485
297.898
298.508
296.781
296.876
296.813
308.107
300.168
308.286
296.724
297.012
296.826
296.636
296.692
296.725
300.845
300.215
300.702
296.59
296.708
296.765
297.028
295.824
294.748
309.187
309.241
309.243
297.077
295.871
294.795
296.987
295.307
294.91
306.465
306.566
308.041
296.983
295.302
294.898
296.68
295.472
295.192
300.546
300.333
303.908
296.71
295.473
295.192
294.95
295.515
296.958
309.223
309.223
309.172
294.728
295.368
297.063
294.881
295.253
296.908
308.05
306.453
306.352
294.8
295.209
296.919
295.241
295.431
296.564
303.591
300.245
300.63
295.09
295.365
296.521
294.849
294.997
294.398
298.438
298.48
302.159
294.939
295.054
294.457
294.718
294.992
294.736
298.534
298.59
304.336
294.804
295.012
294.747
294.18
295.116
295.164
298.521
300.792
303.977
294.266
295.086
295.092
293.967
294.435
292.863
298.787
298.719
300.255
294.053
294.266
292.738
292.839
293.797
294.202
298.593
296.967
297.456
292.913
293.604
294.153
288.891
288.384
288.39
285.539
283.526
284.527
288.893
288.387
288.393
294.475
295.074
294.957
302.263
298.555
298.53
294.526
295.125
295.05
294.803
295.069
294.825
304.388
298.634
298.603
294.78
295.042
294.76
295.189
295.19
294.33
304.035
300.837
298.587
295.196
295.178
294.297
292.848
294.399
293.969
299.01
298.989
298.819
292.877
294.434
294.107
294.207
293.803
292.661
296.939
295.956
298.401
294.206
293.798
292.394
288.394
288.388
288.888
284.623
283.797
285.416
288.396
288.389
288.889
)
;

boundaryField
{
    fuel
    {
        type            fixedValue;
        value           uniform 293;
    }
    primary_air
    {
        type            fixedValue;
        value           uniform 293;
    }
    Secondary_air_RHS
    {
        type            fixedValue;
        value           uniform 293;
    }
    Secondary_air_LHS
    {
        type            fixedValue;
        value           uniform 293;
    }
    outlet
    {
        type            inletOutlet;
        inletValue      uniform 293;
        value           nonuniform List<scalar> 
18
(
293
284.623
293
293
283.801
293
293
285.415
293
293
285.539
293
293
283.526
293
293
284.527
293
)
;
    }
    stove_body
    {
        type            fixedValue;
        value           uniform 293;
    }
    frontAndBack
    {
        type            empty;
    }
}


// ************************************************************************* //
