/*--------------------------------*- C++ -*----------------------------------*\
  =========                 |
  \\      /  F ield         | OpenFOAM: The Open Source CFD Toolbox
   \\    /   O peration     | Website:  https://openfoam.org
    \\  /    A nd           | Version:  6
     \\/     M anipulation  |
\*---------------------------------------------------------------------------*/
FoamFile
{
    version     2.0;
    format      ascii;
    class       volVectorField;
    location    "3";
    object      U;
}
// * * * * * * * * * * * * * * * * * * * * * * * * * * * * * * * * * * * * * //

dimensions      [0 1 -1 0 0 0 0];

internalField   nonuniform List<vector> 
297
(
(118.357 0.0036514 0.267942)
(118.524 0.000334422 0.264378)
(118.357 -0.00433276 0.267898)
(-1.05532e-07 0.0954598 -0.53884)
(-1.06399e-07 0.000961854 -0.545568)
(-1.06285e-07 -0.0966175 -0.539252)
(-118.357 0.00365173 0.267943)
(-118.524 0.000334798 0.26438)
(-118.357 -0.00433275 0.267899)
(118.215 -0.0180078 0.598239)
(118.431 0.000305244 0.608843)
(118.215 0.0172998 0.598305)
(-8.99613e-08 -0.0142178 -0.30928)
(-9.05375e-08 0.000873265 -0.309336)
(-9.06807e-08 0.0116513 -0.308919)
(-118.215 -0.0180075 0.598242)
(-118.431 0.00030566 0.608847)
(-118.215 0.0172998 0.598309)
(111.139 -0.0603432 0.924775)
(111.911 0.000404927 0.940275)
(111.147 0.0591883 0.924896)
(-8.87449e-08 -0.0292402 0.524169)
(-8.94805e-08 0.000978873 0.538202)
(-8.94917e-08 0.0270967 0.524473)
(-111.139 -0.0603422 0.924776)
(-111.91 0.000405464 0.940277)
(-111.146 0.0591877 0.924897)
(79.4928 -3.04873 -5.4167)
(81.5788 0.0277159 -8.93774)
(79.5001 3.10934 -5.47019)
(1.75393e-05 -1.5088 2.96668)
(-5.8246e-06 -0.0103818 3.11519)
(-8.85038e-05 1.54073 2.98791)
(-79.5061 -3.07992 -5.51874)
(-81.618 0.00846851 -8.97917)
(-79.5105 3.12306 -5.53203)
(83.3136 3.84598 12.0474)
(82.9672 0.119307 -14.9799)
(83.388 -4.40401 11.7957)
(5.75222e-05 2.34489 29.3089)
(-0.00029162 0.0671091 16.7928)
(-0.000120695 -2.67193 29.2539)
(-83.342 3.95935 12.0712)
(-82.8115 0.0510229 -15.0364)
(-83.3879 -4.31811 11.9322)
(83.6693 15.459 -7.23995)
(82.4392 0.249531 -15.9325)
(83.7397 -15.2177 -6.94336)
(0.000429507 -1.4888 36.1043)
(-0.000457856 0.0289944 0.345619)
(-0.000355142 1.43694 36.0938)
(-83.6887 15.3712 -7.12123)
(-82.3189 0.117525 -15.9742)
(-83.7288 -15.3194 -7.1397)
(81.9885 5.37377 -27.9426)
(81.6063 -0.167178 -18.9685)
(82.0291 -4.97364 -27.8403)
(-0.000498527 3.03954 -1.22176)
(-5.00637e-05 -0.0394818 -10.0532)
(8.62863e-05 -3.08131 -1.19772)
(-82.0023 5.22354 -27.8875)
(-81.5961 -0.0442839 -18.9703)
(-82.0246 -5.11373 -27.9025)
(82.0278 11.4709 -18.6083)
(81.3272 -0.234719 -24.7554)
(82.0772 -11.0517 -18.4153)
(-5.17614e-05 3.12867 2.5359)
(0.000170208 0.012223 1.165)
(0.000807485 -3.20244 2.53352)
(-82.038 11.325 -18.5353)
(-81.3286 -0.0622334 -24.7642)
(-82.0619 -11.2091 -18.4983)
(81.5593 18.0969 -26.5933)
(80.9196 -0.455888 -26.307)
(81.5983 -17.8664 -26.5063)
(-4.13221e-05 0.329778 11.2739)
(0.000473919 0.0928873 3.04656)
(0.000741699 -0.297 11.2682)
(-81.5825 18.0318 -26.5792)
(-80.9199 -0.126516 -26.3214)
(-81.5962 -17.9486 -26.5494)
(76.3805 18.9378 -22.7307)
(78.0121 0.076038 -12.7883)
(76.4987 -18.504 -22.6694)
(-0.000282084 -0.483276 45.6651)
(-0.000172321 0.00618309 -24.8236)
(6.55995e-05 0.434485 45.6874)
(-76.4148 18.7802 -22.6969)
(-75.6761 0.0573952 -12.7504)
(-76.4663 -18.6427 -22.7093)
(74.257 11.3577 -27.5036)
(79.0589 -0.00936718 -10.3279)
(74.1632 -10.8981 -27.3824)
(-0.000240968 0.229152 49.2945)
(0.000155852 0.00266744 -23.6852)
(9.66658e-05 -0.27783 49.3315)
(-74.2878 11.1969 -27.4524)
(-77.8855 0.0313791 -10.372)
(-74.1359 -11.0478 -27.4448)
(69.6081 9.09377 -27.3209)
(80.5628 -0.0385692 -11.7817)
(69.6857 -8.67782 -27.2126)
(-0.000162645 0.789436 47.9758)
(0.000807241 -0.00115841 -19.8657)
(0.000125482 -0.838268 48.0173)
(-69.6318 8.9393 -27.2693)
(-82.3321 0.0171852 -11.8006)
(-69.6475 -8.81871 -27.27)
(79.3125 29.9275 -6.69604)
(79.9583 -0.28505 -9.08307)
(79.3173 -29.9884 -6.78461)
(0.000327264 -7.81105 11.3315)
(0.000370122 0.0259478 -6.6415)
(-0.000298687 7.9625 11.318)
(-79.325 29.9789 -6.73698)
(-79.9568 -0.1175 -9.09097)
(-79.3291 -29.9652 -6.75309)
(80.0021 25.3831 -1.71322)
(80.3323 -0.315424 -4.25405)
(80.0067 -25.4685 -1.75014)
(0.000425517 -9.4317 3.04871)
(0.000357195 0.0117059 -5.16457)
(-0.000524951 9.56212 3.00253)
(-79.9846 25.4241 -1.7194)
(-80.367 -0.211059 -4.2582)
(-80.0111 -25.4471 -1.74471)
(80.562 5.92683 2.54303)
(80.7298 0.249075 -1.26217)
(80.5868 -5.65269 2.43261)
(0.000482959 -1.68875 -1.70272)
(0.000346776 0.255383 -1.2938)
(-0.000628592 1.56909 -1.84799)
(-80.5488 5.83005 2.51744)
(-80.7324 0.108547 -1.26445)
(-80.5977 -5.73216 2.46353)
(77.7277 -31.824 -1.32398)
(78.941 -39.299 -5.23087)
(79.0449 -41.6453 -7.37842)
(-0.00187532 17.8989 9.05866)
(-0.00227786 15.049 7.93595)
(-0.00208524 12.6834 10.3446)
(-77.7513 -31.7851 -1.31178)
(-78.9591 -39.2655 -5.21448)
(-79.0592 -41.6227 -7.36186)
(78.0083 -26.3809 4.44031)
(79.3704 -32.0763 3.59463)
(79.9616 -33.3729 0.729611)
(-0.0018071 16.4218 -3.89005)
(-0.00214411 15.2281 -4.75561)
(-0.00186482 15.7718 2.8548)
(-78.017 -26.3471 4.43898)
(-79.3717 -32.0446 3.59152)
(-79.9561 -33.3507 0.725023)
(80.1354 -7.8839 8.59586)
(80.4608 -4.29214 9.34342)
(80.4226 6.82708 10.6848)
(-0.00181894 2.38842 -4.34318)
(-0.00209066 2.19447 3.36721)
(-0.00163289 16.6566 6.95141)
(-80.1476 -7.85548 8.59489)
(-80.4666 -4.26164 9.33326)
(-80.4244 6.80529 10.6756)
(79.0998 41.549 -7.33897)
(78.8695 39.2087 -5.21234)
(77.7274 31.7361 -1.30958)
(8.62358e-05 -12.6105 10.3248)
(0.000272272 -14.8899 7.94582)
(0.00043076 -17.7788 9.10196)
(-79.0406 41.6114 -7.38111)
(-78.8281 39.2716 -5.24632)
(-77.7469 31.7906 -1.3233)
(79.9497 33.2955 0.716086)
(79.3607 31.9933 3.57504)
(78.0045 26.2919 4.43634)
(-4.18993e-05 -15.7007 2.81421)
(7.04381e-05 -15.1528 -4.76591)
(0.000284474 -16.3495 -3.84459)
(-79.9317 33.3455 0.693136)
(-79.3488 32.0473 3.57504)
(-78.0003 26.3377 4.4456)
(80.4356 -6.7851 10.6437)
(80.4539 4.21039 9.2964)
(80.1102 7.79714 8.59462)
(1.69123e-05 -16.6063 6.88178)
(3.15219e-05 -2.24353 3.30681)
(0.0002566 -2.44186 -4.27446)
(-80.397 -6.86072 10.6718)
(-80.4353 4.23268 9.33016)
(-80.0978 7.81143 8.61648)
(77.7042 18.2557 -22.1689)
(76.8069 23.2192 -15.7934)
(79.1175 37.8244 -12.7509)
(0.000573641 9.40136 -7.51549)
(0.000470807 7.70068 -0.47717)
(0.000216875 5.65202 6.25543)
(-77.7242 18.2864 -22.2072)
(-76.8252 23.2544 -15.8364)
(-79.1317 37.8653 -12.7919)
(78.1977 5.3329 -36.6052)
(78.0628 14.0611 -21.7735)
(80.1212 27.4236 -3.33216)
(0.000640968 4.06424 -11.5357)
(0.000454474 6.13083 3.58491)
(0.000151882 1.11064 12.7519)
(-78.2201 5.35431 -36.6188)
(-78.0636 14.0391 -21.8127)
(-80.1233 27.438 -3.34435)
(81.3501 2.3118 -46.0664)
(77.6251 7.75558 -15.9492)
(79.6031 13.707 4.37629)
(0.000655854 3.45482 -15.4922)
(0.000397942 -4.54774 17.0369)
(0.00016982 -14.3444 17.4501)
(-81.3769 2.32638 -46.0758)
(-77.5992 7.71723 -16.0231)
(-79.5884 13.8496 4.32578)
(80.5162 -8.35886 -60.9816)
(79.9673 -0.603886 -5.53799)
(79.4172 10.536 63.5501)
(0.000340613 -7.58478 9.74702)
(0.000279377 7.30343 35.8088)
(0.000274562 -2.6317 58.903)
(-80.5395 -8.36794 -60.9952)
(-79.9202 -0.637411 -5.72755)
(-79.383 10.5991 63.5356)
(78.7643 -1.59498 -83.6605)
(78.1928 -9.27992 -38.8722)
(78.1379 0.0268022 -0.451197)
(-0.000425495 -0.849391 29.6456)
(-0.000401874 -1.18202 66.5762)
(-0.00034738 -1.16931 86.5116)
(-78.789 -1.5846 -83.7265)
(-78.1415 -9.28199 -39.0903)
(-78.1261 0.0355964 -0.545612)
(74.3888 -1.7828 -124.445)
(73.9301 -2.8938 -116.528)
(74.1644 -1.51607 -113.549)
(-0.000893643 -1.98086 177.403)
(-0.000901266 -2.92738 186.359)
(-0.000894628 -1.72996 181.916)
(-74.3923 -1.78436 -124.521)
(-73.9288 -2.89325 -116.536)
(-74.1668 -1.51741 -113.578)
(79.1316 -37.8912 -12.7962)
(76.8277 -23.2723 -15.8469)
(77.7256 -18.3069 -22.2189)
(-0.00158779 -5.62121 6.25635)
(-0.00120862 -7.71765 -0.431301)
(-0.0010684 -9.42081 -7.50572)
(-79.1514 -37.8846 -12.7776)
(-76.8378 -23.2662 -15.8296)
(-77.7527 -18.2977 -22.2086)
(80.1355 -27.4574 -3.33053)
(78.0761 -14.0318 -21.8395)
(78.2252 -5.36806 -36.6557)
(-0.00127587 -1.07384 12.8226)
(-0.00102902 -6.15797 3.62704)
(-0.00115934 -4.08463 -11.54)
(-80.1343 -27.4581 -3.33417)
(-78.0701 -14.059 -21.8307)
(-78.205 -5.35661 -36.671)
(79.6123 -13.8876 4.34035)
(77.617 -7.70434 -16.0763)
(81.3951 -2.34239 -46.1293)
(-0.000560899 14.3888 17.5404)
(-0.00034252 4.53151 17.1088)
(-0.000871444 -3.48069 -15.5146)
(-79.6103 -13.7864 4.36913)
(-77.6245 -7.74912 -16.0395)
(-81.3924 -2.33649 -46.1565)
(79.4132 -10.6317 63.5706)
(79.9583 0.647086 -5.84062)
(80.5195 8.37377 -61.1102)
(0.0038448 2.63872 58.966)
(0.00352496 -7.32063 35.8514)
(0.00293504 7.59132 9.72728)
(-79.4127 -10.5882 63.5831)
(-79.9571 0.606194 -5.71982)
(-80.5473 8.36218 -61.1404)
(78.1399 -0.063025 -0.532541)
(78.1948 9.28822 -39.1146)
(78.7112 1.58197 -83.8818)
(-0.00344333 1.18293 86.4842)
(-0.00312584 1.21518 66.5982)
(-0.00244169 0.870412 29.7088)
(-78.1448 -0.0404008 -0.524643)
(-78.199 9.31394 -39.0245)
(-78.6432 1.59923 -83.8673)
(74.1687 1.52141 -113.639)
(73.9371 2.90023 -116.631)
(74.3913 1.78935 -124.478)
(0.00103588 1.73327 181.928)
(0.00104625 2.94235 186.361)
(0.000999724 1.99372 177.54)
(-74.1668 1.51984 -113.614)
(-73.9374 2.90128 -116.599)
(-74.3869 1.78901 -124.322)
)
;

boundaryField
{
    fuel
    {
        type            fixedValue;
        value           uniform (0 0 0.25);
    }
    primary_air
    {
        type            fixedValue;
        value           uniform (0 0 2.5);
    }
    Secondary_air_RHS
    {
        type            fixedValue;
        value           uniform (0 33.3333 0);
    }
    Secondary_air_LHS
    {
        type            fixedValue;
        value           uniform (0 -33.3333 0);
    }
    outlet
    {
        type            pressureInletOutletVelocity;
        value           nonuniform List<vector> 
18
(
(0 0 -113.639)
(0.00103588 1.73327 181.928)
(0 0 -113.614)
(0 0 -116.631)
(0.00104625 2.94235 186.361)
(0 0 -116.599)
(0 0 -124.478)
(0.000999724 1.99372 177.54)
(0 0 -124.322)
(0 0 -124.445)
(-0.000893643 -1.98086 177.403)
(0 0 -124.521)
(0 0 -116.528)
(-0.000901266 -2.92738 186.359)
(0 0 -116.536)
(0 0 -113.549)
(-0.000894628 -1.72996 181.916)
(0 0 -113.578)
)
;
    }
    stove_body
    {
        type            noSlip;
    }
    frontAndBack
    {
        type            empty;
    }
}


// ************************************************************************* //
