/*--------------------------------*- C++ -*----------------------------------*\
  =========                 |
  \\      /  F ield         | OpenFOAM: The Open Source CFD Toolbox
   \\    /   O peration     | Website:  https://openfoam.org
    \\  /    A nd           | Version:  6
     \\/     M anipulation  |
\*---------------------------------------------------------------------------*/
FoamFile
{
    version     2.0;
    format      ascii;
    class       volScalarField;
    location    "1";
    object      O2;
}
// * * * * * * * * * * * * * * * * * * * * * * * * * * * * * * * * * * * * * //

dimensions      [0 0 0 0 0 0 0];

internalField   nonuniform List<scalar> 
297
(
0
0
0
0
0
0
0
0
0
0
0
0
0
0
0
0
0
0
0
0
0
0
0
0
0
0
0
0.107363
0.0588087
0.131108
0.194182
0.149313
0.192824
0.11622
0.10994
0.160321
0
7.83867e-06
0.00983985
0.0961706
0.108636
0.107013
0
1.27612e-05
0
0
0
0
0.0571882
0.0239263
0.0631674
0
0
0
0
1.45028e-11
0
0
0
0
0
0
0
1.09211e-17
1.6103e-16
0
1.04515e-20
4.97746e-19
1.5517e-20
7.43518e-21
1.10481e-19
2.13857e-20
4.01375e-21
1.80176e-20
1.38161e-20
1.17373e-20
1.6108e-19
4.62586e-20
5.255e-21
1.34484e-20
2.42662e-20
0
0
0
0.0177423
6.37414e-07
0.0240305
0
0
0
0
0
0
0
8.36016e-09
0.00636108
0
1.29349e-08
0
0
0
0
0
0
0
0
0
0
2.81978e-21
5.64177e-21
1.19231e-20
1.13332e-20
1.32325e-20
4.58088e-20
1.88483e-21
4.51996e-21
7.18743e-21
6.90757e-22
1.74399e-21
5.76033e-21
3.64466e-21
1.28593e-20
4.37118e-20
9.2038e-22
3.72138e-21
4.68297e-21
1.49265e-22
7.56727e-22
2.98667e-21
4.3158e-21
1.0679e-20
2.52386e-20
2.45864e-21
4.23447e-21
5.31696e-21
3.06241e-21
5.38238e-22
5.77983e-22
3.46929e-20
2.0912e-22
1.36761e-22
1.34664e-21
2.16609e-22
2.96881e-22
6.54626e-21
2.05383e-21
2.46337e-21
4.28843e-20
3.98978e-20
2.85454e-20
4.49871e-21
1.62364e-21
1.50294e-21
4.48714e-21
2.0086e-21
4.06674e-21
2.58543e-20
2.63548e-20
2.7583e-20
4.69818e-21
2.76954e-21
7.03098e-21
8.08013e-23
7.51455e-23
1.27334e-21
1.12238e-21
1.02115e-20
1.06746e-20
1.37162e-22
9.16148e-22
1.4263e-21
2.71735e-22
2.20146e-22
7.45969e-22
4.19564e-21
5.91952e-21
4.01507e-21
4.584e-22
6.00601e-22
9.22496e-22
5.61689e-22
2.83524e-22
3.78519e-22
4.08291e-21
3.86683e-21
3.92093e-21
1.13088e-21
7.7887e-22
9.40552e-22
2.64162e-27
3.1043e-27
1.50465e-26
6.78574e-25
9.03731e-26
5.23935e-24
4.49837e-24
5.47288e-23
5.49352e-23
3.37977e-27
5.47191e-27
2.35979e-26
2.69566e-24
8.50426e-25
8.23384e-23
2.02881e-23
1.33517e-22
1.28635e-22
6.62094e-27
6.38627e-27
2.45467e-26
2.04579e-22
1.15794e-21
3.02919e-21
3.34479e-23
2.15268e-22
1.08758e-21
5.76984e-27
6.60183e-27
1.3273e-26
2.75375e-22
9.47896e-22
1.53793e-21
4.91258e-23
4.06363e-22
8.36712e-22
1.53428e-27
3.53271e-27
1.02785e-26
1.96021e-22
3.98793e-22
9.8588e-22
7.08548e-23
2.05867e-22
8.31624e-22
3.64878e-28
8.02542e-28
2.59205e-27
9.82615e-23
2.2217e-22
7.07241e-22
5.66269e-23
2.08455e-22
7.83791e-22
1.10305e-25
2.23361e-26
8.0809e-27
4.64944e-23
4.11889e-23
1.07873e-22
3.78367e-22
3.77013e-22
2.88351e-22
1.72785e-25
3.66942e-26
1.11975e-26
9.18426e-22
4.96767e-23
1.08354e-22
7.05087e-22
7.15192e-22
2.82157e-22
1.72324e-25
4.25385e-26
3.66972e-26
2.09899e-20
8.60224e-21
1.82824e-21
6.64461e-21
1.08604e-21
2.80268e-22
8.72202e-26
4.40806e-26
2.37486e-26
1.01859e-20
6.99316e-21
1.86583e-21
5.1407e-21
1.72262e-21
2.78929e-22
5.0563e-26
2.57028e-26
1.34752e-26
6.69412e-21
2.85389e-21
1.533e-21
4.66318e-21
1.64219e-21
2.68566e-22
1.61559e-26
5.23847e-27
4.0562e-27
4.4181e-21
1.47162e-21
7.13189e-22
4.31821e-21
1.40712e-21
1.97207e-22
)
;

boundaryField
{
    fuel
    {
        type            fixedValue;
        value           uniform 0;
    }
    primary_air
    {
        type            fixedValue;
        value           uniform 0.23;
    }
    Secondary_air_RHS
    {
        type            fixedValue;
        value           uniform 0.23;
    }
    Secondary_air_LHS
    {
        type            fixedValue;
        value           uniform 0.23;
    }
    outlet
    {
        type            inletOutlet;
        inletValue      uniform 0;
        value           nonuniform List<scalar> 
18
(
0
4.4181e-21
0
0
1.47162e-21
0
0
7.13189e-22
0
0
9.82615e-23
0
0
2.2217e-22
0
0
7.07241e-22
0
)
;
    }
    stove_body
    {
        type            fixedValue;
        value           uniform 0;
    }
    frontAndBack
    {
        type            empty;
    }
}


// ************************************************************************* //
