/*--------------------------------*- C++ -*----------------------------------*\
  =========                 |
  \\      /  F ield         | OpenFOAM: The Open Source CFD Toolbox
   \\    /   O peration     | Website:  https://openfoam.org
    \\  /    A nd           | Version:  6
     \\/     M anipulation  |
\*---------------------------------------------------------------------------*/
FoamFile
{
    version     2.0;
    format      ascii;
    class       volScalarField;
    location    "1";
    object      p;
}
// * * * * * * * * * * * * * * * * * * * * * * * * * * * * * * * * * * * * * //

dimensions      [1 -1 -2 0 0 0 0];

internalField   nonuniform List<scalar> 
297
(
123561
123561
123561
204162
204162
204162
123571
123570
123570
123561
123561
123561
204162
204162
204162
123571
123570
123571
123561
123561
123561
204162
204162
204162
123571
123570
123571
97182.8
97203.4
97198.6
160535
160548
160567
97071.2
97089.5
97091.4
97215.8
97227.4
97202.6
160253
160361
160300
97094.1
97133.8
97139.5
97051.8
97182.5
97019.8
158362
159485
158346
96939.4
97077.8
96960
96462
96680.8
96472.7
159383
159207
159392
96355.7
96496.3
96247.2
96675.3
96839.2
96715.9
160097
159878
160067
96618.7
96631
96480.3
96665
96962.1
96729.2
160036
160028
159981
96716.6
96793.9
96542.7
95804.1
97168.7
95813.4
153803
158654
154040
95696.6
96983.1
95901.4
95612.3
97132.8
95621
153256
158680
153524
95499.4
96947.9
95729.8
95533.2
97075.7
95534.6
153620
158800
153905
95412.3
96891.4
95678.7
97283
97427.7
97293.6
160054
160025
159981
97097.2
97162.7
96984.5
97403.1
97498.4
97390.1
160074
160061
160064
97192.6
97222.1
97089.8
97455.8
97500
97427
160075
160105
160119
97215.5
97204.8
97129.9
97621.3
97802.4
98393.7
159813
159841
159769
96987.2
96904.2
96776.3
97332.6
97328.8
97759.3
159867
159774
159599
96918
96678.8
96392.1
97222
97070.5
97063.9
159900
159725
159472
96919.3
96626.8
96282.1
98400.3
97846.2
97663.4
159931
159966
159934
96849.9
96956.5
97040.6
97786.5
97383.8
97382.3
159730
159915
159948
96566
96823.7
97012.3
97127.9
97150.4
97298.1
159594
159836
159942
96473.7
96787
97016.2
98842.6
98990
98868.4
159727
159723
159789
98590.8
98008.2
97174.9
98551.1
98633.5
98366.7
159407
159400
159490
97813.7
97115.6
96577.2
98174.9
98234
97826
158866
158966
159020
96863.8
96335.4
96068.5
95843
95765.4
95740
155295
155252
155073
93195.2
93109.5
93035.6
91162
91095
91099.1
148246
148212
148158
89737.6
89721.5
89674.5
85392
85376
85358.8
136567
136465
136374
88010.9
88178.1
88349
98892.5
99017.5
98856.3
159667
159624
159629
97198.9
98224.1
98936.7
98374.3
98640.9
98537.6
159388
159295
159309
96470.4
97148.9
98035.9
97803.2
98222.6
98139.1
158922
158866
158767
95906.8
96272.6
96974.2
95572.5
95609.8
95705.2
154633
154849
154899
92788.5
92866.5
92944.4
90737.7
90731.8
90801.1
147356
147417
147446
89184.9
89250.8
89280.3
84838.1
84853.7
84869
135346
135435
135529
87614.1
87399.2
87239.3
)
;

boundaryField
{
    fuel
    {
        type            zeroGradient;
    }
    primary_air
    {
        type            zeroGradient;
    }
    Secondary_air_RHS
    {
        type            zeroGradient;
    }
    Secondary_air_LHS
    {
        type            zeroGradient;
    }
    outlet
    {
        type            totalPressure;
        rho             rho;
        psi             none;
        gamma           1;
        p0              uniform 100000;
        value           nonuniform List<scalar> 
18
(
87132.4
100000
99995.1
86819.4
100000
93730.3
87153.6
100000
88234.8
87474.3
100000
88769.9
87243.7
100000
93874.2
87423.8
100000
99989.8
)
;
    }
    stove_body
    {
        type            zeroGradient;
    }
    frontAndBack
    {
        type            empty;
    }
}


// ************************************************************************* //
