/*--------------------------------*- C++ -*----------------------------------*\
  =========                 |
  \\      /  F ield         | OpenFOAM: The Open Source CFD Toolbox
   \\    /   O peration     | Website:  https://openfoam.org
    \\  /    A nd           | Version:  6
     \\/     M anipulation  |
\*---------------------------------------------------------------------------*/
FoamFile
{
    version     2.0;
    format      ascii;
    class       volScalarField;
    location    "1";
    object      T;
}
// * * * * * * * * * * * * * * * * * * * * * * * * * * * * * * * * * * * * * //

dimensions      [0 0 0 1 0 0 0];

internalField   nonuniform List<scalar> 
297
(
291.118
291.107
291.123
292.992
292.989
292.992
291.146
291.115
291.132
291.407
291.184
291.837
293.201
293.054
293.165
294.145
291.72
292.8
307.129
299.937
336.41
300.348
305.986
310.127
496.421
296.547
399.944
324.588
326.591
310.03
300.606
309.977
297.552
322.29
321.046
309.449
354.563
338.258
356.631
331.394
321.406
328.378
353.331
346.793
355.85
354.781
330.611
361.307
337.006
337.83
336.403
353.471
331.403
360.484
336.876
324.83
339.63
356.425
353.253
358.341
335.336
325.889
338.221
332.054
324.599
329.522
356.39
357.418
358.326
326.732
325.587
339.663
323.629
315.499
323.43
356.31
336.399
354.095
315.105
316.399
327.296
356.078
324.552
360.996
344.778
350.741
346.955
354.086
326.764
360.129
348.885
323.585
349.595
349.466
350.721
349.099
347.11
326.01
347.589
342.938
323.505
346.269
354.309
350.956
356.15
341.298
325.914
343.986
311.252
309.928
313.644
349.698
317.137
353.665
307.704
306.814
308.172
302.833
304.334
308.749
306.468
317.075
351.095
302.516
304.961
305.556
302.395
303.158
305.762
307.435
314.477
330.309
303.351
305.138
305.637
306.124
302.61
302.983
341.666
304.576
304.443
301.438
300.028
299.461
309.419
304.218
304.877
349.981
346.683
334.417
305.258
301.824
301.463
307.26
304.577
306.437
330.707
331.361
332.534
305.646
303.459
308.003
301.713
301.432
306.985
310.582
343.498
346.281
298.819
302.562
304.212
302.181
301.825
303.041
316.98
321.028
306.534
301.026
301.85
302.544
302.674
302.485
302.771
311.899
308.435
306.964
302.917
302.238
302.622
302.516
301.93
301.63
302.537
304.211
303.438
297.507
298.631
297.968
302.718
301.601
301.186
302.616
303.897
303.884
297.318
300.05
299.798
302.755
301.472
300.874
302.901
306.465
309.544
297.038
301.255
302.919
301.35
301.263
300.161
301.095
305.755
306.495
296.828
302.385
300.69
298.193
298.003
297.04
300.23
303.189
304.781
293.96
295.042
296.844
291.585
291.408
290.677
291.241
288.821
285.924
290.474
290.185
298.843
302.221
302.441
303.195
304.198
304.421
303.812
299.337
300.147
299.799
301.849
302.101
303.204
305.109
304.35
303.856
300.555
300.893
299.305
301.55
301.922
303.529
325.599
313.356
305.468
307.697
301.683
298.491
300.923
301.751
302.709
314.497
311.128
303.196
303.384
302.498
297.899
294.391
297.937
296.339
311.208
306.761
301.929
299.064
294.714
292.631
290.743
291.51
291.584
289.222
290.362
292.132
301.344
291.317
290.79
)
;

boundaryField
{
    fuel
    {
        type            fixedValue;
        value           uniform 293;
    }
    primary_air
    {
        type            fixedValue;
        value           uniform 293;
    }
    Secondary_air_RHS
    {
        type            fixedValue;
        value           uniform 293;
    }
    Secondary_air_LHS
    {
        type            fixedValue;
        value           uniform 293;
    }
    outlet
    {
        type            inletOutlet;
        inletValue      uniform 293;
        value           nonuniform List<scalar> 
18
(
293
289.226
293
293
290.364
293
293
292.133
293
293
291.241
293
293
288.821
293
293
285.927
293
)
;
    }
    stove_body
    {
        type            fixedValue;
        value           uniform 293;
    }
    frontAndBack
    {
        type            empty;
    }
}


// ************************************************************************* //
