/*--------------------------------*- C++ -*----------------------------------*\
  =========                 |
  \\      /  F ield         | OpenFOAM: The Open Source CFD Toolbox
   \\    /   O peration     | Website:  https://openfoam.org
    \\  /    A nd           | Version:  6
     \\/     M anipulation  |
\*---------------------------------------------------------------------------*/
FoamFile
{
    version     2.0;
    format      ascii;
    class       volScalarField;
    location    "2.5";
    object      O2;
}
// * * * * * * * * * * * * * * * * * * * * * * * * * * * * * * * * * * * * * //

dimensions      [0 0 0 0 0 0 0];

internalField   nonuniform List<scalar> 
297
(
0
0
0
0
0
0
0
0
0
0
0
0
0
0
0
0
0
0
0
0
0
0
0
0
0
0
0
0.0683291
0.0848853
0.156783
0.166123
0.161811
0.20634
0.0641265
0.0780396
0.142649
0
8.26858e-06
0.0206973
0.0797198
0.127757
0.108049
0
5.94284e-06
0.00789319
0
0
0
0.0515891
0.025198
0.0752646
0
0
0
0
1.19893e-10
0
0
0
0
1.57166e-05
1.22286e-09
0
0
0
0
0
0
0
0
0
0
0
0
0
0
0
0
0
0
0
0
0
0
0.00781675
5.7179e-07
0.031034
0
0
0
0
0
0
0
0
0.0104889
0
1.10958e-08
0
0
0
0
0
0
0
0
0
0
0
0
0
0
0
0
0
0
0
5.7525e-21
2.08068e-17
2.23186e-16
0
0
0
0
4.71416e-19
0
4.27097e-21
4.88119e-18
1.47427e-16
0
0
0
6.9832e-19
4.69875e-19
0
0
3.19108e-18
5.94766e-19
0
2.23025e-17
6.58733e-20
0
0
1.1425e-24
0
9.5426e-19
6.13568e-19
0
0
0
0
0
0
4.68325e-17
3.00111e-17
1.96358e-17
0
0
0
0
7.14639e-24
0
9.66777e-22
0
0
2.50999e-20
0
0
3.35761e-20
4.91505e-18
2.74212e-17
3.27344e-21
3.1072e-21
0
2.29383e-22
0
0
3.97625e-20
3.75725e-19
1.47794e-19
6.83609e-21
5.0884e-21
2.6736e-21
5.12726e-20
8.67337e-20
1.49395e-19
9.88754e-19
1.7795e-18
2.28286e-18
2.8096e-25
1.27006e-25
3.23334e-25
1.07401e-20
7.14564e-21
9.58679e-21
1.81706e-20
3.00457e-20
3.15432e-20
5.68881e-25
1.50672e-25
4.50618e-25
1.19793e-20
7.81605e-21
1.09238e-20
2.20709e-20
3.65889e-20
3.86819e-20
5.17508e-25
1.56993e-25
4.67671e-25
1.72499e-20
1.24566e-20
3.38306e-20
2.43921e-20
4.02276e-20
6.24387e-19
2.14047e-25
1.97055e-25
4.12384e-25
1.37999e-20
1.18106e-20
2.21219e-20
2.56805e-20
8.44924e-20
2.72034e-19
1.55262e-25
2.1187e-25
5.08684e-25
1.43634e-20
1.95327e-20
2.19504e-20
2.74812e-20
9.62131e-20
2.41901e-19
7.74505e-26
1.27649e-25
3.1338e-25
1.30602e-20
3.43078e-20
8.36906e-20
1.83028e-20
7.37258e-20
2.4327e-19
6.3121e-19
6.18183e-19
6.07537e-19
1.52137e-19
1.33099e-19
2.53864e-19
9.19991e-24
6.91243e-24
9.88364e-24
6.12164e-19
5.90689e-19
5.77624e-19
1.75896e-19
1.55824e-19
2.51911e-19
9.10573e-24
5.76406e-24
1.23652e-23
1.4461e-17
5.85055e-19
5.69317e-19
2.45559e-20
4.16648e-20
3.04536e-19
9.44489e-24
5.41977e-24
1.07457e-23
6.88885e-18
9.5068e-19
5.40382e-19
9.86908e-21
1.49264e-20
1.41154e-19
1.06703e-23
5.33056e-24
5.47037e-24
6.38467e-18
2.06165e-18
5.19331e-19
2.54037e-20
1.2574e-19
1.44997e-19
9.90373e-24
4.32716e-24
2.04295e-24
6.19582e-18
1.82049e-18
4.37174e-19
1.72445e-18
6.87604e-19
2.22894e-19
9.90157e-24
3.92545e-24
1.2881e-24
)
;

boundaryField
{
    fuel
    {
        type            fixedValue;
        value           uniform 0;
    }
    primary_air
    {
        type            fixedValue;
        value           uniform 0.23;
    }
    Secondary_air_RHS
    {
        type            fixedValue;
        value           uniform 0.23;
    }
    Secondary_air_LHS
    {
        type            fixedValue;
        value           uniform 0.23;
    }
    outlet
    {
        type            inletOutlet;
        inletValue      uniform 0;
        value           nonuniform List<scalar> 
18
(
0
1.72445e-18
0
0
6.87604e-19
0
0
2.22894e-19
0
0
1.30602e-20
0
0
3.43078e-20
0
0
8.36906e-20
0
)
;
    }
    stove_body
    {
        type            fixedValue;
        value           uniform 0;
    }
    frontAndBack
    {
        type            empty;
    }
}


// ************************************************************************* //
