/*--------------------------------*- C++ -*----------------------------------*\
  =========                 |
  \\      /  F ield         | OpenFOAM: The Open Source CFD Toolbox
   \\    /   O peration     | Website:  https://openfoam.org
    \\  /    A nd           | Version:  6
     \\/     M anipulation  |
\*---------------------------------------------------------------------------*/
FoamFile
{
    version     2.0;
    format      ascii;
    class       volScalarField;
    location    "2.5";
    object      p;
}
// * * * * * * * * * * * * * * * * * * * * * * * * * * * * * * * * * * * * * //

dimensions      [1 -1 -2 0 0 0 0];

internalField   nonuniform List<scalar> 
297
(
120781
120781
120781
199929
199928
199929
120782
120782
120782
120781
120781
120781
199929
199928
199929
120782
120782
120782
120781
120781
120781
199929
199929
199929
120782
120782
120782
96994.4
96999.1
96993.2
160341
160373
160424
97037.9
97063.7
97063.1
97014
96968.6
96954.4
160052
160159
160122
97049.3
97032.7
97035.1
97001
97007.7
96687.1
158177
159377
158230
96989.2
97017.9
96779.8
96114.3
96489
96239.9
159271
158996
159056
96250.7
96498.7
96269.1
96507
96695.1
96605.1
160092
159865
159915
96634.8
96638
96502.4
96545.3
96853
96780.5
160095
160076
160083
96859.6
96885.5
96629.3
95508.9
97126.3
95763.1
152638
157991
154902
95019.3
97035.7
95821.1
95297.4
97095.1
95613.1
152036
157936
154453
94746.3
97006.5
95678
95275.2
97021.2
95519.9
152513
158040
154580
94660
96949.7
95598.9
97068.9
97339
97249.1
160071
160164
160261
97201.7
97316.2
97157.8
97179.2
97405.8
97365.9
160097
160234
160346
97291.6
97370.1
97212.8
97264.8
97393.2
97393.2
160118
160274
160383
97321
97355.8
97251.9
97035.6
96889
96768.6
160121
160034
159880
97506.4
97701.4
98386.5
96983
96669.4
96348.7
160103
159949
159670
97162.4
97172.6
97676.6
96967.7
96598
96222.3
160116
159893
159554
97075.4
96941.7
96894.5
98503.3
97820.2
97597.3
159915
159983
159974
96756.4
96902.2
97031.8
97719.4
97240
97237.1
159670
159920
159969
96341.1
96673.2
96962.7
96856.1
96921.8
97112.5
159543
159856
159965
96223.2
96612.8
96951.8
98965.6
99156.5
99034.4
159724
159723
159775
99131.3
98319.3
97203
98579.2
98671.5
98388.2
159346
159312
159394
98120.5
97129.2
96405
98106.8
98148
97705.4
158710
158801
158867
96973.4
96212.7
95821.9
95242
95177
95164
154518
154496
154319
92600
92546.2
92466.2
90154.9
90076.5
90078.5
146740
146713
146659
88774
88744.3
88653.8
84119.2
84101.9
84083.8
134837
134741
134641
86605
86759.2
86945.7
97245.6
98378.9
99202.9
159779
159745
159756
98930.4
99046.7
98880
96454.8
97200.5
98206.1
159404
159332
159400
98312
98587.9
98504.5
95896.8
96317.1
97066.2
158914
158874
158806
97669.4
98088.8
98049.3
92547.9
92626.4
92671.1
154412
154616
154637
95255.4
95263.6
95326
88705.6
88803
88835.9
146772
146827
146853
90208.4
90205.6
90282.6
86968
86790.7
86638.3
134708
134807
134896
84191.1
84205.9
84219.7
)
;

boundaryField
{
    fuel
    {
        type            zeroGradient;
    }
    primary_air
    {
        type            zeroGradient;
    }
    Secondary_air_RHS
    {
        type            zeroGradient;
    }
    Secondary_air_LHS
    {
        type            zeroGradient;
    }
    outlet
    {
        type            totalPressure;
        rho             rho;
        psi             none;
        gamma           1;
        p0              uniform 100000;
        value           nonuniform List<scalar> 
18
(
99997.2
100000
86544.2
93533.8
100000
86514.4
87886.3
100000
86619.4
86457.5
100000
87809.4
86251.6
100000
93569.4
86382.2
100000
99998.4
)
;
    }
    stove_body
    {
        type            zeroGradient;
    }
    frontAndBack
    {
        type            empty;
    }
}


// ************************************************************************* //
