/*--------------------------------*- C++ -*----------------------------------*\
  =========                 |
  \\      /  F ield         | OpenFOAM: The Open Source CFD Toolbox
   \\    /   O peration     | Website:  https://openfoam.org
    \\  /    A nd           | Version:  6
     \\/     M anipulation  |
\*---------------------------------------------------------------------------*/
FoamFile
{
    version     2.0;
    format      ascii;
    class       volScalarField;
    location    "2.5";
    object      p;
}
// * * * * * * * * * * * * * * * * * * * * * * * * * * * * * * * * * * * * * //

dimensions      [1 -1 -2 0 0 0 0];

internalField   nonuniform List<scalar> 
297
(
110636
110636
110636
181496
181496
181496
110636
110636
110636
110635
110635
110635
181496
181496
181496
110635
110635
110635
110635
110635
110635
181497
181497
181497
110635
110635
110635
97264.4
97284.9
97265.2
159758
159744
159758
97264.7
97285.1
97265.1
97218.2
97238.9
97219.7
159557
159591
159557
97218.3
97237.4
97219.2
97117.3
97254.8
97123.5
158211
158961
158214
97119
97252.8
97122.4
97023.6
97146.2
97020.1
159420
159170
159416
97023.3
97146.7
97021.1
96986.5
97098.7
96981.4
159432
159397
159430
96985
97098.7
96983.2
96889
97085.7
96885
159207
159287
159208
96887
97086.2
96887.5
96761.3
97360.2
96759.3
155515
158403
155512
96760.7
97359.8
96759.6
96697
97350
96693.7
155220
158484
155216
96696.4
97351.4
96694.3
96663.1
97323.7
96659.2
155491
158667
155487
96663
97328.1
96660.1
97335
97396.3
97335.4
159239
159290
159243
97335
97397.7
97337.6
97428.5
97462.2
97430
159325
159310
159330
97429
97463.9
97432.3
97470.8
97477.2
97473.4
159371
159345
159376
97471.7
97478.9
97475.5
97484
97384.2
97318
159019
159160
159345
97485.1
97384.5
97316.9
97398.8
97249.3
97129.1
159162
159204
159341
97399.9
97249.7
97128.1
97362.5
97209.6
97098.6
159222
159180
159171
97363.4
97209.8
97097.5
97316.1
97381
97480.3
159342
159156
159015
97316.6
97381.9
97481.5
97128.4
97246.9
97395.2
159340
159201
159158
97128.3
97246.9
97395.8
97098
97207.2
97358.6
159171
159178
159219
97098.2
97207
97359
98599.4
98229
97629.3
159379
159350
159384
98603
98232.1
97630.8
98186.4
97707.3
97288.7
159210
159117
159246
98190.4
97710.2
97289.9
97764.5
97317.2
97040.8
158981
158791
158874
97768.4
97319.8
97042
96320.6
96228.8
96209.4
157528
157430
157370
96322.1
96230.1
96210.7
94774.7
94835
94907.1
153352
153339
153339
94772.4
94832.8
94905.2
91447.6
91522.7
91592.5
141603
141627
141658
91443.2
91518.2
91588.1
97631.6
98232.7
98603.3
159385
159350
159377
97629.3
98230
98600.7
97289.5
97709.8
98189.9
159245
159115
159208
97287.3
97706.8
98186.9
97039.4
97317
97767.2
158869
158785
158975
97037.5
97314.7
97763.8
96194.8
96214.4
96307.7
157345
157405
157504
96194.9
96216.3
96313.7
94909.1
94836.3
94774.4
153336
153337
153351
94906.4
94831.7
94765.3
91580.7
91510.6
91435.4
141650
141618
141592
91583.2
91513
91437.5
)
;

boundaryField
{
    fuel
    {
        type            zeroGradient;
    }
    primary_air
    {
        type            zeroGradient;
    }
    Secondary_air_RHS
    {
        type            zeroGradient;
    }
    Secondary_air_LHS
    {
        type            zeroGradient;
    }
    outlet
    {
        type            totalPressure;
        rho             rho;
        psi             none;
        gamma           1;
        p0              uniform 100000;
        value           nonuniform List<scalar> 
18
(
93087.4
100000
93089.2
92746.4
100000
92748.3
91834.6
100000
91837.7
91824.1
100000
91815.3
92758.5
100000
92757.8
93098.8
100000
93095.7
)
;
    }
    stove_body
    {
        type            zeroGradient;
    }
    frontAndBack
    {
        type            empty;
    }
}


// ************************************************************************* //
