/*--------------------------------*- C++ -*----------------------------------*\
  =========                 |
  \\      /  F ield         | OpenFOAM: The Open Source CFD Toolbox
   \\    /   O peration     | Website:  https://openfoam.org
    \\  /    A nd           | Version:  6
     \\/     M anipulation  |
\*---------------------------------------------------------------------------*/
FoamFile
{
    version     2.0;
    format      ascii;
    class       volScalarField;
    location    "2.5";
    object      T;
}
// * * * * * * * * * * * * * * * * * * * * * * * * * * * * * * * * * * * * * //

dimensions      [0 0 0 1 0 0 0];

internalField   nonuniform List<scalar> 
297
(
292.416
291.752
292.431
297.955
296.746
297.979
292.416
291.752
292.431
292.453
291.765
292.468
304.541
301.531
304.617
292.453
291.765
292.468
294.523
293.223
294.547
305.47
302.035
305.547
294.523
293.223
294.547
295.575
301.102
295.575
294.389
296.934
294.389
295.638
301.269
295.638
305.903
303.903
306.166
301.056
299.685
301.219
305.997
304.107
306.191
309.554
303.892
309.785
304.362
306.651
304.481
309.611
304.102
309.77
302.806
299.566
302.943
310.887
308.537
311.038
302.848
299.572
302.941
301.623
299.442
301.766
310.881
310.635
311.032
301.636
299.443
301.731
299.565
298.064
299.739
309.636
307.096
309.716
299.647
298.06
299.717
309.815
301.475
310.05
307.297
307.97
307.432
309.877
301.898
310.036
307.444
299.793
306.739
307.878
307.985
308.016
307.498
300.125
306.734
305.672
299.331
305.832
309.849
308.079
309.998
305.718
299.685
305.829
298.412
297.918
298.536
309.213
300.155
309.224
298.485
297.909
298.508
296.788
296.894
296.859
308.165
300.157
308.282
296.727
296.987
296.844
296.641
296.705
296.75
300.759
300.204
300.716
296.594
296.708
296.772
297.114
295.917
294.852
309.184
309.237
309.237
297.089
295.882
294.805
297.038
295.356
294.956
306.465
306.564
308.042
296.992
295.314
294.907
296.698
295.509
295.217
300.557
300.345
303.927
296.717
295.486
295.196
294.944
295.514
296.962
309.225
309.225
309.173
294.726
295.366
297.061
294.875
295.25
296.914
308.065
306.489
306.386
294.799
295.208
296.922
295.242
295.431
296.572
303.63
300.237
300.573
295.088
295.364
296.528
294.826
294.983
294.386
298.433
298.474
302.153
294.938
295.053
294.455
294.694
294.99
294.73
298.535
298.587
304.34
294.803
295.011
294.746
294.22
295.136
295.168
298.528
300.794
303.981
294.264
295.085
295.092
293.966
294.434
292.861
298.786
298.719
300.262
294.051
294.265
292.738
292.838
293.795
294.2
298.592
296.967
297.461
292.912
293.603
294.152
288.89
288.383
288.39
285.538
283.526
284.529
288.892
288.387
288.392
294.584
295.185
295.115
302.287
298.587
298.565
294.533
295.13
295.05
294.846
295.125
294.885
304.405
298.659
298.63
294.783
295.041
294.758
295.233
295.243
294.355
304.056
300.857
298.613
295.197
295.176
294.277
292.862
294.395
293.898
299.01
298.917
298.803
292.859
294.418
294.027
294.219
293.816
292.464
296.953
296.728
298.127
294.222
293.815
292.47
288.394
288.391
288.886
284.624
283.732
285.418
288.394
288.391
288.886
)
;

boundaryField
{
    fuel
    {
        type            fixedValue;
        value           uniform 293;
    }
    primary_air
    {
        type            fixedValue;
        value           uniform 293;
    }
    Secondary_air_RHS
    {
        type            fixedValue;
        value           uniform 293;
    }
    Secondary_air_LHS
    {
        type            fixedValue;
        value           uniform 293;
    }
    outlet
    {
        type            inletOutlet;
        inletValue      uniform 293;
        value           nonuniform List<scalar> 
18
(
293
284.623
293
293
283.72
293
293
285.428
293
293
285.538
293
293
283.526
293
293
284.529
293
)
;
    }
    stove_body
    {
        type            fixedValue;
        value           uniform 293;
    }
    frontAndBack
    {
        type            empty;
    }
}


// ************************************************************************* //
