/*--------------------------------*- C++ -*----------------------------------*\
  =========                 |
  \\      /  F ield         | OpenFOAM: The Open Source CFD Toolbox
   \\    /   O peration     | Website:  https://openfoam.org
    \\  /    A nd           | Version:  6
     \\/     M anipulation  |
\*---------------------------------------------------------------------------*/
FoamFile
{
    version     2.0;
    format      ascii;
    class       volScalarField;
    location    "0.0125";
    object      O2;
}
// * * * * * * * * * * * * * * * * * * * * * * * * * * * * * * * * * * * * * //

dimensions      [0 0 0 0 0 0 0];

internalField   nonuniform List<scalar> 
3773
(
0
0
0
0
0
0
0
0
0
0
0
0
0
0
0
0
0
0
0
0
0
0
0
0
0
0
0
0
0
0
0
0
0
0
0
0
0
0
0
0
0
0
0
0
0
0
0
0
0
0
0
0
0
0
0
0
0
0
0
0
0
0
0
0
0
0
0
0
0
0
0
0
0
0
0
0
0
0
0
0
0
0
0
0
0
0
0
0
0
0
0
0
0
0
0
0
0
0
0
0
0
0
0
0
0
0
0
0
0
0
0
0
0
0
0
0
0
0
0
0
0
0
0
0
0
0
0
0
0
0
0
0
0
0
0
0
0
0
0
0
0
0
0
0
0
0
0
0
0
0
0
0
0
0
0
0
0
0
0
0
0
0
0
0
0
0
0
0
0
0
0
0
0
0
0
0
0
0
0
0
0
0
0
0
0
0
0
0
0
0
0
0
0
0
0
0
0
0
0
0
0
0
0
0
0
0
0
0
0
0
0
0
0
0
0
0
0
0
0
0
0
0
0
0
0
0
0
0
0
0
0
0
0
0
0
0
0
0
0
0
0
0
0
0
0
0
0
0
0
0
0
0
0
0
0
0
0
0
0
0
0
0
0
0
0
0
0
0
0
0
0
0
0
0
0
0
0
0
0
0
0
0
0
0
0
0
0
0
0
0
0
0
0
0
0
0
0
0
0
0
0
0
0
0
0
0
0
0
0
0
0
0
0
0
0
0
0
0
0
0
0
0
0
0
0
0
0
0
0
0
0
0
0
0
0
0
0
0
0
0
0
0
0
0.00251336
0.0012612
0.00096357
0.000824956
0.000818474
0.000962645
0.00129361
0.00281493
0.00171693
0.00165848
0.00170716
0.00178071
0.00214277
0.00320425
0.00467343
0.00390627
0.0038425
0.00388981
0.00397204
0.00409214
0.00497417
0.00751263
0.00673201
0.0070595
0.0084902
0.00772366
0.00748254
0.00801516
0.0048985
0.0040507
0.00356176
0.00322804
0.00310061
0.00282706
0.0041041
0.00363786
0.00244867
0.00187873
0.0015918
0.00148173
0.00128604
0.00256745
0.00269675
0.00140599
0.000982111
0.00090701
0.00102728
0.00116733
0.00205597
0.000252684
2.20257e-05
2.15519e-05
2.58581e-05
2.93489e-05
3.17841e-05
3.4626e-05
0.000309798
5.56139e-05
0.000108185
0.000184641
0.000277499
0.000337798
0.000371618
0.00237457
0.00160781
0.00139212
0.00149109
0.00171348
0.00208741
0.00291835
0.00689101
0.00615735
0.00654711
0.0084677
0.00715722
0.00681431
0.00730739
0.0033803
0.00207753
0.00144886
0.00122909
0.00106176
0.000989371
0.00167384
0.00136093
0.000761808
0.000368537
0.000201571
0.000138731
7.33277e-05
7.6595e-05
0.000191911
0.000114249
7.31912e-05
5.00685e-05
5.2272e-05
4.63204e-05
3.48758e-05
8.62554e-05
1.07704e-05
1.4371e-05
2.21361e-05
2.77705e-05
2.94895e-05
3.35298e-05
8.59682e-05
8.56287e-05
0.000169415
0.000200411
0.000185664
0.000199085
0.000258184
0.00164977
0.00117851
0.00108234
0.00118502
0.00122031
0.00126326
0.00226936
0.00566931
0.005123
0.00584495
0.00795532
0.00569828
0.0056249
0.006188
0.001882
0.00130606
0.00122246
0.00114463
0.000953678
0.000884815
0.00106301
0.000213281
0.000261043
0.000253932
0.000214449
0.00013832
9.81842e-05
5.33453e-05
1.9866e-05
3.92817e-05
3.99998e-05
3.32445e-05
2.74043e-05
3.04952e-05
2.85157e-05
2.67445e-05
5.79051e-06
1.3234e-05
1.97282e-05
3.10641e-05
3.30044e-05
3.68697e-05
5.06154e-05
4.12674e-05
8.19882e-05
0.000114852
0.000176003
0.000265214
0.000396563
0.00173409
0.000903673
0.000879732
0.000825834
0.000875178
0.00105909
0.00242959
0.00535173
0.00457448
0.00525602
0.00632055
0.00520173
0.00457
0.00575554
0.00186194
0.00114009
0.000994002
0.000939559
0.000796792
0.000697139
0.00102017
0.000202916
0.000303337
0.000252324
0.000178739
9.8165e-05
5.36479e-05
4.10997e-05
1.92892e-05
4.62378e-05
4.29872e-05
2.90537e-05
1.61183e-05
1.13502e-05
1.61019e-05
1.17572e-05
4.82617e-06
1.31583e-05
1.97989e-05
3.35806e-05
3.31666e-05
3.45447e-05
4.26445e-05
1.91574e-05
6.08397e-05
0.000131418
0.000222393
0.00032102
0.000482254
0.0017559
0.000804076
0.000848196
0.000804672
0.000723046
0.00102986
0.0025425
0.00441774
0.00378478
0.00380145
0.00436271
0.00394147
0.00358154
0.00467351
0.00205707
0.00114538
0.000813316
0.000889953
0.000830731
0.000697312
0.00111924
0.000258995
0.000427329
0.00035548
0.00024971
0.000102583
3.85864e-05
3.61185e-05
2.06724e-05
4.96152e-05
4.45638e-05
2.82607e-05
1.54839e-05
7.62177e-06
1.03353e-05
4.75679e-06
5.20228e-06
1.51107e-05
2.05103e-05
3.50447e-05
3.07961e-05
8.077e-06
3.74332e-05
1.98323e-05
7.16727e-05
0.000148996
0.000229125
0.000295838
0.000305618
0.00141117
0.00085522
0.000776266
0.000764129
0.000666877
0.00106364
0.00242134
0.00351562
0.00306199
0.00246889
0.00287928
0.00260135
0.0031394
0.00379017
0.00192217
0.00131371
0.000834295
0.000650984
0.000755766
0.000820602
0.00137956
0.000177142
0.000268951
0.000318423
0.000241764
0.000110281
2.93913e-05
3.80275e-05
5.57161e-06
2.48472e-05
2.35033e-05
2.17423e-05
1.58387e-05
5.1368e-06
5.6529e-06
3.06704e-06
9.2774e-06
1.5568e-05
1.60295e-05
1.70898e-05
1.34139e-05
0
2.59366e-05
2.82537e-05
8.13665e-05
0.00010642
0.000130217
0.00014593
7.79086e-05
0.0011237
0.000668723
0.000501999
0.000602245
0.000633996
0.00103482
0.00151619
0.00271102
0.00238369
0.00192372
0.0021704
0.00175908
0.00219229
0.0031478
0.000230526
0.000513709
0.000687806
0.000520732
0.000491046
0.000693905
0.00143105
2.18664e-06
2.34057e-05
0.000105147
0.000199553
0.000137651
3.63635e-05
3.19584e-05
0
2.37913e-06
7.08195e-06
1.94517e-05
2.11744e-05
3.8585e-06
3.17559e-06
0
1.61011e-05
5.57976e-06
2.75124e-06
1.46213e-06
5.59088e-07
1.84511e-07
5.73903e-06
4.08373e-05
3.54593e-05
4.41348e-05
3.35953e-05
8.71536e-07
2.57356e-07
4.52553e-05
0.000496282
0.000353359
0.000359828
0.000330831
5.67803e-05
1.281e-06
0.00110436
0.00149896
0.00126556
0.00139596
0.00104495
0.00143499
0.00123117
2.50749e-06
0.000245867
0.000362722
0.000385334
0.000315116
0.000500648
0.000357421
1.66233e-07
2.85235e-07
5.80091e-06
7.12246e-05
7.3359e-05
6.10834e-05
4.5972e-06
1.22558e-07
2.4683e-07
3.45246e-07
5.14371e-07
3.57903e-06
1.75693e-05
0
6.76198e-07
6.89531e-06
8.96369e-06
9.0817e-06
2.63123e-06
7.78732e-07
1.86426e-07
5.61172e-06
2.83246e-05
4.44691e-05
5.11543e-05
8.74785e-06
8.58728e-07
2.61163e-07
4.50358e-06
0.000285014
0.00023683
0.000233829
8.68464e-05
2.79953e-05
1.46693e-06
0.000350357
0.000983135
0.00102505
0.00115886
0.00080306
0.00102462
0.000472779
6.25495e-06
0.00021913
0.000129301
0.000250899
0.00023867
0.000378277
0.000146579
1.68401e-07
5.80213e-07
1.05702e-05
3.98795e-05
4.23109e-05
2.83995e-05
5.79252e-06
1.23337e-07
3.07602e-07
4.50998e-07
7.99324e-07
3.22567e-06
8.84956e-06
6.11973e-07
5.50367e-07
4.82574e-06
7.15178e-06
3.25596e-06
1.11554e-06
5.21517e-07
2.036e-07
4.36307e-06
1.74382e-05
3.56607e-05
3.27041e-05
5.68723e-06
1.4164e-06
3.62256e-07
3.54491e-06
0.000149146
0.000151247
0.000127749
4.3792e-05
9.81194e-05
2.93163e-06
6.34206e-05
0.000574555
0.000725358
0.000801594
0.000520567
0.000662493
0.000137476
7.80931e-07
7.98715e-05
0.00012409
0.000122616
0.000126851
0.000213043
6.65125e-05
3.47839e-07
8.90032e-07
6.19443e-06
8.57223e-06
1.90189e-05
1.17448e-05
3.60403e-06
1.65318e-07
3.53889e-07
4.79787e-07
7.24351e-07
2.11591e-06
3.22898e-06
6.07561e-07
5.5744e-07
4.50206e-06
3.25049e-06
1.14175e-06
6.26444e-07
3.75441e-07
1.84843e-07
3.55743e-06
1.42775e-05
2.37982e-05
1.32612e-05
5.90578e-06
1.91117e-06
4.95613e-07
9.83104e-06
8.1248e-05
8.33476e-05
5.30698e-05
5.00101e-05
6.2201e-05
1.10219e-06
1.11937e-05
0.000290617
0.000478514
0.000472326
0.000345884
0.000365821
3.57581e-05
2.5038e-07
2.4828e-05
8.40128e-05
6.07551e-05
6.7291e-05
9.32307e-05
2.48366e-05
4.88712e-07
1.27018e-06
2.60841e-06
7.02904e-06
1.54979e-05
1.108e-05
2.48215e-06
1.83003e-07
3.63795e-07
4.92728e-07
6.23672e-07
1.0812e-06
2.58446e-06
5.40831e-07
6.94688e-07
3.28424e-06
1.23916e-06
6.08723e-07
4.61762e-07
3.27801e-07
1.77256e-07
2.48326e-06
9.26252e-06
1.17712e-05
7.54848e-06
4.23785e-06
1.93316e-06
5.48418e-07
1.25589e-05
4.45313e-05
4.24723e-05
3.28473e-05
3.94747e-05
3.31547e-05
8.54978e-07
4.13802e-06
0.00012376
0.000305341
0.000346952
0.000219715
0.000178188
1.13835e-05
3.20428e-07
1.64687e-05
4.8639e-05
3.75449e-05
3.14325e-05
4.03328e-05
1.43222e-05
7.69022e-07
1.85729e-06
3.65208e-06
6.89373e-06
8.69477e-06
8.71454e-06
2.56891e-06
2.19868e-07
3.61726e-07
5.1306e-07
7.17008e-07
1.26099e-06
2.14704e-06
6.09469e-07
1.30391e-06
1.0079e-06
5.13706e-07
4.47243e-07
3.11821e-07
2.64532e-07
1.57013e-07
3.51035e-06
5.37926e-06
4.16074e-06
3.66089e-06
2.44644e-06
1.2467e-06
4.9111e-07
1.03643e-05
1.80034e-05
1.76416e-05
2.62966e-05
3.22138e-05
2.78716e-05
1.10315e-06
3.23777e-06
6.16369e-05
0.000170044
0.000275316
0.000141503
8.85883e-05
6.73247e-06
7.57557e-07
1.67145e-05
3.25301e-05
2.63137e-05
1.51145e-05
1.52146e-05
8.94079e-06
9.35961e-07
2.15305e-06
3.7806e-06
4.698e-06
4.62115e-06
6.42185e-06
3.48864e-06
2.74408e-07
2.96439e-07
3.65444e-07
6.62133e-07
9.97465e-07
1.34505e-06
1.39929e-06
6.08122e-07
2.77075e-07
2.47768e-07
2.44622e-07
1.67617e-07
6.67853e-08
8.04505e-08
1.64697e-06
1.21202e-06
6.83452e-07
5.77388e-07
5.97726e-07
4.91434e-07
2.42116e-07
3.95989e-06
4.09766e-06
3.4767e-06
3.10673e-06
5.716e-06
1.06907e-05
3.29566e-06
4.96298e-06
4.81406e-05
8.80304e-05
0.000138302
8.18254e-05
6.28847e-05
9.28205e-06
1.32758e-06
4.12274e-06
6.00952e-06
4.29747e-06
3.36661e-06
3.76373e-06
2.79611e-06
2.57234e-07
5.2408e-07
8.00156e-07
8.31831e-07
8.26834e-07
1.25742e-06
1.45897e-06
1.0383e-07
7.97769e-08
1.91273e-07
1.98129e-07
1.66277e-07
3.10345e-07
6.23486e-07
0
2.09566e-05
2.18367e-05
1.45113e-05
1.1792e-05
3.48298e-06
0
0
9.73225e-05
0.000115373
8.92236e-05
9.18615e-05
6.23197e-05
0
0.000752856
0.000646091
0.000491192
0.000590137
0.000589774
0.00089442
0
0.00261862
0.00176295
0.00155773
0.00197237
0.00161399
0.00207957
0.00298549
0
7.61013e-05
0.00066862
0.00052139
0.000434414
0.000672917
0.001335
0
6.48797e-06
5.90692e-05
0.000228347
0.000200711
0.000102713
0
0
9.08655e-07
4.71413e-06
2.51397e-05
4.83486e-05
1.40632e-05
0
0
2.12194e-05
1.02116e-05
8.9186e-06
7.46877e-06
1.88004e-06
0
0
0.000137609
7.27495e-05
6.29109e-05
7.58007e-05
4.43413e-05
0
0.000634622
0.00064481
0.000481038
0.000588747
0.000588371
0.000835929
0
0.00253302
0.00177432
0.00151884
0.00195503
0.00158367
0.00207708
0.00290797
0
0.00010377
0.000655284
0.000519134
0.000426502
0.000676923
0.0012765
0
6.207e-06
4.98486e-05
0.000156734
0.000167331
0.000174121
0
0
6.79096e-07
2.27637e-06
1.64329e-05
2.40745e-05
2.11685e-05
0
0
1.96345e-05
9.49118e-06
8.31367e-06
6.24898e-06
1.23261e-06
0
0
0.000109394
4.89594e-05
5.86117e-05
6.91159e-05
3.58504e-05
0
0.000489981
0.000637234
0.000467704
0.000574175
0.000582335
0.000732414
0
0.00238565
0.00179355
0.00149084
0.00192721
0.00155835
0.00203613
0.00274756
0
0.000177854
0.000648669
0.0005146
0.000410651
0.000674309
0.00114688
0
5.68831e-06
4.59356e-05
0.000143198
0.000123525
0.00011329
0
0
6.0384e-07
1.34066e-06
1.59062e-05
1.94383e-05
2.15822e-05
0
0
1.62457e-05
1.09505e-05
8.51175e-06
5.64879e-06
1.10896e-06
0
0
7.96276e-05
5.04223e-05
6.87892e-05
6.65618e-05
2.2991e-05
0
0.000421603
0.000637465
0.000456756
0.000563788
0.000576201
0.000653252
0
0.00227529
0.00184852
0.00143808
0.0018456
0.00150163
0.00198843
0.00265054
0
0.000212448
0.000632268
0.000509518
0.00040636
0.000666967
0.00107834
0
5.15408e-06
3.67611e-05
0.00014743
0.000113823
8.47937e-05
0
0
5.47346e-07
1.18258e-06
1.64183e-05
1.98437e-05
2.04881e-05
0
0
1.37486e-05
1.21671e-05
8.27928e-06
5.108e-06
1.09766e-06
0
0
6.30855e-05
5.94457e-05
7.39976e-05
6.484e-05
1.67035e-05
0
0.000325364
0.000632043
0.000438353
0.000549161
0.000561268
0.00053764
0
0.00218286
0.0018882
0.0014283
0.00176208
0.00147696
0.00194996
0.00242915
0
0.000255542
0.000625442
0.000503691
0.000394885
0.000662924
0.000932805
0
4.83017e-06
3.00583e-05
0.00015295
0.000113961
8.23397e-05
0
0
4.72061e-07
1.03747e-06
1.73858e-05
2.0661e-05
1.67163e-05
0
0
1.54109e-05
1.21221e-05
4.34205e-06
2.42896e-06
5.66941e-07
0
0
6.85454e-05
6.9636e-05
7.04815e-05
6.2448e-05
8.25501e-06
0
0.000279044
0.000626959
0.000438585
0.000527592
0.000551194
0.000469027
0
0.00199061
0.00192944
0.00141969
0.00174644
0.00143336
0.00190039
0.00229321
0
0.000274622
0.00061043
0.000499814
0.000388656
0.000664696
0.00085606
0
2.55551e-06
1.90675e-05
0.000162726
0.000125581
9.44388e-05
0
0
3.52763e-07
6.82699e-07
1.45347e-05
2.35484e-05
1.84957e-05
0
0
2.42791e-05
1.55815e-05
2.44062e-06
1.3877e-06
4.65564e-07
0
0
0.000116047
7.72409e-05
5.20144e-05
5.02913e-05
4.49859e-06
0
0.000150968
0.000628096
0.00043807
0.000522681
0.000530058
0.000370865
0
0.00188729
0.00194537
0.00139896
0.00171841
0.00136216
0.00186404
0.00196418
0
0.000255446
0.000602259
0.000503222
0.000389518
0.000665579
0.000673175
0
1.69437e-06
1.19198e-05
0.000129361
0.000139252
0.000162542
0
0
2.75016e-07
3.9293e-07
4.8528e-06
2.40886e-05
2.80378e-05
0
9.71944e-09
1.29251e-08
5.22566e-08
5.49078e-08
2.37668e-08
1.26062e-08
2.70302e-09
1.51052e-08
8.69959e-08
2.70829e-07
4.02477e-07
4.1647e-07
1.71955e-07
3.46897e-08
4.41544e-07
3.87625e-06
6.10386e-06
7.03672e-06
5.29603e-06
4.98494e-06
3.18972e-06
4.80682e-06
3.50333e-05
6.6149e-05
0.000111538
6.51378e-05
4.87469e-05
9.10365e-06
1.37614e-06
4.50938e-06
7.48102e-06
9.14102e-06
4.62524e-06
3.59761e-06
3.56164e-07
3.13895e-08
1.65056e-07
1.76654e-07
4.17304e-07
3.06562e-07
6.65756e-08
4.10793e-09
4.17037e-09
1.7948e-08
3.06642e-08
5.71391e-08
4.91259e-08
1.73711e-08
6.83984e-09
2.66174e-08
5.88595e-08
6.09944e-08
6.45477e-08
3.98234e-08
1.14245e-08
5.85488e-09
3.5931e-08
2.6569e-07
3.73482e-07
4.17149e-07
4.58799e-07
1.92633e-07
6.02683e-08
1.77616e-06
1.08191e-05
9.44005e-06
1.18243e-05
6.73744e-06
4.63616e-06
3.24472e-06
4.89135e-06
3.36399e-05
6.04215e-05
0.000102579
6.00674e-05
4.68193e-05
9.52038e-06
1.88288e-06
6.97989e-06
1.21847e-05
1.526e-05
7.82937e-06
7.7817e-06
1.35319e-06
5.96142e-08
2.62991e-07
4.03771e-07
5.85085e-07
5.35362e-07
2.21025e-07
1.45285e-08
8.11804e-09
1.29388e-08
2.99887e-08
5.85366e-08
5.65207e-08
4.99124e-08
2.1313e-08
5.69753e-08
8.17868e-08
9.64524e-08
1.08811e-07
6.40228e-08
2.76803e-08
2.148e-08
3.82634e-07
4.82418e-07
7.62886e-07
8.53151e-07
8.47335e-07
3.37499e-07
2.14782e-07
4.67622e-06
9.39154e-06
1.08653e-05
1.98735e-05
1.42093e-05
7.46705e-06
3.8286e-06
5.13904e-06
3.19594e-05
5.42124e-05
9.30599e-05
5.32904e-05
4.35257e-05
1.081e-05
3.36789e-06
9.9102e-06
1.66251e-05
1.96083e-05
9.86475e-06
1.04109e-05
5.35302e-06
1.56496e-07
3.56286e-07
6.9185e-07
6.95778e-07
6.16393e-07
5.11463e-07
3.19717e-07
2.53925e-08
2.94189e-08
5.86566e-08
9.91171e-08
9.32465e-08
8.74069e-08
5.42798e-08
1.32518e-07
1.73486e-07
2.18307e-07
1.78665e-07
1.22167e-07
6.91344e-08
6.35226e-08
7.3925e-07
1.01411e-06
1.27629e-06
1.38025e-06
1.1391e-06
6.08728e-07
3.60431e-07
4.17924e-06
8.60369e-06
1.20102e-05
2.09935e-05
1.61231e-05
1.22886e-05
5.88264e-06
5.71676e-06
3.0612e-05
4.89514e-05
8.24567e-05
4.79291e-05
4.14771e-05
1.31843e-05
5.49785e-06
1.41042e-05
1.71341e-05
2.16459e-05
1.11225e-05
9.7488e-06
4.97294e-06
4.30246e-07
6.06104e-07
8.65549e-07
8.98745e-07
8.43671e-07
6.90255e-07
4.55823e-07
7.28386e-08
7.41861e-08
1.22869e-07
1.45003e-07
1.31412e-07
1.11766e-07
9.18432e-08
1.51646e-07
1.7109e-07
1.7534e-07
1.48439e-07
1.23921e-07
1.43378e-07
1.47103e-07
7.20327e-07
8.52423e-07
9.43861e-07
9.67053e-07
8.67271e-07
7.44753e-07
1.02051e-06
3.65497e-06
8.937e-06
1.08975e-05
1.71911e-05
1.2903e-05
1.21727e-05
7.42678e-06
6.46796e-06
2.92305e-05
4.16009e-05
6.93978e-05
4.11038e-05
3.72005e-05
1.5184e-05
6.42719e-06
1.09803e-05
1.25703e-05
1.62053e-05
1.07791e-05
9.43559e-06
4.87557e-06
1.48675e-06
9.41495e-07
8.80567e-07
8.08501e-07
7.2203e-07
6.12685e-07
4.3603e-07
1.87572e-07
1.41428e-07
1.28674e-07
1.29786e-07
1.2173e-07
1.13004e-07
9.72916e-08
1.34148e-07
1.366e-07
1.15127e-07
1.10484e-07
1.03284e-07
1.16777e-07
8.88751e-08
3.68295e-07
4.89412e-07
5.57971e-07
5.60398e-07
4.77075e-07
5.48016e-07
7.1407e-07
3.32833e-06
6.99248e-06
8.37873e-06
1.26659e-05
1.11196e-05
1.04645e-05
7.55129e-06
8.06252e-06
2.67459e-05
3.56056e-05
5.39029e-05
3.48371e-05
3.07397e-05
1.76671e-05
6.48014e-06
9.72536e-06
1.07293e-05
1.2505e-05
8.38101e-06
7.71302e-06
5.18213e-06
1.26818e-06
6.9316e-07
6.83122e-07
6.13765e-07
4.75521e-07
3.62003e-07
3.21277e-07
1.77197e-07
1.13007e-07
1.03455e-07
1.03882e-07
1.00467e-07
9.52511e-08
8.75329e-08
7.99825e-08
8.35597e-08
7.10884e-08
6.30358e-08
5.06011e-08
4.48727e-08
4.97504e-08
9.73726e-08
1.06263e-07
1.0723e-07
1.20579e-07
1.09818e-07
1.35894e-07
2.31576e-07
3.24978e-06
4.96995e-06
6.43417e-06
8.08722e-06
7.98212e-06
7.4382e-06
6.91282e-06
9.65035e-06
1.72731e-05
2.16496e-05
2.49669e-05
2.08447e-05
1.80642e-05
1.59963e-05
6.15571e-06
7.52246e-06
7.75118e-06
7.78376e-06
6.38377e-06
5.0858e-06
4.93295e-06
2.30085e-07
2.62807e-07
1.9636e-07
1.69869e-07
1.07118e-07
1.14199e-07
1.00886e-07
6.20069e-08
5.34178e-08
4.44828e-08
4.83215e-08
5.01689e-08
5.43037e-08
4.78981e-08
8.98331e-10
8.52756e-10
8.78415e-10
9.09852e-10
9.17355e-10
8.68931e-10
6.7858e-10
7.49468e-09
2.94345e-10
3.0531e-10
2.62163e-10
2.492e-10
2.07013e-10
1.5615e-10
2.80452e-06
9.81829e-07
6.87859e-09
2.1319e-09
3.35623e-09
7.02765e-09
1.12099e-08
7.53147e-06
1.75385e-06
6.01103e-07
2.92052e-07
2.90648e-07
2.43256e-07
2.1797e-07
2.56982e-08
2.53276e-09
1.23035e-09
2.01838e-09
2.51691e-09
3.29058e-09
4.42816e-09
5.93751e-10
5.11311e-10
5.44497e-10
5.41618e-10
2.60778e-10
1.39629e-10
8.27085e-11
2.39731e-09
2.55614e-09
2.73255e-09
2.63787e-09
1.60707e-09
8.19601e-10
3.21041e-10
4.2854e-09
4.10528e-09
4.18556e-09
4.11027e-09
3.72582e-09
3.38218e-09
2.53548e-09
2.38765e-08
7.54524e-09
1.35361e-09
1.24037e-09
1.14049e-09
1.10543e-09
9.14555e-10
2.58596e-06
1.84968e-06
2.75844e-07
3.41399e-09
5.37558e-09
1.08753e-08
1.64398e-08
7.75927e-06
4.63993e-06
2.57763e-06
1.63257e-06
1.28208e-06
8.30689e-07
5.87519e-07
3.91852e-07
5.3706e-08
2.27906e-09
2.5263e-09
3.17022e-09
3.69278e-09
6.49205e-09
4.93506e-09
4.69749e-09
4.94945e-09
5.42681e-09
4.49508e-09
1.9317e-09
8.55934e-10
1.35028e-08
1.59738e-08
1.73558e-08
1.74426e-08
1.41451e-08
1.05976e-08
2.80034e-09
1.66219e-08
1.51229e-08
1.4922e-08
1.42274e-08
1.29127e-08
7.56808e-09
4.92511e-09
1.02422e-07
5.34828e-08
2.57889e-08
9.51999e-09
5.54304e-09
5.62639e-09
5.58617e-09
2.62525e-06
2.28747e-06
1.55325e-06
4.92441e-07
5.88402e-09
9.0911e-09
1.50852e-08
8.90047e-06
6.72574e-06
4.51045e-06
2.87153e-06
2.0362e-06
1.48526e-06
9.13546e-07
2.92171e-06
6.33103e-07
5.78455e-09
4.84533e-09
4.53497e-09
4.28757e-09
5.32637e-09
4.26131e-08
1.35834e-08
1.58577e-08
2.073e-08
2.08212e-08
1.39146e-08
8.65426e-09
3.91126e-08
3.19511e-08
2.91182e-08
3.121e-08
3.2809e-08
2.66576e-08
1.42155e-08
3.64344e-08
3.56585e-08
3.53954e-08
3.77459e-08
3.28933e-08
2.40943e-08
9.99976e-09
1.06038e-07
6.92872e-08
3.9075e-08
2.97734e-08
2.36292e-08
2.28016e-08
2.48265e-08
3.3822e-06
2.39216e-06
2.02977e-06
1.54886e-06
8.79846e-07
3.36061e-07
1.4827e-08
1.00067e-05
8.66486e-06
6.96137e-06
5.83104e-06
4.40884e-06
3.53282e-06
2.58874e-06
3.09806e-06
2.15144e-06
1.228e-06
7.3884e-07
4.67833e-07
2.59098e-07
1.63979e-07
1.8686e-07
1.11579e-07
7.59169e-08
6.62599e-08
5.57518e-08
5.06549e-08
3.22645e-08
7.94387e-08
6.84042e-08
6.06712e-08
5.71624e-08
5.65706e-08
5.54757e-08
3.45073e-08
5.88581e-08
5.5596e-08
6.23158e-08
6.43896e-08
6.15611e-08
3.89323e-08
2.15515e-08
4.22276e-07
1.26008e-07
3.38814e-08
1.64161e-08
1.8301e-08
2.80527e-08
3.53895e-08
5.68568e-06
4.2898e-06
3.02584e-06
2.0506e-06
1.58962e-06
1.06427e-06
4.52037e-07
1.2944e-05
1.05816e-05
8.50758e-06
7.58182e-06
6.85575e-06
5.39204e-06
4.1909e-06
4.18745e-06
3.34599e-06
2.75365e-06
1.96803e-06
1.38953e-06
9.33201e-07
4.66594e-07
3.31792e-07
2.65548e-07
1.95954e-07
1.74654e-07
1.60452e-07
1.24179e-07
6.78278e-08
9.06212e-08
8.4329e-08
7.67692e-08
7.1946e-08
6.98773e-08
6.72602e-08
5.45282e-08
7.31681e-08
8.59126e-08
9.60775e-08
9.27472e-08
8.10205e-08
5.38486e-08
2.94822e-08
5.12198e-07
4.42523e-07
2.92522e-07
1.84571e-07
1.13035e-07
8.96703e-08
8.27754e-08
6.30455e-06
5.89206e-06
5.01284e-06
4.2299e-06
2.96116e-06
2.03634e-06
1.44232e-06
1.326e-05
1.22384e-05
1.02885e-05
9.69666e-06
8.22634e-06
7.64997e-06
5.90757e-06
5.04332e-06
4.33244e-06
3.55138e-06
3.058e-06
2.4277e-06
1.94063e-06
1.61291e-06
2.9209e-07
2.49038e-07
2.2021e-07
1.96913e-07
1.67659e-07
1.3524e-07
9.83162e-08
8.34331e-08
8.06673e-08
7.48449e-08
7.10207e-08
6.8702e-08
6.52602e-08
5.59288e-08
6.1952e-08
7.8859e-08
7.72472e-08
7.08546e-08
6.41401e-08
4.64361e-08
3.46201e-08
2.47893e-07
2.46289e-07
2.39047e-07
2.21759e-07
1.89874e-07
1.63212e-07
1.43602e-07
5.77034e-06
5.50078e-06
5.03726e-06
4.35441e-06
3.90949e-06
3.02844e-06
2.74445e-06
1.25353e-05
1.20184e-05
1.07948e-05
1.01089e-05
9.26566e-06
8.32587e-06
7.85056e-06
4.52757e-06
3.99532e-06
3.13536e-06
2.71773e-06
1.84844e-06
1.63809e-06
1.43481e-06
8.73193e-08
5.74688e-08
7.06956e-08
8.65068e-08
8.89725e-08
8.61175e-08
8.1802e-08
4.51739e-08
5.07933e-08
5.15335e-08
5.263e-08
5.44375e-08
5.49231e-08
5.11881e-08
7.32383e-10
1.46657e-09
2.16754e-09
3.4412e-09
4.23085e-09
4.25872e-09
4.26456e-09
5.84028e-10
1.18133e-09
1.92393e-09
2.8212e-09
3.76017e-09
4.52042e-09
6.06431e-09
1.78017e-10
3.70438e-10
1.15248e-09
1.07199e-08
1.41488e-08
2.05808e-08
3.61466e-08
1.38171e-09
7.79749e-10
1.4591e-09
3.02342e-09
3.9255e-09
4.59716e-08
2.99985e-06
1.9204e-10
1.75137e-10
1.54503e-10
1.30926e-10
9.95209e-11
2.15432e-07
1.13208e-06
2.09394e-10
3.0599e-10
4.26892e-10
4.4185e-10
4.21669e-10
7.7396e-10
4.69403e-09
7.64298e-10
1.00902e-09
1.102e-09
1.28575e-09
1.5279e-09
1.55266e-09
1.56943e-09
3.0786e-09
1.07673e-08
2.06151e-08
2.3943e-08
2.5072e-08
2.47989e-08
2.34466e-08
5.08206e-09
1.16232e-08
1.79322e-08
2.12663e-08
2.90399e-08
3.92274e-08
4.4883e-08
1.64128e-09
3.92362e-09
2.1428e-08
1.23346e-07
1.5901e-07
3.07008e-07
3.47944e-07
3.37959e-08
3.18129e-08
4.35725e-08
9.21345e-08
2.26703e-07
9.73647e-07
3.21686e-06
1.49965e-09
1.08044e-09
9.29539e-10
5.32312e-10
1.88237e-08
6.32827e-07
1.20243e-06
2.61539e-09
2.90859e-09
3.24232e-09
3.12903e-09
2.99431e-09
6.21744e-09
1.74086e-08
3.6608e-09
4.99536e-09
5.82655e-09
8.30909e-09
8.91304e-09
8.75154e-09
8.52619e-09
1.74551e-08
4.23471e-08
4.24602e-08
4.45271e-08
4.54874e-08
4.36161e-08
4.91748e-08
3.71743e-08
4.19883e-08
3.61226e-08
7.01023e-08
1.49129e-07
1.9545e-07
2.39399e-07
8.66143e-09
1.25132e-08
2.37996e-07
1.05028e-06
1.46448e-06
2.03234e-06
2.43497e-06
2.30805e-07
2.93327e-07
5.57372e-07
8.98223e-07
1.53447e-06
2.7669e-06
3.85044e-06
4.93448e-09
4.51906e-09
3.01343e-09
1.84588e-08
3.2283e-07
9.67666e-07
1.51115e-06
1.56927e-08
1.62432e-08
1.64291e-08
1.47771e-08
1.81742e-08
3.16796e-08
5.78624e-08
1.03e-08
2.15393e-08
2.93134e-08
3.68821e-08
3.71686e-08
3.6016e-08
3.08403e-08
3.69745e-08
7.80512e-08
8.57459e-08
8.69063e-08
9.48122e-08
9.77668e-08
1.14398e-07
8.03837e-08
1.5155e-07
1.87128e-07
2.92546e-07
4.13907e-07
4.69753e-07
5.2652e-07
1.73748e-07
3.80348e-07
7.69193e-07
1.26154e-06
1.78741e-06
2.38269e-06
3.04908e-06
6.52234e-07
9.45506e-07
1.42667e-06
1.9596e-06
2.47287e-06
3.21445e-06
4.30058e-06
1.00634e-08
1.40309e-08
1.12247e-07
4.67037e-07
1.19303e-06
1.96603e-06
3.53526e-06
5.95536e-08
5.3036e-08
4.94006e-08
4.5598e-08
5.42719e-08
7.03974e-08
1.89822e-07
2.34642e-08
6.10274e-08
8.80636e-08
8.14994e-08
6.67178e-08
5.65976e-08
5.71953e-08
5.9876e-08
9.58894e-08
1.11054e-07
1.16798e-07
1.24155e-07
1.27545e-07
1.35944e-07
1.68815e-07
2.45659e-07
3.35104e-07
3.94388e-07
4.70045e-07
5.2853e-07
6.03718e-07
4.04803e-07
7.7929e-07
1.01405e-06
1.38223e-06
1.71382e-06
2.09269e-06
2.66696e-06
1.47467e-06
2.10675e-06
2.38835e-06
2.9769e-06
3.37314e-06
4.27759e-06
5.20474e-06
1.17645e-07
3.631e-07
8.34422e-07
1.4996e-06
2.2273e-06
4.08055e-06
4.91979e-06
6.98804e-08
7.33793e-08
1.63261e-07
2.37803e-07
3.65858e-07
7.42745e-07
1.04705e-06
7.0357e-08
1.28031e-07
1.51062e-07
1.38829e-07
1.12564e-07
1.05884e-07
1.42376e-07
6.57296e-08
8.92613e-08
1.0173e-07
1.09878e-07
1.1599e-07
1.23097e-07
1.29053e-07
1.77633e-07
2.25735e-07
2.60672e-07
2.72218e-07
2.76898e-07
2.87731e-07
3.08673e-07
6.42136e-07
9.17161e-07
1.15539e-06
1.46783e-06
2.08621e-06
2.59907e-06
3.06952e-06
2.74493e-06
3.75168e-06
4.07609e-06
4.83696e-06
5.13593e-06
5.84251e-06
6.68117e-06
9.32864e-07
1.68898e-06
2.92717e-06
3.43536e-06
4.20292e-06
5.16754e-06
5.6144e-06
3.01302e-07
3.78502e-07
5.60858e-07
7.20441e-07
9.74471e-07
1.1819e-06
1.25651e-06
9.17404e-08
1.59739e-07
2.20383e-07
2.38079e-07
2.53251e-07
3.01948e-07
2.85106e-07
5.49352e-08
6.86411e-08
6.7839e-08
6.88581e-08
6.54649e-08
6.70723e-08
6.95625e-08
1.43937e-07
1.4846e-07
1.64234e-07
1.60013e-07
1.44778e-07
1.25663e-07
1.2095e-07
4.55805e-07
4.59761e-07
4.51923e-07
5.48586e-07
1.17687e-06
1.67361e-06
2.47581e-06
4.04166e-06
4.33521e-06
4.8753e-06
5.49242e-06
5.89093e-06
6.69772e-06
7.15626e-06
2.74813e-06
3.03623e-06
3.77082e-06
4.07915e-06
4.65288e-06
4.92846e-06
5.12443e-06
3.07239e-07
3.47132e-07
4.21309e-07
4.66423e-07
5.03409e-07
4.60667e-07
3.15246e-07
6.46902e-08
6.52239e-08
8.10767e-08
9.0869e-08
9.63237e-08
7.69656e-08
5.57355e-08
7.74042e-12
8.54176e-12
1.00241e-11
9.31716e-12
1.12148e-11
1.82992e-11
7.86262e-11
5.8186e-12
7.68926e-12
1.26168e-11
2.33332e-11
6.66755e-11
1.46104e-10
3.70073e-10
1.98945e-10
1.54037e-10
1.41166e-10
1.03424e-10
8.37481e-11
9.23325e-11
1.40535e-10
1.14089e-09
7.32899e-10
8.49111e-10
9.06739e-10
9.6559e-10
1.14116e-09
1.25991e-09
3.17651e-10
2.52889e-10
2.4346e-10
2.15135e-10
1.95602e-10
1.98751e-10
2.0381e-10
2.20907e-12
5.41242e-12
7.99425e-12
2.30708e-11
6.09042e-11
1.39912e-10
1.68102e-10
4.90254e-13
9.45656e-13
6.75472e-12
2.67828e-11
1.38604e-10
1.8577e-10
2.88385e-10
7.56337e-12
7.64623e-12
1.44253e-11
9.71488e-12
1.83086e-11
5.56893e-11
4.59405e-10
5.248e-12
9.86876e-12
4.81377e-11
1.25399e-10
3.90222e-10
8.62603e-10
2.62808e-09
9.64031e-10
9.63992e-10
1.24154e-09
4.87451e-10
3.13358e-10
4.0751e-10
8.35142e-10
5.9602e-09
1.08306e-08
1.92833e-08
2.51975e-08
2.96053e-08
3.49619e-08
3.60576e-08
1.29371e-09
1.80449e-09
2.32554e-09
2.41478e-09
2.30844e-09
2.19916e-09
2.09723e-09
4.41407e-12
2.05487e-11
8.95149e-11
5.10028e-10
1.68879e-09
1.65339e-09
1.90614e-09
4.74025e-13
2.20352e-12
3.03401e-11
1.28423e-10
4.54011e-10
6.35596e-10
1.29224e-09
4.15782e-12
6.78514e-12
1.32982e-11
8.02077e-12
2.68066e-11
1.33109e-10
1.43693e-09
3.464e-12
1.10751e-11
1.25168e-10
3.72471e-10
1.01522e-09
5.37725e-09
1.46317e-08
4.49371e-09
7.93167e-09
9.4784e-09
2.92919e-09
1.18221e-09
1.61176e-09
5.44129e-09
3.24847e-08
6.74524e-08
1.03772e-07
1.23095e-07
1.46398e-07
1.69101e-07
2.11881e-07
7.11711e-09
1.11356e-08
1.61424e-08
1.5299e-08
1.31698e-08
7.69474e-09
5.06345e-09
5.38223e-12
6.86893e-11
3.4273e-10
3.30859e-09
9.7954e-09
1.09748e-08
1.3512e-08
3.7182e-13
2.66301e-12
5.92105e-11
2.57737e-10
8.40106e-10
1.23401e-09
3.71446e-09
3.06557e-12
6.30606e-12
1.23217e-11
6.92006e-12
4.79111e-11
2.4408e-10
1.82243e-09
5.62027e-12
1.38827e-11
2.25051e-10
5.01797e-10
4.47859e-09
2.58678e-08
4.50816e-08
6.07689e-09
1.1543e-08
1.30089e-08
5.36252e-09
3.63302e-09
5.69953e-09
5.15998e-08
4.27434e-08
1.05765e-07
1.52504e-07
2.0648e-07
2.82319e-07
3.85013e-07
5.31889e-07
9.79469e-09
1.62573e-08
2.09316e-08
2.03421e-08
1.83236e-08
1.66023e-08
1.23407e-08
6.34951e-12
1.49174e-10
1.38615e-09
1.14144e-08
3.95626e-08
5.34181e-08
6.18848e-08
2.81198e-13
3.4113e-12
9.77359e-11
3.14601e-10
1.00093e-09
1.92408e-09
8.51719e-09
2.78772e-12
6.33975e-12
1.15207e-11
6.45428e-12
5.65902e-11
3.31428e-10
2.32176e-09
9.74219e-12
3.67055e-11
4.6475e-10
4.90446e-10
1.35754e-08
3.99656e-08
8.39635e-08
1.1938e-08
2.28153e-08
2.19344e-08
1.03996e-08
3.43417e-08
7.55964e-08
1.78716e-07
8.83272e-08
2.15775e-07
3.36305e-07
4.85105e-07
6.84784e-07
9.40542e-07
1.27434e-06
1.90291e-08
3.36799e-08
4.10536e-08
2.64376e-08
2.28037e-08
2.27663e-08
4.53324e-08
6.83933e-12
1.76014e-10
3.76742e-09
2.79112e-08
8.42829e-08
9.34789e-08
1.00703e-07
2.45484e-13
4.13812e-12
1.12614e-10
3.76573e-10
1.10822e-09
2.19983e-09
1.00132e-08
2.22112e-12
5.86913e-12
1.04778e-11
6.32189e-12
6.86978e-11
3.76247e-10
3.18424e-09
1.14703e-11
7.49156e-11
7.08668e-10
3.57932e-10
2.63895e-08
6.204e-08
1.17375e-07
1.60157e-08
2.90562e-08
2.56152e-08
1.37515e-08
5.61743e-08
2.36025e-07
4.21685e-07
1.06855e-07
2.88157e-07
4.97067e-07
7.89249e-07
1.22518e-06
1.93332e-06
2.38569e-06
2.45032e-08
4.32017e-08
5.07181e-08
2.79192e-08
4.19246e-08
2.13245e-07
5.1348e-07
7.53046e-12
1.96656e-10
4.87869e-09
3.91767e-08
1.2784e-07
2.0518e-07
2.38683e-07
2.28804e-13
4.75991e-12
1.27162e-10
4.41878e-10
1.20209e-09
2.32757e-09
1.37481e-08
2.00126e-12
5.19981e-12
1.01056e-11
6.40214e-12
7.37786e-11
3.93683e-10
3.52048e-09
1.21017e-11
9.60386e-11
6.75726e-10
2.77106e-10
2.83751e-08
6.61507e-08
1.17652e-07
2.70985e-08
5.43578e-08
3.8715e-08
6.35586e-08
2.23916e-07
3.34878e-07
4.27232e-07
2.55721e-07
7.96083e-07
1.4092e-06
2.08157e-06
2.6695e-06
3.09935e-06
3.47173e-06
4.18553e-08
8.66486e-08
1.61055e-07
3.82022e-07
8.76657e-07
1.47532e-06
2.05161e-06
7.94717e-12
2.03227e-10
4.88087e-09
3.69328e-08
1.96722e-07
2.6698e-07
2.80214e-07
2.15495e-13
4.98396e-12
1.09032e-10
4.88061e-10
1.26411e-09
2.20528e-09
1.4727e-08
5.60936e-13
4.27052e-12
1.12869e-11
6.47404e-12
1.86772e-11
4.04303e-10
7.32946e-10
1.31947e-11
1.76989e-10
5.24291e-10
2.92174e-10
4.23861e-09
4.20411e-09
6.52992e-08
3.95532e-08
3.39957e-08
2.96541e-08
4.20842e-08
1.39791e-07
1.67426e-07
2.02829e-07
4.58774e-07
9.79817e-07
1.21115e-06
1.36626e-06
1.4775e-06
1.68364e-06
1.85954e-06
7.44019e-08
6.51722e-08
1.04683e-07
2.89598e-07
6.82331e-07
8.80451e-07
7.03079e-07
8.9924e-12
5.44932e-11
3.97321e-10
4.14752e-09
2.09352e-08
1.9521e-08
3.25579e-08
1.92248e-13
3.18877e-13
6.46967e-13
5.06346e-10
1.41138e-09
1.10993e-09
3.3151e-09
4.35705e-13
3.25762e-12
5.76662e-12
1.38115e-12
2.41051e-11
3.12565e-10
8.40887e-10
8.68548e-12
2.25386e-11
3.87155e-11
5.09208e-11
6.8514e-10
5.20716e-09
1.36657e-08
2.57595e-08
2.10298e-08
1.74287e-08
2.16076e-08
6.34069e-08
8.64408e-08
1.05758e-07
4.20914e-07
7.57339e-07
7.6184e-07
8.66319e-07
1.04589e-06
1.24084e-06
1.05141e-06
5.18468e-08
3.82666e-08
4.97262e-08
1.07275e-07
3.1802e-07
4.09149e-07
3.31711e-07
2.17343e-12
6.11757e-12
2.02069e-11