/*--------------------------------*- C++ -*----------------------------------*\
  =========                 |
  \\      /  F ield         | OpenFOAM: The Open Source CFD Toolbox
   \\    /   O peration     | Website:  https://openfoam.org
    \\  /    A nd           | Version:  6
     \\/     M anipulation  |
\*---------------------------------------------------------------------------*/
FoamFile
{
    version     2.0;
    format      ascii;
    class       volScalarField;
    location    "0.0125";
    object      p;
}
// * * * * * * * * * * * * * * * * * * * * * * * * * * * * * * * * * * * * * //

dimensions      [1 -1 -2 0 0 0 0];

internalField   nonuniform List<scalar> 
3773
(
41892.3
41892
41892.5
41892.6
41892.3
41892.1
41892.1
102318
102317
102315
102315
102317
102318
102319
138568
138568
138568
138568
138568
138567
138567
150701
150702
150702
150702
150702
150702
150702
138568
138568
138568
138569
138569
138569
138568
102321
102320
102318
102318
102318
102319
102321
41891.7
41892.1
41892.6
41892.8
41892.3
41892
41892
41894.8
41894.3
41894.6
41894.9
41894.7
41894.4
41894.6
102312
102310
102309
102309
102310
102312
102313
138565
138565
138565
138565
138565
138565
138565
150700
150700
150700
150700
150700
150700
150700
138566
138566
138566
138566
138566
138566
138566
102314
102313
102312
102311
102311
102313
102314
41894.3
41894.1
41895.1
41895.4
41894.8
41894.4
41894.7
41899.3
41898.8
41898.9
41899.4
41899.3
41898.9
41899.2
102307
102306
102305
102305
102306
102307
102307
138557
138557
138557
138557
138557
138557
138557
150695
150696
150696
150696
150696
150696
150695
138558
138558
138558
138558
138558
138558
138558
102309
102308
102307
102306
102306
102307
102308
41899
41898.6
41899.7
41900.1
41899.5
41898.9
41899.3
41906.8
41906.6
41907.1
41907.6
41907.2
41906.6
41906.5
102304
102303
102302
102302
102303
102304
102305
138544
138545
138545
138545
138544
138544
138544
150689
150689
150690
150690
150690
150690
150689
138545
138545
138545
138546
138546
138545
138545
102306
102305
102304
102303
102303
102304
102306
41906.5
41906.3
41907.7
41908
41907.5
41906.6
41906.7
41917.9
41918.5
41919.4
41919.8
41919.3
41918.2
41917.5
102299
102297
102296
102296
102297
102298
102299
138532
138532
138533
138533
138532
138531
138531
150683
150683
150683
150683
150684
150684
150683
138533
138533
138533
138533
138534
138533
138533
102300
102299
102297
102297
102297
102298
102300
41917.4
41917.8
41919.6
41920
41919.6
41918.3
41917.5
41930.8
41931.5
41932.5
41933.2
41932.7
41931.4
41930.4
102292
102290
102289
102289
102290
102291
102292
138524
138524
138524
138524
138524
138523
138523
150678
150678
150679
150679
150679
150679
150678
138525
138525
138525
138526
138525
138525
138525
102292
102292
102290
102290
102290
102291
102293
41930.4
41931.1
41933
41933.5
41933.1
41931.5
41930.5
41938.5
41938.7
41939.8
41940.7
41940.4
41939
41938.1
102287
102286
102285
102285
102286
102287
102287
138521
138521
138521
138521
138521
138520
138520
150676
150676
150676
150676
150676
150676
150675
138522
138521
138522
138522
138522
138522
138522
102288
102288
102286
102285
102287
102287
102288
41938.2
41938.9
41940.8
41941.5
41940.6
41939.2
41938.2
61396.3
61324.9
61374.7
61521.2
61686.5
61805.9
61858.8
147383
147303
147267
147316
147428
147599
147770
197660
197610
197592
197629
197677
197727
197818
214450
214396
214376
214369
214380
214384
214421
198056
197925
197836
197808
197809
197844
197899
147988
147776
147661
147638
147669
147773
147836
62028.1
61957.8
61909.2
61880.4
61816.3
61759.3
61757.8
60962.6
60852.3
60861.9
60962
61085.4
61191.9
61257.4
146949
146805
146662
146663
146756
146933
147130
197245
197154
197102
197142
197212
197240
197325
214014
213938
213929
213948
213987
214030
214109
197499
197360
197288
197272
197332
197455
197576
147544
147236
147013
147014
147119
147327
147493
61593.6
61468.3
61357
61320.7
61286
61327.6
61429.3
60523.6
60465
60470.5
60489.9
60514
60524.5
60598.7
146499
146373
146218
146134
146084
146133
146270
196934
196850
196806
196806
196785
196804
196809
213607
213586
213629
213677
213728
213783
213848
196803
196758
196813
196907
197026
197177
197292
146636
146399
146266
146323
146547
146787
146971
60954.5
60812.4
60704
60678.6
60657.5
60743.9
60888.4
60244.2
60210.6
60224.5
60166.3
60110.8
60055.5
60087.3
146109
145995
145898
145809
145710
145664
145725
196796
196709
196658
196633
196591
196597
196618
213485
213453
213510
213551
213574
213635
213704
196444
196439
196525
196621
196739
196907
197036
145791
145619
145659
145817
146020
146208
146376
60432
60304.6
60288.6
60281.1
60260
60296.9
60424.2
60061.6
60040.3
60023.6
59928
59831.8
59823.1
59810.6
145759
145711
145701
145630
145600
145519
145549
196608
196587
196605
196611
196609
196616
196652
213536
213526
213561
213584
213584
213609
213661
196596
196576
196602
196596
196628
196696
196786
145714
145651
145663
145684
145721
145785
145918
60257.7
60119.9
60062.5
60030.9
60029.5
60028.8
60116.2
59971.6
59936
59854.5
59741.6
59712.2
59810.9
59853
145478
145495
145529
145492
145516
145499
145550
196398
196447
196510
196531
196570
196625
196709
213539
213528
213553
213556
213558
213600
213660
196883
196766
196679
196584
196534
196530
196566
145929
145811
145728
145602
145557
145533
145589
60223.3
60087.9
59887.8
59850.2
59910.8
59929.9
59986.2
59947.3
59861.8
59683.7
59611.5
59784.2
60044.3
60216.7
145289
145309
145295
145277
145415
145686
145911
195985
196123
196259
196292
196379
196640
196846
213120
213228
213314
213395
213404
213409
213443
196737
196450
196346
196324
196297
196259
196201
146108
145735
145445
145269
145317
145347
145365
60511.5
60292.5
59890.6
59737.5
59843.6
59917.2
59980.6
59696.9
59595.4
59381.6
59225.6
59397
60156.6
60683.2
145148
145072
144948
144857
145173
145553
145971
195902
195932
196009
196086
196214
196375
196505
212811
212810
212959
213045
213059
213062
213052
196309
195867
195970
196050
196022
195995
195979
146203
145541
145064
144969
145021
145065
145179
61075.2
60613
59906.8
59487.7
59537.3
59643.5
59687.1
59652.2
59618.8
59510.1
59373.8
59429.5
59894.6
60512.1
145083
145017
144933
144788
144801
145122
145752
195844
195877
195935
195957
195936
195977
196224
212790
212794
212851
212876
212876
212860
212875
196131
195869
195832
195858
195845
195841
195871
145774
145195
144850
144833
144863
144921
145055
60775.1
60157.3
59720.9
59485.6
59501.1
59592.9
59598.4
59648.3
59656.7
59655.9
59634.8
59714.8
60144.5
60883.7
145069
145024
144966
144842
144825
145132
145925
195872
195875
195883
195868
195784
195831
196155
212780
212780
212744
212724
212717
212719
212737
196172
195920
195757
195737
195738
195772
195785
145869
145199
144819
144767
144795
144894
145005
60863.1
60244.6
59782.7
59546.7
59527.6
59606.2
59649.7
59657.3
59658.7
59750.6
59831
60024.9
60590.7
61409
145026
145009
144977
144938
144984
145381
146319
195864
195874
195858
195802
195741
195812
196133
212826
212772
212698
212662
212651
212633
212628
196411
195974
195728
195716
195752
195777
195790
146535
145551
144903
144716
144805
144966
145074
61385.6
60700
59998.4
59616.6
59571
59666.3
59771.1
59634.7
59662.3
59840.5
60075.7
60433
60969.3
61675.7
144968
145000
144985
145038
145239
145791
146861
195868
195881
195844
195742
195652
195766
196231
212817
212732
212674
212618
212576
212580
212643
196730
196019
195707
195713
195837
195910
195947
147598
146161
145172
144811
144970
145135
145227
61923.7
61310.9
60629.1
59952
59717.2
59742.3
59831.3
59264
59740.4
60300.2
60413.1
60528.3
60779.2
61274
144644
144878
145040
145039
145377
146203
147246
195774
195888
195931
195764
195560
195601
196126
212532
212542
212655
212699
212601
212496
212525
196768
195973
195742
195876
196062
196144
196117
148601
146937
145631
145106
145192
145284
145188
62021.9
61486.5
61033.2
60588.2
60247.7
59911.6
59653.6
58757.7
61275.9
61052.8
59387.4
59606.1
60482
60949
143568
145467
145887
144657
144490
145402
146669
195167
195850
196060
195776
195457
195357
195337
211981
212338
212579
212698
212626
212315
211850
196101
195982
195911
196091
196387
196260
195603
147914
146117
145176
145142
145883
145938
144199
61755.8
60931.7
59988.6
59713.6
60612
61149.2
58860.6
59978.8
59823.3
59572.8
59665.8
60095.4
60680.8
60995.3
145290
145203
145169
145222
145465
145867
146328
195808
195844
196055
196067
196402
196692
196970
212704
212615
212889
213069
213190
213203
213198
196539
196160
196069
196127
196141
196042
196073
146320
145684
145438
145230
145179
145203
145325
61321.9
61044.2
60258.4
59719
59766.7
59938.1
59996.4
59978.8
59815.2
59556.6
59658.6
60109.6
60724.6
61086.4
145289
145192
145152
145188
145458
145907
146400
195787
195825
195993
196042
196341
196698
196995
212635
212602
212857
213051
213156
213176
213160
196479
196116
196044
196115
196109
196011
196017
146368
145687
145419
145216
145166
145192
145313
61405.6
61103.7
60276.6
59702.3
59756.6
59927.9
59990.4
59960.1
59809.7
59540.4
59644
60135.8
60773.7
61204.1
145285
145180
145127
145127
145441
145945
146485
195783
195827
195939
196019
196270
196695
197009
212576
212629
212850
213045
213124
213153
213127
196426
196059
196029
196102
196077
195990
195950
146442
145688
145404
145186
145152
145188
145305
61516.9
61151.8
60266.1
59681.4
59748.1
59911.8
59967.4
59940.1
59808.3
59524.2
59627.1
60171.8
60863.9
61363.3
145271
145164
145100
145072
145426
145965
146523
195789
195834
195903
196000
196225
196678
197004
212573
212659
212849
213044
213094
213129
213117
196384
196007
196017
196092
196054
195977
195931
146511
145688
145403
145155
145136
145178
145298
61662.5
61218
60221.6
59665.4
59739.7
59900.3
59944.1
59928.9
59809.9
59509
59607.4
60192.1
60990.8
61529.5
145254
145147
145078
145043
145417
145965
146506
195797
195842
195887
195995
196203
196651
196984
212599
212682
212850
213044
213072
213108
213118
196367
195967
196006
196086
196039
195969
195938
146536
145679
145408
145133
145118
145164
145285
61825.8
61326.7
60150
59651.5
59728.8
59894
59927
59925.4
59807
59496.1
59585
60184.9
61032.2
61566.5
145236
145133
145058
145028
145430
145946
146439
195808
195846
195886
196001
196201
196621
196948
212622
212697
212857
213042
213057
213091
213115
196379
195935
196001
196086
196027
195964
195942
146513
145650
145409
145121
145104
145151
145268
61939.1
61379.3
60068.1
59632.5
59711.9
59886.9
59917.5
59913.5
59791.3
59482.1
59553.7
60145.9
60905.7
61440.3
145223
145124
145042
145007
145437
145916
146353
195819
195850
195896
196014
196208
196595
196901
212643
212710
212867
213038
213048
213079
213108
196395
195906
196000
196088
196019
195961
195945
146461
145622
145389
145109
145092
145140
145255
61862.6
61286.6
60000.3
59609.3
59692
59869.8
59903
65702.3
65828.5
62868.8
59887.8
59129.5
59947.6
60167
149992
148721
146919
145366
143954
143956
144160
196756
196444
196082
195515
195103
194860
193387
211118
212174
212259
212334
212398
212269
210756
194317
195343
195513
195794
196325
196995
197647
144929
144694
145013
145563
146712
149670
152248
60507.7
60288.9
59701.6
60289.8
62365.7
65254.1
66888.6
67181.4
66014.2
62791.8
60217.1
59172.1
59242.3
58924.9
151116
149769
146918
145201
143966
143518
142948
196921
196589
196041
195405
194927
194633
193163
211139
212119
212231
212351
212376
212253
210899
194008
195099
195339
195662
196296
197326
198280
143656
144259
144991
145499
146968
150828
154406
58983.6
59666.4
59753.2
60591.8
62509.6
65800.3
68621.7
66769.3
65617.7
62668.9
60533.3
59202.6
58518.9
57909.7
150910
149657
147214
145265
144103
143200
141990
196902
196756
196116
195390
194838
194406
193167
211356
212159
212370
212523
212497
212312
211213
193899
194913
195272
195685
196474
197581
198383
142599
143885
145074
145896
147516
150943
154850
57738.7
58959.5
59867.4
60912.6
62804.4
65838.1
68312.7
66510.6
65071.1
62560.8
60643.4
59270.5
58330.1
57610.9
150853
149447
147438
145486
144182
143011
141609
196952
196899
196300
195507
194867
194241
193202
211614
212310
212626
212801
212724
212458
211550
193889
194812
195343
195897
196777
197757
198343
142019
143621
145156
146487
148173
150969
154101
57368.2
58687.9
59923
61138.6
63212.2
65782
67755.4
66829.5
64744.6
62523.8
60758.3
59475.3
58479.1
57712.7
151055
149456
147656
145745
144378
143128
141675
197034
197041
196538
195744
195012
194226
193229
211894
212542
212947
213139
213021
212689
211885
193895
194839
195560
196256
197121
197925
198354
141944
143643
145457
147151
148811
151005
153407
57456.5
58746.9
60058.1
61492.8
63638.6
65822.5
67602.7
67213.9
64729.6
62553.1
60876.1
59647.6
58612.2
57828.3
151404
149633
147819
145976
144587
143350
141832
197167
197202
196737
195941
195140
194335
193269
212202
212770
213242
213437
213307
212942
212220
193912
194957
195815
196590
197409
198101
198467
141937
143838
145906
147782
149292
151081
153060
57519.5
58832
60307.8
61917.1
63938.4
65883.1
67669.3
67473.5
64837.1
62596.3
60972
59752.6
58696
57926.4
151552
149779
147896
146084
144692
143464
141895
197285
197296
196871
196054
195213
194399
193310
212552
212940
213487
213668
213548
213112
212550
193951
195065
196004
196783
197603
198273
198669
141933
144033
146192
148130
149550
151239
152949
57539
58864.5
60469.1
62176.5
64095.1
65909.1
67626.6
60349.3
59860.7
59731.9
60976.6
64469.4
70902.9
79880.4
142588
141748
141671
141864
142612
145221
149773
189307
189583
189408
188535
187135
185389
183746
206964
206744
205690
204045
202120
199676
196816
198163
197603
196373
195095
194032
192775
191321
154854
155044
154923
155262
156238
158186
161429
69669.5
69812.6
70055.4
71136.6
73802.7
78562
85759.6
58956.9
58769.3
58802.1
59709.7
62182.3
67371.6
75513.3
141600
141136
140853
140871
141516
143450
147107
190582
190004
189513
188543
187087
185357
183571
208271
207120
205834
204127
202118
199762
196987
198437
197810
196456
194983
193807
192563
191173
154747
154068
153543
154063
155614
157633
160287
68707.4
68204.8
68592.2
70188.4
72934.2
76475.5
82272.8
57798.4
57851.9
58089.4
58623.9
59788.5
62782.6
68984
140872
140588
140331
140144
140238
141169
143509
191179
190235
189542
188549
187126
185514
183656
209083
207650
206168
204414
202305
199939
197257
198467
197950
196527
194911
193670
192446
191208
154960
153584
152671
153469
155552
157509
158958
68174.1
67829.9
68330.3
70077.1
73039.1
75682.8
78795.2
57455.8
57570.4
57856.3
58207.4
58694.2
59868.7
63503.6
140694
140373
140131
139838
139499
139580
140717
191534
190503
189518
188394
187096
185714
183885
209749
208259
206625
204731
202462
199964
197253
197999
197360
196227
194822
193535
192421
191337
154410
153724
153088
153790
155499
157401
158392
68142.3
68427.6
69116.3
70720.2
73165.3
75395.2
77246.9
57508.5
57571.4
57825.4
58124.1
58424
58987.6
60687.2
140917
140532
140210
139881
139407
139021
139243
191791
190816
189712
188460
187025
185500
183986
210234
208857
207172
205114
202566
199644
196465
197785
197083
196018
194687
193259
191904
190564
154229
154213
153841
154210
155346
156899
157392
68615.8
69187.9
69890
71173.7
73056.1
75114.4
76633.5
57645.2
57630.1
57789.5
58076.2
58438.9
59057.9
60016
141116
140699
140266
139878
139426
138955
138817
191901
190971
189859
188494
186862
185009
182981
210615
209308
207634
205479
202702
199003
194507
197788
197068
195998
194604
192894
190817
188411
154242
154649
154443
154397
154836
155703
155666
69071
69679.7
70315.3
71282.5
72715.8
74609.7
75942.1
57839.7
57763.2
57830.1
58120.7
58519.6
59135.6
59828.7
141230
140836
140316
139841
139437
138994
138674
191956
191016
189917
188523
186750
184480
180942
210915
209696
208003
205828
202859
198583
191658
197958
197222
196123
194687
192746
190048
185670
154147
154641
154772
154665
154702
154931
154065
69128
69881.1
70520.8
71263.1
72496.4
74299.7
75316
88504.4
80143.6
74286.2
70962.1
69307
68801.7
68644.2
164205
160721
158105
156288
155042
154201
153479
193517
195064
196313
197094
197464
197623
197592
198365
201332
204050
206200
207696
208537
208853
183103
185008
187223
189060
190338
190977
191069
148305
143970
141837
141154
141180
141630
142872
78961.6
69431.1
62995.1
59898.4
59211.9
59466.7
60197.8
84042.7
77288.4
72913.3
70081.2
68196.3
67240.6
67128.5
162001
159208
157254
155713
154359
153075
151972
193354
194946
196346
197082
197295
197341
197266
198508
201449
204057
206129
207580
208544
209381
183068
185145
187335
189132
190353
191174
191886
146113
142627
140948
140442
140614
141253
142109
73861.9
65644.8
60691.4
58701.8
58248.7
58389.9
58683
80013
75854.8
72925.9
70151.3
68070.8
67041.1
66828.4
159935
158154
157025
156028
154559
152932
151942
193220
194849
196404
197126
197122
197081
197054
198720
201654
204149
206143
207623
208758
209827
183169
185361
187526
189268
190427
191276
192195
142644
140565
139853
139846
140142
140711
141262
66069.3
60723.3
58562.7
57855.8
57529.8
57503.2
57506.9
78357.8
75798.8
73348.9
70873.5
68984.1
67805.5
67145.6
159268
157980
156892
155967
154718
153325
152210
193012
194489
195783
196516
196761
196879
196962
198638
201645
204233
206284
207872
209154
210249
183430
185569
187653
189296
190506
191422
192384
139919
139361
139411
139660
139947
140411
140946
60112.1
58026.5
57813.4
57756.7
57624.5
57473.8
57317
77582.4
75780.2
73425.4
71371.1
69818.3
68757
67973.6
158867
157887
156615
155550
154473
153429
152429
192100
193697
194993
195851
196365
196703
196890
197947
201311
204240
206523
208288
209635
210669
183877
185734
187690
189456
190721
191686
192544
139025
139373
139598
139843
140177
140625
141133
58252
57761
57890.1
57863.1
57692.1
57486.5
57365.6
76668.6
75392.1
73247.2
71560.2
70343.3
69528.7
68751.1
158037
157390
156215
155066
154064
153310
152661
190309
192614
194350
195417
196140
196604
196892
196173
200769
204354
206884
208762
210098
211068
183334
185645
187876
189692
190959
191899
192674
138953
139450
139751
140082
140489
140925
141306
58761.5
58393.3
58209.6
58000
57711.8
57506.8
57437.5
75877.7
75072.7
73104.5
71625.2
70574.7
69880.6
69106.1
156967
157027
156077
154944
154021
153367
152757
188153
192030
194131
195362
196170
196703
197023
193592
200453
204521
207227
209105
210488
211396
181625
185396
188006
189837
191066
192006
192747
138819
139432
139850
140247
140693
141050
141255
59131.2
58775.7
58523.4
58184.6
57848
57664.7
57519.5
99921.8
101266
100581
100851
100217
98432.4
95028.1
173448
174068
173984
173709
172378
170276
167725
192515
192089
191495
191172
191196
191618
192371
197818
196981
195576
194208
193755
194427
195962
187783
186717
184626
182840
181894
181743
182082
181184
177688
172041
167225
162768
158158
153448
110537
107907
105646
103933
99946.1
94276.1
87719
96421.6
97837.8
98731.9
98620
97642.1
95397.2
91001.3
170959
171235
172111
171889
170260
168000
165289
191839
191160
190653
190481
190643
191227
192128
198120
196625
194782
193374
193184
194164
195953
186021
184795
183185
181853
181060
181154
181797
175176
171977
167714
163854
159701
155401
150835
104622
103109
101935
99886
95631.2
89943.3
82805.1
94818.9
95276.9
96236.1
95766.3
94143.4
91279.8
86321.1
170183
169456
170057
169786
167641
165077
162549
190912
189980
189513
189462
189847
190736
191896
198001
196144
193918
192484
192449
193750
195952
183454
182465
181347
180482
180204
180644
181635
166396
164325
161406
158043
154278
150241
146262
96491.5
96389.8
95422.1
92493.2
88229.4
82306.4
74688.5
94459.2
93704.3
93286.9
92324.5
90289.3
87163.5
82779.4
169823
168338
167675
167211
164851
162523
160737
189492
188673
188259
188392
189092
190263
191562
197238
195514
193092
191406
191300
192946
195684
180237
179721
179075
178827
179215
180346
181740
157920
156765
154510
151713
148216
144745
141920
89215.6
89188.5
87572
83816.7
79320
73984
66889.6
92474.7
91446.3
90371.3
89098.9
86946.9
84097.8
80560.8
167139
165351
164327
163811
161828
160485
159479
187241
186691
186477
186908
187932
189157
190481
196136
194389
191779
189648
189255
191367
194607
177082
176795
176520
176924
178191
180061
181931
151613
150724
149070
146792
143483
141029
139626
84561.7
83951.2
81959.4
77755.4
72798.8
67785.1
62505.3
88559.5
88234.2
87295.2
86317.2
84285.6
81930.7
78869.5
162208
160890
160256
159886
158670
158391
157805
183900
183567
183617
184146
185218
186421
188072
194140
192204
189229
187082
186910
188604
191666
174067
173803
173893
174910
177003
179406
181327
147961
146535
145471
143718
140700
139153
138828
82529.5
80418.9
78212.6
74864.9
69735.9
64851.2
61141.2
82882.5
83533.2
82857
82253
80517.8
78788.1
76024.1
156082
155460
154818
154575
154595
154756
154033
180047
179600
179805
180576
181108
181054
182127
191531
189140
185739
183228
182042
181979
184497
170996
170825
171331
172961
174871
175651
176742
145050
143151
142243
141678
139564
138271
137881
79892
76091.1
73727
72430.4
67564.3
63362.3
60457.2
61109.8
60905.1
60982.2
60598.7
60647.2
60423.3
60680.1
135619
135393
135076
134633
133663
132906
132420
165708
165112
164243
163024
160811
157360
153473
174691
172811
169957
166608
162587
157805
152260
160655
160271
159668
158655
156693
153684
150327
127564
127249
127011
127029
127429
127426
127268
55635.8
55572.6
55544.6
55281.4
55379.7
56078.6
56871.2
50976.1
50825.1
50736.7
50574.4
50484.4
50469.1
50544.6
116573
116701
116782
116441
116060
115870
115979
146167
146080
146037
145956
145718
145341
144979
154181
153662
152942
152232
151690
151300
150733
141431
141239
141023
140776
140528
140308
140108
108828
108987
109125
109157
109116
109090
109064
45787.5
46120.3
46288
46518.2
47017.7
47317.7
47513.8
44029.3
44109.6
44210
44262.4
44278.8
44267.6
44223.1
102086
102247
102455
102707
103191
103852
104198
132272
132361
132673
133241
133816
134231
134450
140713
140679
140807
141117
141622
142183
142329
128533
128594
128849
129292
129740
130121
130293
96397.8
96540.5
96739.8
96967.7
97171.9
97231.2
97287.7
41028
41014.4
41132.6
41242.1
41254.1
41327.8
41319.9
40136.3
40137.8
40167.2
40260.9
40376
40496
40545.3
92802.6
92835.7
92946.2
93194.7
93486.3
93740.8
93882.2
122635
122644
122793
123018
123217
123371
123419
131706
131701
131785
131954
132152
132335
132338
120755
120753
120819
120977
121152
121278
121342
90449.5
90480.1
90533.2
90604.8
90723
90853.7
90959.2
38936
39020.3
39027.3
38989.4
38983.2
38982.7
38977.5
39190.7
39193.9
39189.5
39191.8
39191.6
39193.5
39197.9
88739.5
88728.4
88730.8
88773.2
88804.5
88821
88813.2
116420
116338
116328
116333
116283
116236
116170
125504
125344
125191
125102
125047
125000
124861
116339
116267
116176
116139
116116
116094
116031
88594.8
88601
88608.8
88619.9
88646.6
88642
88633.3
38721.4
38684.8
38698.5
38735.5
38712.8
38720.2
38756.1
39989.5
39990.3
39986.9
39980.3
39971.3
39967.4
39967.5
88359.6
88360.9
88342.5
88294.7
88271.4
88285.6
88294.4
112619
112534
112494
112490
112466
112465
112385
120508
120269
120032
119861
119771
119771
119554
113272
113203
113145
113134
113100
113104
113032
89069.5
89063.4
89082
89100.1
89118.7
89123.3
89115.9
39961.9
39895.4
39902.6
39950.4
39937.1
39960.9
40025.5
48639.4
48636.8
48639.9
48650.5
48660.1
48660.5
48656.4
87182.1
87202.9
87240.8
87276.4
87312.4
87345.1
87365
107491
107484
107529
107600
107641
107722
107709
114483
114308
114197
114097
114041
114190
113960
108357
108329
108389
108475
108519
108584
108550
88172.7
88178.3
88228.8
88271.5
88304.4
88323.2
88332.2
48934.7
48963.3
48965
48945.6
48956.9
48949.3
48920.1
87324.9
92959.8
97798.1
101340
103049
102757
99716.6
154840
159136
162922
165974
167888
168371
168037
182879
182423
182250
182687
183706
185041
186353
194511
193027
192363
193025
194944
197377
199256
190180
189294
188677
188811
189811
191377
192548
164650
167151
169790
172708
175837
179537
182938
92036.7
95879.4
98517.6
100944
102935
104493
106401
83058.5
88673.1
93497.7
97334.4
98882.5
98275
97061.6
151723
155757
159354
162354
164436
165608
166687
182353
181651
181329
181626
182570
184004
185418
194569
192896
191935
192382
194246
196712
198659
189979
188939
188213
188163
188879
190070
191239
163103
165317
167516
170293
173077
175749
178486
89260.7
94223.8
96662.8
98852.1
101152
102273
103060
76585.1
82449.8
87402.7
91492.3
93636.1
94858.3
95760.2
147235
150968
154599
157879
160621
163434
166032
181984
180829
180136
180206
181152
182650
183928
194715
192646
191330
191598
193435
195807
197719
190041
188740
187595
187161
187557
188387
189196
160978
162771
164553
166670
169020
171002
172370
85027.4
90814.3
93597.2
95505
97579.5
98489.7
98238.6
70120.6
76110.5
81132.7
85430.9
88440.7
90820.5
92941.6
143150
146281
149939
153588
156181
159442
162995
181939
180354
179069
178628
179304
180525
181521
194591
192126
190313
190302
192221
194870
196801
189968
188463
186837
185762
185642
186061
186523
159084
160174
161407
162635
164231
165476
166269
81437.2
86367.4
89883.1
91652.9
92971.2
93333.8
93179.1
65656
71326.1
76337.3
80495.8
83832.8
86401.9
88101.9
140463
143057
146230
149592
151843
154388
157631
181996
179953
178113
176957
176903
177565
178367
193460
190730
188595
188248
190188
193592
195989
189167
187527
185576
183908
183137
183163
183497
156820
156899
157721
158337
159457
160306
160835
79099.6
82430.1
85532.7
87347.4
88467.7
88837.5
88893.7
63637.5
68547.5
73276.8
77210.4
79846.3
81603.6
81854.5
139242
141332
143789
145766
147367
148950
150701
181011
179126
176874
174786
173799
173938
174832
190165
187192
185474
185411
187461
191150
193760
186343
184727
183073
181210
180134
179924
180020
153954
153501
153662
154059
154901
155599
156292
77535.7
79559
80982.9
82490.2
84231.3
85216.2
86087.8
62250.6
66430.8
70271.2
73790.2
75303.6
76314
74684.2
138184
140099
140867
141761
142399
143559
143561
175518
174725
174278
172163
170326
170018
171043
182281
179852
180072
181378
183884
187848
190699
179533
178520
178638
177829
176685
176428
176545
150032
150089
149061
149490
150467
150749
151792
75272.9
76988.5
76248.8
77237.5
79454.1
80821.1
82696.2
53564.7
53750.8
54112.9
54142.6
54591.9
54392.4
54334.6
122301
122705
123145
123726
124479
125159
125413
145373
149529
152900
154948
155932
156593
157082
147872
153823
158945
163238
166845
169983
171926
149120
153217
157398
160470
162099
163230
164178
130060
131058
131404
131747
132319
133321
134282
61157.9
60454.5
60348.9
60088.8
59858
60539.6
60559.2
45995.3
45588.1
45080
44470.9
44109.7
44110
44406.8
106164
105928
105680
105499
105273
104979
104945
137300
137567
137639
137638
137665
137773
137920
148422
149137
149455
149865
150427
151062
151480
144784
145066
145416
145632
145653
145793
146082
118155
118352
118700
118409
117991
118145
118294
52025.5
52135.3
52180.2
52154.5
51930.6
51769.1
51747.4
39759
39696.1
39666.5
39675.2
39631.3
39500
39374.9
94639.8
94550.4
94310.9
94009.6
93730.1
93454.4
93189.7
127384
127193
126672
126045
125547
125251
125125
140802
140630
139883
139158
138693
138534
138562
135394
135043
134384
133539
132926
132645
132564
106343
106143
106015
105773
105423
104977
104635
45835.2
45900
45937.5
45939.1
45986.2
45937
45969.1
38213
38198
38175.9
38131.8
38145.1
38187.8
38210.7
88999.1
88892.1
88851.4
88779.6
88704.6
88638.3
88647.2
119144
119158
119020
118828
118679
118639
118676
130502
130540
130382
130227
130141
130164
130235
122831
122782
122637
122374
122146
122050
122043
94308.1
94209.9
94054.2
93854.8
93597
93385.1
93346.7
40995.3
40958.1
40910.1
40818.5
40662.7
40608
40548.4
37755.8
37757.9
37764.9
37795.3
37760.8
37744.9
37739.9
87364.2
87361.2
87356.1
87344.5
87357.2
87381.8
87402
114805
114942
114960
114979
115050
115184
115333
123362
123567
123723
123910
124133
124368
124540
114846
114947
115074
115173
115266
115351
115428
88099.7
88121
88153.5
88181.7
88206.2
88238.9
88234
39055
39071.3
39078.5
39089.1
39094.6
39069.3
39057.2
39189.1
39202.9
39253.8
39314.6
39256.7
39204.2
39180.3
88227.4
88229
88224.7
88225.8
88216.6
88225.5
88235.2
112433
112561
112523
112530
112533
112590
112695
118915
119161
119149
119238
119412
119639
119859
111647
111722
111767
111817
111849
111870
111902
87929
87927.6
87922.8
87901.8
87856.8
87843.3
87822.5
39967.8
39962.2
39955
39942.2
39927.8
39918.9
39912.5
49111.3
49109.3
49088.9
49058
49082.5
49097
49101.4
87552.4
87552
87552.2
87544.8
87504.9
87468.4
87448.9
107771
107839
107773
107760
107660
107605
107615
113642
113902
113702
113707
113730
113812
113968
107440
107465
107428
107394
107349
107296
107281
87337.9
87325.7
87304.7
87267.6
87221
87183.6
87158.2
48702.7
48703.5
48706.2
48714.1
48729.7
48740.1
48747
)
;

boundaryField
{
    fuel
    {
        type            zeroGradient;
    }
    primary_air
    {
        type            zeroGradient;
    }
    Secondary_air_RHS
    {
        type            zeroGradient;
    }
    Secondary_air_LHS
    {
        type            zeroGradient;
    }
    outlet
    {
        type            totalPressure;
        rho             rho;
        psi             none;
        gamma           1;
        p0              uniform 100000;
        value           nonuniform List<scalar> 
98
(
45304.7
76263.9
100000
100000
100000
75781
45343.2
45278.5
76260.5
100000
100000
100000
75734.4
45319.3
45284.8
76296.9
100000
100000
100000
75758.9
45318.2
45206.5
75881.1
100000
100000
100000
75695.1
45317
45293.6
76184.7
100000
100000
100000
75586.8
45311.4
45287.7
76076
100000
100000
100000
75539.7
45320.4
45305.1
76022.1
100000
100000
100000
75437.2
45341
45354.1
75465.8
100000
100000
100000
76445.6
45448
45325.7
75423.8
100000
100000
100000
76667.1
45568.6
45322.5
75583
100000
100000
100000
76668.9
45551.4
45322.5
75798.8
100000
100000
100000
76613.4
45429.1
45324.7
75860.4
100000
100000
100000
76758
45569.7
45323.9
75842.2
100000
100000
100000
76740.8
45576.9
45340.8
75891.9
100000
100000
100000
76683
45461.6
)
;
    }
    stove_body
    {
        type            zeroGradient;
    }
    frontAndBack
    {
        type            empty;
    }
}


// ************************************************************************* //
