/*--------------------------------*- C++ -*----------------------------------*\
  =========                 |
  \\      /  F ield         | OpenFOAM: The Open Source CFD Toolbox
   \\    /   O peration     | Website:  https://openfoam.org
    \\  /    A nd           | Version:  6
     \\/     M anipulation  |
\*---------------------------------------------------------------------------*/
FoamFile
{
    version     2.0;
    format      ascii;
    class       surfaceScalarField;
    location    "0.0125";
    object      phi;
}
// * * * * * * * * * * * * * * * * * * * * * * * * * * * * * * * * * * * * * //

dimensions      [1 0 -1 0 0 0 0];

internalField   nonuniform List<scalar> 
10143
(
-2.02166e-07
-2.77758e-05
4.16478e-05
-3.69091e-07
-2.69809e-05
4.09593e-05
-3.7084e-08
-2.73125e-05
4.09188e-05
1.99609e-07
-2.71042e-05
4.07521e-05
1.51498e-07
-2.67743e-05
4.06617e-05
2.01817e-07
-2.70594e-05
4.08206e-05
-2.76205e-05
4.14307e-05
3.30844e-07
-1.93925e-06
-1.15992e-05
4.02393e-07
-1.70761e-06
-1.06211e-05
-4.713e-07
-2.01086e-06
-9.58745e-06
-6.7148e-07
-1.78989e-06
-1.03189e-05
-1.12813e-07
-1.51158e-06
-1.11536e-05
-6.4653e-07
-1.53791e-06
-1.028e-05
-1.88412e-06
-1.19732e-05
1.7344e-09
-2.84156e-06
4.69213e-06
6.61947e-07
-2.73499e-06
3.75369e-06
2.23683e-09
-3.13647e-06
5.21472e-06
-2.82405e-07
-3.12143e-06
5.46648e-06
-3.38042e-08
-2.97801e-06
4.98374e-06
-5.3094e-07
-3.12208e-06
5.42937e-06
-2.66718e-06
4.02873e-06
-1.51217e-07
2.77939e-06
2.43525e-06
1.1172e-07
2.6524e-06
2.20642e-06
7.57645e-08
3.02425e-06
1.59882e-06
-2.37578e-07
3.22198e-06
1.63081e-06
-5.0484e-07
2.92383e-06
2.08126e-06
-3.56221e-07
2.9981e-06
1.5224e-06
2.59382e-06
2.33997e-06
1.83265e-08
1.86369e-06
4.61225e-06
3.69431e-07
1.83938e-06
4.12208e-06
5.54101e-09
1.5949e-06
5.49634e-06
-4.67038e-07
1.34101e-06
6.09652e-06
-1.01115e-07
1.48723e-06
4.81758e-06
-4.48895e-07
1.59265e-06
5.48243e-06
1.80193e-06
4.00638e-06
4.86302e-07
2.78497e-05
-1.20194e-05
5.57928e-07
2.74069e-05
-1.11052e-05
-2.61912e-09
2.74006e-05
-1.04973e-05
1.33268e-07
2.70585e-05
-1.11661e-05
6.5743e-07
2.69536e-05
-1.1382e-05
-3.36012e-07
2.73844e-05
-9.99415e-06
2.78371e-05
-1.18735e-05
-5.39619e-08
4.15419e-05
-3.90612e-07
4.14586e-05
-1.0161e-07
4.09187e-05
1.11352e-07
4.06169e-05
1.21767e-07
4.07567e-05
2.52059e-07
4.10799e-05
4.17158e-05
-2.86638e-07
1.699e-06
5.22563e-05
-4.18062e-07
4.77127e-07
5.31228e-05
-6.81632e-08
1.8807e-07
5.28302e-05
1.57989e-07
6.43676e-07
5.24654e-05
1.21589e-07
1.17028e-06
5.21648e-05
2.61278e-07
8.23203e-07
5.2268e-05
1.61912e-06
5.19348e-05
-3.59804e-08
1.89145e-05
-2.26744e-05
-1.22921e-07
1.68846e-05
-2.18432e-05
-4.73055e-07
1.66418e-05
-2.04197e-05
-1.78795e-07
1.69384e-05
-2.1932e-05
4.47169e-07
1.78957e-05
-2.33675e-05
-6.21643e-08
1.79442e-05
-2.17803e-05
1.89518e-05
-2.34818e-05
1.20263e-07
4.27344e-06
5.02252e-06
4.12126e-07
4.42344e-06
2.54438e-06
1.95918e-08
4.18598e-06
5.0353e-06
1.90742e-07
3.96425e-06
4.66004e-06
3.44237e-07
4.06015e-06
4.78648e-06
-1.95027e-07
4.26654e-06
6.27752e-06
4.5444e-06
4.03649e-06
-5.80417e-08
-4.4548e-06
3.44374e-06
3.74587e-07
-4.72495e-06
3.00446e-06
9.53852e-08
-4.17637e-06
2.23158e-06
-4.89785e-07
-3.9804e-06
2.09472e-06
-9.79949e-07
-4.05305e-06
2.67674e-06
-6.61832e-07
-4.22249e-06
1.77891e-06
-4.63713e-06
3.10675e-06
-7.15597e-08
-1.88618e-05
4.8593e-06
-8.71854e-08
-1.88982e-05
4.0209e-06
1.73029e-08
-1.78634e-05
5.19831e-06
-8.11087e-08
-1.75007e-05
5.85521e-06
4.06636e-07
-1.79049e-05
4.30091e-06
-4.57946e-08
-1.78161e-05
5.66733e-06
-1.89875e-05
3.97822e-06
9.24349e-08
-1.3158e-06
-2.36928e-05
1.711e-07
-1.87108e-06
-2.23459e-05
-1.77353e-07
-4.52381e-07
-2.21002e-05
6.0045e-07
-8.91904e-07
-2.32568e-05
1.17747e-06
-8.3614e-07
-2.39601e-05
1.71027e-07
-3.50381e-07
-2.13348e-05
-1.30109e-06
-2.33704e-05
-4.1822e-08
5.20638e-05
-4.94966e-07
5.18519e-05
-3.22833e-08
5.22149e-05
2.47227e-08
5.21743e-05
1.3225e-07
5.22777e-05
3.70126e-07
5.2745e-05
5.25168e-05
-2.0451e-07
2.1812e-05
5.08069e-05
-4.17651e-07
2.1327e-05
5.34326e-05
2.16401e-07
2.09702e-05
5.31046e-05
4.1103e-07
2.15796e-05
5.23543e-05
2.76128e-07
2.1915e-05
5.1781e-05
1.47605e-07
2.1575e-05
5.18265e-05
2.17159e-05
5.0188e-05
4.398e-07
2.13835e-05
-1.4868e-05
3.82916e-07
2.09945e-05
-1.61558e-05
-3.49673e-07
2.09094e-05
-1.50959e-05
-2.48855e-07
2.06398e-05
-1.53726e-05
2.18034e-07
1.9442e-05
-1.54068e-05
-9.79953e-08
2.04368e-05
-1.4334e-05
2.14477e-05
-1.55387e-05
-1.26358e-07
4.73374e-06
5.32025e-06
2.05111e-07
5.05191e-06
2.65122e-06
2.39231e-07
5.22156e-06
5.64796e-06
3.57972e-07
4.80604e-06
4.83741e-06
1.61967e-07
4.39673e-06
4.37079e-06
4.246e-08
5.57079e-06
5.49933e-06
5.29494e-06
3.78867e-06
-1.4725e-07
-5.07438e-06
5.56879e-06
2.95948e-07
-5.34982e-06
4.9449e-06
-1.45657e-08
-4.65568e-06
4.31618e-06
-4.27037e-07
-4.4853e-06
3.67752e-06
-1.02321e-06
-4.39929e-06
4.00331e-06
-5.70256e-07
-5.36477e-06
4.24102e-06
-5.30806e-06
5.31608e-06
-1.10812e-07
-2.15329e-05
4.99029e-06
-2.99875e-07
-1.99749e-05
2.78229e-06
2.49193e-07
-2.11039e-05
5.28441e-06
-1.36644e-07
-1.78269e-05
3.88314e-06
2.05027e-07
-2.00452e-05
3.84271e-06
2.30863e-07
-2.06874e-05
5.21338e-06
-2.16769e-05
4.0208e-06
4.88422e-08
-2.12294e-05
-1.61723e-05
5.30818e-07
-2.11629e-05
-1.49449e-05
-3.86654e-07
-2.11354e-05
-1.53137e-05
7.60474e-07
-2.10824e-05
-1.44557e-05
5.92538e-07
-2.1412e-05
-1.65344e-05
-1.28937e-07
-2.11441e-05
-1.41959e-05
-2.12913e-05
-1.58588e-05
8.69295e-08
5.02316e-05
-4.82244e-07
5.18321e-05
-2.83498e-08
5.15129e-05
-1.35866e-07
5.20572e-05
-5.8496e-09
5.19216e-05
2.25513e-07
5.22666e-05
5.09395e-05
-3.62122e-07
3.03744e-05
4.48027e-05
-1.33975e-07
3.01522e-05
4.73038e-05
3.73702e-07
3.03384e-05
4.6583e-05
6.29884e-07
3.04246e-05
4.60442e-05
6.07192e-07
3.06806e-05
4.55001e-05
5.92318e-07
3.03429e-05
4.57958e-05
3.04285e-05
4.41972e-05
1.25401e-06
1.96129e-05
-6.76497e-06
8.05326e-07
2.05342e-05
-9.95699e-06
-5.63515e-07
2.14536e-05
-9.09301e-06
-6.51058e-07
2.05068e-05
-9.14346e-06
1.36093e-08
1.87771e-05
-7.51456e-06
-3.19032e-07
1.97129e-05
-6.66803e-06
2.03194e-05
-7.20005e-06
-1.62502e-07
4.34174e-06
5.22883e-06
-8.45654e-08
4.51257e-06
3.80398e-06
4.32977e-07
4.92601e-06
6.99163e-06
3.30011e-07
5.05623e-06
5.58507e-06
1.84068e-08
3.73493e-06
4.92703e-06
1.33598e-07
4.85015e-06
5.33137e-06
4.86755e-06
3.81228e-06
-1.89642e-07
-4.63085e-06
7.32573e-06
3.29312e-07
-4.99784e-06
6.28701e-06
-9.22795e-08
-3.17895e-06
5.13922e-06
-3.93e-07
-3.45643e-06
4.74701e-06
-9.50119e-07
-3.98452e-06
4.59193e-06
-5.32748e-07
-5.38959e-06
6.37068e-06
-4.8849e-06
7.09082e-06
-1.5745e-07
-1.96108e-05
4.63329e-06
-3.77469e-07
-1.94666e-05
2.41354e-06
1.78038e-07
-1.97143e-05
6.47366e-06
6.79972e-08
-1.85811e-05
4.20703e-06
1.02795e-07
-1.88214e-05
3.81863e-06
3.92969e-07
-2.05623e-05
5.1797e-06
-2.01397e-05
4.01779e-06
4.44092e-07
-2.96783e-05
-7.71297e-06
5.78884e-07
-2.98437e-05
-7.41108e-06
-3.26136e-07
-3.00636e-05
-7.36257e-06
6.62339e-07
-3.05586e-05
-6.28973e-06
2.91497e-07
-3.01175e-05
-8.14701e-06
-5.32352e-07
-3.00087e-05
-7.26196e-06
-2.98058e-05
-7.72699e-06
-2.19846e-07
4.46358e-05
-4.67086e-07
4.65494e-05
-3.08111e-07
4.55345e-05
-1.94262e-07
4.60382e-05
-7.66302e-08
4.60415e-05
2.82698e-07
4.61765e-05
4.53186e-05
-5.7912e-07
3.6886e-05
3.31929e-05
1.71677e-07
3.58159e-05
3.5204e-05
3.13376e-07
3.63973e-05
3.42516e-05
8.09802e-07
3.59715e-05
3.39706e-05
8.98362e-07
3.67507e-05
3.34156e-05
9.74847e-07
3.64619e-05
3.41465e-05
3.72207e-05
3.25942e-05
1.41106e-06
1.90861e-05
-2.69619e-07
8.15653e-07
1.8849e-05
-3.08637e-06
-5.92926e-07
2.06295e-05
-2.79344e-06
-6.17236e-07
1.88533e-05
-2.6519e-06
-2.77278e-07
1.96401e-05
-1.62277e-06
-5.2034e-07
1.9885e-05
-7.69717e-07
2.03211e-05
-9.50703e-07
9.48069e-08
3.67047e-06
5.78799e-06
-2.43007e-07
4.28765e-06
4.25216e-06
5.46999e-07
4.7627e-06
7.55975e-06
2.69635e-07
4.65293e-06
5.6193e-06
-1.21351e-07
4.55092e-06
5.78764e-06
1.37335e-07
4.21399e-06
6.19018e-06
4.38496e-06
5.06717e-06
-3.21976e-07
-4.15367e-06
8.68887e-06
1.99882e-07
-4.7943e-06
7.83518e-06
-1.50658e-07
-3.8881e-06
7.04352e-06
-3.73179e-07
-4.22779e-06
6.71141e-06
-5.75027e-07
-4.27495e-06
6.52118e-06
-5.05147e-07
-4.57816e-06
7.8466e-06
-4.31998e-06
8.48977e-06
-1.35377e-07
-1.91263e-05
5.04613e-06
-2.76416e-07
-2.01016e-05
3.15957e-06
4.90881e-08
-1.91541e-05
6.94027e-06
1.38417e-07
-2.06905e-05
5.87896e-06
1.90414e-08
-1.88193e-05
4.05534e-06
3.6197e-07
-1.9997e-05
5.73282e-06
-1.97585e-05
4.96226e-06
8.34454e-07
-3.64781e-05
-9.72967e-07
3.42965e-07
-3.61749e-05
-1.57471e-06
6.55468e-08
-3.60831e-05
-8.29233e-07
3.74831e-07
-3.73301e-05
-1.11542e-06
-3.6918e-08
-3.61811e-05
-1.13995e-06
-6.89847e-07
-3.62288e-05
-1.23645e-06
-3.66975e-05
-1.21213e-06
-4.22141e-07
3.34291e-05
-6.02192e-07
3.55137e-05
-3.32111e-07
3.38723e-05
-3.32613e-07
3.37693e-05
-9.8528e-08
3.4329e-05
3.58685e-07
3.43404e-05
3.37833e-05
-5.9046e-07
3.96686e-05
1.9833e-05
3.74803e-07
3.86188e-05
2.10814e-05
2.57047e-07
3.89588e-05
2.07825e-05
6.60671e-07
3.82081e-05
2.06324e-05
7.24556e-07
3.88734e-05
2.00537e-05
1.08077e-06
3.8972e-05
2.05218e-05
4.00335e-05
1.93418e-05
1.47962e-06
2.05085e-05
4.07138e-06
5.29823e-07
2.06569e-05
2.11578e-06
-2.75755e-07
2.1025e-05
2.32279e-06
-6.66891e-07
2.0424e-05
2.04435e-06
-7.14388e-07
2.08694e-05
2.60972e-06
-6.58852e-07
2.07457e-05
3.40934e-06
2.13794e-05
3.50741e-06
3.80018e-07
1.57597e-06
9.33683e-06
-3.46414e-07
2.93195e-06
7.81139e-06
4.76264e-07
2.76803e-06
1.00583e-05
2.77999e-07
2.77446e-06
8.67192e-06
-1.97893e-07
3.5469e-06
8.62632e-06
7.09063e-08
2.62191e-06
9.16316e-06
2.66663e-06
8.76929e-06
-5.35463e-07
-2.22254e-06
6.57708e-06
1.19454e-07
-3.33614e-06
6.84795e-06
-1.69527e-07
-3.1065e-06
6.52284e-06
-4.5212e-07
-3.36915e-06
6.37234e-06
-4.27862e-07
-3.31811e-06
6.65659e-06
-5.71945e-07
-2.46109e-06
6.3014e-06
-2.57343e-06
6.77215e-06
6.01912e-08
-2.08409e-05
8.64535e-06
-2.32915e-07
-2.06454e-05
6.04249e-06
8.83644e-08
-2.06665e-05
9.32625e-06
-1.40304e-07
-2.06463e-05
8.53701e-06
6.5857e-08
-2.0851e-05
6.88463e-06
2.6884e-07
-2.05422e-05
8.79005e-06
-2.10916e-05
8.59735e-06
9.64974e-07
-3.96132e-05
3.46143e-06
1.83078e-07
-3.88179e-05
3.00287e-06
3.84603e-07
-3.86686e-05
3.21536e-06
6.11253e-07
-3.89482e-05
2.85274e-06
-3.84061e-07
-3.79131e-05
2.72599e-06
-6.63365e-07
-3.87418e-05
3.33079e-06
-3.97625e-05
3.49679e-06
-3.52017e-07
2.00764e-05
-6.38237e-07
2.29342e-05
-2.9276e-07
2.05212e-05
-2.08827e-07
2.06191e-05
-2.88348e-07
2.20309e-05
2.96943e-07
2.07208e-05
2.01568e-05
-7.61259e-07
4.34166e-05
4.50497e-07
4.29549e-05
3.43901e-07
4.38195e-05
7.65083e-07
4.29003e-05
7.43157e-07
4.2944e-05
1.28529e-06
4.28708e-05
4.34158e-05
1.40519e-06
2.45135e-05
2.96785e-07
2.42928e-05
4.56323e-07
2.44453e-05
-3.22727e-07
2.44168e-05
-8.58632e-07
2.45861e-05
-3.92417e-07
2.41673e-05
2.48952e-05
8.64928e-07
5.10685e-06
-4.21426e-07
5.62114e-06
5.43442e-07
5.39711e-06
4.62394e-07
5.40082e-06
2.1002e-08
5.58385e-06
3.89928e-08
5.55986e-06
5.5777e-06
-5.71725e-07
-5.30307e-06
8.19243e-08
-5.53466e-06
-2.69832e-07
-5.20523e-06
-5.48249e-07
-5.52217e-06
-5.37794e-07
-5.15239e-06
-7.8562e-07
-5.52404e-06
-5.61946e-06
1.76388e-07
-2.4619e-05
-3.83093e-07
-2.52716e-05
2.18544e-07
-2.42098e-05
-1.73145e-07
-2.45685e-05
5.4931e-07
-2.46644e-05
3.48879e-07
-2.42095e-05
-2.48917e-05
5.33151e-07
-4.3298e-05
2.81475e-07
-4.68266e-05
5.96787e-07
-4.2855e-05
5.15695e-07
-4.33968e-05
-7.58727e-07
-4.57112e-05
-5.01406e-07
-4.28098e-05
-4.33674e-05
-2.78417e-07
-9.90964e-07
-3.99335e-07
-8.66244e-08
-5.13826e-07
3.2148e-07
-0.00391203
0.00281146
0.00148036
-0.00562206
0.00274839
-0.000645025
-0.00555225
0.00285762
-0.0025408
-0.00401263
0.00319051
-0.0043029
-0.00249238
0.00383563
-0.00491774
-0.00115296
0.00392662
-0.00484082
0.00370266
-0.00442342
-0.00390881
0.00550796
0.00131001
-0.00515558
0.00514637
-0.000943303
-0.00585688
0.00451153
-0.000746248
-0.00536032
0.00388349
-0.000922189
-0.00359019
0.00385349
-0.00147525
-0.00169725
0.00445838
-0.00210527
0.00505778
-0.00273515
-0.000126985
0.00232695
0.00312227
0.00110487
0.00191973
0.00181476
0.00207869
0.00151468
0.00182524
0.00254971
0.00114138
0.00206582
0.00241248
0.00157398
0.00223623
0.00171106
0.00231276
0.00271048
0.00260382
0.00405736
0.000190936
-0.00360989
0.00572933
0.000628875
-0.00302652
0.00445314
0.000364255
-0.00240993
0.00413254
-0.000524886
-0.00217738
0.00413914
-0.000727173
-0.00233292
0.00408451
-6.68146e-05
-0.00269051
0.00434492
-0.00307404
0.00566452
-0.00313923
-0.00471878
0.0040152
-0.00461984
-0.00415065
0.00237993
-0.00485032
-0.00419258
0.0017975
-0.00410712
-0.00452813
0.00139092
-0.00244069
-0.00522375
0.00101902
-0.00015165
-0.00590351
0.000795822
-0.00588582
0.0025894
-0.00142678
-0.00374499
0.000588813
-0.00142246
-0.00393747
-1.77549e-05
-0.000189933
-0.00390074
-0.00130389
0.000700395
-0.00343198
-0.00181136
0.00107368
-0.00307024
-0.00236487
0.0019932
-0.00304481
-0.00361605
-0.0031959
-0.000528807
-8.62277e-05
-0.00318751
0.00107002
-0.00463464
0.00252744
-0.00494365
0.00401816
-0.00451902
0.00398267
-0.00260678
0.00288398
-0.00153879
8.03004e-05
-0.00294018
0.00182636
0.00295998
-0.00394006
0.00170659
-0.000994228
-0.00397865
0.0016566
-0.00381884
-0.00328565
0.00164467
-0.00625567
-0.00252044
0.00232963
-0.007622
-0.00155817
0.00255135
-0.00800183
0.00200348
-0.00766786
-0.00432426
0.0048946
0.00271619
-0.00701317
0.00436837
-0.000761767
-0.00896978
0.00335227
-0.000280038
-0.00927924
0.00210647
-0.000788507
-0.00697099
0.00260204
-0.00380084
-0.00407815
0.0036287
-0.00590821
0.00430793
-0.00896846
0.000505793
0.00159561
0.00577579
0.00162196
0.000910853
0.00399312
0.00222366
0.000306523
0.00406958
0.00127614
0.000362191
0.00452762
-5.80057e-06
0.00108518
0.00483737
-0.000593504
0.00128515
0.00543786
0.00151726
0.00609156
0.00117372
-0.00225348
0.00840203
0.00121546
-0.00179433
0.00708029
0.000683168
-0.00141969
0.00631315
-0.000403358
-0.000729669
0.0061583
-0.000931108
-0.000690412
0.00628826
-0.00101188
-0.00122103
0.00686289
-0.00207629
0.00820444
0.000297317
-0.00500708
0.00628509
-0.000807632
-0.00395534
0.00545347
-0.00232871
-0.00269291
0.00439955
-0.00276046
-0.00292279
0.0037802
-0.00195314
-0.0041245
0.0034057
-0.000898347
-0.00476859
0.00307338
-0.00549997
0.00491537
0.00399946
-0.002366
-0.00571672
0.0072011
-0.00259723
-0.00425619
0.00963873
-0.00216958
-0.00390984
0.00943693
-0.00142746
-0.00283372
0.00767615
-0.00196685
-0.00253774
0.00431645
-0.00205729
-0.0028628
-0.00256563
0.000952932
0.00274209
-0.00788008
0.00444024
-0.00855152
0.00564904
-0.00796528
0.00645889
-0.00641067
0.0058291
-0.00355797
0.00391945
-0.0012652
0.00181112
-0.00137479
0.0010494
0.00365237
-0.00196557
0.000842093
-0.0009088
-0.00190411
0.00062257
-0.00417526
-0.00161988
0.00131902
-0.00750102
-0.00111595
0.00141261
-0.00917916
-0.000642365
0.00157398
-0.00972993
0.00097344
-0.00899509
-0.00408596
0.00464472
0.00339279
-0.00646114
0.00351464
-0.000924105
-0.00708636
0.00271626
-0.00152155
-0.00598225
0.00234532
-0.00262645
-0.00454245
0.00228569
-0.00594265
-0.00211308
0.00256824
-0.00920255
0.00269977
-0.0127427
0.000701653
0.00197002
0.00763055
0.0015933
0.0011012
0.00537998
0.00222631
0.000351007
0.00559439
0.00218399
0.000580898
0.00607693
0.000704065
0.00151278
0.0068607
-5.20296e-05
0.00169051
0.00686909
0.00109945
0.00743835
0.00123007
-0.00152217
0.0107214
0.00130221
-0.00170408
0.00978865
0.000733927
-0.00162887
0.00877137
-0.00040451
-0.00094733
0.00860563
-0.000887654
-0.000667216
0.00880712
-0.000838056
-0.00106157
0.00946658
-0.00192871
0.0103505
0.00098637
-0.00421223
0.00789863
0.00022991
-0.00320038
0.00757954
-0.00167852
-0.00250134
0.00702903
-0.00233193
-0.0027584
0.0060531
-0.00175987
-0.00345798
0.00541882
-0.00083628
-0.00373724
0.004608
-0.00497126
0.00691461
0.00503415
-0.000802075
-0.0138728
0.00779626
-0.000714908
-0.00926316
0.00901296
-0.00127153
-0.00607118
0.00960129
-0.000725689
-0.00509664
0.00894326
-0.00138145
-0.00365845
0.0053139
-0.00112626
-0.00169354
-0.00154769
0.00290627
0.00221857
-0.0105457
0.00361996
-0.0103223
0.0042688
-0.00954614
0.00486157
-0.00739303
0.00424166
-0.00399476
0.00273922
-0.000553002
0.0033525
-0.000745148
0.000781345
0.00397189
-0.00156995
0.000935417
-0.000697037
-0.00158797
0.000463078
-0.0042955
-0.00173226
0.000964066
-0.00802061
-0.00145639
0.000681318
-0.00981601
-0.00105629
0.000871363
-0.0107066
0.000507616
-0.0102605
-0.00339938
0.00322077
0.00452107
-0.00439237
0.00286888
-0.00171334
-0.00381646
0.00217599
-0.00366951
-0.00254999
0.00200955
-0.00478023
-0.00227055
0.000825984
-0.00623038
-0.000845111
0.000980126
-0.0106053
0.000458569
-0.0134543
-0.000143843
0.00151863
0.0094781
0.00139148
0.0006493
0.00593342
0.00247618
6.88721e-05
0.00636832
0.00340642
0.000377073
0.00647887
0.00276208
0.000910115
0.00713104
0.0013797
0.00112609
0.00796618
-4.12739e-05
0.00924742
0.000460811
0.000201557
0.0116063
0.00074767
-0.000678844
0.0107567
0.00045917
-0.000923718
0.00983061
-0.00020934
-0.000397256
0.00977223
-0.000549932
-0.000115393
0.00996144
-0.000146682
-0.000834613
0.0109774
-0.00171651
0.0118992
0.000515866
-0.00125949
0.00876067
-0.00100263
-6.57966e-06
0.00829128
-0.00228085
-0.000570992
0.00774669
-0.00277193
-0.0013584
0.00727712
-0.001585
-0.00253322
0.00643727
0.000132363
-0.00353921
0.00545584
-0.0039355
0.00910432
0.00251193
-0.000292398
-0.0171993
0.00458768
-4.57789e-05
-0.0112023
0.00559304
-0.000410504
-0.00711897
0.00662874
-0.000510847
-0.00688696
0.00695839
-0.00102751
-0.00536258
0.00464595
-0.000883298
-0.00190016
-0.00098395
0.00471448
0.00140812
-0.0119183
0.00280118
-0.0114245
0.00354778
-0.0104137
0.00351354
-0.00754672
0.0026927
-0.00385888
0.00150694
8.58655e-05
0.00422657
-0.000286117
0.000839337
0.0037434
-0.00125524
0.00106262
-0.000495759
-0.00165369
0.000551049
-0.00415333
-0.00215809
0.00064127
-0.00789372
-0.00178026
0.000135412
-0.0100442
-0.00119387
8.66104e-05
-0.0110811
-0.000386584
-0.0106607
-0.00231274
0.0026763
0.0051939
-0.00307366
0.00186845
-0.00168996
-0.00290876
0.00106891
-0.00430822
-0.00255657
0.00119205
-0.0055677
-0.00247419
0.000263441
-0.00630956
-0.00112029
0.000292107
-0.0119233
-0.000359123
-0.0144187
-0.000192635
0.000926536
0.0111989
0.00125863
-0.000330031
0.00648053
0.00234729
-0.000671171
0.00669515
0.00308175
-0.00030026
0.00688425
0.00248296
8.7382e-05
0.00759082
0.00128564
0.000566049
0.00875683
-0.000252387
0.0102813
0.000908018
0.000136999
0.011434
0.00100433
-0.000288303
0.0105011
0.000521957
-0.000201002
0.0095636
-7.61444e-05
0.000193362
0.00965357
-0.000534554
0.000429089
0.00980759
-0.000418829
0.00026988
0.0110485
-0.00123007
0.0124459
0.000484189
0.000605235
0.00763619
-0.000675223
0.00167656
0.00728176
-0.00190706
0.0011763
0.00733211
-0.00221834
0.000204104
0.00729194
-0.00092085
-0.00099727
0.00630545
0.000647613
-0.00192074
0.00592236
-0.00261692
0.0111161
0.00104852
0.000880386
-0.018398
0.00350722
0.000963488
-0.0127959
0.00482169
0.000299571
-0.00748951
0.00523477
-0.000618318
-0.00642709
0.0045446
-0.000747607
-0.00486897
0.00305887
-0.000734396
-0.00152439
-0.000240197
0.00553121
0.00136149
-0.0120693
0.00298428
-0.0117451
0.00355562
-0.0103943
0.00244299
-0.00675479
0.00109695
-0.0029337
-0.000116201
0.000896422
0.00423167
7.68391e-05
0.000827471
0.00315502
-0.00112036
0.00126117
-0.000250273
-0.00238052
0.000917712
-0.00352665
-0.00359696
0.000478358
-0.00691349
-0.00284864
-0.00102036
-0.00949941
-0.0012483
-0.00162145
-0.0107623
-0.00106288
-0.0104753
-0.000724833
0.00206854
0.0048117
-0.00221172
0.00174781
-0.000681797
-0.00352791
0.00109025
-0.00312144
-0.00527251
0.00107325
-0.00429542
-0.00432886
-0.00019643
-0.00780075
-0.00244455
-0.000800999
-0.0143174
-0.00107828
-0.0165807
0.000764176
-0.000125583
0.0125638
0.00159627
-0.000752119
0.00795503
0.00246879
-0.000911921
0.00752157
0.00260412
-0.000760976
0.00827901
0.00128562
-0.000464997
0.00891443
-2.17322e-05
0.000233819
0.00894828
0.000332701
0.00872102
0.00173646
-0.00207853
0.0114654
0.00189195
-0.00113881
0.010525
0.00122308
-0.000638261
0.00972922
2.86423e-05
0.000151561
0.00976626
-0.000813759
0.000462633
0.00950081
-0.000867417
0.000834568
0.0103446
-7.02467e-05
0.0118707
0.00289902
0.00184816
0.000578252
0.00258182
0.00214659
0.00418075
-0.000176404
0.000784259
0.00846544
-0.00130221
-0.000175283
0.00847501
-0.000867012
-0.00107784
0.00718347
-0.000152503
-0.00138077
0.00730499
-0.0014658
0.0124006
0.00175424
0.00130455
-0.0193789
0.00488715
0.00230691
-0.0156132
0.00635961
0.000335647
-0.00824324
0.00422211
-0.000736487
-0.00358281
0.00209909
-0.00120928
-0.00256164
0.000749683
-0.000895862
-0.000577173
-7.71683e-05
0.00513389
0.00105367
-0.0114874
0.0033574
-0.0114104
0.00330201
-0.00970307
0.00164202
-0.0055404
-0.000298229
-0.00186693
-0.000996472
0.00102478
0.00353088
0.000541162
0.00131092
0.00158902
-0.000856929
0.00107751
0.000359949
-0.00372456
0.000637735
-0.00102329
-0.00470896
-0.000882366
-0.00480339
-0.00334267
-0.00207393
-0.00853929
-0.00146372
-0.00232411
-0.0100862
-0.00158409
-0.00999729
0.000185105
0.00249745
0.00348395
-0.00228845
0.00263423
0.000291327
-0.00608443
0.00188214
-0.000416535
-0.00778746
0.00102035
-0.00424925
-0.00600837
-0.000862059
-0.0106462
-0.00284158
-0.00266267
-0.0169617
-0.00247337
-0.0183713
0.000599925
0.00121922
0.0130758
0.00134611
0.000477625
0.00921499
0.000999831
-0.000248154
0.00978198
0.00138631
-0.000783783
0.00943039
-0.003033
0.000510573
0.0117119
-0.00416336
0.00184546
0.00538783
0.00289291
-0.000949733
0.00102577
-0.0037564
0.0152668
0.00203769
-0.00244964
0.0122071
0.00169599
-0.00270376
0.0123201
-0.00044773
-0.000374095
0.0113382
-0.000280949
-0.000789019
0.0104386
0.000349268
-0.000416222
0.0118027
0.00106957
0.0138591
0.00626062
0.00213771
-0.0115989
0.00764052
0.00235138
-0.00204221
0.00244084
0.0010502
0.00980782
-0.000225997
0.00028305
0.0102453
-0.00145699
-0.000969085
0.00839858
-0.000658375
-0.0022541
0.00827386
-0.00202728
0.0147781
0.00211003
0.00120134
-0.0204095
0.00510622
0.0023045
-0.0183712
0.00764886
0.00168297
-0.0109673
0.00508885
-0.000192669
-0.000292536
0.00236505
-0.00124806
0.000553202
0.000120181
-0.00107135
0.000564431
-0.00100619
0.00446245
0.000710654
-0.0106225
0.00287838
-0.0108776
0.00380498
-0.00863951
0.00161542
-0.00322476
-0.000729107
-0.000437903
-0.00123421
0.00076065
0.00159582
0.000784442
-0.00103928
0.00308381
-0.00256373
0.000840677
-0.000711675
0.00253484
-0.00159372
0.000823467
-0.000358199
0.00120848
-0.000561764
-0.000311875
0.000109356
-0.00161294
0.00284567
-0.000810131
0.00106892
-0.00886741
0.00862919
-6.62405e-05
0.00331263
-0.0130139
0.00931444
0.00365157
-0.0126543
0.00921739
-0.00213673
0.00070764
0.00431795
-0.00396921
-0.00402388
0.000180924
0.00294102
-0.0019248
-0.00585503
-0.000160471
0.0018036
-9.00144e-05
-0.00742824
-0.00076686
-0.0023797
0.00486719
-0.00503364
-0.00218814
-0.0102512
0.0110593
-0.00247949
-0.000233431
-0.0171238
0.0180035
0.00255082
-0.0198621
0.0185151
0.000208862
0.000778769
0.0118126
-0.0124574
-0.000673154
-2.54168e-05
0.00980196
-0.009043
-0.00220216
0.00021671
0.00994494
-0.00910544
-0.00502754
0.000642716
0.0105321
-0.00938569
-0.0069797
0.000652724
0.00846482
-0.00957229
-0.00292767
0.00111244
-0.00236763
-0.00319799
0.00125604
-0.0082451
0.00641955
0.00144954
5.84586e-05
0.0128911
-0.0138629
-0.000364603
0.00197738
0.0133973
-0.0137695
-0.000880424
-2.3129e-05
0.0133267
-0.0127754
-0.000658731
-0.000436742
0.012786
-0.0120934
-0.000853018
-0.000300475
0.0130847
-0.0121008
-0.000590484
-0.000250072
0.0136262
-0.012757
0.000239717
0.0138276
-0.0137373
0.00143771
-0.00288447
-0.0116706
0.0129534
0.00223407
-0.00112326
-0.00363953
0.0056562
0.00509627
-3.30323e-05
0.00503102
-0.00815788
0.00319404
0.000667353
0.0102715
-0.00971232
0.00103385
-5.09737e-05
0.010075
-0.00843297
-0.000263389
-0.000545707
0.0102774
-0.00886979
-0.000181901
0.0139951
-0.0139954
0.00174449
-0.0033715
-0.0212713
0.0201238
0.00203118
-0.00339726
-0.0175688
0.0196343
0.00282748
-0.00216094
-0.0100403
0.0114941
0.00349646
-0.000550975
0.000281479
0.000451583
0.00249434
-0.000315213
0.00246729
-0.00113576
0.00082766
9.49696e-05
0.00257803
-0.00157032
0.000650982
0.0046837
-0.00480089
2.99205e-05
-0.0119439
0.00883415
0.000292602
-0.0139064
0.0105211
0.000452884
-0.0102057
0.00808723
0.000369686
-0.00233751
0.00215394
-0.000322311
0.0014685
-0.000792808
-0.000600607
0.00241323
-0.00178513
0.00288272
-0.00257813
0.00076426
-0.000503888
0.00307214
0.00146251
-0.000333094
0.00242556
0.0019844
-0.000531381
0.00147976
0.00313902
-0.000733993
-0.00176726
0.00353396
0.00023622
-0.00921023
0.00187732
0.00141141
-0.0124932
0.00174655
-0.0122507
-0.00131779
0.000790628
0.0043306
-0.00243473
3.19172e-05
0.00369653
-0.00323215
-0.000770012
0.00285167
-0.00358476
-0.00211922
-0.000637179
-0.00192656
-0.00168972
-0.0099638
-0.000925484
0.000740454
-0.0174224
0.00175814
-0.0207183
0.000108473
0.000993038
0.0110659
-0.00100526
0.000226936
0.0102793
-0.00351064
0.000435861
0.0108707
-0.0064553
0.000812414
0.0102707
-0.00490395
0.000992847
0.00403223
-0.00267304
-0.000144658
-0.00385817
0.000273164
-0.00963249
0.00111126
0.000555092
0.0117837
-0.000680869
0.0020935
0.012937
-0.00109783
0.000192933
0.0136979
-0.000928862
-0.000647572
0.0138439
-0.000205675
-0.00082038
0.0138696
-0.000251219
-0.000781899
0.0139351
-6.98709e-05
0.0135479
0.000824346
-0.00162954
-0.0105422
0.00254271
-0.00112302
-0.00243663
0.00393134
0.00149768
0.00201515
0.00331122
0.000432661
0.00946153
0.00100865
8.63935e-05
0.0110995
-0.000252804
-0.000400049
0.0108672
-0.000264439
0.0136301
-0.000244559
-0.0015483
-0.021059
0.000362194
-0.00183138
-0.0174497
0.00174422
-0.000187176
-0.00968138
0.00356361
-0.000348762
-0.000683431
0.00287962
0.000101871
0.00313739
0.00122283
-2.18118e-05
0.00382577
0.000346518
0.00528163
-0.00170908
-0.0115105
-0.0039116
-0.0132708
-0.00300042
-0.0110706
-0.00118339
-0.00426122
-0.00074394
0.00139596
-0.000506207
0.00239958
0.00295083
0.000409948
0.000170254
0.0027515
0.00120334
-0.000400759
0.00228923
0.00247775
-0.000103144
0.000582698
0.00523818
0.000733073
-0.00496624
0.00535134
0.00141628
-0.0104331
0.00342154
0.00196388
-0.0121762
0.002744
-0.0112652
-0.0010283
0.00120196
0.00427356
-0.00220494
0.000162455
0.00429374
-0.00225056
-0.000802037
0.00359526
0.00122097
-0.00206402
-0.00132431
0.00261641
-0.00102257
-0.00888595
0.0013362
0.00104629
-0.0151418
0.00213132
-0.0186899
-0.000224155
0.00143974
0.0107487
-0.00194689
0.0010141
0.010688
-0.00443374
0.000864487
0.0113237
-0.00571815
0.000871992
0.0083101
-0.00439876
0.000401033
0.00103281
-0.00275542
-0.00190141
-0.00281833
-0.000483427
-0.0100018
0.000880459
0.000360063
0.0116115
-3.14123e-05
0.00149951
0.0129444
-0.00096813
0.000915111
0.0142814
-0.000392781
-0.000747792
0.0146102
0.000375388
-0.00110847
0.0143051
-0.000759272
-0.00133563
0.0140857
-0.00155227
0.0135225
0.00194616
-0.0021841
-0.0102048
0.00431224
-0.000370099
-0.00318233
0.00366703
0.00132557
0.00195866
0.00387285
0.000383467
0.0077756
0.00194598
0.000292888
0.0112162
0.000597216
-0.000595237
0.0110069
-0.000759309
0.0129512
-0.00108862
-0.0027388
-0.0194157
-0.00112315
-0.00218901
-0.0156109
0.000305567
-0.00108819
-0.00868915
0.00311579
-0.000551687
-0.00254066
0.0024279
0.000113418
0.00399284
0.00111679
-7.10182e-05
0.00455875
0.000320528
0.00523016
-0.00302336
-0.0109605
-0.00527261
-0.0129591
-0.0052839
-0.0118769
-0.00238767
-0.00747182
-0.000731613
0.000104115
-0.000604304
0.00244736
0.00288905
0.00038007
-0.000359963
0.00303014
0.000937752
-0.000674094
0.00266561
0.00450374
0.000600988
-0.00331395
0.00845331
0.000770836
-0.00936922
0.00764846
0.00204797
-0.0113539
0.00484063
0.00232832
-0.0113816
0.00325156
-0.00928444
-0.00163599
0.000994495
0.00450991
-0.00186856
-0.000262684
0.00409456
0.000348516
-0.00112336
0.00309078
0.00494613
-0.00125259
-0.00387985
0.00556161
-0.000129471
-0.00726807
0.00350276
0.0014662
-0.0121327
0.00390797
-0.0157051
-0.00156148
0.0021082
0.0105254
-0.00410436
0.00163462
0.0108928
-0.00568461
0.000958719
0.0104506
-0.00498001
0.000838087
0.00516212
-0.00438612
-0.000970818
0.000974819
-0.00240915
-0.00237971
-0.00127084
-0.000702555
-0.00811465
0.00115559
0.000182293
0.0119964
0.000205643
0.00149812
0.0136411
-0.000786074
0.00106186
0.0148224
0.000384945
-0.000809371
0.0147671
0.000198898
-0.00112108
0.0143169
-0.00101864
-0.00179804
0.0143475
-0.00235784
0.0137736
0.00326095
-0.0038336
-0.0097692
0.00539851
-0.00145382
-0.00266718
0.00516069
-8.69521e-05
0.00302381
0.00540109
0.000777052
0.00558222
0.00391906
0.00161471
0.00952588
0.00155158
0.000428982
0.0106272
-0.000317599
0.0117914
-0.00267356
-0.00301958
-0.01759
-0.00382943
-0.00172135
-0.0142396
-0.00414204
-0.00125273
-0.00721541
-0.00109002
-0.00123778
-0.00359926
0.00132237
-0.000269992
0.00340987
0.00104209
0.000692692
0.00448583
0.000618542
0.0051988
-0.00466921
-0.0090646
-0.00704668
-0.0120683
-0.00760642
-0.0122905
-0.00520713
-0.0108875
-0.00140335
-0.00375128
-0.000593167
0.00255136
0.00312741
-0.000664469
-0.000736318
0.00474363
0.00254494
-0.000521697
0.000245776
0.00905533
0.000355638
-0.00985123
0.0109517
0.000831176
-0.011806
0.0110074
-0.000148527
-0.0109258
0.00748006
0.00102513
-0.00854472
0.00310039
-0.00451515
-0.002891
0.000269905
0.00639407
-0.00168929
-0.000195499
0.00256212
0.00400076
-0.000519028
-0.00171282
0.00994225
-0.000392401
-0.00852581
0.0101674
0.00120451
-0.00877637
0.00716106
0.00270092
-0.0107524
0.00587469
-0.0111943
-0.00335744
0.00322757
0.0105043
-0.00516402
0.00207488
0.0100038
-0.00433405
0.00114809
0.00761811
-0.00350558
-0.000126544
0.00375441
-0.00307325
-0.00157902
0.00303286
-0.00202123
-0.00240831
0.00247175
-0.000931057
-0.00369505
0.00223151
-5.78557e-05
0.0127026
0.000679791
0.00243643
0.0144727
2.98808e-05
0.00143947
0.0148108
1.97082e-05
0.000103592
0.0141921
-0.00028456
-0.00140457
0.014108
-0.00137775
-0.00214114
0.0148253
-0.00289551
0.0139348
0.00262374
-0.00692413
-0.0058959
0.004305
-0.00348059
0.00120715
0.00561122
-0.00101277
0.00382692
0.0057171