/*--------------------------------*- C++ -*----------------------------------*\
  =========                 |
  \\      /  F ield         | OpenFOAM: The Open Source CFD Toolbox
   \\    /   O peration     | Website:  https://openfoam.org
    \\  /    A nd           | Version:  6
     \\/     M anipulation  |
\*---------------------------------------------------------------------------*/
FoamFile
{
    version     2.0;
    format      ascii;
    class       volScalarField;
    location    "0.0125";
    object      T;
}
// * * * * * * * * * * * * * * * * * * * * * * * * * * * * * * * * * * * * * //

dimensions      [0 0 0 1 0 0 0];

internalField   nonuniform List<scalar> 
3773
(
289.976
289.838
289.94
289.86
289.786
289.886
290
290.939
290.766
291.15
290.814
290.566
290.955
291.019
306.865
308.534
308.639
308.587
308.554
308.527
306.836
311.783
312.037
312.103
312.06
312.036
312.109
311.796
306.883
307.064
308.623
308.582
308.581
308.559
306.892
291.142
291.377
291.187
290.758
290.758
291.2
291.177
290.045
290.053
289.976
289.861
289.848
289.962
290.056
285.395
284.783
284.939
284.8
284.573
284.876
285.601
271.357
276.199
276.928
276.033
275.391
276.073
272.025
313.218
311.613
311.615
311.971
311.873
311.41
313.318
325.468
325.661
325.722
325.9
325.828
325.652
325.919
313.501
313.625
312.027
312.007
312.041
311.928
313.598
272.075
272.62
276.322
275.131
275.812
276.597
272.177
285.821
285.464
285.357
284.946
284.926
285.229
285.895
268.934
265.443
264.714
265.007
265.125
266.302
269.726
261.057
266.818
268.428
265.598
263.872
264.603
261.213
313.589
311.847
311.632
313.617
313.459
311.224
313.222
326.989
326.215
326.325
327.302
327.332
326.083
326.848
313.498
312.386
311.937
313.24
313.463
312.195
313.287
261.702
264.008
265.38
262.929
264.722
265.468
261.635
271.053
268.008
267.371
267.546
266.194
267.168
271.217
239.608
237.318
236.118
236.217
236.557
237.635
240.024
255.963
263.324
265.112
262.09
259.475
260.072
255.905
313.581
312.28
311.515
312.748
314.261
311.118
313.215
327.066
326.486
326.696
327.301
327.22
326.438
326.905
313.555
310.873
313.421
315.098
314.087
311.28
313.226
256.5
259.875
261.062
258.722
260.473
261.143
256.377
241.266
238.466
238.109
237.177
237.131
238.467
241.387
222.886
223.342
223.632
222.667
221.797
222.001
222.959
254.072
260.955
262.101
260.619
258.225
258.609
253.889
313.827
312.084
311.463
312.285
311.909
310.048
313.535
327.156
326.5
326.708
326.864
326.639
326.031
327.09
313.702
310.553
312.687
313.44
313.091
310.9
313.604
254.467
258.83
259.431
257.958
259.241
259.627
254.334
223.48
222.568
223.016
221.165
222.442
222.715
223.538
218.455
219.462
219.671
219.447
218.499
218.085
218.387
256.268
261.857
262.214
262.965
261.844
261.608
255.711
314.778
311.579
311.546
310.973
310.632
310.434
314.207
327.51
326.697
326.375
326.604
326.127
326.682
327.439
314.507
311.771
311.195
311.427
311.25
311.636
314.367
256.383
261.557
261.801
262.136
263.7
261.803
256.106
218.59
218.223
218.993
217.285
219.41
218.632
218.568
213.382
212.683
213.213
214.434
213.971
213.667
213.436
256.036
257.984
255.314
257.209
257.385
257.688
255.937
311.54
311.903
309.949
310.871
309.699
311.234
310.086
333.497
334.988
334.607
334.621
335.332
333.383
335.472
311.614
317.123
311.417
310.072
318.676
311.749
310.262
256.388
246.129
257.309
256.756
248.998
257.722
256.153
213.631
212.862
213.971
213.022
213.188
213.921
213.543
327.652
333.441
336.543
337.296
338.502
338.918
338.51
325.813
326.176
328.567
328.784
330.515
331.258
331.522
320.517
321.089
324.716
325.413
325.584
326.063
325.5
320.389
324.16
325.769
327.176
325.968
324.001
318.863
327.651
327.656
327.6
327.962
327.828
326.174
327.016
327.741
327.419
327.758
327.674
327.659
328.309
330.353
330.626
334.392
336.603
336.499
334.679
331.923
330.239
330.428
334.917
337.225
338.415
340.464
341.614
341.797
324.892
324.258
323.327
324.408
330.436
333.178
334.291
320.053
320.256
322.844
323.621
324.233
326.043
325.84
319.345
322.996
326.094
332.892
325.818
322.63
318.096
327.922
327.251
326.087
325.789
325.693
325.09
326.373
332.64
331.161
327.681
323.438
323.258
325.986
328.658
343.98
343.523
342.733
341.901
339.317
336.466
331.062
329.347
332.524
336.056
338.338
340.188
341.808
341.702
322.436
320.831
318.233
320.574
325.71
329.854
333.574
318.132
317.507
318.85
320.604
321.812
324.304
323.873
317.856
321.473
325.914
334.964
325.657
321.623
316.794
328.359
326.682
323.967
323.391
322.23
322.182
324.269
339.022
334.329
330.879
326.471
323.963
324.221
326.143
346.061
344.074
343.037
342.055
338.849
336.668
331.268
327.898
330.593
335.999
339.308
340.267
342.564
342.226
322.164
325.595
324.105
323.839
325.152
327.671
333.304
314.598
314.887
317.397
320.295
321.079
319.913
319.539
314.156
320.343
326.991
337.91
326.227
319.495
314.014
323.94
321.811
323.162
322.343
320.791
319.976
320.42
341.023
333.379
330.628
330.271
330.564
330.087
326.508
345.848
343.349
342.691
341.099
336.652
334.389
330.519
325.412
329.597
336.15
339.462
340.037
343.223
343.887
320.446
329.469
328.827
327.64
326.474
327.73
333.741
310.075
311.798
318.077
320.742
320.269
312.48
310.719
311.234
317.969
330.222
340.773
327.914
317.526
311.666
318.292
318.346
321.238
321.452
320.5
317.107
317.982
341.793
331.744
327.877
328.794
331.242
332.289
325.797
346.091
343.275
342.184
340.015
334.343
331.471
328.478
324.259
329.347
336.7
339.138
339.381
344.333
346.91
315.868
331.385
331.098
329.049
329.612
333.487
339.941
304.445
309.059
318.09
321.834
320.519
307.824
306.358
310.464
315.621
330.454
340.984
331.811
316.843
310.636
312.419
310.278
315.824
321.34
320.332
313.621
310.52
345.818
339.386
328.619
328.06
331.045
333.002
320.433
347.314
344.871
341.451
339.389
331.879
329.035
327.156
324.495
330.46
336.739
337.062
338.141
344.583
348.458
317.531
330.826
331.949
334.25
338.511
340.806
346.116
303.028
309.144
318.144
324.429
317.406
303.08
302.794
314.966
316.38
328.665
340.32
331.776
316.637
310.14
338.681
325.345
314.525
319.249
318.669
312.08
306.794
349.606
347.413
338.475
328.22
329.191
332.532
317.369
347.768
345.42
340.583
338.618
331.367
328.384
327.166
326.328
329.67
331.879
332.838
334.44
340.418
351.117
329.293
332.54
335.192
337.926
340.97
346.994
351.805
302.795
309.292
318.911
321.953
317.226
333.018
346.845
315.503
317.111
327.172
337.943
330.118
318.337
315.623
348.501
340.706
320.677
318.388
318.445
309.7
302.999
351.963
349.028
343.313
333.235
330.081
330.921
323.83
350.565
345.108
338.476
335.522
330.045
328.701
323.545
327.278
328.503
330.743
331.739
333.231
339.198
348.19
331.43
332.847
333.635
336.072
341.208
346.02
350.861
307.549
312.131
321.508
322.973
326.829
345.602
349.276
321.433
320.828
331.019
337.943
331.632
321.894
324.502
347.966
339.59
332.137
321.798
319.744
310.228
302.685
351.654
348.692
342.991
333.681
330.586
331.74
329.509
348.934
342.507
337
334.696
329.792
328.933
325.778
327.2
328.602
330.728
332.561
336.207
342.395
348.326
331.796
333.185
332.96
336.04
341.199
345.052
350.597
310.317
316.666
323.405
327.49
337.979
344.547
349.44
324.142
326.121
334.472
338.617
333.963
327.374
326.804
349.422
343.886
339.612
327.985
322.642
313.765
304.837
351.948
348.419
343.582
338.064
333.033
333.202
330.535
349.401
343.308
337.968
334.497
329.544
328.347
326.463
325.478
329.066
331.443
336.196
340.604
345.534
350.488
331.193
332.901
332.442
339.223
341.481
345.425
350.769
316.78
323.034
328.118
336.456
343.331
344.943
349.529
326.058
330.569
337.271
340.359
336.445
331.582
328.116
351.104
346.102
343.03
335.912
329.944
321.022
311.032
352.119
348.345
343.303
339.685
333.128
332.992
330.039
351.092
344.64
340.703
335.805
332.312
328.565
325.824
324.795
330.668
335.944
340.802
345.946
349.108
352.135
329.906
334.067
335.402
341.473
343.159
346.463
351.501
322.802
326.64
333.161
340.107
344.923
345.083
349.39
327.297
331.578
339.801
341.762
338.935
333.216
328.472
351.89
346.082
344.271
342.632
335.161
327.501
317.684
352.076
347.497
343.997
341.447
336.751
333.319
329.237
351.957
347.422
342.759
337.349
332.6
330.626
325.401
324.346
335.899
341.337
346.484
350.202
351.252
352.978
330.496
339.028
342.002
346.215
347.659
350.358
352.679
325.441
331.851
337.412
343.694
344.548
343.797
348.489
327.832
332.71
341.292
344.083
340.653
334.502
328.162
350.839
343.495
343.638
343.482
339.865
333.256
323.262
352.329
348.316
345.843
345.009
342.321
336.039
329.291
353.562
351.171
347.935
343.978
337.105
334.179
325.113
336.969
339.171
347.79
349.166
351.828
351.569
348.908
343.174
345.98
348.709
350.299
350.945
351.895
352.752
341.797
345.956
347.555
349.201
348.804
346.623
346.979
331.683
335.572
344.595
347.569
344.806
338.379
332.425
349.181
350.005
349.956
350.517
350.325
348.545
341.642
354.524
351.66
349.856
348.529
347.078
345.205
342.264
351.786
351.821
349.434
347.274
345.577
339.755
337.675
324.016
331.16
335.749
336.08
336.212
343.714
351.14
317.963
329.747
332.467
337.774
338.981
344.64
351.139
302.514
309.552
318.376
323.738
317.059
306.696
338.583
314.845
317.016
326.137
338.479
330.565
316.24
310.624
347.828
343.431
314.918
318.925
318.399
312.243
306.58
351.363
348.753
341.326
327.833
326.047
329.22
316.391
349.876
345.911
340.163
336.637
331.205
328.375
325.887
323.171
331.737
336.367
335.982
335.93
343.303
351.189
318.44
328.411
335.443
338.369
339.674
345.213
351.415
302.491
309.439
318.25
323.762
316.604
308.027
343.238
315.02
316.985
326.119
338.639
330.631
316.35
310.762
348.077
343.433
315.276
318.822
318.385
311.957
306.404
351.447
348.739
341.578
331.289
327.485
326.567
315.839
349.893
345.771
340.016
336.73
331.484
328.201
324.03
322.843
331.934
336.325
335.805
335.627
343.14
351.209
318.81
329.87
335.959
338.51
339.876
345.68
351.625
302.438
309.347
318.288
323.778
316.298
310.389
344.582
315.02
316.898
326.027
338.569
330.551
316.371
311.059
348.018
342.296
316.119
318.621
318.357
311.732
306.279
351.563
348.823
341.766
331.716
329.489
328.892
315.446
349.992
345.691
339.981
336.453
331.359
328.135
323.13
322.965
331.723
336.146
335.629
335.541
342.997
351.497
320.505
331.06
335.997
337.684
339.957
346.072
351.795
302.297
309.2
318.431
323.806
315.584
312.344
345.324
314.999
316.88
325.954
338.208
330.472
316.403
311.277
347.97
341.252
316.399
318.504
318.361
311.632
306.021
351.702
348.85
342.006
331.535
329.754
329.766
315.151
350.193
345.664
339.779
335.786
330.968
328.017
322.01
323.409
331.739
336.027
335.214
335.438
343.029
351.634
321.652
331.618
335.603
337.418
339.981
346.387
351.931
302.216
309.155
318.508
323.779
315.214
315.283
345.836
314.913
316.823
325.973
337.938
330.285
316.453
311.645
347.969
340.744
316.787
318.426
318.371
311.38
305.886
351.832
348.912
342.357
331.196
329.558
329.591
314.99
350.658
345.771
339.632
335.476
330.901
327.817
321.729
323.666
331.849
335.888
334.682
335.016
342.892
351.673
322.479
331.273
334.592
337.375
339.994
346.661
351.951
302.063
309.038
318.51
323.75
314.891
316.904
346.223
314.885
316.739
326.016
337.949
330.17
316.553
312.206
347.977
340.484
317.068
318.244
318.344
311.286
305.566
351.941
348.987
342.709
330.691
328.912
329.031
315.017
350.795
345.798
339.38
335.13
331.09
327.854
321.138
323.804
331.637
335.418
334.442
334.843
342.486
351.463
322.733
329.048
335.086
337.737
340.428
346.877
351.952
301.986
308.995
318.498
323.778
314.857
319.502
346.532
314.894
316.694
326.024
338.167
330.117
316.637
312.5
348.27
340.689
317.749
318.263
318.413
311.006
305.414
352.011
349.036
343.014
332.483
328.003
326.533
315.009
350.709
345.582
339.157
335.096
331.227
327.679
320.339
328.212
344.767
341.303
337.812
332.603
325.178
316.959
344.687
355.518
358.146
356.777
351.459
350.06
346.323
355.868
354.105
353.268
352.963
352.498
350.822
347.074
332.079
338.357
345.736
348.442
345.838
339.61
332.892
348.977
351.881
353.875
354.171
355.605
355.942
356.801
348.555
351.055
355.1
358.585
353.386
350.993
344.304
319.582
333.778
336.224
343.47
355.088
350.489
332.817
352.72
344.019
337.34
334.534
328.004
325.286
324.215
355.364
357.307
353.909
351.533
350.068
346.607
342.845
356.576
349.133
351.737
352.519
352.608
351.833
347.768
332.598
339.328
346.097
348.918
346.453
340.011
333.791
349.419
352.789
353.396
353.255
353.469
354.02
357.333
345.461
347.838
351.142
356.257
355.173
358.555
353.485
325.405
326.584
329.68
338.08
343.79
346.599
359.901
351.98
340.966
338.284
335.796
331.794
331.141
337.096
357.288
353.878
352.725
351.394
348.907
347.765
346.253
351.678
349.555
352.034
352.672
352.589
352.113
348.645
333.813
339.875
346.63
349.436
346.863
340.698
334.622
350.401
352.708
353.061
353.159
353.249
351.516
354.322
348.317
349.276
351.917
353.383
353.49
354.514
359.124
333.681
332.709
333.838
339.113
342.058
346.367
350.319
347.043
343.611
343.16
339.884
338.662
339.725
347.269
354.821
353.474
352.685
351.917
350.78
350.824
352.089
350.702
350.498
352.023
352.928
352.546
351.513
350.229
335.012
340.865
347.358
350.18
347.634
341.289
336.54
351.099
351.268
352.964
353.27
353.253
351.771
353.191
353.832
352.501
353.272
353.756
353.938
355.102
357.911
348.442
341.438
341.502
342.926
344.166
346.792
347.947
347.66
345.383
344.541
343.358
343.944
347.931
349.173
354.057
353.074
352.592
352.17
352.138
353.535
353.657
349.956
350.769
352.465
353.315
352.807
350.299
350.143
336.47
341.894
348.001
350.976
348.415
341.91
337.484
351.179
351.428
353.825
354.2
353.307
352.231
352.056
355.229
355.215
354.547
354.076
354.34
356.479
358.76
351.949
351.523
346.113
344.223
344.687
347.751
350.149
348.656
346.946
346.328
345.872
346.256
348.506
348.824
353.765
353.155
352.993
352.977
353.894
353.769
353.599
349.51
351.226
352.524
353.28
352.907
351.302
349.27
337.475
344.33
349.316
352.138
349.711
343.322
339.237
350.005
352.519
354.145
354.576
354.004
352.54
351.978
354.845
355.806
355.881
355.74
356.178
357.38
358.127
351.942
352.561
349.671
347.622
348.116
350.589
353.033
354.911
351.516
350.164
349.372
348.54
347.201
347.043
357.301
356.229
355.08
354.769
354.316
353.657
352.875
350.172
351.889
352.534
353.369
352.728
352.095
349.212
340.814
348.534
351.133
353.411
351.486
348.506
340.945
349.606
352.726
353.577
354.381
354.283
354.253
351.465
353.18
355.422
357.011
357.815
357.881
358.558
358.757
347.634
350.249
352.007
355.583
356.677
357.589
357.675
316.877
315.419
315.092
316.153
319.733
332.331
338.252
341.988
341.427
341.069
340.565
340.771
344.886
347.743
347.164
353.479
358.16
358.18
357.943
358.418
359.165
335.849
350.566
354.671
355.749
355.487
355.271
354.651
357.196
357.489
357.497
358.011
358.368
358.426
358.425
345.643
345.965
345.365
345.302
346.846
348.554
350.371
330.723
331.193
329.615
329.918
332.499
338.421
344.693
325.697
324.007
324.517
324.381
328.132
332.914
340.097
341.674
340.545
340.317
340.416
341.029
343.232
345.916
347.601
349.543
355.805
356.586
356.383
356.68
357.219
336.383
343.728
348.233
350.058
351.129
352.373
352.397
358.336
358.194
357.791
357.499
357.289
357.179
357.486
351.49
350.623
349.438
349.636
350.32
351.44
352.826
348.39
350.104
348.626
348.818
346.174
345.193
347.198
339.006
339.267
339.21
338.568
336.186
338.439
339.287
346.382
345.671
345.784
345.108
344.942
345.331
346.931
347.552
347.785
349.557
354.715
355.656
355.649
356.219
336.084
338.898
344.218
347.613
349.527
349.994
350.94
357.883
360.838
359.577
358.576
358.474
358.131
358.182
362.995
360.741
359.582
360.472
361.104
360.089
359.054
357.164
358.266
358.287
358.614
359.879
360.456
351.793
348.253
349.029
349.296
349.39
348.484
344.235
341.605
351.854
351.605
351.617
351.342
350.963
351.039
351.661
348.349
347.997
348.093
348.75
350.567
354.199
355.794
337.223
338.021
338.892
340.851
341.66
343.516
344.355
355.483
356.526
358.23
358.787
359.267
359.571
360.725
359.549
361.025
361.272
361.767
362.654
363.246
363.673
350.117
351.742
352.787
355.156
358.262
359.79
359.73
349.346
349.224
349.503
349.967
350.228
350.889
343.765
352.977
352.9
352.682
352.819
353.452
354.068
354.178
349.748
349.074
348.633
348.258
348.296
348.638
350.465
338.517
338.675
338.758
339.03
339.266
339.464
340.111
352.582
352.794
353.559
354.267
355.2
356.001
357.195
359.143
359.548
359.642
359.975
360.765
361.389
362.748
352.475
353.894
354.747
356.034
358.494
361.955
361.569
348.697
348.881
349.454
349.822
350.084
350.946
349.331
353.491
353.131
352.655
352.485
352.443
352.28
351.837
349.543
349.254
349.026
348.49
348.278
347.574
347.804
339.26
338.926
338.76
338.265
338.002
336.975
336.436
350.62
350.447
350.846
350.823
350.888
350.772
351.648
358.495
358.71
358.518
358.564
358.886
359.593
359.891
354.764
355.229
355.704
356.876
359.711
362.026
361.29
347.408
347.951
348.242
348.666
349.46
350.767
350.198
352.646
352.202
351.86
351.453
351.01
350.784
350.167
349.307
349.026
348.759
348.19
347.677
346.925
344.318
340.87
340.255
339.885
338.919
338.243
336.751
333.718
351.192
351.838
352.374
353.373
353.516
352.998
351.419
359.556
360.771
362.56
362.536
362.164
361.796
359.78
359.458
360.665
360.913
360.919
361.19
361.632
360.765
348.25
341.076
333.26
330.757
328.475
328.926
327.75
353.38
351.249
348.188
346.571
345.124
344.964
344.49
359.056
358.663
358.269
357.794
356.784
355.681
355.496
358.329
359.065
359.652
359.827
359.713
359.236
339.28
358.045
358.423
358.853
359.508
360.094
357.573
348.878
346.386
341.374
338.75
338.981
340.836
342.806
344.546
340.93
330.09
322.663
315.485
312.803
312.608
314.708
347.336
345.407
344.142
345.797
345.464
346.489
345.629
355.905
354.635
354.24
354.588
355.597
356.399
356.617
359.401
359.401
359.981
360.155
360.051
359.619
359.143
357.419
357.882
358.506
358.527
357.043
350.706
337.77
357.325
357.68
358.355
359.103
359.23
353.111
349.125
347.375
342.689
341.197
341.251
343.014
343.899
345.192
341.112
332.016
328.06
324.483
325.178
324.718
325.994
350.434
359.486
362.679
361.254
361.209
361.481
360.961
360.208
361.699
362.381
362.228
360.043
359.451
359.113
360.608
361.442
362.002
358.11
356.308
355.469
354.655
354.761
354.842
353.79
350.956
346.986
340.447
336.55
356.381
356.666
357.615
357.909
354.159
349.77
349.187
348.728
346.564
346.714
346.966
347.64
347.491
348.51
339.754
338.41
339.073
340.011
339.669
338.655
336.34
357.894
361.743
360.06
355.651
353.909
351.352
349.271
362.497
361.615
360.829
358.67
357.77
356.904
356.031
361.014
359.766
358.029
354.773
353.641
352.531
351.518
348.11
347.389
344.418
341.986
340.537
337.974
336.782
356.483
356.927
356.353
352.994
350.351
349.661
350.173
353.687
353.297
353.941
354.39
354.319
354.325
354.392
337.717
345.801
349.972
351.149
351.586
351.55
350.375
359.332
361.278
357.917
354.608
353.052
351.273
349.315
361.298
359.399
358.134
357.136
356.697
355.881
355.093
357.436
355.097
353.95
352.395
351.661
350.681
350.242
340.598
339.766
339.39
339.242
338.47
337.977
337.083
354.244
352.139
351.187
350.51
350.274
350.58
351.056
355.522
355.02
355.6
355.794
355.792
355.614
355.669
344.533
350.836
351.387
351.668
351.836
351.922
352.548
359.805
360.332
356.279
354.715
352.437
351.182
350.533
359.601
359.002
357.659
356.794
355.822
355.323
354.639
352.232
351.794
351.479
349.915
349.233
347.589
346.992
337.092
337.252
337.821
337.955
338.027
337.915
337.92
350.394
349.739
349.818
349.936
350.203
350.292
350.344
354.513
353.977
354.341
354.443
354.515
354.647
354.772
350.187
351.507
351.635
351.552
351.465
351.603
352.129
359.07
360.966
359.444
358.859
358.05
357.655
356.861
359.797
360.864
359.899
359.304
358.692
358.504
358.26
351.772
354.591
355.717
355.779
353.731
352.675
350.737
334.554
337.081
338.261
338.702
339.402
339.673
340.542
344.909
347.422
348.068
348.746
349.123
349.371
349.59
351.131
351.796
351.937
352.258
352.465
353
353.117
351.48
350.473
349.405
349.076
348.765
348.374
347.937
361.277
360.804
360.791
359.53
358.967
356.126
352.218
362.266
360.544
361.149
360.682
359.92
357.98
356.757
362.536
361.448
361.533
361.41
360.853
360.071
359.686
359.62
359.359
358.641
357.885
357.583
357.599
358.05
359.181
359.025
358.5
357.861
357.489
357.437
357.74
359.693
359.326
357.863
357.114
355.322
353.15
350.275
367.619
366.768
365.568
364.502
362.442
356.038
350.735
363.721
360.789
361.828
358.864
357.987
353.351
348.686
363.291
358.702
358.981
358.645
358.325
357.53
357.08
362.589
360.537
360.157
360.111
359.859
359.613
359.601
358.919
357.979
356.697
355.88
355.624
355.736
356.191
356.626
356.712
356.7
356.401
356.337
356.473
357.167
353.271
353.547
355.679
355.099
354.472
352.283
350.673
367.892
366.14
365.703
362.89
361.779
355.264
349.225
358.218
359.021
361.736
353.486
352.283
348.123
346.608
360.379
357.511
358.459
356.596
357.382
358.576
360.055
361.775
359.958
359.635
359.643
359.663
359.796
360.347
358.715
357.537
356.053
354.926
354.472
354.378
354.484
355.143
355.306
355.703
355.704
355.798
355.966
356.56
348.154
348.208
351.695
352.124
353.641
352.72
351.392
362.82
361.145
359.308
353.383
353.163
347.962
340.135
357.647
358.337
358.274
349.487
349.86
344.108
343.696
352.525
355.605
358.349
355.183
358.551
362.089
361.749
358.371
358.157
358.123
358.155
359.151
360.734
362.212
358.417
356.883
354.581
352.568
351.348
350.018
349.392
352.265
351.93
352.664
353.658
354.36
355.213
356.034
343.611
343.166
347.925
351.027
356.048
356.183
355.657
352.87
353.38
349.999
336.155
335.352
335.119
334.825
358.208
356.814
355.03
345.692
345.767
339.597
342.718
348.514
357.857
360.207
351.262
359.322
363.661
362.259
356.781
357.507
357.626
357.777
360.328
360.787
360.139
357.347
353.737
349.352
347.218
344.652
343.365
342.74
351.243
350.602
351.73
353.082
354.968
355.946
356.024
338.078
339.413
345.479
350.819
356.605
357.77
357.243
343.7
344.083
336.332
325.294
322.707
326.089
328.331
355.188
350.011
352.609
343.18
344.085
338.139
342.392
343.553
359.517
360.218
348.562
362.579
363.708
360.799
352.944
355.84
356.254
355.88
359.089
357.017
353.231
354.587
350.848
347.599
344.135
340.86
338.529
337.406
349.263
347.979
348.642
350.709
352.312
351.646
350.324
333.57
336.752
343.963
349.475
357.061
355.11
354.669
335.349
337.564
332.921
325.215
321.986
324.207
328.587
347.61
345.244
349.217
338.691
341.548
335.645
340.14
339.877
360.282
358.991
345.489
364.389
363.069
357.884
351.273
352.991
352.787
352.791
352.49
349.191
349.217
352.678
345.267
339.016
335.953
332.46
331.084
330.926
348.166
345.222
346.83
348.566
348.732
345.188
344.702
330.773
332.441
337.263
342.256
354.887
351.839
351.001
332.107
335.192
329.354
326.585
321.823
319.667
326.438
338.95
322.774
342.535
335.606
335.799
332.964
331.193
335.245
350.934
340.404
331.499
334.32
346.174
344.952
339.334
344.605
343.497
343.404
341.668
344.008
340.445
333.354
333.495
336.091
334.683
332.687
332.386
328.419
337.555
338.404
337.506
337.347
338.928
341.193
333.172
328.322
327.619
330.888
331.903
336.031
332.687
335.779
320.883
329.787
328.222
326.336
322.105
316.394
318.493
304.327
304.115
304.858
302.907
309.325
304.223
311.832
322.568
329.459
329.919
316.489
318.614
334.327
340.089
334.363
332.765
329.613
332.786
333.362
333.235
333.611
327.621
328.217
326.989
327.257
329.052
329.546
327.564
334.215
330.34
331.694
332.145
333.397
332.743
331.25
318.749
318.975
319.795
320.524
320.362
320.096
322.713
296.332
293.659
294.378
303.65
303.204
304.967
304.922
296.241
296.104
296.195
296.37
295.705
296.512
294.738
315.654
316.216
314.167
311.658
314.15
315.527
315.12
330.886
329.711
324.822
328.076
329.471
330.063
330.203
317.688
318.527
317.52
318.88
321.931
324.18
323.345
325.225
326.213
323.926
324.216
325.924
329.852
327.77
308.693
307.254
310.599
310.13
310.943
310.685
313.427
288.799
287.186
288.382
287.652
287.508
284.176
284.655
285.71
285.714
285.527
286.456
285.705
286.077
286.237
306.959
307.443
306.884
306.494
306.701
307.121
306.671
328.799
326.214
322.39
324.564
326.466
327.566
328.139
314.448
314.697
314.017
315.431
317.932
319.757
319.575
320.466
319.634
318.168
318.457
319.142
321.728
319.753
305.795
304.274
306.09
306.797
307.605
305.898
307.263
280.26
279.191
279.352
280.334
279.73
279.43
279.896
280.545
280.415
280.445
280.486
280.548
280.554
280.662
304.228
304.715
304.613
304.477
304.041
304.111
304.152
323.833
321.481
320.212
320.081
319.099
321.062
322.988
308.687
309.092
308.48
309.541
311.195
312.963
312.855
317.792
317.874
315.641
315.993
316.284
318.141
316.513
303.692
301.676
303.272
304.419
303.602
303.463
304.003
278.417
277.907
277.981
278.44
277.952
277.929
278.505
280.483
280.436
280.429
280.449
280.425
280.416
280.445
303.492
303.779
303.733
303.625
303.29
303.263
303.406
322.874
321.641
321.629
320.424
317.916
319.733
321.719
306.101
306.793
306.335
307.104
308.384
310.133
310.076
317.4
318.201
315.386
315.775
316.122
317.851
316.111
303.337
302.506
303.15
303.591
303.28
303.193
303.53
279.722
279.2
278.961
279.912
279.018
279.057
279.996
291.976
291.995
291.995
291.957
291.945
291.915
291.965
305.391
305.479
305.469
305.484
305.414
305.396
305.498
315.649
316.653
317.338
314.058
309.488
311.054
311.91
289.564
290.995
291.014
291.465
292.425
293.849
293.813
310.095
310.995
307.984
308.66
308.994
310.024
308.486
305.486
305.417
305.519
305.572
305.551
305.512
305.561
291.915
291.92
292.142
291.905
291.908
291.903
291.89
345.157
353.606
357.5
359.463
363.28
361.352
364.005
351.945
355.626
357.233
359.452
361.463
360.723
365.364
359.543
359.848
360.086
360.681
361.122
361.425
363.763
353.869
353.437
353.542
354.085
355.117
356.554
357.593
358.664
358.276
358.107
358.09
358.313
358.559
358.233
352.99
353.676
354.766
355.839
356.27
357.281
356.587
350.507
354.228
357.713
359.444
361.26
363.485
364.858
344.456
350.051
353.804
355.304
357.783
356.136
363.66
348.66
350.639
351.958
352.858
354.12
356.353
361.157
357.355
357.273
357.771
357.942
358.955
360.6
362.315
352.261
351.866
351.847
352.244
353.413
354.685
356.939
357.649
357.21
357.022
356.788
356.665
356.501
355.745
354.604
355.235
355.918
356.5
355.881
355.74
352.849
349.811
354.225
357.813
358.792
360.516
364.263
364.373
339.072
342.767
348.769
349.672
353.199
351.732
357.815
348.554
349.127
349.703
348.892
349.685
349.258
352.799
356.297
355.928
355.925
356.611
356.782
358.385
359.07
350.928
350.914
351.006
351.469
352.902
354.194
356.502
358.473
358.066
357.548
357.135
356.384
355.316
354.438
359.526
359.577
359.15
359.495
355.683
353.677
347.702
348.02
349.097
354.708
355.468
354.908
361.098
357.213
336.896
337.733
341.888
342.599
348.909
347.71
353.114
352.101
351.744
350.073
348.501
348.296
347.02
347.395
355.872
355.155
354.38
354.285
354.974
355.127
355.806
346.011
346.837
347.1
347.865
349.743
352.983
355.61
360.924
358.579
357.128
356.231
354.939
352.668
351.858
362.875
363.916
361.919
361.092
355.988
351.48
344.613
348.026
346.205
350.677
351.683
348.259
354.303
351.6
330.565
330.2
337.071
336.345
343.669
340.973
349.952
354.203
354.842
352.44
344.623
345.723
342.524
342.347
354.712
355.55
354.568
353.383
352.731
352.897
354.308
341.668
342.379
344.107
345.849
347.006
349.354
354.443
357.734
359.313
358.572
357.143
354.087
351.35
350.634
362.294
364.259
362.976
361.543
353.711
347.681
341.47
346.568
339.529
346.425
347.205
342.841
345.534
343.173
329.418
325.396
331.969
329.851
339.599
337.945
342.957
353.524
354.464
356.641
342.613
343.286
340.792
336.429
347.813
350.036
351.67
350.542
350.889
351.334
351.126
336.684
337.61
340.745
342.569
345.831
348.379
351.948
352.011
353.61
356.09
355.256
353.137
349.89
349.641
360.449
362.088
363.271
362.421
352.812
344.075
337.634
346.5
337.562
343.1
342.84
339.202
342.424
340.544
329.482
325.412
329.999
327.393
336.87
332.244
338.116
350.941
352.81
356.762
340.222
339.877
335.305
330.187
342.62
343.043
347.013
347.207
346.4
346.985
348.885
329.736
329.823
331.408
334.941
338.306
341.988
349.879
347.985
347.185
348.57
351.077
350.319
346.871
346.934
357.572
361.686
361.118
361.656
350.363
341.359
336.478
345.009
335.54
336.709
338.18
335.233
341.071
339.936
328.904
325.038
323.827
325.425
331.695
328.19
331.668
336.461
333.003
330.411
331.415
329.284
330.787
322.814
327.787
333.832
336.071
336.093
335.897
337.359
334.687
326.677
330.637
331.63
333.763
335.624
332.208
330.349
342.689
345.665
345.505
343.641
340.494
338.242
340.7
354.219
358.004
353.954
349.857
340.146
333.555
327.518
336.709
331.027
331.607
332.531
331.946
336.456
328.024
301.396
301.565
296.443
295.608
292.343
292.032
294.33
318.36
316.154
317.669
319.719
318.991
316.668
314.928
327.419
330.816
330.435
329.446
327.607
328.836
328.447
326.583
328.61
328.493
327.983
326.671
326.828
325.103
336.353
337.631
333.635
331.979
332.274
332.515
333.742
341.278
332.112
334.023
331.798
323.404
320.34
321.757
312.533
304.151
311.932
305.069
304.663
306.47
305.909
282.697
283.721
285.564
285.076
285.188
285.052
284.486
312.892
312.045
311.705
311.654
309.832
309.515
309.798
322.028
323.722
322.236
320.955
325.389
326.142
325.062
322.601
323.644
321.676
319.142
316.88
316.834
315.063
331.082
332.443
328.508
329.191
329.764
331.008
331.402
316.398
316.48
318.181
317.53
315.67
316.051
317.653
297.273
297.54
297.506
297.61
298.668
298.371
299.921
278.226
277.96
277.96
278.033
277.86
277.827
277.945
304.537
306.836
304.838
306.118
303.585
303.297
303.811
317.416
318.425
316.818
316.98
318.087
318.313
317.598
318.158
318.36
317.133
315.412
312.078
312.711
311.037
327.798
327.744
325.448
324.227
322.117
326.814
324.212
306.977
307.197
307.91
307.887
307.642
307.037
307.251
287.912
288.313
287.872
287.914
288.282
286.847
285.103
276.968
276.729
276.76
277.036
276.866
276.881
277.002
302.097
302.402
302.305
304.85
302.001
301.872
302.067
316.001
316.714
315.126
314.892
316.568
316.824
315.914
312.447
312.651
311.971
310.482
307.4
307.761
304.838
323.921
322.926
321.583
319.796
318.024
319.001
319.476
304.073
304.148
304.349
304.313
304.293
303.775
303.901
281.243
280.732
280.742
281.088
280.56
280.529
280.925
277.984
277.779
277.914
278.878
278.019
277.939
277.976
302.713
302.896
302.807
304.021
302.673
302.601
302.6
316.156
316.79
315.244
314.625
316.962
317.204
316.305
310.492
310.521
309.881
308.233
305.426
305.428
302.59
324.293
323.101
321.8
319.781
318.524
317.863
318.871
303.217
303.229
303.339
303.379
303.318
303.008
303.105