/*--------------------------------*- C++ -*----------------------------------*\
  =========                 |
  \\      /  F ield         | OpenFOAM: The Open Source CFD Toolbox
   \\    /   O peration     | Website:  https://openfoam.org
    \\  /    A nd           | Version:  6
     \\/     M anipulation  |
\*---------------------------------------------------------------------------*/
FoamFile
{
    version     2.0;
    format      ascii;
    class       volVectorField;
    location    "0.0125";
    object      U;
}
// * * * * * * * * * * * * * * * * * * * * * * * * * * * * * * * * * * * * * //

dimensions      [0 1 -1 0 0 0 0];

internalField   nonuniform List<vector> 
3773
(
(37.5437 -0.0167645 0.499147)
(37.5227 -0.0229089 0.49528)
(37.5602 -0.012534 0.493985)
(37.5659 0.00831513 0.491652)
(37.5175 0.00704268 0.489687)
(37.5416 0.0133136 0.502197)
(37.5126 0.0209824 0.510851)
(9.96945 0.0341534 -0.0736952)
(9.91666 -0.0330004 -0.0642122)
(9.95961 -0.0261979 -0.0506442)
(9.93536 -0.000607826 -0.0529177)
(9.90581 0.00525651 -0.0539775)
(9.93702 0.019368 -0.0373965)
(9.96267 -0.0273759 -0.0415634)
(4.02274 0.0300614 0.0550673)
(4.01681 -0.00461317 0.0552901)
(4.01853 -0.0195482 0.0641949)
(4.01998 0.0072301 0.0654164)
(4.01894 0.0112983 0.0663201)
(4.01681 0.00182487 0.0733018)
(4.02025 -0.0166526 0.0657962)
(3.58175e-05 0.0043314 0.0536488)
(3.93773e-05 0.00836853 0.0548949)
(5.17851e-05 0.013571 0.0517398)
(6.5068e-05 -0.00427196 0.0503589)
(7.06511e-05 -0.0163221 0.0500348)
(0.000103251 -0.0171699 0.044733)
(7.91165e-05 -0.0135573 0.0479611)
(-4.02297 0.0263931 0.0578098)
(-4.01334 -0.00713754 0.0576987)
(-4.02011 -0.0198816 0.0624883)
(-4.02107 0.0044335 0.0654936)
(-4.01982 0.00673908 0.0632313)
(-4.01892 1.42514e-05 0.070379)
(-4.02052 -0.0151426 0.0615858)
(-9.96743 0.0327981 -0.0821561)
(-9.95133 -0.0319555 -0.0712779)
(-9.95135 -0.0166353 -0.0558617)
(-9.92196 0.0144327 -0.0595963)
(-9.91114 0.0242839 -0.0560017)
(-9.9504 0.0365089 -0.0373739)
(-9.96943 -0.0210144 -0.0425496)
(-37.4996 -0.00978421 0.499937)
(-37.3656 -0.0196905 0.495999)
(-37.5336 -0.0160577 0.49699)
(-37.5719 0.00424996 0.495945)
(-37.5061 0.00500493 0.491742)
(-37.5366 0.0152419 0.507986)
(-37.4931 0.0213685 0.518972)
(35.2926 -0.0241017 0.728474)
(34.9461 -0.0205937 0.712129)
(35.0068 -0.0118347 0.716903)
(34.9684 0.00344158 0.711487)
(34.9522 0.00221787 0.710538)
(34.996 0.0115261 0.708607)
(35.2667 0.0276646 0.722756)
(8.01809 0.0141509 -0.227828)
(8.12559 -0.0439676 -0.213595)
(8.15261 -0.0340168 -0.193517)
(8.12313 0.00478012 -0.205378)
(8.10114 0.0227954 -0.217934)
(8.124 0.0381008 -0.195828)
(8.03619 -0.00653049 -0.20225)
(3.43289 0.0397916 0.0048937)
(3.42123 -0.00688609 -0.000163203)
(3.43782 -0.0281663 0.0206354)
(3.43111 0.00978523 0.0216039)
(3.42595 0.0247656 0.0203355)
(3.43442 0.0137268 0.0365167)
(3.4321 -0.0214153 0.0205826)
(2.36001e-05 0.00774492 0.0217741)
(2.59709e-05 0.0123311 0.0209405)
(3.83513e-05 0.016088 0.0158125)
(6.18851e-05 -0.00609413 0.0149982)
(5.20328e-05 -0.0238575 0.016294)
(7.57935e-05 -0.0231109 0.00723016)
(7.17994e-05 -0.0166754 0.0132794)
(-3.43571 0.0345603 0.00360866)
(-3.42229 -0.0156399 0.0027994)
(-3.43207 -0.0292493 0.017437)
(-3.43153 0.00806687 0.0221999)
(-3.42418 0.0210957 0.0153353)
(-3.43246 0.0126657 0.0311991)
(-3.43444 -0.0192958 0.0150546)
(-8.0375 0.0203244 -0.238573)
(-8.01681 -0.0409634 -0.216445)
(-8.13264 -0.0289525 -0.21055)
(-8.0945 0.0140833 -0.220481)
(-8.11263 0.038062 -0.218217)
(-8.13872 0.0515763 -0.189859)
(-8.04016 -0.00411034 -0.200861)
(-35.268 -0.0143521 0.717274)
(-35.1558 -0.0175624 0.717649)
(-35.0355 -0.0147801 0.708107)
(-34.9579 0.00323316 0.693595)
(-34.9591 0.00290582 0.711448)
(-35.008 0.0146799 0.713135)
(-35.2808 0.0282736 0.726738)
(32.1484 -0.0564086 1.28091)
(31.3667 -0.00656815 1.27956)
(31.2452 0.00650954 1.26351)
(31.287 0.0134379 1.25304)
(31.3179 0.00528521 1.24128)
(31.4994 0.00290643 1.25283)
(32.2489 0.0548509 1.26508)
(7.72691 -0.00129785 -0.074342)
(7.85173 -0.0251241 -0.0882654)
(7.89519 -0.0238551 -0.0855876)
(7.81555 -0.000627322 -0.0867309)
(7.7648 0.0208842 -0.0874524)
(7.78768 0.0303486 -0.07768)
(7.73138 0.00717917 -0.0863619)
(3.40603 0.0353121 0.0443735)
(3.37467 -0.00890587 0.0239855)
(3.37318 -0.026524 0.0434806)
(3.39528 0.00876169 0.0377623)
(3.39324 0.0274496 0.0356245)
(3.36883 0.0171219 0.0434511)
(3.4023 -0.0231994 0.029244)
(2.11915e-05 0.00883375 0.0327728)
(2.79857e-05 0.0100147 0.0285987)
(2.83529e-05 0.012571 0.0238509)
(5.91735e-05 -0.00516414 0.0211896)
(4.65244e-05 -0.0247469 0.0238125)
(6.81796e-05 -0.0219844 0.0209393)
(8.30282e-05 -0.016312 0.0278418)
(-3.4052 0.0330792 0.0386493)
(-3.37962 -0.0166051 0.0281374)
(-3.37608 -0.0287899 0.0403256)
(-3.3911 0.00643099 0.0380284)
(-3.39259 0.0221954 0.0302982)
(-3.38006 0.0151302 0.0382779)
(-3.4031 -0.0207938 0.028892)
(-7.74445 0.00217269 -0.0806696)
(-7.77107 -0.0271655 -0.0799721)
(-7.80971 -0.0227913 -0.081411)
(-7.73619 0.0058799 -0.0757941)
(-7.7891 0.0345564 -0.0950742)
(-7.81273 0.0378261 -0.0763318)
(-7.74349 0.00418882 -0.0882948)
(-32.4447 -0.0418764 1.27925)
(-31.8505 -0.00314211 1.26137)
(-31.6654 -0.00539713 1.25687)
(-31.6539 -0.000592473 1.272)
(-31.4628 -0.00955991 1.24656)
(-31.622 -0.00385795 1.26558)
(-32.4814 0.0477175 1.28539)
(26.9461 -0.0841556 1.03905)
(26.4065 0.000402112 1.0554)
(26.2194 0.0141165 1.03536)
(26.2417 0.0248009 1.02743)
(26.308 0.0180549 1.03001)
(26.4679 0.00961068 1.04221)
(27.0059 0.0827745 1.03853)
(7.54801 -0.00302354 -0.0556627)
(7.72173 -0.00736085 -0.0794713)
(7.77259 -0.0206485 -0.07601)
(7.68481 -0.0110608 -0.0738468)
(7.61 0.0182493 -0.0642246)
(7.62849 0.02532 -0.0593565)
(7.54707 0.0109203 -0.0629357)
(3.40447 0.0311224 0.0419612)
(3.37693 -0.00966452 0.0270715)
(3.36878 -0.0240978 0.048782)
(3.38212 0.00649067 0.0417149)
(3.39825 0.0280749 0.0374569)
(3.36434 0.0162359 0.0397462)
(3.40057 -0.0241579 0.0289779)
(2.27019e-05 0.00995854 0.042232)
(2.76605e-05 0.00941638 0.0368616)
(1.90811e-05 0.0113185 0.0319035)
(4.98442e-05 -0.00540072 0.0282604)
(6.97254e-05 -0.0240669 0.0286691)
(7.37198e-05 -0.0212917 0.0347124)
(9.96487e-05 -0.0163289 0.0396965)
(-3.40413 0.0296479 0.0367172)
(-3.36147 -0.0153612 0.022022)
(-3.38913 -0.0265665 0.0438672)
(-3.40729 0.00416755 0.0315034)
(-3.3963 0.0246571 0.0295736)
(-3.36614 0.0170067 0.0370429)
(-3.40053 -0.0219095 0.0289287)
(-7.56453 -0.00310478 -0.0601292)
(-7.62403 -0.0183945 -0.0580226)
(-7.65618 -0.0185291 -0.06296)
(-7.58858 0.00114238 -0.0598871)
(-7.63901 0.0319137 -0.0678883)
(-7.65973 0.0298425 -0.0594067)
(-7.5615 0.00519965 -0.0638546)
(-27.1924 -0.0708922 1.05289)
(-26.6352 -0.00351338 1.06145)
(-26.5196 -0.00857257 1.03333)
(-26.4093 -0.00829562 1.03328)
(-26.3837 -0.0128761 1.04387)
(-26.5679 -0.0109195 1.05869)
(-27.2145 0.069287 1.06726)
(24.2191 -0.0957519 0.664299)
(24.0672 0.00399323 0.702905)
(24.0763 0.0180138 0.673084)
(23.9711 0.0268504 0.671421)
(23.8787 0.0274549 0.65987)
(23.9198 0.016118 0.673414)
(24.2324 0.0974551 0.660574)
(7.47346 -0.00306806 -0.010109)
(7.63568 -0.00328369 -0.0312254)
(7.66837 -0.0174581 -0.0302769)
(7.62468 -0.0134334 -0.0265834)
(7.55474 0.0179011 -0.0183587)
(7.56677 0.0224874 -0.0137494)
(7.46843 0.00990048 -0.0168967)
(3.40722 0.0287551 0.0409383)
(3.37495 -0.00714742 0.0308037)
(3.36819 -0.021171 0.0552221)
(3.37705 0.00366893 0.0437001)
(3.37294 0.0283855 0.0408499)
(3.35278 0.0140664 0.0421547)
(3.40411 -0.025416 0.033375)
(3.52812e-05 0.00854228 0.0523888)
(4.40709e-05 0.00720895 0.045376)
(3.12011e-05 0.00836948 0.0392298)
(5.27209e-05 -0.00589027 0.0364682)
(0.000106597 -0.019787 0.0355872)
(9.24927e-05 -0.0182852 0.0450402)
(0.000114774 -0.0141942 0.0491149)
(-3.4058 0.0262398 0.0357505)
(-3.35817 -0.0122786 0.0227169)
(-3.38126 -0.0254766 0.0490419)
(-3.38947 0.00118744 0.0373008)
(-3.38568 0.0263904 0.029491)
(-3.36193 0.0156189 0.0392423)
(-3.40468 -0.0237243 0.0318679)
(-7.48571 -0.00272062 -0.0166934)
(-7.57396 -0.0118367 -0.0200773)
(-7.59068 -0.0160366 -0.012926)
(-7.54749 -0.00059031 -0.011664)
(-7.58451 0.0274304 -0.0175207)
(-7.59667 0.0244253 -0.0156053)
(-7.48195 0.00359013 -0.0163857)
(-24.3111 -0.0858443 0.671353)
(-24.0113 -0.00588277 0.689663)
(-24.0334 -0.00826577 0.672111)
(-23.8262 -0.0121233 0.666149)
(-23.9511 -0.017272 0.675125)
(-24.0001 -0.0117075 0.679721)
(-24.3196 0.0823864 0.685234)
(23.5052 -0.0890153 0.331965)
(23.4027 0.00994689 0.36394)
(23.422 0.018172 0.369028)
(23.3965 0.0221061 0.348976)
(23.2964 0.0225232 0.330479)
(23.2556 0.0147943 0.342022)
(23.4991 0.0979234 0.323411)
(7.53124 0.00023636 0.0102211)
(7.65581 -0.00281552 0.00145752)
(7.66576 -0.0136728 0.0180397)
(7.68747 -0.0138835 0.0139496)
(7.6547 0.0114518 0.0170476)
(7.6483 0.0188404 0.0222563)
(7.51493 0.0051756 0.0187986)
(3.41766 0.0260331 0.0658468)
(3.36977 -0.0034176 0.05454)
(3.36926 -0.017779 0.0767084)
(3.36308 0.000885885 0.0666409)
(3.35939 0.0268497 0.0683836)
(3.3572 0.011806 0.0682635)
(3.41152 -0.0273192 0.0624756)
(4.83773e-05 0.00518317 0.0601687)
(4.89933e-05 0.00316971 0.057173)
(4.78243e-05 0.00704165 0.0517076)
(7.81266e-05 -0.00624558 0.0495354)
(9.88813e-05 -0.0188165 0.0491223)
(0.000113259 -0.0171322 0.0520892)
(0.000125677 -0.011852 0.0585421)
(-3.41468 0.0233675 0.0596816)
(-3.37165 -0.00843422 0.0428773)
(-3.36541 -0.0207442 0.0712801)
(-3.36796 -0.00380602 0.0672737)
(-3.36604 0.0241757 0.055867)
(-3.37012 0.0142735 0.0649856)
(-3.41308 -0.0250125 0.0623838)
(-7.53495 -0.000822858 0.00601445)
(-7.64693 -0.00672893 0.00405849)
(-7.65351 -0.0131301 0.0214421)
(-7.66338 0.000753802 0.0204058)
(-7.70913 0.0308783 0.0153824)
(-7.65401 0.0191062 0.0206332)
(-7.52681 -0.000571559 0.0147297)
(-23.5319 -0.0850336 0.337024)
(-23.2756 -0.00263441 0.373153)
(-23.3517 -0.0087685 0.34566)
(-23.1689 -0.0089864 0.342586)
(-23.3965 -0.0178832 0.351913)
(-23.3145 -0.0172717 0.346531)
(-23.5297 0.0843138 0.339361)
(22.7057 -0.0916575 0.282762)
(22.6312 0.012277 0.301313)
(22.6869 0.0191818 0.300954)
(22.8165 0.0231539 0.301241)
(22.7676 0.0237113 0.289885)
(22.7357 0.0190141 0.295931)
(22.7115 0.102094 0.280344)
(7.48366 -0.00411008 0.0180496)
(7.54068 -0.00298909 0.0233931)
(7.46263 -0.00889938 0.041501)
(7.51797 -0.00811528 0.037261)
(7.52303 0.0165567 0.0375749)
(7.53187 0.0239263 0.0454178)
(7.48077 0.00779353 0.0363957)
(3.36941 0.0307163 0.0215299)
(3.3734 -0.000837026 0.00728895)
(3.35232 -0.0181935 0.0231029)
(3.36234 0.000229137 0.0208542)
(3.34962 0.0358458 0.0212238)
(3.36617 0.0156139 0.0230635)
(3.35368 -0.035669 0.0191567)
(5.41045e-05 0.0075216 -0.00458149)
(3.5154e-05 0.00233494 -0.00456036)
(5.07333e-05 0.00632869 -0.00801661)
(0.00010399 -0.00823686 -0.0100018)
(5.8681e-05 -0.0231803 -0.00941963)
(0.000121051 -0.0188769 -0.0104664)
(0.000134332 -0.0154588 -0.00517625)
(-3.37016 0.0244745 0.0142964)
(-3.42974 -0.0101891 -0.00418243)
(-3.36816 -0.0203603 0.0203135)
(-3.35366 -0.0059132 0.0179136)
(-3.44662 0.0338082 0.0136142)
(-3.37167 0.022715 0.0220922)
(-3.35544 -0.0319471 0.0206348)
(-7.49398 -0.003034 0.0167898)
(-7.19404 -0.00835066 0.0464032)
(-7.52085 -0.011839 0.0380609)
(-7.50474 0.000500123 0.0410602)
(-7.27789 0.0288097 0.048241)
(-7.53298 0.0173953 0.0385369)
(-7.48712 0.000147717 0.0276637)
(-22.7325 -0.0833601 0.289785)
(-22.6498 -0.00658657 0.322927)
(-22.7673 -0.0188871 0.295258)
(-22.666 -0.00559651 0.295826)
(-22.6839 -0.0212605 0.317709)
(-22.7629 -0.0237035 0.29394)
(-22.7232 0.0913013 0.2853)
(34.3899 -16.3485 -2.64648)
(35.046 -28.9897 -15.0552)
(35.3405 -29.175 -26.3354)
(35.3527 -25.8916 -34.3798)
(35.4333 -18.6029 -35.623)
(35.4525 -10.1357 -32.4918)
(35.4038 2.58058 -25.9456)
(9.31367 -8.59642 -10.7549)
(9.32683 -9.88855 -13.1135)
(9.38988 -12.6716 -15.2947)
(9.39035 -12.857 -16.3133)
(9.42439 -12.7882 -16.7388)
(9.42444 -4.79121 -16.8492)
(9.42741 6.12164 -9.13858)
(3.36326 -7.53382 -3.36607)
(3.3721 2.39736 -10.0957)
(3.41015 2.15759 -11.5729)
(3.41222 3.80414 -11.7463)
(3.4089 3.46495 -11.1465)
(3.40505 3.58873 -10.5114)
(3.39012 7.62005 -1.02776)
(0.0183154 -5.76115 2.81572)
(0.0147337 1.38855 0.337128)
(0.0114319 0.540796 -0.341841)
(0.00840264 -0.118496 -0.283045)
(0.00616656 -0.765308 -0.400252)
(0.00548403 -1.37815 0.141894)
(0.00371505 5.68644 2.76529)
(-3.39823 -9.18257 -3.03824)
(-3.40952 -6.75202 -12.7288)
(-3.41476 -7.68586 -13.8257)
(-3.41946 -6.96138 -15.6468)
(-3.41944 -4.73652 -15.144)
(-3.39814 -4.29974 -14.2871)
(-3.40312 8.50324 -5.42838)
(-9.31168 -11.397 -10.304)
(-9.31153 -4.90415 -19.3405)
(-9.3246 1.43859 -19.0477)
(-9.32639 2.27274 -20.7335)
(-9.32646 3.44301 -20.9621)
(-9.34426 1.63036 -21.6946)
(-9.40301 5.99464 -16.4135)
(-34.5668 -10.7798 -11.2564)
(-34.9542 1.11686 -26.3567)
(-35.1743 12.9815 -32.6199)
(-35.1189 19.6432 -32.1336)
(-34.954 22.2229 -23.34)
(-34.7643 18.2608 -19.1056)
(-34.6203 9.90877 -11.6599)
(34.8171 -16.8868 13.6022)
(35.3417 -24.0176 -12.405)
(35.514 -19.3685 -32.7493)
(35.5638 -19.8074 -50.4181)
(35.7434 -14.8408 -59.5648)
(35.9041 -13.0273 -61.6572)
(35.9251 1.08581 -59.6009)
(9.31185 -9.16293 8.77703)
(9.29733 -12.339 -2.9448)
(9.2674 -19.0268 -1.1659)
(9.30059 -20.8627 -1.1226)
(9.47734 -20.9698 -5.65216)
(9.52165 -8.86313 -8.9374)
(9.54028 -0.885809 -18.4775)
(3.36604 -7.45998 8.49209)
(3.37331 3.44765 6.63645)
(3.40861 2.98121 7.46717)
(3.41714 2.72723 9.26531)
(3.41907 0.206332 9.58163)
(3.43038 -1.21716 11.8442)
(3.42031 5.77086 10.4348)
(0.0117515 -4.11765 12.6815)
(0.00961395 2.48287 10.8386)
(0.00876752 1.9182 10.0719)
(0.00622574 0.346495 10.1903)
(0.00563068 -1.52628 9.99349)
(0.0100187 -2.2333 10.5817)
(0.0115425 3.9597 12.3706)
(-3.413 -7.11119 11.8494)
(-3.42069 0.462051 12.576)
(-3.42145 -2.08321 9.19825)
(-3.42033 -3.66299 8.06707)
(-3.41478 -3.42649 6.40362)
(-3.39753 -4.39827 5.13779)
(-3.40422 7.46083 7.64254)
(-9.46772 -3.54628 3.64494)
(-9.44388 8.36557 4.99033)
(-9.35101 23.1044 -4.40127)
(-9.22022 22.0184 -4.49338)
(-9.224 20.5853 -7.34757)
(-9.30038 14.5081 -11.3069)
(-9.3764 6.23493 3.58081)
(-36.0266 3.14425 -44.2532)
(-35.977 17.3749 -56.1723)
(-35.8979 30.5458 -56.1303)
(-35.7775 33.4185 -47.6169)
(-35.5855 33.943 -27.0421)
(-35.3616 30.3155 -13.2955)
(-34.8008 14.9716 6.72904)
(34.8491 -12.4344 25.1619)
(35.192 -13.4814 -10.3374)
(35.4141 -8.56912 -33.4267)
(35.651 -11.5313 -55.4896)
(35.8336 -5.29717 -69.7625)
(36.0677 -7.62108 -75.7562)
(36.0873 7.45283 -72.0702)
(9.28296 -7.9622 9.88159)
(9.22943 -13.0185 -1.86195)
(9.17107 -15.498 -0.339559)
(9.25284 -15.5453 -3.21071)
(9.38758 -12.2714 -18.2753)
(9.50557 -6.78447 -29.6687)
(9.56693 3.57421 -42.5218)
(3.35519 -6.89113 16.7514)
(3.35461 2.9516 13.3205)
(3.37936 3.0072 13.7537)
(3.40149 3.66316 15.3668)
(3.42362 2.12856 16.6923)
(3.45063 -1.28322 15.725)
(3.44197 7.3686 15.8197)
(-0.00601822 -3.36673 20.7395)
(-0.00425403 2.59005 19.9463)
(0.000348094 2.49207 18.7773)
(0.00488931 0.250831 19.0442)
(0.011336 -1.72165 18.7277)
(0.0173547 -2.20004 19.1739)
(0.0221067 3.34316 19.8447)
(-3.45801 -7.00416 18.2077)
(-3.45235 2.23828 17.4653)
(-3.43229 -0.858791 16.329)
(-3.42431 -2.83115 14.2508)
(-3.40028 -3.12207 12.5215)
(-3.38734 -3.28946 11.5888)
(-3.40115 6.73023 14.8729)
(-9.68444 3.10126 -38.0583)
(-9.57449 10.8728 -27.1736)
(-9.51531 20.6533 -17.3512)
(-9.3977 21.8011 -11.4856)
(-9.32041 21.4562 -7.16719)
(-9.31322 18.8855 -5.62348)
(-9.35626 7.89885 6.0577)
(-36.2972 2.99083 -85.5243)
(-36.1083 13.9308 -84.2838)
(-36.0441 22.4443 -77.8054)
(-35.8715 26.0922 -62.0002)
(-35.784 25.5044 -36.1684)
(-35.5805 25.8445 -10.5958)
(-34.9741 12.2096 19.7723)
(34.7496 -10.1686 29.7713)
(35.0272 -8.94195 -6.57841)
(35.4998 -6.32717 -33.3856)
(35.8787 -12.7611 -63.9824)
(35.9872 -7.44002 -79.5428)
(36.2255 -10.5654 -86.7589)
(36.2733 7.17491 -80.6218)
(9.30878 -7.64564 12.5831)
(9.41563 -10.184 -4.21795)
(9.37402 -9.48585 -9.09704)
(9.37221 -7.2985 -12.705)
(9.40087 -5.96213 -20.3309)
(9.50464 -6.18424 -32.6436)
(9.63786 7.40741 -43.7196)
(3.33198 -7.75882 21.6015)
(3.33937 2.38547 14.3599)
(3.37809 3.09179 14.8873)
(3.41233 4.43195 15.2251)
(3.42534 5.57652 17.1641)
(3.4216 1.81251 18.4006)
(3.41848 6.44332 21.1393)
(-0.0159848 -2.47691 25.244)
(-0.012503 2.17642 23.3771)
(-0.00627545 1.19608 21.3268)
(-0.000544355 0.150016 21.4704)
(0.00700831 -0.860121 21.2116)
(0.014333 -1.88195 22.9458)
(0.0189722 3.23761 25.0635)
(-3.45476 -5.95799 20.4902)
(-3.43466 1.82773 19.9707)
(-3.44881 -3.37521 18.5866)
(-3.4372 -4.16175 16.2316)
(-3.40532 -3.3764 14.9925)
(-3.38987 -2.23429 12.7422)
(-3.38809 7.90785 20.7217)
(-9.787 -3.50971 -59.1088)
(-9.59693 8.3914 -38.6139)
(-9.54326 12.5575 -25.561)
(-9.53164 13.9964 -23.7166)
(-9.54725 16.4765 -17.869)
(-9.54145 16.5202 -6.91356)
(-9.42682 8.79561 11.5555)
(-36.387 -3.3588 -96.5024)
(-36.1072 10.7835 -92.308)
(-35.9885 18.7861 -83.9414)
(-35.9289 22.0556 -63.3527)
(-35.6502 17.1773 -34.9639)
(-35.4306 17.1274 -6.74636)
(-34.9759 11.3669 25.5454)
(34.4941 -5.80818 31.5986)
(34.9416 -3.06774 -3.00078)
(35.645 -6.76162 -33.7652)
(35.9797 -17.586 -66.3791)
(36.0916 -10.1442 -83.4962)
(36.2891 -11.2782 -92.3891)
(36.4987 4.79588 -87.8992)
(9.28443 -4.64087 15.3318)
(9.54939 -6.86879 -6.67934)
(9.53146 -7.81678 -14.0904)
(9.50901 -6.1698 -17.8362)
(9.48051 -5.97201 -19.2761)
(9.5341 -7.72653 -34.8612)
(9.70987 7.28819 -44.6539)
(3.30723 -5.77368 24.3713)
(3.32164 1.69797 14.0194)
(3.39517 2.71173 15.1793)
(3.42933 4.54589 15.4814)
(3.41879 5.55247 17.1626)
(3.34606 1.41319 19.4573)
(3.32986 4.76792 22.9004)
(-0.000545047 -1.58896 24.9663)
(-0.000536701 2.5817 23.1289)
(-0.000142302 1.16708 21.5478)
(-0.000730431 0.239716 22.0577)
(0.000876026 -0.275473 21.6937)
(0.0036586 -2.09152 23.6558)
(0.00603935 2.66067 26.1936)
(-3.39514 -5.24713 20.4266)
(-3.3937 2.58022 18.571)
(-3.42459 -2.99656 17.9922)
(-3.43154 -4.12195 18.0014)
(-3.41971 -2.35083 15)
(-3.38013 -0.939692 13.0013)
(-3.3861 7.18828 23.5966)
(-9.86548 -9.20962 -59.9689)
(-9.59102 7.94752 -36.2826)
(-9.48636 9.72181 -22.4411)
(-9.50502 11.6199 -23.1378)
(-9.58707 12.4667 -19.5043)
(-9.6322 10.5999 -7.87526)
(-9.43851 7.18132 15.9437)
(-36.2704 -4.75795 -101.582)
(-36.0633 14.3896 -97.3385)
(-36.1023 19.3086 -86.9773)
(-36.0417 21.5294 -61.4258)
(-35.4553 10.2915 -28.9561)
(-35.161 5.6358 3.40848)
(-34.7867 3.21518 35.7712)
(34.334 -3.99967 29.3375)
(34.9109 2.72971 -3.39881)
(35.7352 -13.0793 -32.4808)
(36.005 -24.8234 -65.6098)
(36.0648 -15.53 -84.2234)
(36.2115 -13.8892 -94.3171)
(36.558 2.08557 -93.71)
(9.15454 -0.954654 16.5297)
(9.61881 -3.66466 -4.76794)
(9.62312 -8.40071 -14.4097)
(9.57602 -10.5967 -19.6125)
(9.58744 -11.3642 -22.9014)
(9.69868 -10.5667 -44.9565)
(9.88665 4.68068 -54.0042)
(3.26436 -1.60954 27.8836)
(3.30798 2.13024 16.5914)
(3.4031 2.91324 16.5872)
(3.44436 4.27904 16.6158)
(3.42592 4.49842 18.3075)
(3.29584 -0.534875 19.8897)
(3.27963 2.08264 22.5629)
(0.0218343 -0.0438806 26.5998)
(0.0145335 3.38013 23.9515)
(0.00806788 2.28392 22.0555)
(0.00263672 1.18988 22.4819)
(-0.00172814 -0.515655 22.0354)
(-0.00438854 -2.20275 23.9856)
(-0.00643915 0.630889 26.8364)
(-3.31535 -0.741433 19.6951)
(-3.29662 6.48123 19.3408)
(-3.36619 1.24246 18.7562)
(-3.43066 -2.28531 17.9718)
(-3.42975 -1.36346 15.7774)
(-3.35802 -1.08717 15.2982)
(-3.32704 3.64177 28.6594)
(-9.98598 -9.32987 -63.5777)
(-9.82957 11.4135 -44.6589)
(-9.54735 12.956 -23.8778)
(-9.53546 12.6322 -18.2406)
(-9.61535 9.23536 -13.8291)
(-9.66976 5.89154 -3.63397)
(-9.29534 0.625118 17.9699)
(-36.5213 -5.30919 -103.458)
(-36.1464 15.5135 -98.6419)
(-36.2622 16.7622 -87.7611)
(-36.0217 23.9365 -53.3593)
(-35.2059 1.77957 -19.5693)
(-34.8807 -3.27619 10.1161)
(-34.6111 0.154904 33.7284)
(34.3474 -3.2969 20.7352)
(35.0157 6.73454 1.79535)
(35.7672 -24.3609 -27.0578)
(35.773 -26.9474 -58.8056)
(35.7553 -19.2015 -82.3488)
(36.081 -14.808 -94.7069)
(36.4692 -1.00407 -95.0318)
(9.19254 -0.208515 11.6106)
(9.59317 -1.69946 -3.3778)
(9.65667 -12.6899 -13.5555)
(9.7253 -17.3908 -18.4959)
(9.81247 -15.1753 -34.1903)
(9.84535 -12.5584 -53.0507)
(9.98269 3.45323 -60.0789)
(3.24861 -0.293579 28.1562)
(3.31631 -0.172104 20.671)
(3.41383 1.01994 17.4325)
(3.48482 3.34848 20.8872)
(3.40135 0.70806 18.0184)
(3.22775 -6.5033 19.1939)
(3.21135 -2.48183 14.2906)
(0.0344301 0.497531 27.7317)
(0.0150129 3.72755 29.6265)
(0.0041463 1.56863 28.5088)
(0.00158828 1.18209 27.6468)
(-0.00394759 -0.0382742 25.0804)
(-0.0175041 -1.49759 26.3049)
(-0.0290641 0.469706 28.8793)
(-3.56076 2.26687 -17.6635)
(-3.45323 13.1852 3.09566)
(-3.36994 8.68007 19.6103)
(-3.42798 -1.01754 21.6348)
(-3.4246 0.132379 16.664)
(-3.3527 -0.101208 18.3679)
(-3.29873 0.97904 29.2154)
(-10.0045 -9.56478 -70.8731)
(-9.98978 13.5456 -60.5301)
(-9.80278 12.7146 -32.9368)
(-9.55157 16.4415 -9.79148)
(-9.5656 11.1137 -7.27255)
(-9.64826 4.61105 -1.94501)
(-9.18638 -1.54214 13.7787)
(-36.5381 -7.1284 -102.887)
(-36.0208 14.2604 -100.079)
(-35.9021 11.7033 -82.7068)
(-35.8762 29.0167 -42.7608)
(-35.1276 1.83784 -11.1287)
(-34.7635 -6.44098 8.6198)
(-34.6122 -0.00397072 24.0611)
(34.5157 0.830618 29.525)
(34.9138 5.66344 25.5137)
(35.3055 -10.1855 9.67388)
(35.4766 3.08565 -17.6745)
(35.7655 17.366 -61.9165)
(36.0435 6.06962 -91.8297)
(36.9806 4.86598 -92.0074)
(9.54431 -4.40156 12.0867)
(9.66509 -8.41355 6.03237)
(9.78007 -16.9054 2.34437)
(9.88963 -18.4093 -10.3477)
(9.96134 -13.149 -39.5022)
(10.0551 -7.18727 -65.3929)
(10.1508 5.24726 -71.4284)
(3.23162 0.879989 25.9358)
(3.3002 -0.532271 20.7621)
(3.41434 -2.02465 20.9426)
(3.45793 -4.80926 21.3487)
(3.38911 -11.9993 20.8465)
(3.53902 -10.3711 -4.96217)
(3.66517 2.27743 -20.3515)
(0.0186401 1.0008 26.661)
(-0.00299742 1.29554 28.0571)
(-0.00185535 -0.366416 27.7687)
(-0.00173256 -1.52448 27.9746)
(-0.00918921 -1.41123 27.7413)
(-0.0175312 -1.61574 27.7668)
(-0.0240382 -0.287063 28.377)
(-3.64301 -9.37946 -33.8781)
(-3.61411 2.88014 -14.6799)
(-3.43527 13.1761 15.1182)
(-3.41565 5.83263 23.63)
(-3.4156 2.37679 20.722)
(-3.32129 0.571919 20.9055)
(-3.24158 -0.941071 30.4846)
(-10.0982 -14.1961 -74.0924)
(-9.97024 5.0293 -69.0099)
(-9.9563 3.01869 -36.5443)
(-9.71612 11.2723 -1.40176)
(-9.60911 8.64915 4.3876)
(-9.61677 5.93998 4.31053)
(-9.38725 1.60093 12.4567)
(-36.7009 -12.8476 -86.8858)
(-36.4134 -11.2079 -97.5949)
(-35.8427 -15.8788 -80.1293)
(-35.6593 18.7043 -25.7035)
(-35.0748 2.57081 11.2685)
(-34.8243 -0.331366 22.8942)
(-34.2772 -1.62294 26.641)
(34.6819 -1.37605 28.2155)
(34.7765 8.29332 23.6157)
(35.0863 2.78402 15.0479)
(35.2319 6.90411 -5.89421)
(35.421 31.5934 -60.5337)
(35.8689 26.2712 -97.7854)
(36.6124 16.8144 -103.159)
(9.61724 -4.64334 13.2504)
(9.67739 -5.47586 10.8328)
(9.7211 -9.93088 9.59131)
(9.80702 -12.7322 -2.51908)
(9.95089 -5.05822 -34.4248)
(10.0376 0.548514 -63.3987)
(10.1066 9.46392 -72.9217)
(3.28601 0.663926 24.9046)
(3.33643 -0.480484 21.7347)
(3.4421 -2.76611 22.7501)
(3.46637 -8.27055 25.2531)
(3.51419 -15.2921 14.412)
(3.69378 -4.54417 -13.5562)
(3.69718 3.02346 -22.8024)
(0.0133648 1.33487 26.0976)
(-0.000342104 0.842219 28.1746)
(-0.00497072 -1.07681 29.0094)
(-0.00480717 -1.45546 29.1386)
(-0.00437456 -1.56641 29.2234)
(-0.00633752 -0.746932 29.1291)
(-0.016581 0.0976794 29.5128)
(-3.67259 -12.6423 -26.7295)
(-3.6238 4.77815 -4.76142)
(-3.56858 10.8011 3.56907)
(-3.46051 7.27984 22.3289)
(-3.4374 2.50827 22.9443)
(-3.33129 -0.140637 23.0045)
(-3.23674 -1.17127 30.6145)
(-10.1044 -17.6755 -74.9664)
(-10.082 -1.68471 -62.3386)
(-9.92694 2.20787 -32.3672)
(-9.72555 10.605 2.45878)
(-9.62493 9.6494 11.0051)
(-9.64498 6.59953 10.987)
(-9.57062 3.33914 14.8414)
(-36.4277 -17.3805 -96.3817)
(-36.109 -23.421 -106.004)
(-35.6135 -27.7363 -77.9842)
(-35.5294 -2.88349 -16.2609)
(-35.0071 0.553949 15.7145)
(-34.8545 -2.63321 23.053)
(-34.5831 1.19181 26.0104)
(34.7489 -4.19284 24.5006)
(34.7905 7.51981 18.352)
(35.0203 2.68224 10.3685)
(35.2424 14.7289 -19.6021)
(35.6116 41.6595 -80.808)
(36.0515 35.396 -98.8107)
(36.4837 33.054 -94.1816)
(9.64143 -4.5868 15.9576)
(9.68554 -3.57342 14.8898)
(9.68205 -9.08028 10.3966)
(9.78052 -9.76876 -2.04946)
(9.91578 7.34258 -35.9527)
(9.98182 10.4555 -60.1813)
(10.0541 19.0738 -71.9831)
(3.31569 0.0407781 25.0126)
(3.38955 -0.464884 24.4441)
(3.46067 -4.50522 27.3516)
(3.50368 -10.1273 23.198)
(3.62691 -15.0941 1.4026)
(3.67832 -4.38091 -8.22624)
(3.68271 7.76388 -25.813)
(0.0141072 1.19393 26.0738)
(0.00213824 0.602305 28.913)
(-0.00613621 -0.745466 31.1922)
(-0.00649801 -0.850295 32.1838)
(-0.00223076 -0.705011 30.7902)
(-0.0028025 0.534391 31.4826)
(-0.0175737 -0.215804 30.6831)
(-3.68761 -10.9874 -25.6018)
(-3.66751 8.39865 -5.34691)
(-3.64504 8.53957 4.54288)
(-3.52282 9.94014 21.86)
(-3.46305 4.37167 27.0018)
(-3.3652 0.879695 24.8784)
(-3.25623 -0.80487 30.0457)
(-10.0998 -21.1485 -71.9824)
(-10.0734 -6.34864 -60.7723)
(-9.95953 -0.195707 -34.3142)
(-9.84237 9.09944 -5.23288)
(-9.68902 10.3838 11.5712)
(-9.69403 4.26667 15.4454)
(-9.59438 3.94138 19.2455)
(-36.5797 -27.5275 -93.4888)
(-36.1229 -31.6631 -107.049)
(-35.7201 -36.0088 -98.1078)
(-35.4717 -22.9029 -49.8743)
(-34.9254 3.12476 10.2796)
(-34.7744 -5.72629 19.8732)
(-34.5967 1.67976 24.3678)
(34.4923 -4.66972 24.2226)
(34.8373 4.61532 19.5663)
(35.0828 5.12656 -1.85938)
(35.4674 38.5936 -63.3196)
(35.9076 53.6247 -89.8628)
(36.1422 45.9306 -95.3444)
(36.5132 36.6813 -80.9471)
(9.61726 -4.94372 16.3297)
(9.66616 -3.51273 14.9739)
(9.64813 -6.38304 13.4095)
(9.84819 -0.3788 -10.085)
(9.89056 13.8504 -27.8235)
(9.94036 18.3435 -46.0204)
(9.98989 28.4159 -57.1421)
(3.39478 -1.14919 25.2619)
(3.45912 -2.13604 26.2546)
(3.50818 -9.25434 27.2506)
(3.59991 -14.3362 15.4896)
(3.67319 -10.8188 0.794082)
(3.66462 -5.85082 -4.22028)
(3.65642 12.2518 -24.089)
(0.0258525 1.14632 26.4124)
(0.0047877 1.10428 29.7918)
(-0.00636114 -1.24799 33.2733)
(-0.00429917 -0.813878 32.8826)
(0.000540426 0.781882 32.2127)
(-0.00168541 0.361653 32.0826)
(-0.0163561 -0.369237 30.8938)
(-3.66576 -9.77335 -23.9151)
(-3.67 9.30107 -8.82401)
(-3.67657 10.3028 6.26294)
(-3.60747 13.5966 15.3518)
(-3.53429 9.80068 26.7171)
(-3.43412 2.66046 26.248)
(-3.3216 -0.323325 28.5556)
(-10.037 -24.2149 -60.7929)
(-10.0169 -15.8006 -48.1711)
(-9.95071 -5.26471 -26.5769)
(-9.88111 -6.46787 -14.6464)
(-9.67341 7.11082 14.4438)
(-9.66195 2.16739 16.2724)
(-9.55215 3.40894 18.8346)
(-36.6587 -28.6393 -80.0194)
(-35.9718 -42.4663 -102.141)
(-35.8329 -47.6189 -102.204)
(-35.569 -43.1254 -81.6716)
(-35.231 -6.13901 -10.8045)
(-34.7408 -4.69549 20.8144)
(-34.4282 1.57916 24.5024)
(34.3627 -3.84073 29.8195)
(35.02 -9.28927 20.1808)
(35.4377 40.6412 -62.9463)
(35.7857 62.2736 -92.3023)
(35.9535 66.9046 -91.1769)
(36.283 63.3575 -85.1855)
(36.69 44.6461 -61.8007)
(9.58242 -5.24601 19.6933)
(9.69891 -6.07676 15.6357)
(9.72603 -4.3721 8.48462)
(9.87999 15.1076 -16.4289)
(9.87769 22.9208 -17.4359)
(9.88811 30.749 -32.7245)
(9.96183 33.0168 -41.8767)
(3.45819 -2.28995 26.8393)
(3.49259 -6.65398 27.4222)
(3.56159 -10.6777 23.0145)
(3.63159 -10.0276 8.49449)
(3.67327 -8.48721 4.12879)
(3.64114 -5.58813 0.204887)
(3.62427 15.2503 -10.621)
(0.0409697 2.17087 28.4462)
(0.00664395 2.77319 31.7477)
(-0.00675711 0.150364 34.7192)
(-0.00144515 -0.849384 34.7756)
(0.00911665 0.585528 33.1943)
(0.00693934 -1.25266 33.2854)
(-0.0135603 -1.41223 32.1611)
(-3.60934 -16.4846 -17.9175)
(-3.63522 7.36822 -3.46272)
(-3.67361 11.3972 7.50213)
(-3.66991 12.9957 9.96703)
(-3.57668 12.6072 19.2885)
(-3.48756 6.64458 26.066)
(-3.38034 0.722693 27.9236)
(-9.94696 -34.1854 -48.193)
(-9.89893 -39.2375 -43.4716)
(-9.90134 -24.499 -20.0579)
(-9.89956 -15.3712 -12.2845)
(-9.7716 4.90287 9.69217)
(-9.65973 3.5614 16.4998)
(-9.52799 3.14975 19.706)
(-36.7446 -35.2677 -60.2127)
(-36.0872 -57.1498 -88.9547)
(-35.3396 -66.5909 -94.1404)
(-35.3162 -66.6121 -95.9067)
(-35.181 -44.5364 -61.0625)
(-34.976 4.01478 16.2607)
(-34.3911 0.450153 29.0373)
(34.2938 -16.0254 44.3627)
(35.451 50.9071 -44.7254)
(35.3424 74.6045 -97.3492)
(35.6273 79.8749 -91.7213)
(36.3435 74.7005 -85.2361)
(36.9448 65.5166 -65.9139)
(37.1444 33.3354 -34.1433)
(9.62075 -9.53751 29.7937)
(9.85226 -2.38346 -13.7825)
(9.86442 41.6375 -31.5761)
(9.97244 52.5689 -33.4542)
(9.92188 54.9503 -31.7382)
(9.8965 49.242 -31.6247)
(9.97444 40.6998 -21.5573)
(3.48236 -8.74098 29.3884)
(3.53881 -13.7903 19.8504)
(3.5969 -11.3307 13.6091)
(3.66812 -8.83951 12.6928)
(3.66089 -8.36185 16.3934)
(3.60156 -6.64527 16.9707)
(3.58631 21.2676 2.36145)
(0.0473625 -0.677768 32.0357)
(0.00414388 1.18307 33.5352)
(-0.00934364 -0.387123 34.3398)
(0.0056252 -0.40954 35.2501)
(0.0247698 1.08604 33.1796)
(0.0263089 -0.111521 34.9634)
(-0.000449377 0.307262 34.9791)
(-3.52214 -27.0257 -2.04551)
(-3.55461 5.93718 13.184)
(-3.63394 12.1656 15.8974)
(-3.66074 11.9235 13.3497)
(-3.60976 12.8872 12.2053)
(-3.5259 13.8157 19.3015)
(-3.42533 6.04782 27.6995)
(-9.83955 -44.9567 -23.9885)
(-9.74509 -57.4481 -40.3657)
(-9.81234 -63.3379 -40.6594)
(-9.92314 -53.6749 -32.9849)
(-9.8717 -33.6489 -21.3238)
(-9.73522 8.71087 0.824898)
(-9.54266 6.04338 26.3968)
(-37.1224 -20.2202 -30.2556)
(-36.7756 -55.6937 -72.6765)
(-35.8898 -76.8611 -87.4437)
(-35.2477 -86.9468 -89.9496)
(-34.9962 -87.7059 -89.8099)
(-35.1847 -54.4084 -39.5895)
(-34.2989 10.7414 40.5681)
(35.6199 96.4502 -58.6462)
(34.6883 137.02 -109.51)
(35.5287 84.3439 -105.922)
(36.5807 84.5547 -94.6798)
(37.1225 63.5892 -74.7662)
(36.9153 -8.88016 54.0605)
(36.704 -7.4117 80.0671)
(10.0379 66.2663 -24.465)
(9.78978 86.0328 -52.5538)
(9.7582 87.4099 -49.6858)
(10.0988 75.0652 -46.025)
(10.1726 71.6084 -36.189)
(10.041 53.4718 -26.7478)
(9.96405 32.7751 25.4254)
(3.69334 19.8577 -4.96376)
(3.64061 12.3202 -7.25262)
(3.64638 14.655 -6.74688)
(3.74897 16.2162 -0.528803)
(3.76045 9.97989 10.0352)
(3.66935 5.00926 18.3651)
(3.5744 15.6577 42.5994)
(0.0450645 0.0442511 40.5349)
(0.00647149 -2.12864 32.7424)
(-0.00741927 -3.49442 34.3145)
(0.0158792 0.199184 34.9571)
(0.0465172 3.99573 33.3466)
(0.0444334 2.90868 33.4797)
(0.0128801 -0.0838631 43.6482)
(-3.52388 -15.9028 33.6411)
(-3.65641 -7.02122 11.0204)
(-3.72367 -11.4789 5.9917)
(-3.72857 -13.8168 -8.81629)