/*--------------------------------*- C++ -*----------------------------------*\
  =========                 |
  \\      /  F ield         | OpenFOAM: The Open Source CFD Toolbox
   \\    /   O peration     | Website:  https://openfoam.org
    \\  /    A nd           | Version:  6
     \\/     M anipulation  |
\*---------------------------------------------------------------------------*/
FoamFile
{
    version     2.0;
    format      ascii;
    class       volScalarField;
    location    "5";
    object      T;
}
// * * * * * * * * * * * * * * * * * * * * * * * * * * * * * * * * * * * * * //

dimensions      [0 0 0 1 0 0 0];

internalField   nonuniform List<scalar> 
297
(
290.347
289.777
290.459
296.657
295.614
296.813
290.347
289.777
290.459
290.377
289.807
290.492
300.737
298.385
301.305
290.377
289.807
290.492
291.894
290.962
292.076
301.278
298.888
301.901
291.894
290.962
292.076
293.283
295.859
293.316
294.907
295.954
294.899
293.313
295.857
293.284
297.166
297.6
298.033
297.605
296.964
297.615
298.029
297.597
297.17
299.976
297.614
300.906
300.124
300.923
300.126
300.909
297.61
299.98
296.547
295.775
296.853
303.185
302.679
303.189
296.851
295.773
296.549
295.623
295.617
296.416
303.168
303.127
303.172
296.414
295.618
295.625
295.031
295.387
295.715
302.969
302.398
302.972
295.715
295.387
295.032
300.418
297.04
301.397
301.137
301.959
301.137
301.404
297.031
300.42
299.37
296.543
299.55
301.428
301.969
301.428
299.986
296.539
299.062
298.747
295.922
299.114
302.365
302.058
302.357
299.114
295.915
298.748
295.205
295.349
295.544
302.71
299.626
302.711
295.546
295.35
295.206
294.613
294.874
294.902
302.459
299.628
302.459
294.905
294.875
294.612
294.656
294.766
294.821
300.776
299.783
300.775
294.824
294.767
294.655
294.85
294.053
293.74
302.695
302.715
302.714
294.571
293.843
293.547
295.059
294.079
293.763
302.356
302.011
302.112
294.756
293.874
293.603
294.809
294.158
293.899
300.591
300.063
300.087
294.641
293.973
293.766
293.548
293.844
294.571
302.716
302.716
302.696
293.74
294.056
294.853
293.604
293.875
294.757
302.114
302.013
302.357
293.765
294.082
295.062
293.769
293.977
294.643
300.091
300.066
300.594
293.901
294.161
294.813
293.461
293.78
293.283
298.097
298.792
302.723
293.958
294.134
293.571
293.206
293.659
293.383
298.128
299.819
302.324
293.752
294.045
293.706
292.684
293.668
294.02
298.106
300.161
300.943
293.184
294.066
293.79
292.446
293.161
292.071
298.217
298.352
298.349
292.934
293.256
291.877
291.462
292.687
292.95
297.942
296.423
295.822
291.737
292.671
293.027
287.932
287.307
287.284
285.036
282.623
283.264
288.1
287.502
287.492
293.572
294.138
293.961
302.722
298.792
298.096
293.283
293.781
293.464
293.707
294.042
293.725
302.324
299.819
298.128
293.383
293.661
293.215
293.791
294.062
293.22
300.941
300.161
298.105
294.019
293.671
292.717
291.885
293.265
292.957
298.351
298.354
298.218
292.073
293.163
292.467
293.013
292.655
291.709
295.822
296.423
297.944
292.951
292.687
291.432
287.493
287.503
288.101
283.269
282.628
285.04
287.284
287.308
287.933
)
;

boundaryField
{
    fuel
    {
        type            fixedValue;
        value           uniform 293;
    }
    primary_air
    {
        type            fixedValue;
        value           uniform 293;
    }
    Secondary_air_RHS
    {
        type            fixedValue;
        value           uniform 293;
    }
    Secondary_air_LHS
    {
        type            fixedValue;
        value           uniform 293;
    }
    outlet
    {
        type            inletOutlet;
        inletValue      uniform 293;
        value           nonuniform List<scalar> 
18
(
293
283.268
293
293
282.627
293
293
285.04
293
293
285.036
293
293
282.623
293
293
283.264
293
)
;
    }
    stove_body
    {
        type            fixedValue;
        value           uniform 293;
    }
    frontAndBack
    {
        type            empty;
    }
}


// ************************************************************************* //
