/*--------------------------------*- C++ -*----------------------------------*\
  =========                 |
  \\      /  F ield         | OpenFOAM: The Open Source CFD Toolbox
   \\    /   O peration     | Website:  https://openfoam.org
    \\  /    A nd           | Version:  6
     \\/     M anipulation  |
\*---------------------------------------------------------------------------*/
FoamFile
{
    version     2.0;
    format      ascii;
    class       volScalarField;
    location    "0.0025";
    object      O2;
}
// * * * * * * * * * * * * * * * * * * * * * * * * * * * * * * * * * * * * * //

dimensions      [0 0 0 0 0 0 0];

internalField   nonuniform List<scalar> 
3773
(
0
0
0
0
0
0
0
0
0
0
0
0
0
0
0
0
0
0
0
0
0
0
0
0
0
0
0
0
0
0
0
0
0
0
0
0
0
0
0
0
0
0
0
0
0
0
0
0
0
0
0
0
0
0
0
0
0
0
0
0
0
0
0
0
0
0
0
0
0
0
0
0
0
0
0
0
0
0
0
0
0
0
0
0
0
0
0
0
0
0
0
0
0
0
0
0
0
0
0
0
0
0
0
0
0
0
0
0
0
0
0
0
0
0
0
0
0
0
0
0
0
0
0
0
0
0
0
0
0
0
0
0
0
0
0
0
0
0
0
0
0
0
0
0
0
0
0
0
0
0
0
0
0
0
0
0
0
0
0
0
0
0
0
0
0
0
0
0
0
0
0
0
0
0
0
0
0
0
0
0
0
0
0
0
0
0
0
0
0
0
0
0
0
0
0
0
0
0
0
0
0
0
0
0
0
0
0
0
0
0
0
0
0
0
0
0
0
0
0
0
0
0
0
0
0
0
0
0
0
0
0
0
0
0
0
0
0
0
0
0
0
0
0
0
0
0
0
0
0
0
0
0
0
0
0
0
0
0
0
0
0
0
0
0
0
0
0
0
0
0
0
0
0
0
0
0
0
0
0
0
0
0
0
0
0
0
0
0
0
0
0
0
0
0
0
0
0
0
0
0
0
0
0
0
0
0
0
0
0
0
0
0
0
0
0
0
0
0
0
0
0
0
0
0
0
0
0
0
0
0
0
0
0
0
0
0
0
0
0
0
0
0
0
0.00208269
0.00208329
0.00208207
0.00208199
0.00208157
0.00208185
0.0020808
0.00241025
0.00241114
0.00240991
0.00240968
0.00240917
0.00240951
0.00240943
0.00266763
0.00266845
0.00266845
0.00266854
0.00266872
0.00266859
0.0026681
0.00273302
0.00273403
0.00273406
0.00273425
0.00273443
0.00273449
0.00273395
0.00266989
0.00267031
0.0026708
0.002671
0.00267075
0.00267066
0.00266927
0.00240706
0.00240586
0.00240704
0.00240654
0.00240715
0.00240828
0.00240823
0.00208394
0.00208313
0.00208393
0.00208325
0.00208283
0.00208309
0.0020833
1.63755e-06
1.68295e-06
1.58637e-06
1.68625e-06
1.59628e-06
1.54708e-06
1.6516e-06
1.61822e-06
1.55045e-06
1.58114e-06
1.54266e-06
1.48182e-06
1.54307e-06
1.55272e-06
2.15634e-06
2.06206e-06
2.1061e-06
2.06311e-06
2.00346e-06
1.96701e-06
2.12783e-06
1.46432e-06
1.5101e-06
1.46346e-06
1.4726e-06
1.49135e-06
1.51582e-06
1.58769e-06
1.62802e-06
1.61836e-06
1.62565e-06
1.59425e-06
1.64925e-06
1.69123e-06
1.65316e-06
1.23081e-06
1.16944e-06
1.27536e-06
1.23158e-06
1.19341e-06
1.22271e-06
1.33567e-06
1.19607e-06
1.20488e-06
1.4144e-06
1.41321e-06
1.37386e-06
1.3948e-06
1.48531e-06
1.12396e-09
1.24174e-09
1.24922e-09
1.33257e-09
1.08249e-09
6.34464e-10
1.53736e-09
1.8567e-09
1.89386e-09
1.65655e-09
1.75174e-09
1.81557e-09
1.6699e-09
1.74554e-09
2.17727e-09
1.85611e-09
1.82032e-09
1.31977e-09
1.76848e-09
1.69553e-09
1.26283e-09
1.74705e-09
1.85576e-09
1.74629e-09
1.06946e-09
1.65522e-09
1.00697e-09
9.82572e-10
2.23342e-09
2.24143e-09
2.24652e-09
2.16638e-09
2.01373e-09
1.94791e-09
1.49187e-09
7.1359e-10
5.88495e-10
6.48362e-10
6.95603e-10
8.18346e-10
8.39565e-10
8.46292e-10
4.66847e-10
4.72062e-10
5.73396e-10
7.24064e-10
8.61951e-10
9.12842e-10
8.94633e-10
2.93565e-13
4.01987e-13
3.80714e-13
3.13194e-13
4.64853e-13
5.028e-13
5.50515e-13
6.31764e-13
8.3303e-13
7.83167e-13
7.2538e-13
1.05943e-12
1.08428e-12
9.58575e-13
1.20987e-12
1.36702e-12
1.31753e-12
1.17842e-12
1.09581e-12
1.09577e-12
1.1051e-12
1.46776e-12
1.21115e-12
8.89412e-13
8.72593e-13
7.73095e-13
8.22193e-13
6.73267e-13
1.22649e-12
1.13278e-12
1.2703e-12
1.01896e-12
9.90638e-13
1.00295e-12
1.22354e-12
2.14384e-13
2.07676e-13
2.08214e-13
1.74133e-13
1.87665e-13
2.11344e-13
5.49652e-13
1.50182e-13
1.7626e-13
1.7255e-13
1.44829e-13
1.14442e-13
1.10178e-13
1.0316e-13
0
0
4.84839e-16
2.48566e-16
2.46662e-14
6.63842e-18
0
0
3.03546e-19
3.59942e-16
2.65805e-16
5.43185e-15
2.76323e-16
0
0
1.21165e-15
1.07573e-15
8.37846e-16
7.27276e-16
3.00785e-16
0
0
1.33843e-12
2.45917e-15
4.87677e-16
8.2637e-16
4.59679e-13
0
0
1.52398e-15
6.1536e-16
3.94132e-16
4.28989e-16
7.95386e-16
0
0
0
1.22428e-16
8.4406e-17
4.60447e-16
1.86792e-14
0
0
0
2.02647e-16
1.18504e-16
5.04693e-15
7.04314e-18
0
0
0
2.82931e-15
1.72538e-16
2.17633e-13
0
0
0
0
2.94086e-17
3.36684e-17
3.61935e-14
0
0
0
1.41738e-14
1.74281e-15
1.36486e-17
2.68774e-16
0
0
0
1.3068e-11
1.60038e-14
2.3709e-17
1.48114e-15
8.48429e-13
0
0
1.90585e-14
2.71129e-16
4.1435e-18
4.29222e-17
0
0
0
0
4.08729e-19
3.2271e-17
3.64471e-15
1.06319e-13
0
0
0
8.2384e-17
2.08776e-16
3.36133e-14
1.61486e-16
0
0
0
2.35713e-14
3.74415e-16
6.90149e-13
0
0
0
0
8.81355e-17
3.69544e-17
6.30165e-14
0
0
0
9.06278e-14
1.79868e-15
2.1942e-17
1.82956e-15
0
0
0
2.96649e-11
4.51705e-14
2.89097e-17
2.65495e-15
3.20406e-13
0
0
8.88279e-14
9.65442e-16
7.74561e-18
9.67492e-17
0
0
0
0
2.5386e-19
9.90968e-17
1.15887e-14
0
0
0
0
8.21389e-16
4.85731e-16
5.62238e-14
0
0
0
0
1.00322e-17
5.07947e-21
4.28886e-19
0
0
0
0
1.21456e-18
1.06048e-20
1.2721e-16
1.18229e-13
0
0
2.5342e-19
5.61816e-20
6.93333e-20
2.22777e-17
7.66874e-15
0
0
7.45834e-15
2.03037e-17
3.82651e-20
1.07362e-18
3.75141e-17
0
0
4.12208e-18
1.46065e-18
4.09399e-21
2.02245e-18
0
0
0
0
1.77235e-18
1.17939e-20
1.14645e-18
3.04992e-19
0
0
0
6.24334e-20
4.73135e-20
4.86023e-18
0
0
3.36811e-18
1.31877e-19
5.54551e-22
6.15767e-25
2.41345e-22
1.98384e-19
1.83616e-18
7.26544e-18
3.71789e-19
1.12468e-21
1.24775e-24
4.06685e-21
6.12671e-18
6.89807e-18
7.98184e-18
1.83195e-18
2.04267e-21
3.08628e-24
6.31906e-22
8.68898e-19
4.51434e-17
4.39074e-17
2.5609e-17
1.09868e-20
1.02466e-23
9.26775e-23
1.66096e-19
5.19135e-17
8.63715e-18
1.28189e-18
5.0928e-22
1.04859e-24
4.79527e-22
5.84308e-19
2.33227e-16
9.4478e-18
1.87456e-19
5.72125e-22
1.48605e-24
5.18481e-22
1.919e-19
3.06143e-17
4.42125e-18
1.3454e-19
3.86537e-22
2.3482e-24
3.58402e-22
2.46209e-20
3.66818e-18
2.54573e-22
1.13627e-23
2.67724e-26
1.21313e-28
4.65377e-26
1.25963e-22
6.06028e-22
3.89433e-21
2.44041e-22
4.82715e-25
2.21011e-28
1.23691e-25
1.23332e-22
9.75011e-22
1.14256e-21
3.10941e-22
5.3766e-25
7.00509e-28
4.24621e-26
2.36928e-23
2.42647e-21
6.26085e-21
1.00022e-20
5.79079e-24
5.21385e-27
3.20701e-26
1.256e-23
9.35589e-21
4.87934e-22
9.56545e-23
3.75862e-25
6.50624e-28
3.95654e-25
6.63772e-23
4.85768e-20
6.46311e-22
2.58554e-23
6.49203e-26
2.89699e-28
8.93739e-26
4.43342e-23
1.3003e-20
1.32997e-21
1.33476e-23
3.04296e-26
6.37172e-29
6.58038e-27
1.60125e-24
3.4479e-22
1.57224e-26
1.56315e-27
1.01911e-30
2.65551e-33
3.38592e-30
3.22904e-27
2.78399e-26
2.37626e-25
4.04886e-27
4.83175e-29
1.30516e-32
1.06324e-29
4.56472e-27
2.74009e-26
6.59799e-26
1.11636e-26
5.58998e-29
9.71016e-32
2.70888e-30
7.47983e-28
9.11276e-26
9.33126e-25
2.96104e-25
6.82338e-28
2.33342e-30
1.08668e-29
2.03856e-27
2.97428e-24
3.63753e-26
4.48227e-27
4.60034e-29
4.25583e-31
1.23897e-28
2.06606e-26
1.63446e-23
2.05784e-25
2.56017e-27
6.0835e-30
2.02731e-32
8.05189e-30
2.93664e-27
1.36714e-24
1.21849e-25
5.4732e-27
1.35393e-29
2.94771e-33
2.98482e-31
1.31541e-28
2.19065e-25
1.1901e-29
1.22625e-31
5.10088e-34
7.49442e-37
5.07136e-34
7.82503e-32
1.31263e-30
7.73719e-30
9.85224e-32
1.04286e-33
2.64527e-36
5.48161e-34
6.29035e-32
8.64641e-31
2.59954e-30
3.87021e-31
2.43766e-33
1.82729e-35
1.98595e-34
1.84373e-32
3.76764e-30
3.56547e-29
7.30246e-30
3.38907e-32
3.85597e-34
1.04263e-33
1.39566e-31
8.08214e-29
3.92814e-30
1.51447e-31
1.9807e-33
7.55465e-35
1.0096e-32
1.06534e-30
9.30641e-28
1.55202e-29
1.68824e-31
2.09221e-33
1.26505e-35
8.60564e-34
2.08037e-31
8.41381e-29
8.99971e-30
1.65285e-31
5.94387e-34
1.62743e-36
9.68414e-36
4.38385e-32
2.42365e-29
7.2411e-34
2.87584e-36
2.26609e-38
3.87264e-40
1.09077e-38
1.63638e-36
5.86415e-35
1.26487e-33
2.56774e-36
5.21102e-38
1.37636e-39
1.65471e-38
8.78817e-37
7.07069e-35
3.05243e-34
6.46571e-36
9.02873e-38
1.39589e-39
9.01791e-39
4.14988e-37
6.6441e-35
5.61231e-34
1.23557e-34
8.3677e-37
2.03044e-38
5.44812e-38
4.84962e-36
1.98109e-33
2.33553e-34
4.78369e-36
7.73767e-38
8.31954e-39
3.67808e-37
3.27551e-35
1.83164e-32
6.88752e-34
4.51814e-36
1.24566e-37
4.42605e-39
6.04824e-38
6.79262e-36
3.87262e-33
4.13418e-33
7.26187e-36
1.60459e-37
5.22073e-39
1.08479e-38
8.19826e-37
7.60872e-34
6.42001e-36
3.8399e-37
2.24684e-38
4.98954e-40
1.5054e-39
3.17835e-38
5.20637e-37
2.80946e-36
8.22773e-38
1.85785e-39
3.61139e-41
1.16498e-40
6.3118e-39
2.09437e-37
5.91685e-39
4.14624e-40
6.14208e-41
1.63158e-42
5.45408e-42
1.27968e-40
4.69917e-39
6.6992e-39
1.59075e-39
6.82529e-41
4.23784e-42
4.49113e-41
7.30834e-40
3.30352e-38
9.16646e-39
7.31921e-40
1.79942e-40
1.68136e-41
5.08069e-40
1.22834e-38
2.60359e-37
1.49729e-36
5.63552e-38
4.62294e-39
3.44141e-40
1.10356e-38
4.89781e-37
1.61335e-35
4.84423e-35
3.27362e-36
1.93625e-37
5.07071e-39
2.78851e-38
4.3987e-37
6.72127e-36
0
0
5.62019e-14
1.03621e-16
3.33829e-13
0
0
0
0
0
5.96952e-19
1.97669e-15
0
0
0
0
2.73379e-16
1.21604e-17
1.67918e-14
3.19718e-14
0
0
0
3.552e-14
6.16205e-19
3.36731e-18
1.1563e-12
0
0
0
2.27189e-15
4.43525e-18
0
0
0
0
0
0
3.57498e-18
0
0
0
0
0
2.33518e-15
8.75888e-17
2.93595e-15
0
0
0
0
4.82403e-14
4.06789e-17
6.94795e-14
0
0
0
0
0
6.61507e-19
2.79685e-15
0
0
0
0
2.69299e-16
2.08922e-17
4.55367e-14
6.34352e-12
0
0
0
2.07051e-14
4.03385e-19
0
0
0
0
0
1.69705e-15
3.98781e-18
1.26869e-17
0
0
0
0
0
0
0
0
0
0
0
2.17554e-15
3.81263e-17
2.6353e-16
0
0
0
0
2.78454e-14
2.7937e-17
2.02352e-14
0
0
0
0
0
8.62739e-19
5.50824e-15
0
0
0
0
1.90442e-16
3.9827e-17
1.08662e-13
2.15891e-11
0
0
4.0375e-12
1.6794e-14
2.61734e-19
6.44306e-19
0
0
0
0
8.91098e-16
2.6716e-18
6.62749e-17
0
0
0
0
0
0
0
0
0
0
0
1.56023e-15
7.48979e-18
0
0
0
0
0
1.01662e-14
3.76941e-18
5.43378e-15
0
0
0
0
0
8.65585e-19
6.47691e-15
0
0
0
0
3.89518e-16
4.30158e-17
1.26762e-13
2.86893e-11
0
0
2.00265e-11
2.642e-14
2.18332e-19
2.51468e-18
9.41129e-13
0
0
0
7.36345e-16
8.5039e-19
0
0
0
0
0
0
0
0
0
0
0
0
1.16618e-15
4.11396e-18
0
0
0
0
0
3.00821e-15
1.47878e-18
1.26872e-15
0
0
0
0
7.39439e-18
5.37011e-19
5.7792e-15
0
0
0
0
1.14299e-15
3.20548e-17
9.982e-14
2.38661e-11
0
0
3.38005e-11
4.24108e-14
2.06647e-19
4.51992e-18
2.83925e-12
0
0
0
1.0074e-15
5.92783e-19
0
0
0
0
0
0
3.42936e-21
1.45765e-17
0
0
0
0
5.49034e-16
1.73343e-21
0
0
0
0
0
7.19483e-16
8.16309e-19
2.63837e-16
0
0
0
0
9.69198e-18
1.13234e-19
3.28764e-15
0
0
0
0
1.51525e-15
7.3938e-18
5.75852e-14
6.00555e-12
0
0
3.37569e-11
5.04739e-14
1.9773e-19
4.89665e-19
0
0
0
0
1.31641e-15
5.69862e-19
6.53139e-20
0
0
0
0
0
6.63346e-21
0
0
0
0
0
3.68465e-16
0
0
0
0
0
0
0
1.53625e-19
6.06259e-17
0
0
0
0
1.05978e-17
2.00731e-20
1.54554e-15
0
0
0
0
1.15393e-15
1.83064e-19
2.24297e-14
1.22526e-12
0
0
1.31656e-11
3.28342e-14
1.36495e-19
7.72698e-19
0
0
0
0
1.09444e-15
7.86667e-19
1.48449e-18
0
0
0
0
0
1.11896e-20
7.99304e-18
0
0
0
0
7.02062e-17
1.17503e-20
0
0
0
5.51138e-41
1.21361e-41
1.45838e-42
7.74916e-44
1.19469e-43
1.03072e-42
4.5896e-42
8.74986e-42
1.4471e-42
1.53023e-43
1.01962e-44
1.15359e-44
1.10818e-43
6.7429e-43
1.10972e-43
2.32036e-44
2.93437e-45
2.29205e-46
1.2877e-45
1.36285e-44
8.03689e-44
1.29216e-43
3.059e-44
2.91926e-45
1.98071e-46
6.30863e-45
9.05976e-44
7.41493e-43
1.79773e-43
3.88538e-44
5.69002e-45
4.01409e-45
6.78134e-44
9.9853e-43
5.00142e-42
4.9971e-42
1.19337e-42
2.13127e-43
1.04138e-43
1.11975e-42
9.02482e-42
5.01629e-41
4.25409e-40
1.15252e-40
1.42877e-41
1.14846e-42
1.67324e-42
1.31317e-41
5.76132e-41
1.39077e-45
4.99099e-46
1.09105e-46
1.29822e-47
6.34483e-48
4.20471e-47
1.18558e-46
8.10903e-47
3.25359e-47
1.24765e-47
1.40257e-48
6.3951e-49
2.32301e-48
6.26947e-48
4.36946e-48
3.48371e-48
8.67309e-49
9.27058e-50
3.04228e-49
1.31848e-48
2.79712e-48
5.10887e-48
3.65898e-48
1.26961e-48
2.4466e-49
2.57344e-48
1.2633e-47
2.99401e-47
7.27341e-48
7.46444e-48
3.48282e-48
2.50426e-48
2.38345e-47
1.1548e-46
2.03559e-46
5.85429e-47
8.60601e-47
6.31428e-47
2.66845e-47
7.94184e-47
2.16046e-46
5.11036e-46
1.14674e-44
4.76139e-45
1.27039e-45
2.00326e-46
1.09017e-46
5.73969e-46
1.50463e-45
5.21603e-47
1.14753e-47
2.4973e-48
1.69313e-49
1.49269e-49
9.23611e-49
4.53023e-48
2.62903e-51
1.66743e-49
1.09315e-49
1.1475e-50
5.09368e-51
1.01832e-50
7.96118e-52
2.12395e-52
5.99346e-51
5.6864e-51
5.37462e-52
2.90484e-52
3.61759e-52
1.24352e-52
2.31055e-52
8.83255e-52
7.06857e-52
1.55563e-52
3.3372e-52
8.36029e-52
1.38281e-51
5.26994e-52
5.7544e-50
5.42409e-50
1.20851e-50
9.4067e-51
1.43988e-50
1.1451e-50
6.2301e-51
1.31066e-48
9.05982e-49
1.77988e-49
1.28868e-49
2.10181e-49
3.61863e-50
2.2568e-46
6.19429e-47
1.46449e-47
2.44468e-48
2.42395e-48
9.06486e-48
3.1973e-47
3.79901e-48
1.00753e-48
2.41536e-49
1.22752e-50
1.15327e-50
6.31724e-50
3.03476e-49
3.84559e-52
1.87811e-50
1.37904e-50
1.09596e-51
5.38975e-52
8.49428e-52
2.07297e-53
1.39326e-53
9.21442e-52
9.79316e-52
7.21445e-53
3.28309e-53
3.57235e-53
5.36407e-55
4.79275e-54
1.66545e-52
1.67971e-52
1.41578e-53
1.23698e-53
1.8966e-53
1.20587e-54
1.52305e-52
1.18974e-50
1.50086e-50
1.16445e-51
1.17529e-51
1.52309e-51
5.02352e-53
3.19958e-51
2.00965e-49
1.93399e-49
2.0439e-50
2.10135e-50
2.96582e-50
3.00201e-51
1.88585e-47
7.31788e-48
2.92037e-48
2.09863e-49
3.4928e-49
1.12091e-48
3.00906e-48
3.43679e-49
1.70677e-49
5.2437e-50
2.75042e-51
2.14428e-51
9.12053e-51
2.26757e-50
2.19469e-52
5.69804e-51
4.14131e-51
3.47594e-52
1.51759e-52
2.48827e-52
6.96442e-54
1.19832e-53
3.29901e-52
2.59735e-52
1.90844e-53
8.60325e-54
1.32085e-53
3.21524e-55
3.79346e-54
7.36685e-53
4.24382e-53
4.30364e-54
3.20507e-54
6.53367e-54
5.62972e-55
1.27869e-52
5.19361e-51
3.11615e-51
2.54525e-52
2.46164e-52
5.19765e-52
2.56718e-53
2.57063e-51
7.88959e-50
5.16314e-50
4.08316e-51
4.92698e-51
9.18164e-51
7.59364e-52
3.65147e-48
1.9409e-48
6.05173e-49
3.41278e-50
6.47338e-50
2.37263e-49
3.69983e-49
8.73365e-50
4.33746e-50
9.46003e-51
5.20107e-52
3.12794e-52
1.50992e-51
4.3027e-51
2.5309e-51
2.92684e-51
1.03989e-51
6.4779e-53
2.99101e-53
1.04137e-52
1.07348e-52
8.30701e-53
1.51072e-52
4.75989e-53
3.25296e-54
1.32481e-54
5.18097e-54
2.71556e-54
1.07703e-53
2.89447e-53
1.09968e-53
7.96138e-55
7.80157e-55
2.06612e-54
9.66353e-55
8.1792e-52
2.23846e-51
5.76123e-52
4.24352e-53
4.53191e-53
1.73405e-52
8.22583e-53
2.79005e-50
4.06429e-50
1.0777e-50
8.27394e-52
9.76077e-52
3.63615e-51
2.84971e-51
7.74547e-49
5.75561e-49
9.38259e-50
7.79576e-51
1.04476e-50
5.84481e-50
7.9004e-50
1.5674e-50
4.45884e-51
6.62412e-52
5.82838e-53
2.55651e-53
1.49219e-52
6.33953e-52
1.2249e-51
4.44251e-52
9.4266e-53
6.27363e-54
3.44578e-54
1.52247e-53
4.53693e-53
2.65976e-53
2.73676e-53
4.90126e-54
3.66047e-55
1.6481e-55
5.60388e-55
1.6873e-54
5.92302e-54
4.09031e-54
1.64509e-54
2.20973e-55
1.18633e-55
2.2849e-55
2.29868e-55
2.8686e-52
1.9658e-52
9.3829e-53
9.57135e-54
7.89341e-54
2.34263e-53
2.312e-53
1.34493e-50
6.19982e-51
1.06916e-51
7.26596e-53
1.01742e-52
4.25921e-52
1.17093e-51
1.49395e-49
6.57179e-50
7.40259e-51
4.4243e-52
1.15244e-51
5.06231e-51
1.46668e-50
2.60017e-47
1.68587e-52
1.81527e-57
5.48933e-58
9.08799e-58
1.23336e-57
9.39928e-58
1.1966e-48
5.55304e-54
4.78276e-59
4.15786e-59
7.96901e-59
1.05164e-58
5.89877e-59
8.43193e-49
7.82811e-54
1.35454e-58
2.9565e-59
2.09355e-60
3.7781e-60
3.45791e-60
7.52402e-48
1.31816e-52
5.3063e-57
1.54208e-57
1.83373e-61
5.15635e-61
3.17256e-61
5.70611e-47
5.40083e-52
4.8612e-57
3.35918e-59
4.26306e-59
6.41313e-59
3.01939e-59
1.13002e-46
5.50327e-52
2.59744e-57
6.35452e-58
1.51523e-57
1.84691e-57
1.20255e-57
3.23231e-46
2.10142e-51
2.46119e-56
8.91628e-57
1.49511e-56
2.13386e-56
1.85069e-56
5.54928e-49
1.1173e-53
1.73879e-57
3.4983e-57
5.44625e-57
6.56676e-57
5.06309e-57
9.81147e-51
7.69657e-56
1.08336e-58
2.44794e-58
4.13177e-58
4.71656e-58
2.87509e-58
4.32699e-51
1.09823e-55
8.86506e-60
6.19819e-60
1.46142e-59
2.14563e-59
1.23821e-59
4.95548e-52
1.32037e-56
1.58364e-60
2.63062e-61
8.25725e-61
4.78371e-60
2.5112e-60
3.46081e-49
8.35081e-54
2.37592e-58
8.11781e-59
3.16399e-58
4.4635e-58
2.29668e-58
9.20719e-49
8.12406e-54
2.03892e-57
4.1442e-57
7.74436e-57
9.26668e-57
6.46724e-57
1.02076e-47
1.22475e-52
3.18563e-56
6.27052e-56
8.39403e-56
1.17602e-55
1.07486e-55
2.79345e-50
3.94453e-55
5.68899e-57
9.83444e-57
2.00817e-56
2.36595e-56
2.69039e-56
1.00458e-52
1.86952e-57
1.81835e-58
4.66184e-58
8.87459e-58
1.05678e-57
8.59145e-58
4.60335e-53
1.61179e-57
2.66015e-60
6.88861e-60
2.73431e-59
3.53869e-59
3.41199e-59
8.86184e-55
6.34631e-58
7.04238e-62
5.01832e-61
4.76146e-60
1.60917e-59
1.11064e-59
4.06932e-51
1.34469e-55
6.03251e-59
1.53612e-58
6.98605e-58
9.77031e-58
8.19281e-58
1.2916e-50
2.04345e-55
4.19531e-57
1.07854e-56
2.23973e-56
2.74663e-56
2.15076e-56
2.78917e-49
4.56155e-54
1.59287e-55
2.73543e-55
4.4973e-55
6.42235e-55
6.48322e-55
1.74069e-51
4.27772e-56
1.99755e-56
4.12604e-56
6.52247e-56
6.76181e-56
6.36897e-56
3.18719e-54
1.23684e-58
9.65149e-59
2.79998e-58
5.85296e-58
8.80914e-58
4.3117e-58
7.08014e-55
3.553e-59
1.01933e-60
2.50689e-60
9.75613e-60
1.67284e-59
8.49607e-60
1.65275e-55
3.20024e-59
1.19674e-61
8.11065e-61
5.25759e-60
1.18807e-59
7.89976e-60
6.94809e-53
3.18561e-57
2.53109e-59
6.88859e-59
3.12844e-58
5.04785e-58
4.90654e-58
5.6777e-52
1.46396e-56
2.35306e-57
7.19706e-57
1.62873e-56
2.61574e-56
1.81886e-56
1.47856e-50
8.65416e-55
5.00755e-55
1.04454e-54
1.96616e-54
2.13845e-54
2.39746e-54
1.2953e-52
5.60894e-56
1.90239e-55
5.15367e-55
4.78141e-55
2.42575e-55
2.13233e-55
1.01473e-55
6.76271e-59
2.43846e-58
6.72938e-58
6.31067e-58
2.35119e-58
1.4439e-58
1.04197e-56
1.01339e-60
7.56893e-62
1.84884e-61
4.3631e-61
6.2933e-61
1.58689e-60
2.82031e-57
1.25812e-60
1.46576e-62
5.39126e-62
1.56386e-61
4.02641e-61
5.84002e-61
1.1029e-54
9.42054e-59
1.81328e-60
4.82841e-60
1.15225e-59
1.58796e-59
2.90855e-59
3.98072e-53
3.78296e-57
4.59826e-57
1.47563e-56
1.53587e-56
5.30563e-57
3.29029e-57
1.30959e-51
1.08354e-54
3.79586e-54
1.01623e-53
7.67266e-54
4.02132e-54
4.536e-54
1.50149e-53
3.76191e-56
2.42336e-54
3.68108e-54
2.41236e-54
7.56526e-55
5.32409e-55
2.28272e-56
3.57648e-58
1.61204e-57
2.78361e-56
1.46225e-56
2.86963e-57
8.61455e-58
2.17195e-58
3.91379e-61
1.55356e-61
1.09897e-60
5.15156e-61
2.81452e-62
1.6719e-62
6.27596e-59
6.40235e-61
5.65246e-62
5.04551e-61
7.44362e-62
7.26597e-63
1.71057e-62
2.39989e-56
1.41314e-59
3.92709e-60
2.82013e-59
1.40652e-59
7.26697e-61
3.42752e-61
1.67484e-53
1.03324e-56
3.29471e-56
5.55713e-55
3.72547e-55
7.00203e-56
2.08229e-56
8.77814e-52
9.8681e-55
5.71425e-53
8.13235e-53
5.10411e-53
1.6372e-53
9.86455e-54
2.14998e-52
1.06821e-52
4.59724e-53
2.37316e-53
1.18992e-53
3.40275e-54
1.07726e-54
1.39523e-53
4.80064e-54
1.66739e-54
6.88693e-55
2.07163e-55
3.30143e-56
3.8198e-57
5.29881e-57
7.0901e-57
1.63825e-57
2.55253e-58
2.49514e-59
1.01854e-60
8.98426e-63
1.37408e-57
1.11922e-56
1.08831e-57
8.91107e-59
6.2175e-60
2.95958e-61
6.60207e-63
7.56809e-56
1.7493e-55
3.94949e-56
6.50442e-57
6.67036e-58
2.7484e-59
2.14316e-61
3.71918e-52
1.04585e-52
3.5244e-53
1.45859e-53
5.55571e-54
8.48551e-55
9.66824e-56
5.38247e-51
2.82016e-51
1.13981e-51
5.5457e-52
2.55614e-52
7.72092e-53
2.52268e-53
1.58904e-56
1.70782e-56
1.35354e-56
5.85414e-57
2.16252e-56
2.81411e-51
3.07249e-46
9.75357e-58
1.31187e-57
9.75457e-58
4.89824e-58
5.0776e-58
5.35855e-53
1.87474e-47
5.26712e-59
4.79413e-59
3.59374e-59
1.73034e-58
1.08629e-57
4.3183e-53
1.25243e-48
5.8468e-60
6.43421e-60
1.47662e-60
5.36767e-57
4.96503e-56
1.00552e-51
2.30683e-48
5.64069e-58
1.05741e-57
8.62711e-58
4.26124e-58
1.19276e-57
3.95808e-53
1.0477e-48
2.22813e-56
3.32859e-56
2.73946e-56
1.08236e-56
5.52466e-57
4.52363e-53
1.28079e-47
3.5432e-55
4.03909e-55
3.30311e-55
1.45226e-55
2.46684e-55
2.25731e-50
2.41284e-45
9.40894e-56
9.41557e-56
6.58948e-56
4.0692e-56
2.59703e-56
1.75539e-52
9.39159e-48
4.53974e-57
5.94248e-57
4.94545e-57
2.60146e-57
1.09821e-57
7.95046e-55
1.35347e-49
1.98379e-58
2.69512e-58
1.80768e-58
6.26244e-59
8.19038e-59
6.83185e-55
7.83974e-51
4.16783e-59
7.61664e-59
1.2315e-59
1.83572e-60
7.98555e-60
6.20009e-56
1.16792e-52
3.88711e-57
7.71663e-57
5.11614e-57
1.28122e-57
4.322e-58
6.25836e-55
6.41894e-51
1.10059e-55
1.58549e-55
1.34732e-55
7.40447e-56
3.02645e-56
9.53924e-55
1.17196e-49
2.01717e-54
2.37767e-54
1.87599e-54
1.14068e-54
5.06357e-55
8.35453e-52
5.02405e-47
3.34023e-55
3.03082e-55
2.45992e-55
1.07417e-55
6.11388e-56
7.6527e-54
2.36419e-49
1.09527e-56
1.31429e-56
1.06349e-56
4.80386e-57
1.82181e-57
1.76802e-56
1.35571e-51
3.29372e-58
3.71925e-58
2.57305e-58
6.04874e-59
2.49653e-59
1.29952e-56
9.77906e-53
1.49036e-58
1.8746e-58
4.81474e-59
5.10113e-60
5.28136e-61
3.75354e-58
5.6583e-56
1.18647e-56
1.17628e-56
8.11353e-57
1.76982e-57
5.50864e-58
1.26474e-56
7.03171e-53
3.0397e-55
3.44738e-55
2.81051e-55
1.32187e-55
4.87113e-56
5.74858e-56
1.38889e-51
9.20668e-54
7.95677e-54
6.42439e-54
2.79038e-54
1.57455e-54
4.7011e-53
2.51738e-48
1.42526e-54
1.22391e-54
1.14306e-54
7.0704e-55
3.31795e-55
8.12558e-55
1.11426e-50
1.11508e-56
1.47376e-56
8.93483e-57
3.84116e-57
1.1754e-57
1.41481e-57
3.80974e-53
3.0782e-58
3.16648e-58
1.5078e-58
3.09351e-59
1.15341e-59
4.53034e-58
1.44438e-54
5.91115e-59
1.20768e-58
5.05656e-59
7.83083e-60
1.20162e-60
3.42471e-59
6.09035e-57
3.39154e-57
5.28248e-57
2.89306e-57
6.76127e-58
2.54325e-58
5.90156e-58
1.07965e-54
1.83468e-55
2.98053e-55
1.85025e-55
8.08384e-56
2.79649e-56
1.4666e-56
6.34746e-53
2.32442e-53
2.26313e-53
1.95674e-53
9.92977e-54
4.84572e-54
6.583e-54
1.36048e-49
2.74507e-54
2.47839e-54
5.40949e-54
4.97478e-54
1.84956e-54
5.45749e-55
7.60256e-52
3.54374e-57
4.25666e-57
1.03939e-56
1.4886e-56
4.54221e-57
1.19179e-57
1.35812e-54
2.79543e-59
1.36966e-59
6.13555e-60
2.40758e-60
8.8994e-61
2.76194e-59
2.5051e-56
9.89741e-60
5.32468e-60
1.68506e-60
6.00191e-61
1.68725e-61
5.15874e-60
1.91957e-58
7.6422e-58
2.58332e-58
1.13046e-58
5.20268e-59
1.98879e-59
4.39069e-59
1.99672e-56
6.96685e-56
1.05484e-55
1.77563e-55
2.48811e-55
7.59549e-56
1.97004e-56
4.07567e-54
7.9879e-53
7.80485e-53
1.11822e-52
9.98032e-53
3.31908e-53
1.29958e-53
7.37959e-51
8.857e-54
1.08347e-53
3.18535e-53
5.7336e-53
5.88182e-53
6.9689e-55
1.80163e-52
1.32707e-56
5.00107e-56
2.56806e-55
4.81136e-55
2.89613e-56
7.55968e-57
4.3015e-55
3.17421e-61
6.461e-61
1.35897e-59
2.82868e-59
4.13444e-60
1.79264e-59
1.50372e-57
2.76442e-61
9.5387e-62
7.36309e-61
5.91476e-60
6.91526e-61
4.92918e-60
1.4801e-58
8.96352e-60
8.79972e-60
1.12914e-58
2.07828e-58
3.31526e-59
9.14722e-59
7.73381e-57
4.12856e-55
1.28732e-54
3.85119e-54
7.93942e-54
4.82891e-55
1.10971e-55
2.41554e-54
1.97481e-52
2.31174e-52
6.57968e-52
1.11529e-51
9.66821e-52
8.61964e-54
3.3006e-51
1.85037e-53
5.90443e-53
1.58717e-52
3.69597e-52
1.15569e-51
2.80696e-51
5.49262e-51
6.9019e-56
6.08147e-55
3.7342e-54
1.20623e-53
2.78944e-53
9.5608e-53
3.9571e-52
1.51799e-61
2.68862e-59
7.15719e-58
7.78395e-57
6.10609e-56
2.54721e-55
8.90628e-56
7.76508e-62
3.20978e-60
6.4425e-59
1.05049e-57
1.30037e-56
7.271e-56
1.26145e-56
4.04236e-60
2.23078e-58
5.069e-57
5.08864e-56
4.32693e-55
1.78348e-54
7.70357e-55
1.86581e-54
1.52544e-53
5.59449e-53
1.91971e-52
4.73365e-52
1.54752e-51
4.29381e-51
3.96347e-52
1.19992e-51
3.07225e-51
7.03379e-51
1.65482e-50
2.75593e-50
5.73668e-50
6.06916e-73
2.22453e-71
2.76558e-70
1.56391e-69
2.68272e-68
1.34598e-64
1.30037e-60
1.64443e-73
4.40343e-72
5.3813e-71
2.57172e-70
2.83331e-69
9.14381e-66
6.48746e-62
2.06744e-74
2.48531e-73
3.48621e-72
3.79512e-71
1.79896e-70
7.36774e-67
3.20245e-63
7.62448e-75
3.6002e-73
2.21191e-72
1.13232e-71
1.96794e-70
2.58352e-67
1.59764e-63
1.58695e-73
8.50067e-72
4.62704e-71
2.72511e-70
4.82774e-69
1.11307e-65
1.38791e-61
2.69807e-72
8.03671e-71
7.50516e-70
4.58179e-69
4.80135e-68
3.31864e-64
3.07819e-60
1.35951e-71
5.51965e-70
5.07397e-69
3.23931e-68
6.62521e-67
5.44839e-63
3.76523e-59
2.88448e-72
1.043e-70
9.62271e-70
7.88274e-69
9.557e-68
8.70782e-64
9.64522e-60
7.87804e-73
1.81831e-71
1.23678e-70
6.98694e-70
7.1825e-69
5.32925e-65
3.65308e-61
8.18708e-74
1.81692e-72
1.27217e-71
8.39824e-71
4.12837e-70
2.14819e-66
1.26448e-62
3.11843e-74
6.64223e-73
4.4836e-72
2.658e-71
1.64377e-70
6.66991e-67
3.62146e-63
1.20458e-72
2.83669e-71
2.33065e-70
1.34867e-69
8.98157e-69
5.5809e-65
4.35834e-61
1.59513e-71
3.45041e-70
3.55159e-69
1.8055e-68
1.66803e-67
1.32332e-63
1.34987e-59
8.75335e-71
2.74196e-69
2.23015e-68
1.87835e-67
2.09519e-66
2.37658e-62
2.8753e-58
1.20202e-71
2.61783e-70
2.42205e-69
1.9998e-68
4.94377e-67
5.67727e-63
4.17302e-59
2.36602e-72
3.625e-71
3.15962e-70
1.96391e-69
3.20364e-68
2.87257e-64
1.50761e-60
2.60479e-73
3.51762e-72
2.88554e-71
1.46691e-70
1.56626e-69
9.79149e-66
5.63898e-62
1.45073e-73
1.76262e-72
1.37587e-71
6.72769e-71
5.02e-70
2.25052e-66
1.41496e-62
6.77999e-72
8.99606e-71
8.4306e-70
4.20013e-69
3.61809e-68
1.85628e-64
1.47154e-60
5.20959e-71
1.33652e-69
1.41711e-68
7.2524e-68
7.21542e-67
4.78237e-63
5.44874e-59
3.4386e-70
1.2079e-68
1.23864e-67
7.79455e-67
9.8167e-66
8.76896e-62
1.86924e-57
2.33412e-71
5.4959e-70
8.52065e-69
7.30961e-68
9.72217e-67
1.09407e-62
2.05095e-58
4.81656e-72
7.98561e-71
9.00715e-70
5.78229e-69
7.98967e-68
4.8694e-64
3.06217e-60
4.68097e-73
6.61628e-72
6.70487e-71
3.20826e-70
2.7725e-69
1.50456e-65
5.318e-62
2.01567e-73
4.76594e-72
3.07576e-71
1.37935e-70
9.88797e-70
3.84563e-66
1.44793e-62
1.11379e-71
2.58414e-70
2.11891e-69
1.04225e-68
6.27723e-68
2.30646e-64
1.00745e-60
1.87421e-70
3.8743e-69
3.4115e-68
2.14237e-67
1.81048e-66
8.63217e-63
5.90428e-59
1.35613e-69
2.44095e-68
3.5458e-67
2.53211e-66
1.96907e-65
1.6806e-61
3.59951e-57
6.79945e-71
1.48429e-69
2.27144e-68
9.77395e-68
1.87204e-66
1.20569e-62
2.80927e-58
8.6693e-72
1.50253e-70
2.03001e-69
9.90572e-69
1.62648e-67
4.30467e-64
1.53325e-60
7.18381e-73
1.11391e-71
1.19057e-70
4.38221e-70
6.92195e-69
9.89266e-66
2.92758e-62
5.91142e-73
6.77761e-72
3.94941e-71
2.16853e-70
2.62132e-69
4.07654e-66
4.30513e-63
4.02621e-71
4.42741e-70
3.17931e-69
1.77573e-68
1.67715e-67
2.35648e-64
3.64212e-61
4.10772e-70
7.54524e-69
6.96756e-68
3.72768e-67
3.39806e-66
9.65081e-63
3.49386e-59
3.11664e-69
6.66139e-68
6.41066e-67
3.51977e-66
4.47447e-65
2.62771e-61
5.94134e-57
1.24231e-70
2.12694e-69
2.89561e-68
1.20996e-67
2.21372e-66
1.07453e-62
3.71965e-58
1.30375e-71
2.03262e-70
2.71366e-69
1.27605e-68
1.82432e-67
2.58563e-64
5.89022e-61
6.56201e-73
6.97229e-72
7.14147e-71
2.81965e-70
5.32681e-69
4.86687e-66
3.71696e-63
4.49407e-73
6.18374e-72
3.86001e-71
1.48651e-70
1.71589e-69
8.57346e-67
6.94473e-64
2.60357e-71
3.37837e-70
3.39485e-69
1.60072e-68
1.23069e-67
1.18953e-64
5.40183e-62
5.19614e-70
9.3265e-69
1.03753e-67
5.37508e-67
3.83839e-66
5.79476e-63
1.52386e-59
3.86192e-69
1.15016e-67
1.27098e-66
6.14717e-66
5.85787e-65
2.33251e-61
7.18148e-57
1.38113e-70
2.49595e-69
3.55081e-68
1.33912e-67
2.39885e-66
5.79016e-63
3.15202e-58
1.48603e-71
2.57986e-70
3.16877e-69
1.45129e-68
1.7845e-67
2.08887e-64
1.68892e-60
1.10712e-72
1.50447e-71
1.25722e-70
1.86145e-70
4.89032e-69
7.46763e-66
1.01998e-62
8.37313e-73
8.11467e-72
6.23375e-71
8.79989e-71
2.14698e-69
3.21854e-65
2.80224e-63
6.84865e-71
6.42224e-70
5.23216e-69
8.61813e-69
1.13468e-67
1.66878e-64
2.72584e-61
5.29937e-70
1.04772e-68
1.16846e-67
6.64654e-67
4.31226e-66
4.4675e-63
3.93237e-59
5.14346e-69
1.32911e-67
1.609e-66
7.87845e-66
7.93e-65
1.17336e-61
6.40718e-57
3.32434e-76
5.82716e-75
5.13239e-72
1.52619e-67
2.22108e-66
3.47089e-65
7.45972e-64
1.97151e-77
3.53402e-76
1.78353e-74
6.59074e-72
8.76536e-72
1.1177e-68
1.54099e-66
9.56226e-75
1.22054e-73
8.72279e-73
5.13524e-72
1.18886e-70
2.60833e-67
2.70381e-64
6.10434e-74
6.33008e-73
4.12026e-72
1.40249e-71
8.07215e-70
9.89293e-67
1.39838e-64
5.59093e-73
5.4841e-72
3.47279e-71
2.7804e-70
2.48288e-69
6.06097e-66
7.33999e-63
8.99266e-76
1.49646e-74
1.10834e-72
6.87962e-70
3.68566e-70
2.75904e-67
4.28375e-65
1.68692e-74
3.33273e-73
4.10319e-70
9.26823e-66
9.29654e-65
1.49938e-63
2.26012e-62
1.2051e-78
8.86661e-77
4.80401e-75
2.62353e-73
4.63849e-72
6.1252e-71
1.37375e-69
4.72643e-81
4.00629e-79
8.78814e-78
2.91493e-76
5.87901e-75
1.79878e-73
7.09702e-72
1.38634e-76
2.28873e-75
9.50818e-74
5.07285e-72
5.58178e-70
4.02495e-68
5.05316e-66
3.52269e-75
3.7402e-74
2.537e-73
1.93183e-72
1.01887e-70
2.6894e-68
6.97266e-66
7.7785e-75
9.34779e-74
2.83144e-72
1.44132e-70
1.57383e-68
1.15398e-66
1.46578e-64
2.07766e-79
1.69888e-77
3.37264e-76
9.1937e-75
1.60061e-73
4.8286e-72
1.88851e-70
4.08104e-77
3.45604e-75
1.92744e-73
1.36896e-71
1.55033e-70
2.32128e-69
3.02136e-68
2.04248e-84
1.29219e-82
6.61467e-81
2.9272e-79
5.68589e-78
8.03601e-77
1.60699e-75
3.78747e-84
8.71201e-83
5.78653e-81
3.73354e-79
3.95727e-77
2.29787e-75
2.16671e-73
3.41986e-78
8.20811e-77
5.50725e-75
3.68148e-73
3.78212e-71
2.02335e-69
2.1619e-67
2.63768e-76
2.72824e-75
1.95088e-74
1.59513e-73
7.18798e-72
9.51901e-70
2.25162e-67
3.42754e-76
2.41364e-75
1.01077e-73
7.60781e-72
9.37796e-70
4.10438e-68
3.31045e-66
3.62025e-82
2.64901e-81
1.1711e-79
8.00447e-78
9.53534e-76
4.51749e-74
3.3656e-72
6.04013e-83
5.48982e-81
3.70153e-79
1.55722e-77
1.89771e-76
3.04594e-75
5.18839e-74
2.18417e-90
1.26935e-88
7.12653e-87
4.18499e-85
1.07316e-83
2.07904e-82
1.24668e-80
1.99066e-85
2.21112e-84
1.55686e-82
1.05838e-80
1.02175e-78
6.3092e-77
4.99599e-75
1.73102e-79
2.10721e-78
1.39914e-76
9.30929e-75
9.40766e-73
5.7466e-71
5.0646e-69
2.27914e-77
2.11037e-76
1.59708e-75
1.21417e-74
3.93056e-73
3.85809e-71
8.34069e-69
8.52936e-78
1.20429e-76
3.09241e-75
3.78962e-73
2.40334e-71
1.1507e-69
7.93241e-68
8.43182e-84
1.30167e-82
4.25077e-81
4.33178e-79
2.53048e-77
1.24645e-75
7.84704e-74
7.1172e-89
5.87607e-87
3.85166e-85
2.17036e-83
2.99813e-82
7.4976e-81
1.985e-79
1.60778e-92
2.31406e-91
2.8775e-89
3.17629e-86
1.13933e-84
2.24884e-83
4.17084e-82
8.03788e-87
1.04887e-85
7.26111e-84
4.94531e-82
4.32223e-80
2.4701e-78
2.16359e-76
8.02893e-81
1.04327e-79
6.73961e-78
4.59176e-76
3.8959e-74
2.19517e-72
2.22875e-70
3.74452e-78
2.92079e-77
2.3355e-76
1.65218e-75
3.56028e-74
2.37255e-72
6.3716e-70
3.42129e-79
6.39974e-78
1.89803e-76
2.10652e-74
1.08892e-72
4.7318e-71
3.46692e-69
3.23705e-85
6.5367e-84
2.59266e-82
2.40535e-80
1.21566e-78
5.4555e-77
3.6813e-75
6.21964e-91
1.53613e-89
9.85588e-88
3.23583e-85
3.38288e-82
1.40733e-81
7.16746e-81
7.97792e-94
1.06133e-92
8.75258e-91
4.2505e-89
2.29244e-87
1.92842e-85
2.02133e-83
4.34505e-88
6.03118e-87
4.59671e-85
3.04241e-83
2.30243e-81