/*--------------------------------*- C++ -*----------------------------------*\
  =========                 |
  \\      /  F ield         | OpenFOAM: The Open Source CFD Toolbox
   \\    /   O peration     | Website:  https://openfoam.org
    \\  /    A nd           | Version:  6
     \\/     M anipulation  |
\*---------------------------------------------------------------------------*/
FoamFile
{
    version     2.0;
    format      ascii;
    class       surfaceScalarField;
    location    "0.0025";
    object      phi;
}
// * * * * * * * * * * * * * * * * * * * * * * * * * * * * * * * * * * * * * //

dimensions      [1 0 -1 0 0 0 0];

internalField   nonuniform List<scalar> 
10143
(
-4.51757e-07
-3.56244e-05
2.45016e-05
-1.10642e-07
-3.47345e-05
2.17938e-05
6.65278e-07
-3.46792e-05
2.1309e-05
8.82942e-07
-3.47582e-05
2.19921e-05
8.16165e-07
-3.48396e-05
2.22665e-05
7.60871e-07
-3.52403e-05
2.26473e-05
-3.63148e-05
2.53753e-05
1.10148e-06
-3.64178e-05
1.13671e-05
1.04394e-06
-3.68371e-05
1.34923e-05
-2.0625e-07
-3.69791e-05
1.49045e-05
-4.39982e-07
-3.65399e-05
1.31616e-05
-1.05295e-07
-3.64942e-05
1.25529e-05
-7.78775e-07
-3.69364e-05
1.3766e-05
-3.64142e-05
1.11586e-05
3.5732e-07
-1.79161e-05
1.04213e-05
5.77977e-07
-1.84832e-05
1.09506e-05
-3.33898e-07
-1.91263e-05
1.24673e-05
1.51823e-07
-1.89656e-05
1.13485e-05
8.28307e-07
-1.89088e-05
1.12168e-05
-5.38819e-07
-1.90629e-05
1.30726e-05
-1.79785e-05
1.02809e-05
-1.58473e-07
1.82079e-05
5.94186e-06
5.55637e-07
1.8723e-05
3.85823e-06
5.33765e-08
1.94051e-05
3.79078e-06
-1.51892e-06
1.93427e-05
5.23978e-06
-2.01536e-06
1.91928e-05
4.40836e-06
-7.59767e-07
1.94506e-05
2.15308e-06
1.84455e-05
4.90112e-06
-4.80669e-08
3.68236e-05
1.05936e-05
-1.67016e-08
3.69474e-05
1.12147e-05
-4.38125e-07
3.74464e-05
1.17766e-05
-5.51191e-08
3.70392e-05
1.12862e-05
7.10968e-07
3.69449e-05
1.08221e-05
-5.76164e-07
3.74702e-05
1.26876e-05
3.69422e-05
1.01022e-05
6.34283e-07
3.64755e-05
1.1521e-05
9.69179e-07
3.54914e-05
1.23912e-05
-3.91305e-07
3.568e-05
1.45874e-05
-4.88945e-07
3.55899e-05
1.27039e-05
-3.24896e-07
3.54749e-05
1.26548e-05
-9.94629e-07
3.5552e-05
1.42196e-05
3.66597e-05
1.12087e-05
-5.41016e-07
2.55525e-05
-4.59173e-07
2.30894e-05
-1.79253e-07
2.30002e-05
-5.82491e-07
2.37683e-05
-2.90007e-07
2.28754e-05
6.10541e-07
2.21286e-05
2.58109e-05
-1.35032e-06
-2.20506e-05
2.63126e-05
-5.38652e-07
-2.3319e-05
2.26431e-05
4.0074e-07
-2.26565e-05
2.09683e-05
9.57967e-07
-2.26875e-05
2.21577e-05
1.11429e-06
-2.33434e-05
2.379e-05
1.22783e-06
-2.42168e-05
2.54937e-05
-2.28233e-05
2.7841e-05
1.39457e-06
-2.63324e-05
8.08961e-06
5.0028e-07
-2.67782e-05
1.1773e-05
-2.35071e-07
-2.7405e-05
1.46731e-05
2.81634e-07
-2.76754e-05
1.18034e-05
4.34249e-07
-2.74837e-05
1.04735e-05
-5.71807e-07
-2.70401e-05
1.1332e-05
-2.66818e-05
7.72197e-06
8.20795e-07
-1.44672e-05
1.13868e-05
7.0605e-07
-1.25043e-05
1.02449e-05
-1.46691e-07
-1.38779e-05
1.32391e-05
6.06489e-07
-1.52105e-05
1.15751e-05
1.01373e-06
-1.4344e-05
1.11517e-05
-4.47039e-07
-1.2942e-05
1.41038e-05
-1.44395e-05
1.17356e-05
-4.68097e-07
1.36738e-05
4.44911e-06
8.99424e-07
1.33184e-05
2.70321e-06
2.62133e-07
1.48345e-05
1.80029e-06
-1.90988e-06
1.47106e-05
3.72096e-06
-2.51732e-06
1.46074e-05
2.33549e-06
-4.82697e-07
1.33495e-05
3.71858e-08
1.4164e-05
2.14907e-06
2.11197e-07
2.63729e-05
1.08761e-05
-8.42468e-08
2.78401e-05
1.02763e-05
-2.98507e-07
2.82789e-05
1.18937e-05
3.32606e-07
2.78071e-05
1.08667e-05
8.89765e-07
2.78491e-05
1.03595e-05
-5.17958e-07
2.7535e-05
1.34063e-05
2.65979e-05
1.11177e-05
6.91887e-07
2.2853e-05
8.52553e-06
6.17749e-07
2.34647e-05
1.10228e-05
-3.85127e-07
2.35297e-05
1.4594e-05
2.43582e-07
2.34332e-05
1.02296e-05
2.49706e-07
2.31996e-05
1.14194e-05
-8.10302e-07
2.4144e-05
1.25875e-05
2.2882e-05
7.5311e-06
-1.05241e-06
2.81185e-05
-1.18581e-06
2.50671e-05
-2.37693e-07
2.40887e-05
-6.44374e-07
2.66271e-05
-1.30948e-07
2.40496e-05
1.10693e-06
2.37681e-05
2.83453e-05
-2.26114e-06
-1.60417e-05
1.97311e-05
-4.66014e-07
-2.10633e-05
1.79398e-05
5.05864e-07
-2.0182e-05
1.55204e-05
1.17082e-06
-1.92411e-05
1.54642e-05
1.48778e-06
-2.002e-05
1.89867e-05
1.65752e-06
-2.00866e-05
2.1194e-05
-1.70678e-05
2.17585e-05
2.14785e-06
-2.53075e-05
8.90565e-06
4.71464e-07
-2.49732e-05
1.04154e-05
-3.23421e-07
-2.57065e-05
1.43612e-05
3.41412e-07
-2.74114e-05
1.35396e-05
-1.25497e-07
-2.44548e-05
8.73819e-06
-1.09681e-06
-2.38964e-05
8.75966e-06
-2.40462e-05
7.09599e-06
8.72843e-07
-1.38292e-05
1.27761e-05
5.59281e-07
-1.02788e-05
9.62694e-06
-9.49376e-08
-1.21063e-05
1.39923e-05
6.51227e-07
-1.58852e-05
1.28937e-05
9.20148e-07
-1.2648e-05
1.27189e-05
-3.306e-07
-9.80582e-06
1.51243e-05
-1.22731e-05
1.32757e-05
-7.94001e-07
1.20821e-05
5.34393e-06
8.32256e-07
1.07019e-05
6.09271e-06
4.85512e-07
1.25695e-05
3.47308e-06
-2.15773e-06
1.32736e-05
3.29091e-06
-2.78653e-06
1.27589e-05
3.71273e-06
-2.8866e-07
1.05227e-05
3.39427e-06
1.18984e-05
3.92931e-06
2.94647e-07
2.42314e-05
1.19565e-05
-1.87715e-07
2.55197e-05
9.7057e-06
-2.58027e-07
2.48867e-05
1.31484e-05
3.7112e-07
2.48377e-05
1.21423e-05
8.16851e-07
2.47457e-05
1.14477e-05
-3.88805e-07
2.50883e-05
1.37693e-05
2.40221e-05
1.21756e-05
9.48666e-07
1.66464e-05
8.65021e-06
6.51551e-07
1.96535e-05
1.00275e-05
-5.8476e-07
2.01911e-05
1.38401e-05
6.75859e-07
1.66945e-05
1.06051e-05
-2.61137e-07
1.97833e-05
1.07632e-05
-1.39657e-06
2.21026e-05
9.52878e-06
1.69926e-05
6.65071e-06
-1.53373e-06
2.15177e-05
-1.43041e-06
2.0462e-05
2.03508e-07
1.81845e-05
-1.12136e-06
1.91991e-05
2.62192e-08
1.79878e-05
1.7401e-06
2.07177e-05
2.24266e-05
-2.82831e-06
-1.65891e-05
1.47947e-05
-4.18059e-07
-2.44327e-05
1.58594e-05
4.20226e-07
-2.32664e-05
1.51939e-05
1.67042e-06
-2.34999e-05
1.48431e-05
1.8052e-06
-2.03071e-05
1.49503e-05
1.86744e-06
-1.99119e-05
1.71065e-05
-1.71181e-05
1.62734e-05
2.56667e-06
-2.55855e-05
8.86622e-06
5.2216e-07
-2.60193e-05
7.87435e-06
-1.86044e-07
-2.58476e-05
1.018e-05
-1.75016e-07
-2.72337e-05
9.82614e-06
-6.36983e-07
-2.56835e-05
7.92756e-06
-1.25703e-06
-2.49757e-05
8.17903e-06
-2.48365e-05
7.03134e-06
7.88555e-07
-1.2639e-05
1.26564e-05
5.30592e-07
-1.21895e-05
1.00142e-05
3.1357e-08
-1.21061e-05
1.45192e-05
7.55994e-07
-1.49304e-05
1.39481e-05
9.51278e-07
-1.38134e-05
1.42565e-05
-3.06156e-07
-9.88873e-06
1.41605e-05
-1.12914e-05
1.28947e-05
-6.08471e-07
1.23097e-05
6.96926e-06
5.2091e-07
1.15928e-05
7.14167e-06
4.22634e-07
1.32671e-05
4.15029e-06
-2.13933e-06
1.47825e-05
2.16969e-06
-2.79954e-06
1.34111e-05
3.22252e-06
-3.33708e-07
1.07333e-05
6.4068e-06
1.15201e-05
6.97866e-06
2.41491e-07
2.48897e-05
1.25858e-05
-1.03052e-07
2.48692e-05
1.06058e-05
-1.84514e-07
2.62999e-05
1.37613e-05
4.10378e-07
2.66644e-05
1.31283e-05
8.01664e-07
2.58479e-05
1.21372e-05
-2.51744e-07
2.58097e-05
1.25519e-05
2.50522e-05
1.18327e-05
1.27759e-06
1.67951e-05
8.8416e-06
6.12935e-07
1.92033e-05
8.56499e-06
-7.18161e-07
2.2804e-05
1.16141e-05
8.8654e-07
1.72604e-05
1.17971e-05
-1.04959e-06
2.27758e-05
8.74772e-06
-1.51335e-06
2.18946e-05
7.77005e-06
1.70184e-05
6.65309e-06
-1.70491e-06
1.56499e-05
-1.65001e-06
1.57663e-05
3.35391e-07
1.60183e-05
-1.3437e-06
1.3356e-05
6.17365e-07
1.57081e-05
1.84867e-06
1.80473e-05
1.69654e-05
-2.98488e-06
-1.62776e-05
9.62936e-06
-2.75554e-07
-2.28434e-05
1.39787e-05
2.20014e-07
-2.17077e-05
1.36121e-05
1.75174e-06
-2.2974e-05
1.36748e-05
2.16531e-06
-2.06208e-05
1.15787e-05
1.95856e-06
-1.85592e-05
1.17637e-05
-1.68762e-05
1.06582e-05
2.60666e-06
-2.62371e-05
9.52906e-06
1.80365e-07
-2.66745e-05
5.88542e-06
-3.30176e-08
-2.55922e-05
7.45883e-06
-3.09067e-07
-2.69703e-05
7.45482e-06
-9.54475e-07
-2.67291e-05
8.22328e-06
-1.26032e-06
-2.61011e-05
9.42739e-06
-2.65051e-05
8.75508e-06
8.67679e-07
-1.35399e-05
1.27237e-05
5.43909e-07
-1.37204e-05
1.12304e-05
2.33003e-07
-1.22453e-05
1.41687e-05
8.85138e-07
-1.42978e-05
1.342e-05
7.13304e-07
-1.26289e-05
1.31664e-05
-2.99103e-07
-1.09553e-05
1.28419e-05
-1.28449e-05
1.24699e-05
-5.72435e-07
1.2549e-05
7.38462e-06
1.29297e-07
1.25077e-05
6.14052e-06
1.14608e-07
1.31848e-05
4.64285e-06
-1.97677e-06
1.34945e-05
2.48153e-06
-2.23537e-06
1.34009e-05
3.51955e-06
-3.36626e-07
1.27902e-05
6.80747e-06
1.31796e-05
6.76124e-06
2.54579e-07
2.5863e-05
1.24771e-05
-1.98928e-07
2.59221e-05
1.1301e-05
-5.73505e-08
2.66424e-05
1.39935e-05
3.89523e-07
2.6534e-05
1.32858e-05
4.95013e-07
2.6359e-05
1.16539e-05
-2.00994e-07
2.69867e-05
1.18624e-05
2.64974e-05
1.18342e-05
1.40354e-06
1.70431e-05
9.35819e-06
3.49423e-07
1.96799e-05
7.63256e-06
-3.12962e-07
2.12293e-05
9.77246e-06
4.73998e-07
2.00966e-05
9.4452e-06
-1.66886e-06
2.25945e-05
7.90194e-06
-1.28547e-06
1.87567e-05
8.90831e-06
1.68652e-05
8.26078e-06
-1.71658e-06
1.02167e-05
-1.55562e-06
1.2215e-05
-1.77302e-07
1.27052e-05
-9.8192e-07
1.12611e-05
1.22196e-06
1.34849e-05
1.60734e-06
1.28785e-05
1.12451e-05
-2.62177e-06
-1.80385e-05
6.01818e-06
-5.45784e-08
-2.26203e-05
1.17755e-05
1.49909e-07
-2.13182e-05
8.97582e-06
1.44432e-06
-2.17224e-05
1.09326e-05
1.97895e-06
-2.17193e-05
9.82927e-06
2.05907e-06
-2.0294e-05
8.69691e-06
-1.80724e-05
6.24296e-06
2.02164e-06
-2.80396e-05
1.10822e-05
-1.38509e-07
-2.75647e-05
6.14958e-06
2.95639e-07
-2.79147e-05
9.30512e-06
-4.97993e-08
-2.80754e-05
7.72559e-06
-1.20905e-06
-2.67229e-05
7.66246e-06
-1.10236e-06
-2.75824e-05
9.85512e-06
-2.75659e-05
1.07322e-05
1.19435e-06
-1.56572e-05
1.28885e-05
3.81106e-07
-1.37314e-05
1.10407e-05
3.68014e-07
-1.334e-05
1.22726e-05
8.06443e-07
-1.41463e-05
1.18654e-05
5.10095e-07
-1.19125e-05
1.13733e-05
-2.27619e-07
-1.27737e-05
1.16706e-05
-1.40369e-05
1.23165e-05
-8.41033e-07
1.42418e-05
4.25742e-06
-6.39142e-08
1.24947e-05
5.06403e-06
-2.19404e-07
1.29222e-05
4.48721e-06
-1.80263e-06
1.2392e-05
3.52713e-06
-1.67366e-06
1.24893e-05
5.07234e-06
-5.03184e-07
1.44234e-05
4.45466e-06
1.45445e-05
3.79278e-06
5.61478e-07
2.76665e-05
1.20559e-05
-3.79836e-07
2.76317e-05
9.64475e-06
6.10231e-08
2.67556e-05
1.24226e-05
1.38959e-07
2.68291e-05
1.1443e-05
2.42172e-07
2.59686e-05
1.07385e-05
-1.42203e-07
2.86069e-05
1.1979e-05
2.77316e-05
1.21142e-05
1.07882e-06
1.85903e-05
1.07459e-05
1.36839e-07
2.20685e-05
8.61341e-06
8.59465e-08
2.05698e-05
9.17756e-06
2.65833e-07
2.18256e-05
9.28744e-06
-1.75907e-06
2.28437e-05
5.45467e-06
-8.41106e-07
2.00632e-05
1.02334e-05
1.81297e-05
1.04788e-05
-1.55465e-06
6.19778e-06
-1.29906e-06
1.00613e-05
-4.61827e-07
9.23078e-06
-6.80466e-07
8.19098e-06
1.29908e-06
1.27742e-05
1.33617e-06
7.81515e-06
6.506e-06
-1.90917e-06
-1.86186e-05
-3.03249e-07
-1.90524e-05
4.1436e-07
-1.87544e-05
1.31561e-06
-1.81062e-05
1.63903e-06
-1.84612e-05
1.925e-06
-1.90981e-05
-1.87221e-05
1.51935e-06
-2.46884e-05
3.17192e-07
-2.48744e-05
4.26048e-07
-2.47806e-05
1.93781e-07
-2.46927e-05
-1.04787e-06
-2.42511e-05
-6.94594e-07
-2.44968e-05
-2.42294e-05
1.3689e-06
-1.0144e-05
2.02585e-07
-9.85809e-06
6.01606e-07
-9.99114e-06
8.08058e-07
-1.01782e-05
5.14327e-07
-9.68544e-06
-1.37388e-07
-9.25586e-06
-9.08178e-06
-7.84988e-07
1.04283e-05
-1.03483e-07
1.00092e-05
-4.15462e-07
1.03332e-05
-1.66192e-06
1.01994e-05
-1.83288e-06
1.11601e-05
-7.77497e-07
9.80038e-06
9.55804e-06
6.12375e-07
2.48032e-05
-3.77191e-07
2.39346e-05
2.4574e-07
2.49321e-05
1.60218e-07
2.45729e-05
4.79696e-07
2.48404e-05
-4.86523e-08
2.51165e-05
2.45673e-05
7.38592e-07
1.91048e-05
1.27036e-07
1.75905e-05
5.33908e-07
1.88429e-05
-2.88561e-07
1.9172e-05
-1.26384e-06
1.73841e-05
-5.28081e-07
1.92675e-05
1.88825e-05
-1.18296e-06
-1.33324e-06
-7.49438e-07
-3.59572e-08
5.48152e-07
1.14067e-06
-1.11638e-06
-0.000501414
-0.000935171
-1.69234e-06
-0.000501912
-0.000935263
-1.17664e-06
-0.000502025
-0.000937252
-3.73822e-07
-0.000502442
-0.000938297
7.91531e-07
-0.000502551
-0.000939134
1.54289e-06
-0.000502108
-0.000939763
-0.000502882
-0.000939518
1.87782e-06
-0.000561688
-0.00194443
5.21766e-06
-0.000560847
-0.00194521
6.32138e-06
-0.000559819
-0.00194739
7.198e-06
-0.000558697
-0.00194868
7.6524e-06
-0.000558617
-0.00195069
5.09427e-06
-0.000557865
-0.00194978
-0.000556712
-0.00195025
2.69412e-06
-0.00025224
-0.00240882
-8.16412e-07
-0.000248371
-0.00240759
-1.33343e-07
-0.000250149
-0.00240784
3.05724e-07
-0.000252133
-0.00240825
-7.031e-07
-0.000252865
-0.00240791
-1.65897e-06
-0.000254118
-0.00240814
-0.000256298
-0.002408
-3.25223e-06
0.000288401
-0.00255626
-1.01423e-08
0.000286875
-0.00255529
9.14196e-07
0.00028633
-0.00255572
1.07717e-06
0.000285546
-0.00255622
1.90844e-06
0.000284368
-0.00255688
1.99143e-06
0.000282974
-0.00255688
0.000283868
-0.00255673
7.29859e-06
0.00057595
-0.00240016
7.31461e-06
0.000577832
-0.00239932
4.5819e-06
0.000579253
-0.00239858
1.94153e-06
0.00057808
-0.0023986
-7.24069e-08
0.000577227
-0.0024005
-2.24094e-06
0.000578498
-0.00240169
0.000579944
-0.00240494
-5.14718e-06
0.000513944
-0.00196418
-7.03966e-06
0.000513908
-0.00196298
-8.59471e-06
0.000514503
-0.00195884
-8.12049e-06
0.00051386
-0.00195911
-6.57076e-06
0.000513314
-0.00195694
-3.22325e-06
0.000512709
-0.00195421
0.000511943
-0.0019516
-3.96835e-06
-0.000939129
-3.54203e-06
-0.000940989
-3.75669e-06
-0.00093868
-3.65173e-06
-0.000938652
-2.91986e-06
-0.000938306
-1.59179e-06
-0.000937394
-0.000935536
-1.27273e-06
-0.000465896
-0.00185709
-1.77707e-06
-0.000470906
-0.00185641
-4.11994e-06
-0.000466747
-0.00185823
-1.05231e-06
-0.000469413
-0.00186058
-5.88524e-07
-0.000471307
-0.00186094
3.83868e-06
-0.000470206
-0.00186139
-0.000471455
-0.00186095
-1.13085e-06
-0.00053814
-0.00387049
3.56253e-06
-0.000534897
-0.00386195
1.28616e-06
-0.000536559
-0.00387017
3.4381e-06
-0.000535126
-0.00386549
4.25003e-06
-0.000533819
-0.00386698
3.45031e-06
-0.000533487
-0.00386931
-0.000531367
-0.00386891
5.92928e-06
-0.000221598
-0.00475461
-4.5684e-06
-0.000222808
-0.00475846
7.77563e-07
-0.000224134
-0.00475649
-5.41745e-07
-0.000226345
-0.00476246
-3.9243e-06
-0.000230023
-0.0047604
-4.22189e-06
-0.000232201
-0.00475884
-0.000233705
-0.00476035
-2.32174e-06
0.000277557
-0.00500446
7.95292e-07
0.000276465
-0.00500458
-7.35587e-07
0.000271461
-0.00500601
3.84226e-07
0.000270828
-0.00500717
4.06583e-06
0.000268776
-0.00500744
3.45778e-06
0.000266301
-0.00500584
0.000265768
-0.00500216
1.04024e-05
0.000540938
-0.00473518
1.02287e-05
0.000547119
-0.00473701
3.36655e-06
0.000549505
-0.00473807
-4.04976e-06
0.000549482
-0.00474028
-6.49973e-06
0.000550616
-0.00474289
-8.8864e-06
0.000552255
-0.00474385
0.000555723
-0.00474525
-1.30104e-06
0.000482013
-0.00385404
-5.11711e-06
0.000480637
-0.00385759
-7.81674e-06
0.000481667
-0.00385911
-5.40219e-06
0.000481492
-0.00385924
-6.56392e-06
0.000481947
-0.00385955
1.62998e-07
0.00048046
-0.00386175
0.000477436
-0.00386468
-8.0146e-06
-0.00186265
-2.8376e-06
-0.00186221
-2.02433e-06
-0.00186187
-2.68002e-06
-0.0018636
-1.73081e-07
-0.00186215
8.5577e-07
-0.00186032
-0.00185682
-5.26383e-06
-0.000379992
-0.00277519
-3.57764e-06
-0.000394919
-0.00277167
-8.4901e-06
-0.000383498
-0.00277933
-1.54168e-06
-0.000381145
-0.00278294
-1.83864e-06
-0.000390085
-0.002783
1.70507e-06
-0.000391718
-0.00278108
-0.000382437
-0.00277612
7.61336e-06
-0.000444661
-0.00568136
-6.82721e-06
-0.000457722
-0.00568173
3.13096e-06
-0.000453922
-0.00569
4.44741e-06
-0.000471215
-0.0056924
1.14467e-07
-0.000465253
-0.00569125
3.29489e-06
-0.000459934
-0.00568911
-0.000469799
-0.00568826
3.74113e-06
-0.000212972
-0.00691541
-7.09457e-06
-0.000196799
-0.00691946
-5.51796e-06
-0.000207708
-0.00691713
4.06536e-07
-0.000196473
-0.00692102
7.03785e-07
-0.000196513
-0.00692268
4.42312e-07
-0.000200892
-0.00692257
-0.00020133
-0.00692099
-4.7178e-06
0.000249591
-0.00726558
-9.29248e-07
0.000243623
-0.0072675
-4.19014e-06
0.000243639
-0.00726874
3.10763e-07
0.0002395
-0.00726548
7.67698e-06
0.000237666
-0.00726768
1.13118e-05
0.000240667
-0.0072675
0.000246284
-0.00726718
5.44738e-06
0.000470466
-0.00690066
7.69551e-06
0.000477563
-0.00690252
-1.57313e-06
0.000478261
-0.00690592
-8.90717e-06
0.000481329
-0.00690914
-8.7753e-06
0.00048236
-0.00691186
-1.07246e-05
0.000481817
-0.00691404
0.000477962
-0.00690635
-5.21291e-06
0.000410992
-0.00562941
-1.10019e-05
0.000419647
-0.00563506
-6.3529e-06
0.000418752
-0.00564133
-4.97624e-06
0.000414155
-0.00565053
-6.879e-06
0.000406937
-0.0056544
9.93245e-07
0.000405483
-0.00566243
0.000394625
-0.0056769
-1.83108e-06
-0.00276642
-1.60548e-06
-0.002769
-6.09501e-06
-0.00277459
-8.30005e-07
-0.00277667
5.54051e-06
-0.00277724
8.63125e-06
-0.00277781
-0.00277599
-1.25223e-06
-0.000297436
-0.00375239
-1.70353e-05
-0.000300186
-0.00374185
-1.72912e-05
-0.000298696
-0.00376075
-2.53592e-06
-0.000294581
-0.00376861
-4.00599e-07
-0.000292776
-0.00376674
1.29408e-05
-0.000298066
-0.00375367
-0.000298061
-0.00373932
-3.82367e-06
-0.000350081
-0.00740097
-1.73614e-05
-0.000347691
-0.00739278
-1.41704e-05
-0.000346446
-0.00740439
1.2038e-05
-0.000350488
-0.0074058
5.15022e-06
-0.000352418
-0.00741177
-1.30661e-06
-0.000352649
-0.00740606
-0.000341748
-0.00738705
-7.23107e-07
-0.000179265
-0.00891025
-7.71241e-06
-0.000182577
-0.00890676
-4.38364e-06
-0.000188559
-0.00891333
-7.37374e-06
-0.000197655
-0.00890966
1.80982e-06
-0.000184862
-0.00890981
1.11503e-05
-0.000179044
-0.00892006
-0.000195071
-0.00892153
-9.20758e-06
0.000191468
-0.00933156
-2.72277e-06
0.000193893
-0.00933592
-1.11569e-07
0.000191869
-0.00933605
-3.27793e-06
0.000194641
-0.00933085
6.52547e-06
0.000198833
-0.00933334
1.27355e-05
0.000206532
-0.00933822
0.000226397
-0.00935775
7.56414e-06
0.000420837
-0.00888977
1.9537e-06
0.000418207
-0.00890045
-6.73048e-06
0.000412883
-0.00890464
-1.44985e-05
0.000410753
-0.00890505
-1.40493e-05
0.000405658
-0.00890667
4.90747e-06
0.000402483
-0.00890583
0.000371085
-0.00890456
-2.47264e-05
0.000315163
-0.00736175
-2.89772e-05
0.000327788
-0.00735208
-2.53132e-05
0.000330702
-0.00734395
-9.89462e-06
0.000329157
-0.0073505
-1.73784e-05
0.00032006
-0.00736145
-1.85571e-05
0.000323131
-0.00737414
0.000312947
-0.00736163
-8.49244e-06
-0.00372176
-1.35548e-05
-0.00372436
-1.1129e-05
-0.00373486
-1.66838e-06
-0.00373221
3.49416e-06
-0.00373811
1.29692e-05
-0.00374166
-0.0037326
7.34747e-06
-0.00018025
-0.00483736
-3.65162e-05
-0.000189435
-0.00480181
-4.66715e-05
-0.000198633
-0.00484184
1.38579e-05
-0.000187675
-0.00483742
9.8541e-06
-0.000168063
-0.00484706
3.15131e-05
-0.000178395
-0.00480656
-0.000183818
-0.0047599
-5.42419e-07
-0.000351367
-0.00897218
-4.86232e-05
-0.000343265
-0.00892694
-1.60346e-05
-0.000349938
-0.00892045
2.01514e-05
-0.00036851
-0.00893443
9.07656e-07
-0.000361965
-0.00894066
4.37114e-05
-0.00035785
-0.00893784
-0.000343435
-0.00890047
3.16626e-06
-0.000162255
-0.0107198
-2.12614e-05
-0.000169514
-0.0107394
-3.78322e-06
-0.000192689
-0.0107168
-1.3937e-05
-0.000212625
-0.0106961
-8.78962e-06
-0.000187514
-0.0106958
2.39471e-05
-0.000185429
-0.0107145
-0.000174826
-0.01073
-1.44789e-05
0.000231893
-0.0112559
-2.85699e-07
0.000219269
-0.011264
7.33075e-06
0.000185631
-0.0112649
-2.85327e-06
0.000208612
-0.0112623
-1.05403e-05
0.000196525
-0.0112594
-2.62189e-05
0.000230001
-0.0112458
0.000192124
-0.01126
-9.89805e-06
0.00037355
-0.0107256
-4.20791e-06
0.000382281
-0.0107131
-1.36409e-05
0.000392889
-0.0107155
-1.68576e-05
0.000398888
-0.0106979
-2.41866e-05
0.000386037
-0.010707
2.37514e-05
0.000386832
-0.0106908
0.000356021
-0.0107151
-3.14775e-05
0.000168518
-0.00885371
-3.07982e-05
0.000197598
-0.00883956
-4.00123e-05
0.000200643
-0.00881039
-1.52537e-05
0.000212937
-0.00882198
-5.38815e-05
0.000187198
-0.00886425
1.65407e-05
0.000192969
-0.00888894
0.00020606
-0.00886783
-1.27937e-05
-0.00474386
-2.49827e-05
-0.00474614
-8.41208e-06
-0.00477402
-1.61011e-06
-0.00479384
6.32941e-07
-0.00479946
1.51663e-05
-0.00481151
-0.0047744
6.28117e-05
-0.000572446
-0.0051551
-6.45391e-05
-0.000564888
-0.00517204
-5.29694e-05
-0.000590165
-0.00514861
1.36839e-05
-0.00059015
-0.00513243
9.3727e-05
-0.000556364
-0.00508872
6.98824e-05
-0.000574397
-0.00509713
-0.000596979
-0.00504962
3.58393e-05
-0.000456621
-0.0101982
1.70013e-05
-0.000492024
-0.0101477
-2.62166e-05
-0.000524268
-0.0102314
-2.22929e-05
-0.000548446
-0.0102508
2.55144e-05
-0.000509049
-0.010173
5.78037e-05
-0.000501009
-0.0102297
-0.000500074
-0.0101224
-3.79806e-05
-0.000203833
-0.0123594
1.03293e-05
-0.000191967
-0.0123998
2.81915e-06
-0.000222128
-0.0124311
-3.87948e-06
-0.000253962
-0.0124634
-2.56357e-05
-0.00024573
-0.0124467
3.03343e-06
-0.000227837
-0.0124319
-0.000177451
-0.0124367
3.23303e-07
0.000237421
-0.0130064
-1.67917e-05
0.00023423
-0.0130242
3.50347e-05
0.000193529
-0.0131027
-1.39991e-06
0.000243066
-0.0131182
7.82881e-06
0.000215381
-0.0130939
-5.40419e-05
0.000273446
-0.0130797
0.000188875
-0.0130315
-4.9972e-06
0.000472717
-0.012385
3.20418e-05
0.00051909
-0.0124176
-2.03171e-06
0.000528801
-0.0124645
-2.59637e-05
0.000579777
-0.0124911
-2.0625e-05
0.000460138
-0.0124651
1.77053e-05
0.000552245
-0.012408
0.000531603
-0.0124375
-1.95233e-06
0.000585612
-0.0101044
1.02347e-05
0.000560011
-0.0100676
-5.82929e-05
0.000585292
-0.0101144
-8.6169e-05
0.000553127
-0.0101087
-9.30187e-05
0.00057346
-0.0101768
1.095e-05
0.000581068
-0.0101901
0.000597668
-0.0101157
-1.14957e-05
-0.00506241
-4.50079e-05
-0.00510967
-0.000105551
-0.00509348
-7.15552e-06
-0.0050642
3.23504e-05
-0.00508582
7.00276e-06
-0.00514558
-0.00512105
1.60879e-05
-0.00121771
-0.00458833
-6.83943e-05
-0.00110717
-0.00459286
1.1696e-05
-0.00122052
-0.00444183
8.76629e-05
-0.00127604
-0.00453356
0.000117408
-0.00128067
-0.00442864
8.31692e-05
-0.0012654
-0.00456221
-0.00122813
-0.00443964
5.70654e-05
-0.00148812
-0.0112004
-4.99243e-05
-0.00154693
-0.0110441
-3.5032e-05
-0.00156426
-0.0111922
6.0615e-05
-0.00161037
-0.0112419
4.72154e-05
-0.00153959
-0.0111543
0.000124092
-0.00146846
-0.0112504
-0.00149815
-0.011129
-7.4009e-05
-0.000742011
-0.0143173
-5.3091e-05
-0.000701599
-0.0144124
-1.6567e-05
-0.000658975
-0.0145665
2.65495e-05
-0.000597599
-0.014764
2.97248e-05
-0.000631365
-0.0147037
-1.61013e-05
-0.000714156
-0.0144881
-0.000651087
-0.0145403
-8.65811e-05
0.000753311
-0.0156222
-0.00016617
0.000700569
-0.0154168
-3.69474e-05
0.000685011
-0.0156631
-1.04883e-07
0.000648636
-0.0155452
6.31554e-05
0.000634769
-0.0155833
5.53201e-05
0.000695202
-0.0155522
0.000668151
-0.0154019
-3.18429e-05
0.00147492
-0.0144318
-1.82348e-05
0.00157643
-0.014585
-2.49254e-05
0.00153127
-0.0145134
3.61772e-06
0.00155561
-0.0147567
2.91288e-05
0.00152404
-0.0146507
5.43224e-05
0.00157192
-0.0145196
0.00154652
-0.0144371
1.73402e-05
0.00114614
-0.0110948
-1.20199e-05
0.00112163
-0.0109821
-8.90832e-05
0.00122245
-0.0111383
-0.000127581
0.00123694
-0.0110472
-0.000153099
0.00125616
-0.011099
3.30037e-05
0.00126504
-0.0111679
0.00121536
-0.0110458
-2.79015e-05
-0.00448206
-9.03459e-05
-0.00453418
-1.69236e-05
-0.00434968
-2.72327e-05
-0.00441246
-3.89319e-05
-0.00445387
3.35309e-05
-0.00466534
-0.00451578
0.00018048
0.00105221
-0.00575401
0.00374298
-7.23305e-05
0.0016473
-0.00579871
0.00359105
-2.6531e-05
0.00135152
-0.00590771
0.00360969
7.52988e-05
0.00129942
-0.00596863
0.00368445
1.71409e-05
0.00150654
-0.00593543
0.00362799
3.65184e-06
0.00132659
-0.00580112
0.00365941
0.00135446
-0.00586137
0.00361862
-0.0001097
0.000750955
-0.0127
0.0117835
-8.41551e-05
0.00180042
-0.0129955
0.0116565
-8.08636e-05
0.00118564
-0.013149
0.0119027
0.000111498
0.00108092
-0.0132141
0.0119065
0.000108567
0.00151699
-0.0131393
0.011776
1.79347e-05
0.0011334
-0.0129646
0.0118344
0.00140141
-0.0128645
0.0116436
-0.000388521
0.000296272
-0.016203
0.0160618
-7.99458e-05
0.000621614
-0.0163661
0.0159788
-1.15337e-05
0.00046814
-0.01653
0.0161861
-7.24909e-06
0.000413872
-0.0165581
0.0162144
0.000209278
0.000662565
-0.0165604
0.0162213
5.02499e-05
0.000568608
-0.0164185
0.016112
0.00055722
-0.0160358
0.0159006
-0.00024277
-0.00067726
-0.016737
0.0176753
-6.57376e-05
-0.000836498
-0.0170303
0.0177094
0.000150086
-0.000960694
-0.0171791
0.0176953
2.90403e-05
-0.00093726
-0.0173463
0.0177816
0.000301665
-0.000855387
-0.0172408
0.0174544
0.000143269
-0.000398717
-0.0171334
0.017524
-0.000527291
-0.0168748
0.0173231
-0.000145105
-0.00138813
-0.0160415
0.0160403
-0.000178632
-0.00168944
-0.0162693
0.0160592
8.25158e-08
-0.00174392
-0.0164307
0.0159581
0.000286403
-0.00168807
-0.0164075
0.0159322
0.000318931
-0.00178007
-0.0165575
0.0163319
6.65329e-06
-0.000914714
-0.0163615
0.0160907
-0.00132961
-0.0160805
0.0158776
-7.87864e-05
-0.00140006
-0.012877
0.0116751
-0.000105986
-0.00163476
-0.0130806
0.0117048
-3.49227e-05
-0.00161458
-0.0132641
0.0118093
0.000105874
-0.00161844
-0.0134003
0.0118082
8.14529e-05
-0.00162086
-0.0132629
0.0118162
9.23946e-05
-0.00126449
-0.0130594
0.0120074
-0.00134829
-0.0128785
0.0117115
6.27807e-05
-0.00588736
0.00364026
-6.12135e-05
-0.00586069
0.0036134
-4.09165e-05
-0.0059782
0.00359585
3.94564e-05
-0.00602999
0.00358343
-1.7e-05
-0.00595761
0.00362365
4.31795e-06
-0.00579564
0.00376344
-0.00586418
0.003647
9.21084e-05
-8.68007e-05
-0.00644535
-0.000212055
0.000922218
-0.00703775
-0.00012929
0.000909519
-0.00748324
0.000116126
0.000889266
-0.00770131
0.000220496
0.000883862
-0.007499
-2.1839e-05
0.00089539
-0.00707473
-6.69904e-05
-0.00649054
-0.000434835
5.06945e-05
-0.0132584
-0.000466065
0.0010287
-0.0142029
-0.000215335
0.00105165
-0.0147005
0.000163944
0.00106318
-0.0148019
0.000447386
0.00105607
-0.0146335
0.000452318
0.00102121
-0.0141761
5.09299e-05
-0.0133011
-0.000689175
-5.32656e-05
-0.0160848
-0.000505052
0.000336905
-0.0166487
-0.000152364
0.00035702
-0.0169247
0.000205048
0.000385336
-0.0169752
0.000513572
0.000363907
-0.0170023
0.000641133
0.000395909
-0.0167024
4.1576e-05
-0.0160481
-0.000678258
5.31929e-06
-0.0166576
-0.000464809
-0.000381968
-0.0171674
-0.000112102
-0.000403757
-0.0174012
0.000208897
-0.000423349
-0.0174415
0.000511763
-0.000348129
-0.0174026
0.000690985
-0.000328546
-0.0171761
-6.24719e-06
-0.0166948
-0.000630914
-2.00484e-05
-0.0160549
-0.000459366
-0.000952087
-0.0166601
-0.000182594
-0.000979072
-0.0169648
0.000223022
-0.000969882
-0.0169678
0.000474649
-0.0010227
-0.0169637
0.000637671
-0.00100386
-0.0166262
6.63207e-06
-0.016071
-0.000464083
6.08492e-05
-0.0133352
-0.000471197
-0.000904434
-0.0141994
-0.000165319
-0.000912343
-0.0146753
0.000132182
-0.000917747
-0.0148424
0.000431181
-0.000906225
-0.0147136
0.000468451
-0.000923074
-0.0142786
7.47474e-05
-0.0133171
4.89653e-05
-0.00651144
-0.000211555
-0.00709639
-0.000112666
-0.00753017
0.000103054
-0.00773417
0.000191997
-0.00752325
-4.98993e-05
-0.00709852
-0.0064882
-0.000451219
-0.000153791
-0.00639486
-0.000761174
0.00118721
-0.00835503
-0.000359282
0.00123531
-0.00948546
0.000314007
0.00122632
-0.00999577
0.000747883
0.00119959
-0.00949085
0.000446966
0.0011669
-0.00835402
-0.000178993
-0.00641201
-0.00122219
-0.000133066
-0.0128379
-0.00113594
0.00135573
-0.0154128
-0.000470998
0.00144856
-0.0167413
0.000349206
0.00148211
-0.0167595
0.00112938
0.00149617
-0.0165924
0.00121594
0.00138804
-0.0153507
-0.000130468
-0.0128107
-0.00134168
-7.12334e-05
-0.01532
-0.000988352
0.000520084
-0.01676
-0.00028816
0.000571886
-0.0172975
0.00037238
0.000569514
-0.0173749
0.000975308
0.000542106
-0.0174044
0.00131448
0.000510335
-0.0168195
-7.47198e-05
-0.0153256
-0.00134261
0.000112077
-0.015903
-0.000877427
-0.000527158
-0.0169752
-0.000257325
-0.000545994
-0.0172935
0.000337449
-0.000552495
-0.017309
0.000904812
-0.000528054
-0.0172988
0.00133646
-0.000494136
-0.0169682
9.28451e-05
-0.0159029
-0.00130013
0.000123723
-0.0153282
-0.000920491
-0.00133451
-0.0168305
-0.000322073
-0.00143255
-0.0173784
0.000351079
-0.00143636
-0.0173779
0.000942658
-0.00145736
-0.0173434
0.00130456
-0.0013571
-0.0167594
0.000128921
-0.0153137
-0.00121872
0.000173564
-0.0128635
-0.00118531
-0.00114523
-0.0153573
-0.00040541
-0.00119702
-0.0166335
0.000397454
-0.00121969
-0.0167601
0.00116811
-0.00118676
-0.0166617
0.00124812
-0.00115862
-0.0154236
0.000154462
-0.0128533
-0.000464147
-0.00641403
-0.000757042
-0.00837409
-0.000329111
-0.00950964
0.000344767
-0.0100177
0.00076361
-0.00951432
0.000441093
-0.0083688
-0.00640797
-0.00168024
0.000442609
-0.00554344
-0.00177961
0.00141451
-0.00978345
-0.000758862
0.00151177
-0.0120135
0.000717614
0.00146283
-0.0131023
0.00175417
0.00148572
-0.0120209
0.00167075
0.00140732
-0.00975635
0.000442592
-0.00555889
-0.00273815
0.000517702
-0.0108407
-0.00241589
0.00172044
-0.0165755
-0.000818838
0.00198387
-0.0195069
0.000725695
0.00195261
-0.0194214
0.00237627
0.00199596
-0.0193386
0.00277254
0.00176202
-0.016603
0.000521525
-0.010789
-0.00218298
0.000204976
-0.0131904
-0.00166616
0.000683411
-0.0166967
-0.000490936
0.000762065
-0.0177145
0.000566633
0.000736173
-0.0177215
0.00166513
0.000736729
-0.0178158
0.00216898
0.00064737
-0.0166836
0.000196305
-0.0132007
-0.00185901
-0.000138364
-0.0138744
-0.00130456
-0.000650307
-0.0163581
-0.000387119
-0.000726672
-0.0169241
0.000454127
-0.000725783
-0.0168756
0.00133632
-0.000714639
-0.016935
0.00185081
-0.000646916
-0.0163658
-0.000168844
-0.0138684
-0.00215975
-0.000526152
-0.0132098
-0.00160149
-0.00169904
-0.016766
-0.000503418
-0.0019328
-0.0178189
0.000543894
-0.00190248
-0.017732
0.00162886
-0.00194208
-0.0177547
0.00215463
-0.00172523
-0.0166728
-0.000535834
-0.0131812
-0.00271201
-0.000439043
-0.0108386
-0.00241881
-0.00139358
-0.0165469
-0.000760925
-0.00147903
-0.0193922
0.000757193
-0.00144542
-0.019427
0.00241588
-0.0014653
-0.0194152
0.0027516
-0.00137109
-0.0166099
-0.000428954
-0.0108344
-0.00168465
-0.00555771
-0.0017669
-0.0097839
-0.000743588
-0.0120437
0.000733269
-0.0131151
0.00176009
-0.0120724
0.00167133
-0.00975495
-0.00554782
-0.00286508
0.00016236
-0.00293761
-0.00320141
0.00116784
-0.0102152
-0.00141477
0.000884052
-0.0141779
0.00140751
0.000185165
-0.0160936
0.0031929
0.000871856
-0.0141901
0.0028529
0.00117488
-0.0101655
0.000173489
-0.00293889
-0.00486245
0.000294672
-0.00623315
-0.00473085
0.00116567
-0.0166918
-0.00175222
0.00134502
-0.0230945
0.00168419
0.00110545
-0.0242564
0.00468297
0.00135242
-0.0229375
0.00490499
0.00119219
-0.016767
0.000272629
-0.00617734
-0.00383529
0.000157786
-0.00932827