/*--------------------------------*- C++ -*----------------------------------*\
  =========                 |
  \\      /  F ield         | OpenFOAM: The Open Source CFD Toolbox
   \\    /   O peration     | Website:  https://openfoam.org
    \\  /    A nd           | Version:  6
     \\/     M anipulation  |
\*---------------------------------------------------------------------------*/
FoamFile
{
    version     2.0;
    format      ascii;
    class       volScalarField;
    location    "0.0025";
    object      T;
}
// * * * * * * * * * * * * * * * * * * * * * * * * * * * * * * * * * * * * * //

dimensions      [0 0 0 1 0 0 0];

internalField   nonuniform List<scalar> 
3773
(
215.709
215.169
215.227
215.262
215.218
215.198
215.685
277.495
277.236
277.197
277.17
277.172
277.267
277.597
312.548
312.801
312.792
312.783
312.781
312.771
312.615
322.463
322.532
322.564
322.565
322.562
322.56
322.475
312.637
312.819
312.852
312.85
312.84
312.831
312.666
277.733
277.228
277.401
277.364
277.354
277.4
277.707
215.654
215.327
215.307
215.329
215.31
215.24
215.708
210.3
209.554
209.236
209.181
209.417
209.657
209.37
271.352
275.096
274.991
274.982
275.086
275.247
272.428
314.049
312.031
311.937
312.053
312.124
312.001
314.054
324.861
324.972
324.836
324.875
324.875
324.796
325.407
314.392
313.177
312.357
312.352
312.358
312.148
314.324
271.73
272.533
274.831
274.865
274.781
275.353
272.055
209.749
210.137
209.275
209.277
209.218
209.501
209.374
209.028
209.443
208.665
208.614
209.135
209.886
208.982
269.57
273.366
273.071
270.673
271.657
273.466
270.067
314.319
311.931
312.565
314.36
313.256
311.635
314.307
325.519
324.717
324.929
325.267
325.153
324.753
325.517
314.31
311.762
313.024
313.421
313.634
312.086
314.316
269.789
273.254
272.502
271.647
271.653
273.283
270.063
208.879
209.841
208.602
208.425
208.493
209.557
208.938
208.864
210.087
209.589
209.697
209.343
209.744
208.918
269.599
274.19
273.547
273.646
270.584
273.534
269.723
314.335
311.315
312.066
312.108
313.873
311.091
314.273
325.525
324.638
324.961
325.26
325.421
325.094
325.495
314.345
310.92
313.199
314.314
313.911
311.061
314.296
269.67
274.093
272.008
270.8
271.322
273.653
269.714
208.819
209.869
209.545
208.316
209.18
209.697
208.876
208.891
209.479
209.388
208.922
209.195
209.449
208.832
269.693
274.241
274.16
274.922
274.223
273.941
269.683
314.385
311.779
311.615
311.826
311.819
310.819
314.336
325.537
324.612
325.054
324.893
324.921
325.175
325.516
314.377
311.385
311.849
312.88
313.246
311.039
314.354
269.779
274.116
273.831
272.836
272.737
273.752
269.691
208.881
209.528
209.398
208.803
208.963
209.413
208.821
208.932
209.554
207.851
209.648
209.733
209.449
208.88
270.008
274.472
275.404
274.143
274.317
274.249
270.002
314.498
311.527
311.775
311.148
311.121
310.948
314.434
325.566
324.65
324.697
324.927
324.582
325.268
325.547
314.481
312.009
311.392
311.705
311.323
311.893
314.447
270.108
275.271
274.476
275.468
274.34
273.294
269.998
208.921
208.068
209.475
207.88
209.986
209.316
208.872
209.65
207.638
209.423
209.404
209.41
209.555
209.636
273.923
275.1
274.119
273.812
273.842
274.072
273.925
311.78
312.276
311.314
311.678
311.193
311.642
311.274
325.661
326.316
326.111
326.124
326.422
325.656
326.468
311.777
315.169
311.713
311.284
315.797
311.72
311.27
273.951
269.057
273.923
274.116
270.33
274.071
273.928
209.726
209.11
209.481
209.476
207.383
209.607
209.684
218.382
218.312
218.323
218.34
218.353
218.361
218.382
284.015
284.014
283.987
284.018
284.024
283.995
284.018
327.707
327.652
327.676
327.658
327.657
327.656
327.64
339.57
339.572
339.571
339.575
339.572
339.572
339.568
327.745
327.739
327.715
327.708
327.688
327.698
327.717
283.925
283.95
283.997
283.991
284.019
284.02
284.026
218.333
218.368
218.358
218.342
218.332
218.322
218.369
219.266
219.258
219.213
219.23
219.297
219.422
219.292
286.242
286.66
286.264
286.615
286.682
286.591
286.71
326.058
325.664
326.001
325.686
325.633
325.624
325.631
339.597
339.606
339.577
339.626
339.574
339.561
339.607
326.839
326.386
326.178
326.128
325.984
326.046
326.126
285.532
285.725
285.984
286.088
286.355
286.3
286.105
218.625
219.298
219.277
219.21
219.2
219.138
219.205
218.674
218.962
218.66
218.714
219.009
219.437
218.706
284.19
286.111
284.792
286.022
286.193
285.984
286.106
328.496
326.786
328.064
326.79
326.637
326.606
326.757
340.356
340.306
340.197
340.477
340.342
340.263
340.552
326.99
326.418
326.504
326.287
326.567
326.872
327.812
285.942
286.89
286.757
287.234
286.804
286.559
284.897
219.038
219.074
218.988
218.816
218.776
218.567
218.737
220.001
220.033
219.874
219.797
219.943
219.863
219.789
284.835
284.728
284.826
285.042
285.015
285.622
284.927
328.402
328.626
328.785
328.858
328.624
328.227
328.52
341.702
341.142
341.111
341.268
341.174
341.208
341.379
327.183
326.862
326.884
326.909
327.286
327.527
328.914
286.754
287.745
287.843
287.961
286.812
286.804
284.422
219.742
219.672
219.597
219.402
219.77
219.714
219.963
221.594
221.542
221.626
222.209
221.222
222.239
221.604
287.835
287.729
288.587
289.314
287.477
288.186
288.924
328.45
328.721
328.662
328.708
329.426
328.858
327.473
342.591
342.632
342.549
342.966
342.691
342.806
342.799
330.337
328.778
328.606
328.416
328.858
329.362
327.646
285.694
288.089
289.333
289.552
287.345
287.447
288.998
221.947
221.757
221.575
221.391
221.58
221.535
221.31
229.234
224.542
227.981
229.5
227.575
227.965
227.155
293.441
294.35
294.756
294.733
293.776
292.943
296.593
333.274
333.292
331.603
332.087
333.122
332.919
331.502
345.097
344.831
344.745
344.761
344.851
344.766
345.451
331.617
333.466
331.795
331.935
332.293
333.388
331.423
294.691
292.108
294.703
295.11
293.312
293.106
297.267
228.66
227.343
227.31
228.843
229.807
227.445
227.128
241.219
236.035
246.761
245.154
243.563
239.47
239.57
306.854
303.504
302.503
302.55
302.585
304.049
303.314
334.862
336.75
334.878
335.415
335.135
337.019
335.069
346.554
346.443
346.322
346.598
346.59
346.516
346.783
335.193
335.455
335.187
334.937
335.449
336.844
335.655
300.787
305.42
301.516
302.239
302.687
305.219
304.331
242.936
236.7
247.283
244.286
243.356
242.571
236.941
224.919
224.854
225.41
225.181
224.963
224.953
224.631
288.36
281.549
285.396
286.105
286.413
286.331
283.237
329.887
332.589
331.216
331.543
329.193
330.099
331.739
346.888
346.455
346.317
346.732
347.1
347.345
346.919
328.625
329.215
330.034
331.487
331.098
334.289
332.186
286.969
286.274
285.366
283.869
284.001
282.762
283.427
225.569
225.397
225.584
225.327
225.103
224.751
224.707
226.172
226.325
226.671
226.776
226.628
226.299
224.874
290.678
284.98
284.434
286.647
287.424
286.488
290.482
331.757
333.488
333.941
333.123
331.225
332.032
332.709
347.498
347.495
347.51
347.629
347.855
348.038
347.604
332.501
331.629
332.514
333.273
333.029
334.711
332.721
289.816
288.051
286.876
287.226
286.199
283.414
290.165
226.246
226.452
226.776
226.731
226.349
226.46
225.156
226.524
228.184
228.464
228.54
228.358
228.04
225.623
290.358
282.914
283.26
286.654
286.053
284.593
291.569
333.058
334.092
333.129
333.141
330.862
332.558
332.837
347.717
347.394
347.349
347.598
347.496
347.785
347.714
333.959
331.718
331.944
333.621
332.383
333.962
333.606
289.048
286.375
285.705
286.745
285.186
283.235
289.779
226.711
228.291
228.514
228.547
228.249
228.287
226.201
227.642
231.988
232.035
231.073
231.698
232.221
227.138
288.489
284.234
281.453
287.622
285.433
284.654
291.108
333.136
332.911
332.742
332.703
329.698
332.498
331.657
347.231
346.982
346.74
347.304
346.597
347.061
347.01
333.114
331.584
330.905
332.341
330.321
332.188
333.343
288.159
285.776
284.123
288.26
285.198
285.323
287.935
227.94
232.256
231.829
231.038
231.397
232.391
227.945
231.066
239.758
238.458
233.637
237.759
240.591
231.152
289.086
289.459
283.295
288.813
286.399
288.061
291.668
333.639
332.351
331.553
333.049
329.034
333.443
331.817
346.686
346.651
345.91
346.855
345.727
346.639
346.406
332.581
332.958
330.738
333.034
329.576
332.258
333.29
289.929
288.224
283.927
288.207
285.948
289.731
289.209
231.478
240.239
237.54
233.547
236.757
240.724
231.849
239.132
253.064
249.54
236.53
248.335
254.96
240.062
296.829
296.997
285.176
284.802
287.631
296.278
297.18
334.205
333.244
329.747
331.307
327.276
333.231
333.709
346.581
346.183
344.693
345.666
344.528
346.179
346.347
334.235
334.22
329.597
331.76
328.298
333.09
334.431
296.311
294.975
284.549
282.816
286.688
296.87
296.193
239.808
254.308
246.676
236.137
246.825
255.182
240.624
272.598
275.138
268.157
250.221
267.473
277.135
273.299
312.339
306.699
289.727
278.065
290.922
305.75
311.498
331.373
331.406
327.604
325.695
325.22
330.864
331.654
344.794
344.729
343.29
343.194
343.067
344.687
344.68
332.573
331.933
328.053
326.356
326.079
331.545
331.611
309.49
304.706
288.596
275.063
291.391
305.538
310.34
275.626
276.921
272.168
250.824
271.837
277.312
275.629
258.562
241.89
261.864
259.945
260.154
252.386
252.138
301.729
298.425
300.232
300.071
300.29
300.697
295.169
333.884
335.472
333.92
334.631
332.383
334.067
335.059
347.135
346.428
346.264
346.782
347.246
347.104
346.991
332.003
332.25
334.676
333.493
334.537
337.518
335.928
298.752
301.71
296.403
298.125
298.508
303.004
297.675
256.911
247.052
261.252
257.941
256.508
247.793
252.358
254.347
238.906
255.862
253.997
253.978
245.358
245.271
298.144
294.379
297.77
298.086
298.03
298.627
292.91
333.42
335.123
333.69
334.232
331.782
333.028
334.18
347.114
346.4
346.236
346.796
347.246
347.139
346.962
331.544
331.712
333.608
333.1
333.765
337.084
335.261
296.467
296.949
294.254
295.607
296.321
296.093
294.636
251.965
241.73
254.923
252.862
251.732
240.983
247.211
249.778
235.727
249.955
250.326
249.53
242.637
242.805
296.855
290.914
295.464
295.455
294.825
296.421
290.449
332.171
334.868
333.431
333.62
331.198
332.144
333.901
347.097
346.34
346.21
346.735
347.209
347.143
346.919
331.028
331.365
332.7
332.869
333.178
336.714
334.52
294.128
295.247
292.005
293.107
293.815
294.064
291.874
246.885
240.057
246.971
246.712
246.644
238.551
245.032
243.523
231.941
241.065
243.218
240.916
239.789
235.563
294.543
289.057
292.967
294.023
293.402
294.124
288.625
331.747
334.313
333.039
333.442
330.922
331.898
333.217
347.104
346.283
346.164
346.683
347.174
347.138
346.875
330.55
330.999
332.283
332.518
332.746
336.318
334.047
291.987
292.698
290.046
290.014
289.362
291.571
289.489
240.885
234.436
237.495
241.05
239.597
232.843
236.498
235.268
230.759
237.002
235.795
234.524
236.156
233.131
293.279
286.035
290.017
290.726
291.936
291.956
285.961
331.254
334.132
332.558
332.873
330.519
331.453
333.031
347.14
346.276
346.137
346.616
347.121
347.123
346.802
329.853
330.572
331.505
332.374
332.327
335.484
333.665
290.508
289.507
287.679
287.656
287.812
287.949
287.433
233.453
231.801
234.281
235.529
231.045
230.162
234.01
232.666
227.74
229.694
232.318
229.164
231.602
230.144
291.461
283.751
288.454
288.702
289.587
289.9
285.136
330.573
333.737
332.255
332.314
330.02
330.862
332.656
347.172
346.315
346.158
346.555
347.06
347.128
346.794
329.455
330.153
330.992
332.172
331.634
335.168
333.096
288.872
288.058
286.987
285.593
285.582
285.909
284.815
231.161
226.766
231.179
230.053
229.443
229.209
230.377
227.082
224.788
226.58
226.411
225.272
226.388
224.636
289.876
282.669
286.953
287.752
288.001
288.085
283.745
330.359
333.188
331.821
332.09
329.719
330.614
332.287
347.122
346.408
346.234
346.561
347.042
347.22
346.83
329.018
329.696
330.557
331.968
331.408
334.791
332.74
287.453
286.731
285.713
284.526
284.752
284.459
284.143
225.488
225.294
225.479
225.137
225.018
226.126
224.739
298.229
302.569
296.984
267.786
295.799
305.188
300.747
292.488
298.39
296.987
279.206
296.864
298.418
292.873
314.573
323.182
323.822
318.863
322.067
322.604
314.737
338.56
341.858
341.733
340.329
341.273
341.506
338.483
315.127
323.277
324.444
319.083
323.44
322.869
314.57
292.063
297.827
296.09
276.386
296.872
298.007
291.757
299.166
303.825
295.65
268.101
294.539
303.31
299.271
321.954
321.327
306.509
267.775
303.601
323.577
324.144
307.28
306.066
298.824
276.155
297.642
306.439
307.785
316.583
322.666
321.697
316.025
320.71
322.246
316.428
338.597
341.589
341.016
339.235
340.323
341.036
338.616
316.776
322.538
322.08
315.581
321.316
322.368
316.602
308.041
305.711
298.108
273.31
298.282
306.078
307.261
323.297
322.831
304.988
267.575
301.659
320.657
320.617
329.118
327.358
309.724
265.375
304.725
330.443
329.922
309.446
307.027
298.493
274.44
296.203
307.392
309.597
318.501
322.879
320.867
315.559
320.961
323.348
318.05
338.677
342.03
341.423
339.806
340.496
341.292
338.634
318.542
322.993
321.663
315.521
321.26
323.272
318.106
310.083
307.274
297.486
273.054
296.168
307.259
310.132
329.178
329.137
304.362
269.399
304.318
328.454
330.021
324.288
324.655
302.152
258.372
297.888
325.418
325.316
305.964
304.511
294.163
270.436
291.807
304.324
305.694
320.686
323.458
320.636
315.155
320.573
323.477
321.091
339.728
342.285
341.68
340.132
341.103
342.058
339.073
320.912
323.801
321.377
315.534
321.324
323.734
320.467
305.874
304.01
292.991
267.708
292.872
304.443
306.052
324.79
322.383
302.85
258.028
296.934
324.505
324.127
313.025
307.001
285.807
250.279
280.9
309.21
312.078
304.084
298.309
286.31
267.35
284.045
297.898
303.831
322.687
324.188
321.019
315.632
321.115
324.294
323.481
340.694
342.827
341.921
340.232
341.57
342.615
340.2
323.332
324.466
322.251
315.803
321.774
324.618
323.153
303.795
298.836
284.2
264.427
285.174
299.193
304.054
315.484
312.103
281.739
248.482
279.071
312.994
314.765
304.239
288.727
259.856
241.16
253.561
290.415
302.538
300.4
290.261
279.487
265.942
277.585
290.53
298.571
326.821
326.276
323.386
316.889
323.563
327.197
328.134
342.483
343.481
341.981
339.977
341.657
343.281
342.509
327.935
327.107
323.873
315.896
322.506
326.798
328.134
299.253
290.009
277.396
267.253
279.368
291.006
299.644
301.806
294.598
253.529
241.125
258.254
290.843
302.962
263.44
249.231
240.235
238.193
240.332
247.108
261.555
286.584
286.706
280.318
266.729
278.836
282.543
288.221
329.617
326.419
325.18
318.864
325.65
329.334
327.914
343.081
343.625
341.29
338.617
341.093
343.385
343.296
330.658
330.73
320.984
311.258
319.579
325.964
329.992
285.336
281.436
284.359
278.777
286.355
286.348
285.705
258.824
249.713
240.539
237.627
242.511
247.6
261.579
305.951
308.43
311.124
315.406
322.518
332.511
347.078
293.707
297.456
302.236
308.037
314.713
321.06
330.047
303.235
299.288
296.561
295.507
296.19
297.744
299.937
333.199
330.337
326.637
322.447
318.076
313.699
307.818
303.785
299.963
297.204
295.614
295.692
296.426
298.285
291.877
295.939
301.179
307.274
318.062
321.671
331.721
304.812
307.525
310.643
314.813
321.691
331.439
346.168
326.761
327.012
327.589
331.557
335.16
339.773
347.956
314.757
319.42
323.867
330.325
332.431
335.657
345.034
307.638
305.068
304.035
304.342
306.793
308.633
311.947
334.15
331.556
328.388
324.798
319.808
316.127
311.893
307.958
305.333
304.173
304.345
306.616
308.294
312.015
313.37
317.881
322.868
330.554
332.687
335.784
345.36
324.496
325.602
326.34
330.062
331.897
337.592
351.007
330.8
327.957
326.757
326.121
328.269
334.92
337.628
315.611
316.925
319.973
324.126
325.754
328.87
336.405
310.312
308.859
307.86
307.781
309.527
311.081
314.546
334.575
332.105
330.47
326.217
320.618
318.534
314.827
310.168
308.676
307.491
307.185
308.775
310.343
314.421
315.524
316.75
319.613
323.32
324.83
327.892
336.486
330.727
327.971
326.935
326.162
327.229
331.434
337.741
322.985
321.176
319.578
317.592
319.832
323.811
332.492
308.22
309.032
311.024
313.619
315.209
317.286
325.341
312.629
310.703
309.002
308.046
308.621
309.754
313.108
334.629
332.369
331.391
326.876
322.227
320.605
317.166
312.235
310.349
308.498
307.427
308.02
309.141
312.629
308.886
309.569
311.581
314.254
315.783
318.285
326.339
320.32
317.712
315.387
312.691
314.046
323.821
329.793
308.036
301.37
292.525
289.152
292.417
301.037
317.079
304.924
305.265
307.448
307.96
310.051
313.702
320.068
316.428
313.807
311.587
308.963
308.602
308.962
310.195
335.365
332.773
332.235
329.351
326.187
322.327
320.599
315.871
313.127
311.022
308.257
307.837
308.032
309.153
305.17
305.43
306.894
308.184
310.079
313.552
319.76
308.91
305.549
299.802
297.336
301.109
309.876
322.088
295.198
287.162
283.246
273.843
271.968
281.343
310.509
304.084
305.145
307.967
307.722
307.636
309.076
314.827
324.946
322.14
319.175
316.442
315.12
311.596
308.554
339.615
336.991
336.192
334.394
331.592
328.736
324.926
324.599
321.59
318.845
316.168
314.723
310.966
307.772
304.437
305.408
308.106
308.013
307.649
308.703
314.562
300.134
290.552
285.739
274.494
268.57
273.403
313.024
265.495
264.504
261.431
260.432
261.385
263.937
296.241
292.823
293.138
293.607
294.736
298.989
302.239
312.498
329.073
326.681
326.604
327.573
327.506
320.108
311.451
340.67
338.755
338.444
339.02
337.98
334.614
328.928
328.866
326.952
326.254
327.635
327.628
319.782
310.966
292.259
293.173
293.268
295.902
299.106
302.227
312.159
266.745
265.496
261.542
260.814
261.978
266.744
295.672
344.51
328.712
323.992
313.147
309.532
306.747
304.119
324.461
318.518
312.36
306.055
300.594
296.025
292.431
299.646
297.16
295.885
295.487
296.831
299.728
303.722
308.23
314.47
318.979
323.286
327.343
330.932
333.667
299.481
296.391
295.747
295.586
297.28
300.325
304.472
329.08
320.099
316.605
306.281
300.456
295.705
292.005
342.195
331.499
326.256
313.955
309.697
306.681
304.124
346.048
338.16
332.173
328.231
326.189
325.567
324.483
344.593
335.02
331.741
329.402
322.456
317.965
313.393
311.894
308.158
306.376
304.094
304.021
305.23
307.893
312.415
316.732
319.997
325.6
328.867
331.815
334.3
312.544
308.834
307.062
304.911
304.843
305.973
308.558
345.264
335.605
332.094
329.688
322.719
318.682
314.381
351.361
336.792
332.377
329.255
325.523
325.121
324.677
340.272
333.489
330.923
327.585
327.763
328.149
330.626
335.386
327.273
324.848
323.481
319.741
316.717
315.296
314.909
310.734
309.182
307.47
307.614
308.584
309.961
315.547
319.306
321.319
326.754
331.114
332.266
334.717
314.322
311.588
309.604
307.902
308.143
309.208
310.991
337.259
329.077
325.983
324.352
320.439
317.558
315.8
337.793
334.244
328.65
326.231
326.731
327.435
329.762
328.113
319.521
314.504
313.258
316.123
318.478
320.984
327.429
318.463
315.941
313.844
311.188
309.25
308.335
312.321
309.721
308.32
307.736
308.748
310.272
312.774
317.552
321.145
322.773
327.356
331.727
332.203
334.914
312.916
309.618
308.554
308.009
309.044
310.684
313.341
325.755
317.556
315.368
313.37
312.476
308.981
308.07
333.813
324.748
320.944
318.312
320.151
321.738
324.036
322.43
309.803
300.522
299.005
301.044
305.84
310.404
319.468
313.087
310.222
307.931
307.345
305.359
305.122
309.648
308.523
308.22
308.649
311.34
312.885
315.842
321.215
322.786
326.436
329.521
332.464
333.19
336.025
309.588
308.441
308.2
308.561
311.323
313.49
316.4
319.994
313.819
309.689
308.186
307.9
305.719
305.046
316.242
300.73
292.152
292.804
298.487
303.43
307.371
304.157
272.749
271.721
271.264
285.102
290.891
299.021
315.964
309.646
307.931
308.185
308.399
305.608
304.424
308.184
311.263
314.801
316.742
318.738
321.243
324.463
325.235
328.886
331.718
334.641
336.431
337.47
339.834
307.949
310.866
314.615
315.861
318.738
321.221
324.207
314.679
309.558
308.315
308.263
308.739
305.852
304.529
308.331
281.788
267.349
270.797
284.349
288.8
298.368
295.404
264.604
262.46
260.683
262.322
265.334
266.919
312.407
302.225
299.026
295.062
294.042
293.444
292.244
311.152
319.845
327.433
327.496
325.967
325.832
328.505
329.176
334.797
338.187
339.242
338.618
339.487
341.102
310.667
319.873
327.395
327.601
326.777
326.627
328.906
312.314
302.821
300.26
294.43
293.289
293.06
292.146
294.986
263.94
261.989
260.81
263.318
263.771
265.15
345.062
346.573
352.726
355.138
357.855
355.182
349.656
330.042
330.498
336.852
334.364
337.023
333.542
330.008
304.113
298.951
300.193
303.526
301.173
302.226
301.448
301.991
301.437
301.998
302.913
303.761
304.57
306.485
300.113
301.237
301.109
301.037
303.645
301.228
301.132
328.201
327.95
338.693
339.607
337.026
335.794
331.402
340.45
350.336
356.702
358.182
359.565
356.02
350.177
370.569
370.398
370.721
370.279
368.364
365.224
356.409
359.777
360.331
359.988
359.235
357.291
353.853
348.364
316.412
315.125
316.881
317.636
316.559
315.116
313.096
308.222
307.606
308.481
309.032
309.494
310.191
311.339
315.895
315.971
317.848
318.432
317.5
316.089
313.981
354.988
359.915
360.447
360.383
358.268
354.59
348.455
368.134
372.1
372.366
373.116
370.069
365.989
357.249
367.421
367.166
368.261
366.358
359.178
354.643
348.933
359.509
358.938
358.25
355.934
351.566
345.26
338.198
324.019
323.273
322.849
322.028
320.227
317.842
316.315
311.029
310.895
311.476
312.041
312.218
312.973
314.335
326.833
323.173
323.011
322.638
320.955
318.918
316.254
352.882
357.738
357.886
356.838
352.293
346.259
339.993
367.28
366.247
367.425
365.895
359.717
354.504
346.613
364.299
362.214
357.681
355.626
352.674
346.388
339.908
353.271
351.98
349.896
346.738
342.51
338.92
332.313
323.384
322.724
322.147
320.414
318.252
316.487
314.102
312.973
312.512
313.258
313.415
313.835
315.159
316.414
322.323
322.433
322.354
320.846
318.587
316.692
314.402
352.233
352.084
349.911
346.959
342.087
336.929
331.95
361.289
362.21
356.7
352.331
352.502
347.891
342.631
353.825
351.725
349.736
350.505
339.96
338.776
335.504
347.128
345.645
343.252
340.995
335.01
330.769
324.504
321.516
321.177
319.978
317.623
316.422
314.218
311.987
314.338
314.148
314.597
315.001
315.674
316.115
317.832
325.313
322.162
319.707
317.912
316.589
314.266
311.747
344.463
344.236
342.838
340.063
335.118
332.171
324.9
355.434
349.757
351.664
343.42
336.612
339.374
335.362
346.009
347.751
345.885
342.306
335.779
332.07
328.048
339.576
338.318
336.04
334.286
330.411
327.39
322.449
316.541
315.144
313.991
312.092
311.565
309.894
308.647
315.274
315.284
315.939
316.33
317.108
318.773
321.712
317.032
315.912
314.233
312.494
311.688
309.979
308.448
341.595
338.656
336.506
333.209
329.521
326.744
322.409
349.695
344.285
339.948
328.111
330.832
329.28
327.694
340.33
339.248
338.045
335.42
333.37
323.267
321.385
336.516
335.301
333.229
331.998
327.668
324.738
320.847
319.002
317.822
315.965
310.573
309.153
308.801
307.788
316.603
316.567
316.992
317.367
316.767
319.219
322.959
323.697
319.476
317.082
310.775
309.182
308.709
307.61
336.329
335.663
333.597
330.893
327.444
324.633
320.776
339.939
338.214
335.314
325.616
327.374
323.055
319.936
331.168
330.956
328.94
310.863
317.789
318.936
315.742
329.649
328.653
327.353
325.344
323.314
322.564
319.75
314.281
312.969
311.232
308.086
305.853
306.374
306.483
313.93
313.295
312.893
313.125
312.979
314.158
316.639
314.91
313.567
311.374
308.314
305.633
306.287
306.372
329.565
328.91
327.517
325.098
323.393
322.523
319.681
330.652
330.131
328.483
322.31
322.469
318.79
315.838
294
293.467
294.725
292.792
292.865
292.31
292.515
316.757
316.435
316.11
316.321
316.611
316.117
316.79
308.448
306.841
305.817
304.741
304.767
305.709
304.489
306.744
307.894
307.523
307.727
309.009
309.812
311.651
306.182
306.151
305.183
304.297
304.395
305.484
304.622
316.902
316.604
316.234
316.437
316.669
316.224
316.905
294.251
294.254
295.209
293.215
293.31
292.544
292.786
282.207
282.029
282.421
282.191
282.402
283.008
283.078
309.416
309.609
309.574
309.656
309.874
309.539
309.643
301.935
303.06
302.608
302.492
303.618
304.016
303.646
305.266
303.259
302.772
302.85
303.412
303.891
308.592
302.613
301.523
301.83
301.997
302.997
303.793
303.265
309.43
309.611
309.62
309.763
309.814
309.565
309.745
282.214
282.264
282.416
282.235
282.609
283.055
283.284
278.196
278.143
278.193
278.588
278.526
278.665
278.701
305.23
305.171
305.158
305.096
305.246
305.062
305.315
301.688
302.959
302.377
302.355
303.009
303.11
303.363
302.181
303.051
302.559
302.604
302.813
303.127
302.301
302.179
301.57
301.68
302.06
302.682
303.086
302.937
305.147
305.066
305.166
305.107
305.158
305.081
305.415
278.233
278.377
278.206
278.616
278.755
278.626
278.864
276.412
276.318
276.335
276.6
276.329
276.626
276.515
303.428
303.404
303.396
303.305
303.35
303.234
303.384
300.192
300.659
300.288
300.303
300.305
300.124
300.306
300.47
301.992
301.527
301.502
301.169
301.108
300.817
300.356
300.266
300.274
300.418
300.657
300.309
300.07
303.403
303.35
303.397
303.332
303.253
303.254
303.538
276.471
276.61
276.376
276.634
276.674
276.637
276.735
277.46
277.458
277.482
277.802
277.497
277.806
277.538
303.372
303.356
303.356
303.29
303.377
303.295
303.344
303.049
303.087
302.928
302.928
302.949
302.878
302.653
298.784
300.379
299.958
299.906
299.621
299.468
295.907
303.099
303.097
303.136
303.066
303.174
302.94
302.651
303.353
303.29
303.362
303.308
303.293
303.31
303.33
277.501
277.76
277.452
277.818
277.858
277.852
277.865
292.611
292.609
292.606
291.998
292.605
291.971
292.556
305.278
305.276
305.285
305.186
305.283
305.171
305.256
302.456
302.387
302.338
302.394
302.447
302.505
302.201
288.262
289.17
288.854
288.806
288.819
288.656
287.508
302.399
302.429
302.601
302.446
302.467
302.398
302.1
305.274
305.176
305.283
305.195
305.195
305.182
305.173
292.574
291.995
292.599
291.992
291.983
291.973
291.965
351.154
355.565
357.624
351.95
348.573
347.292
356.848
332.765
334.067
336.643
332.139
328.711
329.582
336.153
300.081
302.13
299.847
300.358
302.518
299.289
306.607
305.977
304.026
302.934
302.291
301.756
301.232
302.457
298.991
299.988
300.694
301.122
301.038
299.606
302.182
334.354
337.765
339.688
338.337
336.762
330.962
332.703
350.089
355.802
358.793
356.516
353.387
348.23
345.471
357.878
363.675
368.305
369.786
370.012
371.503
373.821
348.557
353.468
356.528
357.374
357.305
358.147
359.533
312.97
314.755
315.408
315.815
314.26
312.347
314.952
310.787
309.67
308.908
308.434
307.611
306.757
307.768
313.52
315.665
317.144
318.368
317.994
316.815
323.865
348.658
353.96
357.166
358.831
359.298
359.247
353.865
356.034
364.663
367.861
370.178
370.756
371.53
370.449
347.389
356.991
358.297
362.316
367.414
368.489
370.557
338.905
345.83
350.969
355.369
356.843
357.873
357.943
315.664
318.089
320.082
321.35
320.51
319.347
321.185
313.625
312.628
312.154
311.836
311.481
310.704
312.056
315.74
318.768
320.997
323.003
323.61
323.592
323.918
339.064
345.187
350.64
354.867
358.332
358.811
357.468
349.122
353.047
357.238
361.355
366.622
368.451
368.062
339.158
342.9
347.593
355.22
359.342
361.366
364.563
331.211
335.872
341.189
346.369
349.973
351.699
350.548
314.469
316.841
318.785
320.406
321.612
322.731
328.493
316.134
314.655
313.424
313.191
313.059
312.834
313.938
313.953
316.415
318.658
319.995
321.973
322.962
322.558
331.699
336.537
341.092
345.948
350.596
351.896
352.978
342.376
347.218
347.098
355.781
360.396
360.498
365.484
331.544
335.976
336.976
340.734
350.13
355.229
355.229
324.689
331.741
335.537
339.567
344.513
346.901
347.584
312.392
314.796
317.207
318.92
319.353
320.976
326.988
317.315
315.655
315.242
314.488
314.178
313.773
314.137
311.382
313.808
316.011
318.134
319.393
320.222
320.237
324.777
332.074
334.526
338.269
342.93
346.453
346.42
332.894
340.118
340.667
341.42
348.962
356.068
355.643
326.474
330.352
332.891
335.289
344.522
349.087
347.788
322.567
327.017
329.965
334.134
337.314
339.82
342.879
309.096
310.664
312.215
313.775
314.388
315.497
316.87
321.23
318.272
316.64
315.774
315.412
314.813
315.033
308.18
309.671
311.356
312.24
313.31
315.519
318.238
322.384
326.753
329.363
333.379
336.194
338.171
338.377
327.695
327.896
329.818
335.637
344.644
343.679
345.381
319.481
322.695
326.163
332.866
336.856
339.791
337.124
320.776
324.417
327.635
331.873
334.063
335.994
336.986
308.142
309.2
310.109
312.097
317.029
319.239
320.285
322.596
318.721
316.311
316.873
316.458
316.046
316.052
307.496
308.488
308.835
310.054
315.307
317.01
317.34
320.802
324.673
327.431
331.461
333.306
335.376
334.955
321.206
323.14
325.967
332.45
336.789
338.954
340.195
315.837
318.938
323.272
329.363
328.948
330.137
331.306
319.956
322.599
323.652
326.048
327.795
328.796
330.519
306.904
306.644
306.225
308.767
312.212
314.283
315.025
318.232
313.963
312.679
312.834
312.557
312.794
313.581
306.271
306.242
305.655
307.131
310.391
312.483
315.332
319.701
322.539
323.399
325.675
327.215
328.491
328.261
315.784
319.056
321.813
328.312
328.268
330.54
330.445
293.141
292.757
293.809
293.501
295.947
294.22
294.889
317.106
316.516
316.963
316.764
316.495
316.909
317.125
304.772
305.729
304.61
304.576
305.709
306.765
307.229
308.128
309.791
308.821
307.427
307.256
307.525
305.828
304.97
305.607
304.586
304.746
305.807
306.58
306.499
316.799
316.244
316.623
316.374
316.079
316.466
316.848
292.619
292.31
293.112
292.881
294.905
293.09
293.963
283.496
283.104
282.64
282.419
282.811
282.435
282.414
309.691
309.702
309.932
309.742
309.547
309.602
309.477
303.731
304.063
303.049
302.236
302.492
302.261
303.514
306.546
304.005
303.266
302.719
302.636
302.973
304.329
302.351
303.748
303.118
302.3
302.71
302.792
302.714
309.758
309.671
309.797
309.729
309.533
309.665
309.493
283.079
282.843
282.623
282.065
282.47
282.049
282.144
278.949
278.499
278.664
278.616
278.439
278.37
278.412
305.351
305.203
305.273
305.125
305.148
305.195
305.259
303.411
303.312
302.676
302.278
302.21
302.075
302.729
302.757
303.301
302.7
302.542
302.464
302.773
301.195
302.371
302.957
302.572
302.17
302.422
302.803
302.117
305.359
305.182
305.161
305.158
305.168
305.146
305.198
278.649
278.41
278.777
278.406
278.177
278.091
278.181
276.795
276.477
276.436
276.644
276.634
276.608
276.666
303.456
303.316
303.33
303.331
303.338
303.382
303.542
300.254
300.307
300.497
300.396
300.183
300.196
300.039
300.73
301.356
301.084
301.522
301.525
301.784
300.232
300.375
300.18
300.217
300.294
300.314
300.838
300.014
303.564
303.344
303.277
303.37
303.418
303.435
303.467
276.45
276.361
276.656
276.348
276.325
276.287
276.403
277.946
277.543
277.51
277.855
277.827
277.791
277.837
303.277
303.349
303.358
303.295
303.289
303.302
303.323
302.521
302.916
303.067
302.969
302.857
302.87
302.607
298.77
299.656
299.481
299.829
299.941
300.213
296.053
302.884
302.864
302.891
302.937
302.949
303.247
302.772
303.372
303.374
303.297