/*--------------------------------*- C++ -*----------------------------------*\
  =========                 |
  \\      /  F ield         | OpenFOAM: The Open Source CFD Toolbox
   \\    /   O peration     | Website:  https://openfoam.org
    \\  /    A nd           | Version:  6
     \\/     M anipulation  |
\*---------------------------------------------------------------------------*/
FoamFile
{
    version     2.0;
    format      ascii;
    class       volVectorField;
    location    "0.0025";
    object      U;
}
// * * * * * * * * * * * * * * * * * * * * * * * * * * * * * * * * * * * * * //

dimensions      [0 1 -1 0 0 0 0];

internalField   nonuniform List<vector> 
3773
(
(25.8607 -0.085124 0.137049)
(25.7624 0.000162789 0.106951)
(25.7739 0.0427437 0.0882676)
(25.7803 0.0167327 0.0963304)
(25.7717 0.0190933 0.0995496)
(25.7661 0.0313409 0.0943914)
(25.8707 0.070949 0.127092)
(9.23399 0.0181999 0.0385068)
(9.21542 -0.0366359 0.0489959)
(9.21449 -0.0322433 0.0632768)
(9.21312 0.0142186 0.0580556)
(9.21298 0.0202881 0.062263)
(9.21719 0.0249714 0.08642)
(9.23913 -0.00388739 0.0918658)
(3.88625 0.0396105 0.0306538)
(3.88438 -0.00857092 0.0408308)
(3.88415 -0.0326903 0.0536449)
(3.88408 0.0128509 0.0493982)
(3.88417 0.0268618 0.0520667)
(3.8843 0.013179 0.0705457)
(3.88744 -0.0159813 0.0564212)
(-1.51858e-05 0.00501034 0.0427476)
(-4.2648e-05 0.0147529 0.0384187)
(-1.36032e-05 0.0171752 0.0376207)
(2.51364e-05 -0.0147986 0.0408526)
(2.20087e-05 -0.0406894 0.0357457)
(-7.21098e-06 -0.0354135 0.0248206)
(-6.06233e-05 -0.0163499 0.0331375)
(-3.88748 0.0304856 0.033457)
(-3.88466 -0.0170448 0.0408019)
(-3.88518 -0.0348602 0.0460198)
(-3.88513 0.00848336 0.0450169)
(-3.88504 0.021109 0.0469559)
(-3.88507 0.00956958 0.0643162)
(-3.88798 -0.0151884 0.0501547)
(-9.24287 0.00883152 0.0311462)
(-9.21731 -0.0465284 0.0456066)
(-9.2225 -0.032739 0.065028)
(-9.22074 0.0105071 0.0579171)
(-9.22037 0.0172681 0.0635168)
(-9.22184 0.0270325 0.0888037)
(-9.24275 -0.00220419 0.0941252)
(-25.8604 -0.0622847 0.148137)
(-25.7761 -0.0107884 0.110578)
(-25.786 0.00204758 0.108821)
(-25.79 -0.0206535 0.116201)
(-25.7879 -0.0231567 0.107725)
(-25.7737 -0.000310303 0.0998957)
(-25.8739 0.051835 0.141378)
(24.3702 -0.0921011 0.395645)
(24.2367 -0.0297867 0.341287)
(24.1958 0.0200187 0.315109)
(24.1908 0.0219911 0.328193)
(24.2198 0.023678 0.34242)
(24.2494 0.0415558 0.356807)
(24.2523 0.0795387 0.400068)
(8.67797 0.016258 0.041331)
(8.7911 -0.0370491 0.0672379)
(8.78818 -0.0377539 0.0958165)
(8.78702 0.0153454 0.0793891)
(8.79067 0.0363311 0.0763276)
(8.79691 0.0409103 0.106854)
(8.71247 0.00248431 0.0939692)
(3.74218 0.0432144 0.0545085)
(3.71715 0.00144314 0.0575846)
(3.71646 -0.02991 0.0819313)
(3.71723 0.0125215 0.0724841)
(3.71811 0.0378015 0.0718244)
(3.71772 0.0171633 0.0983253)
(3.74245 -0.0206899 0.0771072)
(-2.03204e-05 0.00173494 0.0447599)
(-4.57627e-05 0.0161289 0.033983)
(-1.78274e-05 0.0220767 0.0296941)
(2.01866e-05 -0.0169264 0.0393846)
(1.40289e-05 -0.0483675 0.0299873)
(-1.36525e-05 -0.0368564 0.0104569)
(-6.16224e-05 -0.0126394 0.0251933)
(-3.74633 0.0335172 0.0523936)
(-3.73087 -0.013103 0.0564942)
(-3.72121 -0.0342419 0.0696214)
(-3.72073 0.00940087 0.0649783)
(-3.72074 0.0317103 0.0641005)
(-3.71936 0.0125424 0.0897542)
(-3.74557 -0.0205796 0.0682902)
(-8.69056 0.012612 0.0379575)
(-8.70727 -0.0437102 0.0629305)
(-8.78339 -0.0386562 0.0981003)
(-8.78367 0.0119973 0.0729203)
(-8.78062 0.0347296 0.0834289)
(-8.80045 0.0424007 0.116312)
(-8.70042 0.0023741 0.0942457)
(-24.3067 -0.0679453 0.415997)
(-24.3134 -0.0379965 0.365821)
(-24.2061 -0.0150509 0.353963)
(-24.2077 -0.0167975 0.37615)
(-24.1999 -0.0215976 0.350988)
(-24.2286 0.0118269 0.345483)
(-24.2545 0.0627704 0.415785)
(24.1241 -0.106904 0.345196)
(24.1291 -0.0472179 0.301814)
(24.0386 0.0224185 0.264206)
(24.034 0.0308381 0.271584)
(24.0949 0.0321571 0.314963)
(24.1836 0.055328 0.354778)
(24.1177 0.0901313 0.37971)
(8.61207 0.0194131 0.0803852)
(8.72449 -0.0259295 0.104222)
(8.71472 -0.0339923 0.129093)
(8.63813 0.00727192 0.114545)
(8.67023 0.033228 0.0897648)
(8.72828 0.0362546 0.0918197)
(8.62861 -0.00134342 0.0654121)
(3.74191 0.0413043 0.0951759)
(3.71052 0.00246982 0.076717)
(3.71823 -0.0280045 0.10249)
(3.73921 0.00857837 0.092587)
(3.72631 0.0402158 0.0888958)
(3.7073 0.0195793 0.104523)
(3.74222 -0.0233693 0.0897487)
(-2.41853e-05 0.000675594 0.0368333)
(-4.62248e-05 0.0121547 0.0327846)
(-8.8973e-06 0.0217962 0.0210921)
(2.96398e-05 -0.0162274 0.0267728)
(-1.90135e-06 -0.0533219 0.0234232)
(-2.26995e-05 -0.037766 0.013301)
(-6.61905e-05 -0.0109543 0.0214356)
(-3.74216 0.0327495 0.0860893)
(-3.7088 -0.011449 0.0746311)
(-3.72376 -0.0337469 0.0930073)
(-3.72823 0.00648836 0.0860162)
(-3.73095 0.0344637 0.0800311)
(-3.71271 0.0149722 0.0963199)
(-3.74232 -0.0233597 0.0828652)
(-8.61926 0.0107945 0.0882186)
(-8.72079 -0.0346365 0.101017)
(-8.69753 -0.0367147 0.129837)
(-8.67023 0.00551085 0.099692)
(-8.67035 0.0378795 0.103787)
(-8.72211 0.0355533 0.101825)
(-8.62836 -0.00444529 0.0630494)
(-24.1035 -0.0841328 0.373566)
(-24.1783 -0.0521708 0.342601)
(-24.0301 -0.00655082 0.308671)
(-24.0156 -0.0174858 0.337243)
(-24.0182 -0.0328092 0.307244)
(-24.1435 0.0275081 0.333707)
(-24.1137 0.0820944 0.38929)
(24.095 -0.114302 0.24466)
(24.1918 -0.0565254 0.23754)
(24.1345 0.0187181 0.212056)
(24.1466 0.0399594 0.205986)
(24.11 0.0489763 0.236333)
(24.159 0.0631081 0.275074)
(24.1016 0.0943599 0.277811)
(8.61233 0.0212662 0.079115)
(8.75036 -0.0158465 0.0813534)
(8.72942 -0.0293761 0.105017)
(8.73255 -0.0020715 0.0985089)
(8.6352 0.0254561 0.0710693)
(8.72961 0.0309808 0.0689291)
(8.61703 -0.00305917 0.0564104)
(3.74185 0.0368673 0.0953409)
(3.70285 0.00305319 0.0739661)
(3.71203 -0.0236636 0.105217)
(3.71239 0.00697089 0.100126)
(3.73336 0.0429308 0.0997836)
(3.70049 0.0205711 0.104555)
(3.74133 -0.0254009 0.0942912)
(-2.34094e-05 0.00356703 0.0417384)
(-4.27166e-05 0.0103768 0.0446342)
(1.14365e-05 0.0174495 0.0274122)
(4.38674e-05 -0.0159714 0.0198431)
(-1.41848e-05 -0.054234 0.0241827)
(-1.83069e-05 -0.0378027 0.033171)
(-6.89539e-05 -0.0112081 0.036099)
(-3.74232 0.0297251 0.0897634)
(-3.69844 -0.00923322 0.0751424)
(-3.72548 -0.0299578 0.0982823)
(-3.73859 0.00408534 0.0918828)
(-3.73399 0.0360146 0.0858905)
(-3.70018 0.0177429 0.0935972)
(-3.74164 -0.0250148 0.0852863)
(-8.61502 0.0114087 0.0819063)
(-8.7477 -0.0256741 0.0846027)
(-8.68086 -0.0347309 0.109487)
(-8.64234 -1.41534e-05 0.0979829)
(-8.65891 0.034859 0.0842867)
(-8.73307 0.0270118 0.07246)
(-8.61664 -0.00831571 0.0558857)
(-24.0904 -0.0911481 0.266523)
(-24.1741 -0.0591364 0.260464)
(-24.133 -0.00643713 0.23967)
(-23.9974 -0.0190417 0.225322)
(-24.0897 -0.0283973 0.236664)
(-24.1515 0.0397378 0.280641)
(-24.0973 0.0890225 0.287279)
(24.0979 -0.109038 0.172078)
(24.1227 -0.0573792 0.212645)
(24.1125 0.0129123 0.201173)
(24.0567 0.0385871 0.196967)
(24.0947 0.060388 0.182201)
(24.1263 0.0706852 0.205022)
(24.0914 0.0932287 0.19588)
(8.61529 0.0210849 0.0815193)
(8.75204 -0.0136513 0.0608841)
(8.74903 -0.0281967 0.0789385)
(8.77321 -0.00715886 0.0780601)
(8.75091 0.0227491 0.0714102)
(8.7422 0.0293296 0.0755836)
(8.61536 -0.00595359 0.0667345)
(3.74241 0.0326038 0.0922745)
(3.7084 0.00585723 0.0775447)
(3.70655 -0.0182311 0.106233)
(3.70911 0.00672262 0.100302)
(3.70889 0.0431135 0.100328)
(3.69701 0.0180027 0.0973553)
(3.74184 -0.0267255 0.0919052)
(-2.43988e-05 0.00363869 0.0481741)
(-3.38332e-05 0.0066999 0.043992)
(2.23569e-05 0.010886 0.0292867)
(5.27138e-05 -0.0170564 0.0154055)
(-1.06436e-05 -0.048227 0.0223843)
(-2.66695e-06 -0.0328385 0.0429526)
(-6.70987e-05 -0.00958961 0.0441002)
(-3.74258 0.0263036 0.0904295)
(-3.70387 -0.00812616 0.0799088)
(-3.70938 -0.0269076 0.101383)
(-3.72147 0.00198287 0.096537)
(-3.72599 0.0350186 0.0856541)
(-3.6997 0.014853 0.0865305)
(-3.7421 -0.0260204 0.0837624)
(-8.61835 0.0128012 0.0807766)
(-8.74835 -0.0207647 0.0703599)
(-8.73893 -0.0306451 0.0952101)
(-8.70713 -0.00443557 0.093963)
(-8.7038 0.0264966 0.0757535)
(-8.73619 0.0226411 0.0753621)
(-8.6156 -0.0109704 0.0669378)
(-24.097 -0.0882112 0.182098)
(-24.1344 -0.0584541 0.193396)
(-24.1192 -0.016012 0.198843)
(-24.0498 -0.0198973 0.165836)
(-24.0645 -0.0110875 0.204646)
(-24.1225 0.0457034 0.222049)
(-24.0902 0.0860318 0.203985)
(24.0996 -0.0973938 0.0804857)
(24.1328 -0.0455977 0.16328)
(23.9392 0.0118828 0.134439)
(24.1421 0.0333501 0.15133)
(24.1542 0.0508725 0.126143)
(24.1237 0.0701038 0.122916)
(24.0948 0.0919699 0.0929079)
(8.62498 0.0142778 0.0977323)
(8.75885 -0.0165013 0.0757997)
(8.78813 -0.0230678 0.107263)
(8.74786 -0.00477643 0.106344)
(8.75364 0.0216249 0.109488)
(8.75168 0.0283371 0.121411)
(8.62513 -0.0078076 0.113991)
(3.74357 0.030311 0.102023)
(3.70518 0.00934647 0.087097)
(3.70803 -0.0145674 0.107813)
(3.70074 0.00455842 0.104571)
(3.70054 0.0407981 0.103175)
(3.69841 0.0164113 0.100498)
(3.74302 -0.02758 0.100181)
(-2.38782e-05 0.000845245 0.0430435)
(-2.25109e-05 0.00154651 0.0405613)
(6.65797e-06 0.00585503 0.0317984)
(3.97298e-05 -0.0179958 0.0205369)
(1.10076e-05 -0.0419899 0.0283032)
(1.28225e-05 -0.0290879 0.0371217)
(-6.58908e-05 -0.0089391 0.0373974)
(-3.74367 0.024702 0.0952235)
(-3.71114 -0.00527245 0.0788153)
(-3.70387 -0.0237042 0.105428)
(-3.7074 -0.00202646 0.101605)
(-3.70294 0.0310995 0.0944645)
(-3.70958 0.012919 0.0975024)
(-3.74321 -0.0263591 0.0983785)
(-8.62841 0.00808814 0.0957068)
(-8.78451 -0.0172002 0.0922397)
(-8.75933 -0.0257943 0.116723)
(-8.79085 -0.00752458 0.118834)
(-8.75501 0.0271373 0.0996279)
(-8.72139 0.0222608 0.118733)
(-8.625 -0.0123188 0.105465)
(-24.0989 -0.0853551 0.0915758)
(-23.9646 -0.0497634 0.13749)
(-24.1261 -0.0183339 0.130273)
(-23.9426 -0.0173715 0.109047)
(-24.1816 -0.00457367 0.162789)
(-24.1107 0.0403072 0.119034)
(-24.0939 0.0831995 0.0964814)
(24.1482 -0.0827389 0.122672)
(23.9173 -0.0332596 0.168119)
(24.1217 0.00945711 0.152193)
(24.1185 0.0347269 0.162408)
(24.1193 0.0436599 0.154093)
(24.1364 0.0612683 0.15504)
(24.1471 0.0861081 0.129747)
(8.74174 0.0110783 0.0291598)
(8.77923 -0.0101105 0.0229527)
(8.74764 -0.0156034 0.0509404)
(8.73786 -0.00612669 0.0455445)
(8.73889 0.0283263 0.0457301)
(8.74648 0.0352981 0.0584743)
(8.74212 -0.00809088 0.0535567)
(3.70836 0.0276455 0.0423151)
(3.71406 0.00942092 0.0311079)
(3.70264 -0.011108 0.04021)
(3.70714 0.00520249 0.0421176)
(3.70146 0.0419429 0.0407873)
(3.70695 0.0166991 0.0398336)
(3.70255 -0.0288379 0.0406579)
(-2.05609e-05 0.0011863 0.00552973)
(-1.32388e-05 0.000842483 0.00809711)
(-1.10576e-05 0.00358597 0.00355743)
(2.00014e-05 -0.018277 -0.000471875)
(3.06194e-05 -0.0432607 0.00387305)
(1.50167e-05 -0.031395 0.00211554)
(-6.64722e-05 -0.00990406 0.00242807)
(-3.70854 0.0205338 0.0360098)
(-3.74882 -0.00468787 0.0209804)
(-3.70772 -0.0185237 0.038924)
(-3.70253 -0.00244868 0.0375095)
(-3.75609 0.0345928 0.0372098)
(-3.70785 0.0171095 0.0418514)
(-3.70254 -0.0273017 0.0426435)
(-8.74292 0.0100733 0.0289429)
(-8.58674 -0.0158665 0.0400426)
(-8.74183 -0.0205172 0.0473957)
(-8.74795 -0.0111008 0.0527333)
(-8.62729 0.0298578 0.0375087)
(-8.74662 0.0276369 0.0535093)
(-8.74215 -0.0157961 0.0433892)
(-24.1571 -0.0757566 0.131184)
(-24.0859 -0.0451054 0.168289)
(-24.1278 -0.0255033 0.154349)
(-24.1278 -0.00704708 0.146363)
(-23.8886 -0.00899493 0.177471)
(-24.1433 0.0217872 0.141048)
(-24.1525 0.0821455 0.130087)
(25.1403 -0.0505502 -3.22544)
(25.1321 -0.00516992 -3.21069)
(25.1326 0.0136019 -3.21947)
(25.134 -0.0116434 -3.22423)
(25.1355 0.00960058 -3.22678)
(25.1361 -0.00446862 -3.224)
(25.1386 0.00595509 -3.2223)
(9.05609 0.0193925 -3.48324)
(9.05578 0.0226525 -3.4823)
(9.05457 0.00962654 -3.4864)
(9.05519 0.00793726 -3.49037)
(9.05525 0.0227577 -3.49426)
(9.05434 0.0183579 -3.49216)
(9.05503 -0.00289425 -3.50072)
(3.89453 0.0147533 -3.65195)
(3.89365 0.0028748 -3.65357)
(3.89356 -0.00649815 -3.65361)
(3.89303 0.00277425 -3.6526)
(3.89297 -0.00134551 -3.65266)
(3.89295 -0.00260128 -3.65509)
(3.89269 -0.00387496 -3.65907)
(0.00139944 -0.00990271 -3.69423)
(0.00118177 -0.00663207 -3.69093)
(0.000772545 0.00561195 -3.69209)
(0.000494364 0.00135431 -3.69308)
(0.00043606 0.0016104 -3.69347)
(0.000395619 0.00515172 -3.69276)
(0.000414907 0.00256917 -3.69013)
(-3.89186 0.0113537 -3.6416)
(-3.89212 0.0177445 -3.637)
(-3.89219 0.0133191 -3.63583)
(-3.89237 0.00394442 -3.63661)
(-3.89227 0.000361363 -3.64053)
(-3.89244 0.000676799 -3.64312)
(-3.89268 -0.00257801 -3.65135)
(-9.05034 0.0255196 -3.51353)
(-9.0514 -0.0135278 -3.52278)
(-9.05321 -0.0361642 -3.51355)
(-9.05327 -0.0100032 -3.51403)
(-9.05423 -0.0156778 -3.5117)
(-9.05432 -0.0195682 -3.50933)
(-9.05469 -0.0166017 -3.51186)
(-25.1324 0.0108725 -3.2098)
(-25.1366 -0.00767756 -3.23485)
(-25.136 -0.0418739 -3.22398)
(-25.1343 -0.00639934 -3.2223)
(-25.1331 -0.0184924 -3.2209)
(-25.132 -0.020031 -3.21927)
(-25.1375 0.0155825 -3.21384)
(25.2492 -0.0307108 -9.58046)
(25.2487 0.00290208 -9.57555)
(25.2428 -0.00556251 -9.58535)
(25.2443 -0.0225512 -9.59654)
(25.2531 0.00916139 -9.60389)
(25.267 0.00274576 -9.60709)
(25.2515 0.0100797 -9.60214)
(9.13199 0.0210824 -10.5086)
(9.14492 0.0182931 -10.5147)
(9.13238 -0.00180294 -10.5152)
(9.14342 -0.00253861 -10.5262)
(9.14537 0.0202343 -10.533)
(9.14266 0.0077783 -10.5299)
(9.14615 -0.0161199 -10.5432)
(3.878 0.0115286 -10.8182)
(3.87297 -3.54686e-05 -10.8111)
(3.87696 -0.00481845 -10.821)
(3.87304 0.00392652 -10.8168)
(3.8721 -0.00527751 -10.8132)
(3.87196 -0.0125533 -10.8133)
(3.87173 -0.0100884 -10.813)
(0.00073732 -0.00527851 -10.9076)
(0.000793923 -0.0035614 -10.9068)
(0.000203999 0.00254186 -10.9082)
(-5.31413e-05 -0.000922273 -10.9122)
(-6.11589e-05 0.00204301 -10.9115)
(-0.000377291 0.0103836 -10.9078)
(-0.000487108 0.00661113 -10.9008)
(-3.88494 0.0182974 -10.7966)
(-3.88012 0.0256196 -10.7835)
(-3.8783 0.0129337 -10.7782)
(-3.87809 -0.00378405 -10.7805)
(-3.87653 -0.00986739 -10.7819)
(-3.87757 -0.0153107 -10.7878)
(-3.87851 -0.0146747 -10.7997)
(-9.10813 0.0134952 -10.5013)
(-9.11435 -0.0116118 -10.5167)
(-9.12284 -0.0231528 -10.5198)
(-9.12657 -0.00690686 -10.5241)
(-9.13554 -0.00949963 -10.5311)
(-9.13413 -0.0216641 -10.5284)
(-9.12813 -0.0212322 -10.5227)
(-25.1826 -0.0238258 -9.59675)
(-25.2541 -0.0255896 -9.63214)
(-25.252 -0.0227999 -9.61847)
(-25.2446 -0.000164729 -9.62067)
(-25.2437 -0.0120767 -9.61422)
(-25.2369 -0.00783804 -9.60134)
(-25.2449 0.0249761 -9.58168)
(25.1953 -0.0411717 -15.7196)
(25.2225 -0.0125114 -15.7293)
(25.1939 -0.0198428 -15.74)
(25.1959 -0.0333607 -15.7603)
(25.2281 0.0073093 -15.7821)
(25.279 -0.00398865 -15.8229)
(25.1917 0.0037173 -15.7395)
(9.07051 0.028066 -17.0325)
(9.13173 0.0142421 -17.1321)
(9.09005 -0.0105075 -17.0894)
(9.12998 0.000346979 -17.1495)
(9.13533 0.0169894 -17.1613)
(9.12844 0.00412432 -17.1511)
(9.13271 -0.0165598 -17.1481)
(3.90891 0.0084189 -17.6073)
(3.88824 -0.00423368 -17.5315)
(3.90395 -0.0137148 -17.5888)
(3.88936 -0.00206678 -17.5426)
(3.88699 -0.000680572 -17.5304)
(3.88685 -0.00260165 -17.5217)
(3.88874 -0.00305132 -17.5312)
(0.000299635 -0.00757292 -17.5898)
(0.000178618 -0.00774053 -17.5939)
(0.000343257 -0.00176529 -17.5906)
(-2.22653e-05 -0.00418134 -17.602)
(-0.000407702 0.00505751 -17.5991)
(-0.000254286 0.0211798 -17.5931)
(-0.000986893 0.0135109 -17.6008)
(-3.89121 0.0127062 -17.4795)
(-3.88338 0.0169562 -17.4532)
(-3.88539 0.00537283 -17.4649)
(-3.88355 -0.0128575 -17.4594)
(-3.88649 -0.0165524 -17.4827)
(-3.8905 -0.019781 -17.5043)
(-3.9019 -0.0171996 -17.5407)
(-9.12782 0.00929053 -17.0256)
(-9.15785 -0.0221091 -17.0937)
(-9.15373 -0.0304191 -17.102)
(-9.16881 -0.00511225 -17.1491)
(-9.15523 -0.00830888 -17.1261)
(-9.14745 -0.0189008 -17.1249)
(-9.09439 -0.0163946 -17.0458)
(-25.2399 -0.0055951 -15.7747)
(-25.2443 -0.00571905 -15.7766)
(-25.2341 -0.0316908 -15.7864)
(-25.2087 -0.0050521 -15.7815)
(-25.2048 0.00510045 -15.7695)
(-25.1807 0.0267777 -15.7476)
(-25.2012 0.0480721 -15.7372)
(25.3395 -0.0244199 -22.034)
(25.345 -0.0320647 -22.0033)
(25.3262 -0.0808198 -22.0511)
(25.3172 -0.0520212 -22.0982)
(25.3321 0.0114221 -22.0904)
(25.3219 0.0246358 -22.0447)
(25.3159 0.0335637 -22.0077)
(9.0886 0.019615 -23.0869)
(9.08415 -0.011185 -23.0699)
(9.08731 -0.0482063 -23.1176)
(9.09459 -0.00825382 -23.1422)
(9.09406 0.0274335 -23.1396)
(9.11353 0.00677504 -23.1874)
(9.09162 -0.0115886 -23.0852)
(3.90567 0.00335592 -23.5829)
(3.90753 -0.00961264 -23.6044)
(3.90967 -0.0112238 -23.6205)
(3.91077 -0.00932093 -23.6296)
(3.908 -0.0075 -23.6153)
(3.90376 0.00965597 -23.5956)
(3.90736 0.00605442 -23.6077)
(-0.000494802 -0.0123578 -23.6201)
(0.000113849 -0.0139896 -23.5907)
(-0.000472139 0.00133385 -23.5875)
(-0.000675422 -0.00347363 -23.5842)
(-0.000873329 0.00192896 -23.5832)
(-0.00051668 0.0191164 -23.595)
(-0.000402467 0.0106491 -23.6349)
(-3.89141 0.0147203 -23.45)
(-3.88644 0.0140552 -23.4474)
(-3.88746 -0.00380391 -23.4552)
(-3.88816 -0.025114 -23.4683)
(-3.8928 -0.0289182 -23.5003)
(-3.89567 -0.00643471 -23.5235)
(-3.91198 0.000575868 -23.5913)
(-9.15107 -0.0146611 -23.0654)
(-9.18167 -0.0674849 -23.147)
(-9.18455 -0.0768869 -23.1613)
(-9.18878 -0.0307469 -23.1985)
(-9.15288 -0.0276257 -23.1211)
(-9.1523 -0.0536343 -23.1635)
(-9.07598 -0.0319669 -22.975)
(-25.3167 -0.0206952 -21.8945)
(-25.3082 -0.0504286 -21.9076)
(-25.2996 -0.0744547 -21.9403)
(-25.2778 -0.0134943 -21.9189)
(-25.3212 0.00331107 -21.9621)
(-25.3123 0.0286312 -21.9578)
(-25.3426 0.0562281 -21.9827)
(25.4963 0.0219502 -28.7064)
(25.4856 -0.0547516 -28.5171)
(25.4997 -0.215197 -28.7095)
(25.566 -0.0753586 -28.7666)
(25.4539 0.0849156 -28.7)
(25.5672 0.0910135 -28.6239)
(25.4977 0.0695343 -28.4201)
(9.16731 0.027754 -28.8643)
(9.16173 -0.0394842 -28.7875)
(9.18917 -0.0911346 -28.8158)
(9.21186 -0.00384147 -28.9112)
(9.15427 0.0369067 -28.8116)
(9.17577 0.0548692 -28.8099)
(9.20032 0.0389106 -28.8624)
(3.89692 0.00429473 -28.8681)
(3.89928 -0.0184778 -28.9042)
(3.89676 -0.0202867 -28.8893)
(3.89679 -0.015495 -28.8658)
(3.90534 -0.0267161 -28.9153)
(3.89916 0.0116408 -28.9096)
(3.88256 0.0202753 -28.8199)
(0.00188507 -0.0153411 -28.9759)
(0.000722113 -0.0166334 -28.9764)
(-0.000115714 0.0108154 -28.9731)
(-0.000940271 0.00450365 -28.9727)
(-0.00111539 -0.0131484 -28.9589)
(-0.000542623 -0.0343946 -28.9584)
(-0.000243403 -0.0289233 -29.0122)
(-3.91633 -0.00418712 -28.988)
(-3.89828 -0.00889865 -28.8732)
(-3.896 -0.0151191 -28.8431)
(-3.89606 -0.0366321 -28.8121)
(-3.90146 -0.0404664 -28.8684)
(-3.90761 0.00367526 -28.8922)
(-3.88595 0.0177771 -28.7705)
(-9.09873 -0.0309508 -28.3871)
(-9.1722 -0.0793549 -28.5522)
(-9.21393 -0.0909002 -28.6013)
(-9.22452 -0.0513868 -28.656)
(-9.15447 -0.0738669 -28.5503)
(-9.15617 -0.0646799 -28.6039)
(-9.20609 0.00143626 -28.7627)
(-25.5417 -0.0214325 -28.3079)
(-25.5161 -0.0870163 -28.2647)
(-25.4992 -0.1051 -28.3483)
(-25.4842 -0.00619956 -28.4728)
(-25.5038 0.003681 -28.5623)
(-25.491 0.024778 -28.5211)
(-25.472 0.054852 -28.4223)
(26.2408 0.247037 -36.275)
(25.6976 -0.00471949 -35.4683)
(26.0901 -0.384552 -36.3562)
(26.2759 -0.0571839 -36.4466)
(26.0651 0.283922 -36.0121)
(26.0984 0.402499 -35.8196)
(26.0116 0.2004 -35.2261)
(9.31861 0.0870046 -34.1068)
(9.3503 0.0827133 -33.9749)
(9.36407 -0.0386378 -34.192)
(9.36035 -0.0495951 -34.2308)
(9.33152 0.00797987 -33.9571)
(9.30312 0.0938909 -33.9786)
(9.4183 0.0756058 -34.094)
(3.94151 -0.0422617 -33.4626)
(3.94124 -0.0312697 -33.5455)
(3.92232 0.0254338 -33.3841)
(3.92436 0.00412214 -33.394)
(3.93776 -0.0388692 -33.4985)
(3.93783 -0.0290253 -33.4749)
(3.91743 -0.00238309 -33.3415)
(0.00472389 -0.00942152 -33.2142)
(0.00114288 -0.0193888 -33.2701)
(-0.000388498 0.0180736 -33.3181)
(-0.00185585 0.0270806 -33.3879)
(0.00049433 0.0103542 -33.3696)
(0.00240451 -0.0373288 -33.3083)
(0.000933788 -0.0505464 -33.3215)
(-3.91451 0.00942826 -33.3651)
(-3.943 0.0259144 -33.5042)
(-3.92232 0.0284767 -33.4492)
(-3.92493 -0.0292223 -33.4273)
(-3.92737 -0.040984 -33.487)
(-3.94217 -0.000141294 -33.5075)
(-3.91655 -0.000882516 -33.3474)
(-9.35665 0.00452809 -33.7578)
(-9.28104 0.0124668 -33.492)
(-9.35928 -0.0578582 -33.7155)
(-9.37196 -0.16167 -33.8283)
(-9.31655 -0.220241 -33.7341)
(-9.31109 -0.113155 -33.86)
(-9.4439 0.0159684 -34.1042)
(-26.1853 0.003896 -35.4912)
(-26.0234 -0.161581 -35.4014)
(-26.0228 -0.387605 -35.8024)
(-26.1978 -0.204876 -35.7846)
(-26.3195 0.0206643 -35.9973)
(-26.0391 0.0943295 -36.0469)
(-26.0207 0.100127 -35.5145)
(27.4858 0.299612 -40.0197)
(26.8933 -0.0974632 -38.5718)
(28.14 -0.376649 -40.1214)
(27.9653 0.29449 -40.2307)
(27.7829 0.489046 -39.65)
(27.3228 0.558715 -39.5637)
(27.3365 0.368074 -38.7551)
(9.6893 0.148765 -38.7765)
(9.59223 0.0276937 -38.0872)
(9.56792 -0.17547 -38.3877)
(9.57385 0.0736835 -38.4895)
(9.57388 0.121494 -38.2431)
(9.61251 0.204946 -38.2405)
(9.58859 0.233989 -37.5266)
(3.94071 -0.11922 -37.0265)
(3.96537 -0.127833 -37.3018)
(3.94343 0.00773713 -36.9385)
(3.95774 0.0205951 -36.9211)
(3.95335 -0.00296174 -36.9544)
(3.9697 -0.00514984 -37.2764)
(3.94695 -0.0131444 -36.8961)
(0.00202946 -0.176319 -36.3302)
(0.00265013 -0.239309 -36.6967)
(0.00192319 -0.175168 -36.8557)
(0.00382345 -0.089192 -37.3998)
(0.000545383 0.11924 -37.2404)
(-0.000466649 0.129509 -36.9784)
(0.00220617 0.0199672 -36.9655)
(-3.94526 0.0200129 -37.1659)
(-3.94741 -0.0696718 -37.2378)
(-3.94643 -0.0554854 -37.3874)
(-3.94629 0.00108523 -37.3683)
(-3.95556 0.058648 -37.2633)
(-3.96908 0.0707658 -37.1252)
(-3.95278 -0.0189664 -37.2142)
(-9.51002 0.0172014 -37.7564)
(-9.65741 0.0322444 -38.0785)
(-9.53882 -0.11175 -37.7888)
(-9.56177 -0.241207 -37.876)
(-9.57592 -0.401214 -38.0425)
(-9.65024 -0.169082 -38.6339)
(-9.62254 0.129339 -38.1088)
(-27.7124 -0.0532965 -39.4222)
(-26.9891 -0.315649 -38.7947)
(-28.2047 -0.274339 -39.6839)
(-27.8664 -0.0660346 -39.4783)
(-27.7617 -0.249871 -39.6475)
(-27.668 0.0197846 -39.7864)
(-27.0349 0.239533 -38.9064)
(25.6106 0.264201 -29.961)
(25.6723 0.235604 -30.5096)
(25.7305 -0.121879 -29.8146)
(25.7101 0.0686846 -29.505)
(25.7155 0.24141 -30.218)
(25.6931 0.0198781 -29.6488)
(25.6205 -0.091498 -31.8475)
(9.00669 -0.158494 -39.6611)
(8.89395 -0.239308 -39.4204)
(8.94683 -0.197334 -39.6694)
(8.9657 -0.0130754 -39.7769)
(8.99076 0.303346 -39.8631)
(8.9796 0.203564 -39.5615)
(8.90385 -0.0604496 -40.5079)
(3.83577 -0.354578 -45.1063)
(3.94108 -0.518691 -45.6251)
(3.88954 -0.198771 -45.9068)
(3.88961 -0.00624678 -46.0851)
(3.85251 0.270114 -45.6949)
(3.87041 0.300731 -45.3865)
(3.87075 0.106431 -45.2722)
(0.00656531 -0.246511 -46.5914)
(0.0065824 -0.317347 -46.6865)
(0.0123944 0.0515795 -46.7324)
(0.00957623 0.22613 -46.3888)
(0.00331631 0.286354 -46.3111)
(-0.00198198 0.430491 -46.2013)
(-0.000923668 0.256531 -45.8069)
(-3.82193 -0.195599 -45.126)
(-3.87097 -0.310391 -45.4909)
(-3.90307 -0.198003 -45.7755)
(-3.88828 0.277009 -45.8472)
(-3.89678 0.570686 -45.8799)
(-3.91566 0.356527 -45.9532)
(-3.87784 0.141574 -45.2655)
(-9.03904 -0.1189 -41.1622)
(-9.05799 -0.283398 -41.1776)
(-9.02555 -0.223832 -41.5324)
(-8.97059 0.0909462 -41.4674)
(-8.96836 0.343076 -40.5689)
(-8.86303 0.203316 -39.4129)
(-8.90882 0.0575044 -40.2903)
(-25.7354 0.115597 -32.2471)
(-25.7726 0.00943088 -31.5292)
(-25.7923 -0.251922 -31.7535)
(-25.7581 -0.0280788 -31.758)
(-25.7194 0.149322 -31.1592)
(-25.6816 -0.0511378 -29.6545)
(-25.623 -0.0765641 -31.6574)
(25.6728 0.0994938 -40.467)
(25.8454 -0.287254 -41.4318)
(25.8788 -0.85937 -43.0209)
(25.8842 -0.0336347 -43.8617)
(25.8754 0.874409 -43.1579)
(25.8432 0.459538 -41.7565)
(25.5425 0.00373277 -40.5104)
(9.12146 -0.684757 -44.7844)
(8.97573 -1.13023 -45.3229)
(8.95279 -0.822771 -46.2862)
(9.01795 -0.0864965 -46.9602)
(9.04689 0.758205 -46.5863)
(9.01988 1.1531 -45.633)
(9.11803 0.702427 -44.8554)
(3.87484 -0.833333 -46.0196)
(3.90528 -1.31876 -47.0076)
(3.90004 -0.694084 -47.6142)
(3.88732 0.0639992 -47.582)
(3.86584 0.703676 -47.3781)
(3.88157 1.29829 -46.9346)
(3.87727 0.84888 -45.992)
(0.00310767 -0.834129 -45.6968)
(0.00182941 -1.21115 -46.4882)
(0.0019118 -0.567898 -47.0317)
(0.000313387 0.117973 -47.2633)
(-0.00130438 0.67937 -47.1466)
(-0.00291775 1.27024 -46.7178)
(-0.0025694 0.871293 -45.884)
(-3.88334 -0.804281 -45.9157)
(-3.88423 -1.19286 -46.6421)
(-3.88779 -0.620015 -47.3741)
(-3.89042 0.0226114 -47.4342)
(-3.88689 0.655536 -47.5426)
(-3.91637 1.26579 -47.1164)
(-3.88088 0.845426 -46.0577)
(-9.10092 -0.699786 -44.8263)
(-9.07655 -1.22163 -45.7753)
(-9.03343 -0.801114 -46.4357)
(-9.03854 -0.0375241 -47.0662)
(-9.0087 0.720536 -46.6308)
(-8.92405 1.1518 -45.5198)
(-9.10764 0.690581 -44.943)
(-25.6911 0.034258 -40.9614)
(-25.8612 -0.401186 -41.8302)
(-25.888 -0.846459 -43.2379)
(-25.8775 -0.0141189 -43.8437)
(-25.835 0.781799 -43.1234)
(-25.8548 0.34605 -41.9496)
(-25.573 -0.0454205 -40.6457)
(25.7827 -1.10069 -41.9147)
(26.0409 -3.2186 -49.1373)
(26.0627 -2.79162 -53.2074)
(26.05 -0.108944 -55.0656)
(26.0469 2.6779 -53.2492)
(26.0274 3.15766 -49.1385)
(25.6833 1.05264 -41.9933)
(9.14386 -1.56253 -44.5843)
(8.90241 -3.13625 -48.147)
(8.8986 -1.91841 -50.3554)
(9.00118 -0.154158 -51.1559)
(8.98798 1.78497 -50.4932)
(8.95311 3.14556 -48.1593)
(9.18234 1.57362 -44.7713)
(3.89411 -1.48464 -45.0766)
(3.90011 -2.67203 -47.3419)
(3.87959 -1.24468 -48.1187)
(3.87546 0.0831697 -48.3007)
(3.85137 1.30278 -48.0567)
(3.87945 2.62432 -47.3572)
(3.89 1.45634 -45.0108)
(0.000909618 -1.43059 -44.8231)
(0.000305339 -2.42294 -46.3024)
(0.00259778 -1.04007 -46.8767)
(-8.27626e-05 0.0763134 -46.9793)
(7.64755e-06 1.14624 -46.9111)
(-0.00121564 2.44609 -46.3435)
(-0.000678604 1.42455 -44.8723)
(-3.90333 -1.43876 -45.1437)
(-3.87081 -2.53722 -47.1416)
(-3.86588 -1.19054 -48.0839)
(-3.88077 0.0247204 -48.3719)
(-3.87007 1.25203 -48.0962)
(-3.89768 2.58451 -47.3405)
(-3.8999 1.44215 -45.1493)
(-9.10037 -1.5575 -44.5646)
(-9.00812 -3.2521 -48.7312)
(-8.97712 -1.92122 -50.7323)
(-9.00265 -0.00473663 -51.2935)
(-8.96135 1.8914 -50.6396)
(-8.91042 3.22753 -48.2792)
(-9.12637 1.58695 -44.5929)
(-25.7997 -1.11422 -42.2275)
(-26.0517 -3.25537 -49.3907)
(-26.0565 -2.74042 -53.4838)
(-26.0461 0.0517852 -55.3671)
(-26.0294 2.77578 -53.4114)
(-26.053 3.20536 -49.3077)
(-25.749 1.07178 -42.0577)
(26.0131 -3.89283 -37.5455)
(26.4551 -9.3321 -57.0442)
(26.4265 -6.6185 -69.6732)
(26.2652 -0.0888565 -75.0711)
(26.3894 6.45472 -69.5859)
(26.4798 9.25662 -57.0521)
(25.9548 3.81249 -37.5696)
(9.08723 -3.1762 -39.3943)
(8.92874 -7.14752 -50.9544)
(8.82458 -3.92534 -57.4051)
(9.00774 -0.120821 -58.9477)
(8.9463 3.83072 -57.6729)
(8.93995 7.15485 -50.8809)
(9.16982 3.24063 -39.5969)
(3.89097 -2.1126 -40.356)
(3.87633 -4.70533 -46.3665)
(3.86252 -2.05132 -48.747)
(3.85702 0.0726061 -49.1568)
(3.82514 2.10116 -48.6031)
(3.86957 4.69523 -46.4185)
(3.87208 2.09471 -40.1924)
(0.00169338 -1.68927 -40.252)
(0.00174834 -3.72837 -44.5661)
(0.00128229 -1.44572 -45.9948)
(0.00132673 0.0646311 -46.1652)
(0.000705693 1.53535 -46.0083)
(-0.000719856 3.75675 -44.5951)
(-0.000582797 1.69047 -40.223)
(-3.88804 -2.07643 -40.3837)
(-3.85777 -4.62118 -46.4183)
(-3.83862 -1.98072 -48.772)
(-3.85152 0.0542625 -49.1494)
(-3.83248 2.04869 -48.5924)
(-3.86691 4.63124 -46.307)
(-3.89252 2.07646 -40.3619)
(-9.07519 -3.16968 -39.3314)
(-8.97569 -7.1761 -50.9507)
(-8.90686 -3.87358 -57.4587)
(-9.02837 0.000441919 -59.0172)
(-8.94085 3.90751 -57.7522)
(-8.96161 7.19005 -51.1052)
(-9.06987 3.1821 -39.3189)
(-26.0457 -3.88008 -37.6821)
(-26.4861 -9.31778 -57.1639)
(-26.4063 -6.57372 -69.6892)
(-26.263 -0.0237547 -75.1221)
(-26.3574 6.4848 -69.6551)
(-26.5039 9.30398 -57.1407)
(-26.049 3.87982 -37.6602)
(26.4374 -6.45902 -22.0835)
(27.3665 -15.6204 -69.5833)
(27.1151 -12.4412 -96.4652)
(26.2677 0.0227595 -105.519)
(27.039 12.3164 -96.2581)
(27.4644 15.6513 -69.5384)
(26.4395 6.39781 -22.1371)
(9.13044 -5.34687 -23.1119)
(9.1083 -13.4179 -55.2736)
(8.82916 -8.49666 -74.086)
(8.98189 -0.0830292 -77.3264)
(8.92621 8.44984 -74.2963)
(9.06253 13.3463 -55.3051)
(9.21063 5.41165 -23.0281)
(3.90539 -2.96433 -27.691)
(3.86687 -10.0058 -46.425)
(3.8312 -4.61162 -53.982)
(3.8462 0.0607821 -54.6982)
(3.80194 4.65856 -53.8663)
(3.87768 10.0715 -46.4141)
(3.88358 2.95364 -27.5364)
(0.00205287 -1.56689 -29.7874)
(0.00168803 -7.811 -43.3754)
(0.0017979 -2.93897 -47.5658)
(-0.000248986 0.0438672 -47.691)
(0.000278295 3.01219 -47.5707)
(-0.000297598 7.87672 -43.3889)
(-0.000928383 1.60925 -29.7445)
(-3.88993 -2.89867 -27.6253)
(-3.86927 -10.016 -46.6792)
(-3.82113 -4.58895 -54.166)
(-3.84569 0.0730157 -54.6919)
(-3.80798 4.61077 -53.6999)
(-3.86587 9.99678 -46.2559)
(-3.90228 2.94242 -27.6364)
(-9.15706 -5.3937 -23.1004)
(-9.07014 -13.3441 -54.9902)
(-8.85285 -8.32892 -73.909)
(-8.96439 0.0606152 -77.2976)
(-8.91139 8.54235 -74.6013)
(-9.11691 13.354 -55.6534)
(-9.13528 5.27475 -23.0814)
(-26.4891 -6.41209 -22.221)
(-27.4356 -15.5197 -69.8052)
(-27.0287 -12.3946 -96.4305)
(-26.2682 -0.141123 -105.584)
(-26.9228 12.1339 -96.4129)
(-27.4853 15.524 -69.623)
(-26.5293 6.40893 -22.2442)
(27.5205 -7.68088 -10.4571)
(28.9937 -4.65067 -92.7627)
(28.173 -7.7056 -117.83)
(26.3042 0.1231 -118.538)
(28.0495 7.81216 -117.528)
(29.1865 4.90654 -92.9265)
(27.6107 7.80116 -10.4211)
(9.51435 -7.69379 -11.4985)
(9.44809 -13.5704 -70.2813)
(8.80529 -10.7377 -90.7909)
(8.61013 -0.0477747 -94.391)
(8.88662 10.6862 -91.0785)
(9.42228 13.3595 -70.3839)
(9.52154 7.65842 -11.2409)
(4.00037 -2.9865 -21.6905)
(3.94279 -14.777 -52.8557)
(3.75806 -8.85976 -65.1807)
(3.70668 0.00798686 -65.4088)
(3.73357 8.95285 -64.8677)
(3.94639 14.8465 -52.618)
(3.99935 3.03018 -21.5222)
(-0.00199074 0.389318 -26.4059)
(0.000554037 -11.942 -47.0641)
(0.00437842 -5.73408 -54.4919)
(-0.000302731 0.0236924 -54.0555)
(0.000793673 5.79131 -54.5124)
(0.00192861 12.0198 -47.0608)
(0.00159178 -0.308363 -26.3455)
(-4.00043 -2.91175 -21.6262)
(-3.9528 -14.751 -52.8364)
(-3.76073 -8.91604 -65.1816)
(-3.71324 0.111195 -65.4844)
(-3.74327 8.91293 -65.022)
(-3.94265 14.8466 -52.6711)
(-4.00639 3.01403 -21.6007)
(-9.4942 -7.68996 -11.5398)
(-9.38277 -13.4581 -70.3983)
(-8.79887 -10.6383 -90.8053)
(-8.55752 -0.00922097 -94.0594)