/*--------------------------------*- C++ -*----------------------------------*\
  =========                 |
  \\      /  F ield         | OpenFOAM: The Open Source CFD Toolbox
   \\    /   O peration     | Website:  https://openfoam.org
    \\  /    A nd           | Version:  6
     \\/     M anipulation  |
\*---------------------------------------------------------------------------*/
FoamFile
{
    version     2.0;
    format      ascii;
    class       volScalarField;
    location    "4";
    object      p;
}
// * * * * * * * * * * * * * * * * * * * * * * * * * * * * * * * * * * * * * //

dimensions      [1 -1 -2 0 0 0 0];

internalField   nonuniform List<scalar> 
297
(
120044
120044
120044
198962
198962
198962
120044
120044
120044
120044
120044
120044
198962
198962
198962
120044
120044
120044
120044
120044
120044
198962
198962
198962
120044
120044
120044
97386.4
97401.7
97392.4
161039
161074
161133
97383.7
97398.5
97389.7
97345.1
97304.4
97305.4
160671
160796
160762
97338.7
97295.2
97298
97221.4
97240.3
96952.4
158634
159890
158693
97212.8
97227.7
96939.7
96280.3
96646.1
96413.3
159802
159476
159582
96298.7
96668.5
96447.2
96789.1
96870.8
96713.8
160636
160377
160472
96798
96879.8
96756
96940.3
97101.8
96882.5
160690
160605
160550
96951.4
97100.7
96883.3
95260.3
97328.6
96017.6
152789
158391
155367
95238.1
97327.3
96019.3
95003.9
97294
95851
152221
158321
154844
94984
97293.9
95854.6
94999.4
97217.3
95732.2
152780
158424
154905
94983.7
97218.9
95738.3
97396.6
97521.1
97336.1
160724
160749
160821
97367.1
97532.6
97418.5
97476.5
97584.2
97471.4
160748
160835
160930
97480.8
97585.1
97498
97505.4
97576.5
97504.7
160771
160887
160983
97517.4
97580.4
97531.4
97365.5
97254.5
97103.9
160767
160707
160532
97679.9
97604.7
97808.3
97282.5
97071.8
96770.5
160750
160705
160492
97438.6
97341.4
97495.1
97276.7
97029
96664.5
160798
160682
160362
97383.3
97277.6
97238.4
97773
97549.3
97629.2
160505
160665
160695
97111.5
97250.5
97346
97428.8
97264.4
97385.2
160453
160645
160650
96773.3
97068.4
97282.1
97166.1
97208.2
97323
160327
160623
160672
96653.8
97015.7
97273.3
99149
98825.9
98312.4
160531
160415
160364
99295.7
98554.1
97527.1
98756.8
98384.4
97898.3
160045
159840
160005
98351.4
97453.7
96802.4
98191.1
97797.7
97407.1
159277
159078
159360
97222.5
96560
96210.6
95645.3
95628.7
95595.9
154989
154900
154734
92865.3
92802.4
92701.2
89877.6
89924.9
89967.7
146823
146799
146740
88711.8
88668.3
88578.4
83858.6
83858.4
83857.6
134621
134573
134492
86253.2
86411.7
86621.8
97517.8
98539
99266.2
160386
160431
160541
98308.8
98791.1
99095.4
96787.1
97431.7
98324.5
160056
159880
160073
97926.2
98376.5
98726.4
96193.6
96534.6
97209.1
159414
159141
159334
97462.3
97825.4
98190.9
92765.2
92867.7
92938.1
154848
155032
155125
95721.7
95750.7
95765.1
88741.5
88827.8
88876.7
146921
146988
147002
90112.4
90071.2
90024.5
86753.1
86537.9
86374.9
134694
134766
134812
83993
83992.9
83993
)
;

boundaryField
{
    fuel
    {
        type            zeroGradient;
    }
    primary_air
    {
        type            zeroGradient;
    }
    Secondary_air_RHS
    {
        type            zeroGradient;
    }
    Secondary_air_LHS
    {
        type            zeroGradient;
    }
    outlet
    {
        type            totalPressure;
        rho             rho;
        psi             none;
        gamma           1;
        p0              uniform 100000;
        value           nonuniform List<scalar> 
18
(
99993.3
100000
86493.2
93274.4
100000
86371.5
87800.2
100000
86329.6
86165.3
100000
87648
86207.2
100000
93220.9
86243.3
100000
99992.9
)
;
    }
    stove_body
    {
        type            zeroGradient;
    }
    frontAndBack
    {
        type            empty;
    }
}


// ************************************************************************* //
