/*--------------------------------*- C++ -*----------------------------------*\
  =========                 |
  \\      /  F ield         | OpenFOAM: The Open Source CFD Toolbox
   \\    /   O peration     | Website:  https://openfoam.org
    \\  /    A nd           | Version:  6
     \\/     M anipulation  |
\*---------------------------------------------------------------------------*/
FoamFile
{
    version     2.0;
    format      ascii;
    class       volScalarField;
    location    "3.5";
    object      p;
}
// * * * * * * * * * * * * * * * * * * * * * * * * * * * * * * * * * * * * * //

dimensions      [1 -1 -2 0 0 0 0];

internalField   nonuniform List<scalar> 
297
(
115610
115610
115610
192409
192409
192409
115610
115610
115610
115610
115610
115610
192409
192409
192409
115610
115610
115610
115610
115610
115610
192410
192410
192410
115610
115610
115610
96777.4
96790
96779.9
160651
160713
160714
96775.4
96791.9
96780.9
97090.6
96569.8
96913.2
160555
160979
160507
97091.5
96573.8
96913.7
93507.2
93609
93859.6
150284
155964
150741
93536.9
93586.6
93882.4
90162
93409.8
89755.8
153965
153666
153440
90164.2
93399.1
89764.8
95801.6
96177.3
95629.6
159712
159162
159761
95799.2
96166.4
95627.7
95762.5
96189.6
95682.7
159086
159774
159431
95768.2
96189.1
95688.7
70227.9
91509
71134.7
115575
148681
116039
70232.6
91414
71137.6
68736.5
91382.7
69601.2
111569
148092
111931
68737.9
91264
69601.6
71053
91541.9
71754.7
114394
148423
114608
71051
91404.2
71752.4
96551.6
96711.7
96533.3
160162
160406
160206
96547.2
96701.7
96529.4
96676.7
96712.7
96655.9
160484
160544
160487
96670.2
96700.8
96649.8
96679
96700.7
96659.5
160634
160612
160618
96671.2
96687.8
96652.4
96811.9
97044.3
97616.6
160438
160565
160827
96809.5
97043.8
97615.4
96677.3
96745.7
97140.1
160489
160499
160573
96675.3
96746.7
97141.7
96551.8
96407.7
96328.2
160618
160534
160415
96550.2
96410.2
96333.7
97623.1
97059.9
96829.5
160856
160591
160451
97621.4
97058
96825.9
97154.7
96767.1
96698.3
160605
160528
160510
97155
96766
96695
96356.4
96434.2
96574.8
160449
160565
160643
96359.7
96434.1
96571.4
98872.7
98641
98224.4
161886
161694
161308
98862.2
98633.4
98220.3
98554.9
98281.6
97831.7
161517
161322
160953
98547.3
98277.1
97829.9
98149.7
97864.2
97332.2
161041
160804
160535
98143.9
97861
97331.9
96168.3
96072.7
95900.9
158814
158695
158587
96167.4
96072.2
95900.9
90195.8
90236.2
90290.5
149017
149016
149013
90201.4
90241.1
90295.3
82807.2
82808.2
82810.6
132615
132611
132600
82810.9
82811.8
82814.1
98228.8
98652.7
98888.7
161287
161679
161875
98223.9
98643.5
98876.2
97829.1
98286.8
98564.7
160925
161299
161499
97827
98281
98555.2
97320.1
97861.2
98151.5
160498
160771
161014
97319.5
97856.6
98143.8
95863.6
96037.4
96134.3
158517
158627
158747
95863.4
96036.5
96132.9
90225.3
90170.7
90129.4
148904
148907
148909
90231.8
90177.3
90136.8
82741.7
82739.3
82738.2
132495
132507
132512
82745.8
82743.5
82742.5
)
;

boundaryField
{
    fuel
    {
        type            zeroGradient;
    }
    primary_air
    {
        type            zeroGradient;
    }
    Secondary_air_RHS
    {
        type            zeroGradient;
    }
    Secondary_air_LHS
    {
        type            zeroGradient;
    }
    outlet
    {
        type            totalPressure;
        rho             rho;
        psi             none;
        gamma           1;
        p0              uniform 100000;
        value           nonuniform List<scalar> 
18
(
86325.4
100000
86330.8
86275.9
100000
86281.4
86261.4
100000
86267.6
86330.7
100000
86335.8
86344.3
100000
86348.9
86393.5
100000
86398
)
;
    }
    stove_body
    {
        type            zeroGradient;
    }
    frontAndBack
    {
        type            empty;
    }
}


// ************************************************************************* //
