/*--------------------------------*- C++ -*----------------------------------*\
  =========                 |
  \\      /  F ield         | OpenFOAM: The Open Source CFD Toolbox
   \\    /   O peration     | Website:  https://openfoam.org
    \\  /    A nd           | Version:  6
     \\/     M anipulation  |
\*---------------------------------------------------------------------------*/
FoamFile
{
    version     2.0;
    format      ascii;
    class       volScalarField;
    location    "3";
    object      p;
}
// * * * * * * * * * * * * * * * * * * * * * * * * * * * * * * * * * * * * * //

dimensions      [1 -1 -2 0 0 0 0];

internalField   nonuniform List<scalar> 
297
(
120920
120921
120920
199845
199844
199845
120921
120922
120921
120920
120920
120920
199845
199844
199845
120921
120922
120921
120920
120920
120920
199845
199844
199845
120921
120922
120921
97153.9
97163.6
97150.9
160507
160508
160515
97047.3
97059.5
97055.7
97199.9
97206.8
97174
160240
160342
160267
97078.9
97112.7
97114.1
97034.7
97163.3
97006.6
158365
159508
158345
96958
97097.9
96981.6
96439.7
96666.3
96484.3
159456
159265
159453
96421.3
96573
96334.8
96695.1
96876
96770.2
160204
160001
160220
96696.4
96736.8
96614.5
96717
97019.5
96809.8
160165
160185
160165
96775.7
96897.7
96661.4
95799.1
97145.8
95802.5
153800
158679
153898
95694.2
97014.3
95802.9
95609.8
97110.3
95607.2
153263
158711
153340
95500
96980.9
95623.6
95534.4
97053.6
95518.9
153641
158838
153710
95422.4
96929.7
95555.2
97327.8
97463.6
97359
160182
160195
160170
97150
97260.8
97085
97444.9
97531.1
97461.4
160204
160230
160253
97244.2
97320.3
97189.1
97495.2
97532.9
97501.5
160207
160270
160299
97266
97304.9
97226.1
97697.1
97859.3
98383.2
159981
160006
159919
97054.6
96969.2
96842.4
97424.6
97409.5
97777.9
160057
159963
159753
97000.7
96757
96465.1
97314.8
97157.5
97130
160082
159903
159616
97001.8
96705.1
96352.9
98407
97865.9
97698.8
159949
159989
159983
96857.8
96956.1
97044.2
97798.1
97407.8
97412.7
159751
159948
160008
96545.3
96813.7
97018.2
97141.5
97181.9
97329.9
159612
159872
160012
96445.9
96775.1
97022.4
98765.5
98928.2
98836
159705
159709
159796
98697.7
98088
97206.4
98449.8
98530.2
98314.3
159391
159386
159501
97872.7
97127.3
96559.1
98087
98106.4
97753
158864
158948
159025
96901
96313.3
96025.7
95813.1
95748.5
95720.5
155271
155226
155037
93138
93051.5
92977.3
91118.5
91055.2
91055.5
148075
148049
147991
89614.1
89596.8
89544.1
85300.5
85284.1
85268.3
136346
136242
136158
87806.1
87968.8
88151.9
98855.4
98980.4
98813.3
159783
159715
159710
97260.6
98279.9
98992.1
98349.3
98604.9
98502.9
159499
159396
159392
96537.3
97207.9
98087.8
97773.9
98181.5
98105.7
158986
158974
158847
95970.9
96330
97019.7
95564.4
95610.7
95699.7
154664
154876
154925
92801.6
92880.6
92955.7
90724.3
90717.2
90783.5
147413
147470
147499
89206.3
89272.9
89302.8
84860.9
84878.7
84894.5
135432
135521
135615
87626.4
87414.8
87256.4
)
;

boundaryField
{
    fuel
    {
        type            zeroGradient;
    }
    primary_air
    {
        type            zeroGradient;
    }
    Secondary_air_RHS
    {
        type            zeroGradient;
    }
    Secondary_air_LHS
    {
        type            zeroGradient;
    }
    outlet
    {
        type            totalPressure;
        rho             rho;
        psi             none;
        gamma           1;
        p0              uniform 100000;
        value           nonuniform List<scalar> 
18
(
87049.8
100000
99995.1
86857.3
100000
93730.5
87127.1
100000
88276.2
87439.8
100000
88631
87215.6
100000
93955.3
87385.3
100000
99995.6
)
;
    }
    stove_body
    {
        type            zeroGradient;
    }
    frontAndBack
    {
        type            empty;
    }
}


// ************************************************************************* //
