/*--------------------------------*- C++ -*----------------------------------*\
  =========                 |
  \\      /  F ield         | OpenFOAM: The Open Source CFD Toolbox
   \\    /   O peration     | Website:  https://openfoam.org
    \\  /    A nd           | Version:  6
     \\/     M anipulation  |
\*---------------------------------------------------------------------------*/
FoamFile
{
    version     2.0;
    format      ascii;
    class       volVectorField;
    location    "3";
    object      U;
}
// * * * * * * * * * * * * * * * * * * * * * * * * * * * * * * * * * * * * * //

dimensions      [0 1 -1 0 0 0 0];

internalField   nonuniform List<vector> 
297
(
(84.4598 -0.0586537 0.240726)
(84.4195 -0.0174052 0.269055)
(84.4614 0.0406919 0.215977)
(0.000260752 0.0905672 0.327521)
(0.000245942 0.0370291 0.346255)
(0.00026168 -0.0641451 0.31815)
(-84.4593 -0.0586571 0.240796)
(-84.419 -0.0172245 0.269037)
(-84.4609 0.0408994 0.215953)
(84.4743 -0.0589223 0.280539)
(84.4193 -0.0054056 0.303085)
(84.4638 0.0376181 0.25931)
(0.000259618 0.168135 -0.167001)
(0.000242489 0.12742 -0.113211)
(0.000260386 -0.167353 0.140119)
(-84.4739 -0.0589251 0.280648)
(-84.4189 -0.00528453 0.303588)
(-84.4633 0.0377704 0.259282)
(84.596 -0.194139 0.580078)
(84.5387 -0.0703024 0.589337)
(84.5889 0.076838 0.56764)
(0.000226357 -0.295049 0.415497)
(0.000216479 0.112649 0.353323)
(0.000244331 0.108386 0.0298474)
(-84.5954 -0.194092 0.580147)
(-84.5384 -0.0701551 0.589363)
(-84.5884 0.0769144 0.567633)
(61.6671 1.44378 0.431058)
(62.3408 0.875031 -3.95165)
(58.9215 1.59984 -1.45872)
(-0.0140944 -0.270292 5.26445)
(-0.0142486 -0.299771 3.54554)
(-0.0124638 0.998605 4.51226)
(-60.6982 2.50936 1.16167)
(-61.0952 1.04753 -1.39599)
(-58.3359 0.125605 -1.98686)
(68.8446 6.68144 3.93574)
(65.244 2.76876 -5.62663)
(69.5536 -10.5175 12.6689)
(-0.0179804 7.56698 36.2977)
(-0.0135119 0.827629 21.9938)
(-0.00882393 -7.1426 37.3883)
(-68.3208 11.1299 1.55445)
(-67.0559 5.0075 0.386274)
(-69.0462 -2.38731 13.9329)
(67.9475 7.76874 -7.38897)
(62.7674 0.590484 -18.3184)
(68.6868 -14.7778 -4.12704)
(-0.0117745 -3.92316 47.8909)
(-0.0099004 -0.537379 11.6987)
(-0.00383153 3.45979 49.6445)
(-67.3619 14.2959 -6.6553)
(-63.3712 -5.98033 -5.05948)
(-69.4841 -7.87787 6.52331)
(64.6227 0.193884 -43.9564)
(62.3832 1.17046 -29.7999)
(64.5759 -5.33867 -42.826)
(-0.00297874 -1.3833 7.48909)
(-0.0150905 0.999836 -8.05271)
(-0.0242915 0.456448 12.9927)
(-64.0125 6.04919 -44.3947)
(-62.1501 -1.89406 -26.1795)
(-65.2277 2.81574 -37.2764)
(64.6502 8.46383 -27.6968)
(62.2889 1.6196 -33.9701)
(63.9053 -14.9126 -27.7533)
(0.000211644 1.3479 4.06127)
(-0.022635 0.352794 2.47948)
(-0.0253763 -2.03723 11.2163)
(-63.1237 15.6274 -29.2201)
(-62.2177 -4.25081 -31.5259)
(-65.5979 -5.87353 -19.6391)
(61.9658 24.1444 -32.131)
(60.0828 4.4671 -33.705)
(62.2343 -24.915 -32.1739)
(0.0095059 -0.682851 8.19273)
(-0.0183429 2.43198 -7.07616)
(-0.0238572 0.683362 13.1657)
(-60.8665 21.4772 -30.9115)
(-60.6473 -12.4928 -28.5327)
(-62.7989 -20.7516 -22.8607)
(60.6755 10.7443 -41.8766)
(59.3144 1.07289 -20.2545)
(61.312 -17.5739 -39.8497)
(-0.0171967 -2.64937 63.3663)
(-0.0190976 -0.392464 -22.5202)
(7.85214e-05 1.95403 65.5905)
(-60.259 17.7301 -41.9489)
(-60.3089 -3.31121 -14.7998)
(-62.7806 -10.4246 -35.8543)
(58.119 4.93887 -46.349)
(60.8711 1.38392 -21.8414)
(58.1567 -10.7068 -44.9231)
(-0.0149346 -2.26156 69.6636)
(-0.019487 -0.252494 -23.1013)
(0.00221732 1.45827 72.2118)
(-57.7494 11.1087 -46.5332)
(-61.1424 -3.11198 -16.4801)
(-59.177 -3.3221 -40.0469)
(54.3728 3.25341 -45.9805)
(62.0555 1.12867 -23.8988)
(54.1062 -8.67692 -44.5364)
(-0.0144636 -1.8092 68.5432)
(-0.0205043 -0.0531415 -19.5642)
(0.00467009 0.936599 71.3382)
(-53.2305 9.26669 -46.1654)
(-62.1213 -2.73191 -19.2296)
(-57.1277 -1.19036 -39.928)
(58.5663 37.4097 -8.37277)
(58.3412 1.15369 -9.87621)
(59.0658 -38.0481 -7.00434)
(-0.028288 -8.23849 6.14551)
(-0.0289792 -2.78417 -7.27908)
(-0.0436266 6.91026 11.1906)
(-58.3334 34.3283 -6.65416)
(-58.2556 -6.49863 -8.00114)
(-58.2307 -37.6705 -7.93592)
(57.5097 33.4278 -3.25582)
(58.1228 3.84768 -6.02586)
(58.699 -33.7021 -2.09276)
(-0.0280904 0.566412 -3.32953)
(-0.0301059 -3.7032 -3.25639)
(-0.0432718 4.79982 6.76355)
(-57.8054 26.695 1.14776)
(-57.9589 -9.59306 -1.19216)
(-58.2165 -31.3912 2.47796)
(58.162 -4.76108 1.48095)
(58.7295 -7.4572 2.77326)
(58.6945 -12.3802 4.90705)
(-0.0318259 -8.06965 -1.43921)
(-0.0320899 -4.92399 -1.36729)
(-0.0404039 2.74403 -1.53036)
(-58.0685 -5.50542 -2.14845)
(-58.2848 -5.05065 1.28264)
(-58.4589 11.3868 -3.38351)
(56.2733 -40.1405 -2.15527)
(56.7505 -44.4741 -9.52832)
(57.1988 -27.689 -21.0072)
(-0.102486 9.90706 9.09176)
(-0.123306 -1.90366 -2.83959)
(-0.210247 -6.87558 -9.33723)
(-56.9167 -43.1994 -3.16629)
(-56.0969 -49.0899 -7.85368)
(-55.8459 -53.228 -9.01383)
(57.6375 -34.5408 3.8357)
(57.9765 -40.4973 -6.87739)
(56.9192 -24.8641 -22.1976)
(-0.0672902 15.3367 3.8954)
(-0.101675 12.2129 4.15599)
(-0.194981 6.42873 10.6091)
(-57.6223 -34.5462 7.9335)
(-57.6036 -40.5792 6.92544)
(-57.4485 -43.033 4.20217)
(58.5267 -12.3847 11.8115)
(58.4275 -5.38755 3.35935)
(56.951 -21.8142 -29.8958)
(-0.0466031 14.5312 -1.53312)
(-0.0672812 17.6989 -0.594676)
(-0.113621 29.1127 6.88729)
(-58.2666 -2.07725 7.50066)
(-58.096 4.14663 8.87247)
(-58.3891 17.1708 12.2755)
(57.1048 26.4696 -21.0639)
(56.4982 43.8075 -8.5884)
(56.0189 39.6334 -2.35323)
(-0.216893 2.72571 -3.09939)
(-0.142367 -10.3105 6.14748)
(-0.102822 -12.3721 4.71229)
(-55.9452 49.6401 -7.5305)
(-56.8218 43.4535 -5.42784)
(-57.5947 39.9014 -2.72217)
(56.4813 23.6844 -22.347)
(57.6875 39.1223 -7.37571)
(56.6074 35.2454 2.85503)
(-0.179423 -5.40525 8.43296)
(-0.0863116 -7.18907 -0.386286)
(-0.0548926 -9.26177 -4.32408)
(-56.9988 39.0023 5.05169)
(-57.342 34.7678 6.47522)
(-57.345 31.6109 6.83784)
(56.352 21.0959 -30.4138)
(57.8857 1.94142 9.67008)
(57.6797 10.7013 11.4671)
(-0.0964053 -25.8375 8.71946)
(-0.0564352 -13.8946 2.38928)
(-0.042785 -12.0503 0.213482)
(-57.5231 -15.2655 11.3034)
(-57.9027 -5.45214 6.85828)
(-57.9189 0.348874 6.09995)
(56.688 -9.0288 -11.4383)
(56.6686 1.87697 -30.876)
(56.7164 19.2564 -27.7676)
(-0.00920683 2.55823 -4.40625)
(-0.115008 -3.92305 -8.37435)
(-0.221835 9.17816 -8.29313)
(-55.2326 23.0565 -28.9781)
(-54.6442 28.9953 -20.8512)
(-56.4178 47.7272 -15.3339)
(56.6809 -4.96964 9.18081)
(56.7002 7.39483 -38.4875)
(56.5863 18.9702 -37.436)
(-0.0780624 1.49338 12.6674)
(-0.191297 -0.374468 7.84762)
(-0.239373 7.53914 9.85533)
(-55.7477 6.41894 -51.0926)
(-55.7293 19.6033 -27.044)
(-57.2854 37.5523 -3.604)
(56.5043 0.546545 6.63225)
(59.4825 3.93491 -46.8009)
(57.8072 11.7176 -48.5677)
(-0.158941 -0.715649 9.66603)
(-0.241407 -11.4818 10.8197)
(-0.230647 -20.1008 16.4998)
(-58.1835 3.98409 -66.2324)
(-56.1614 19.467 -20.2479)
(-56.256 -7.9156 21.4373)
(56.7344 5.95812 -11.7303)
(57.3238 2.58512 -64.0792)
(56.9695 -7.27138 -81.7481)
(-0.374088 1.10139 59.8135)
(-0.381737 -1.52152 33.501)
(-0.391032 -12.0978 31.8761)
(-57.6483 -8.22851 -96.5464)
(-58.0866 9.40149 22.0926)
(-58.0836 -0.553793 63.0247)
(55.8983 0.890733 -124.311)
(55.978 1.95211 -130.917)
(55.7862 6.37303 -127.187)
(-0.219153 3.32326 80.1443)
(-0.214654 4.80548 70.0123)
(-0.22415 0.898534 66.5557)
(-56.3365 2.48993 -129.818)
(-56.4136 -5.20116 -32.6823)
(-56.353 2.32707 106.778)
(53.677 0.165464 -158.061)
(53.7267 0.217965 -159.67)
(53.4903 -0.903355 -158.453)
(0.376038 -0.0628137 160.146)
(0.400291 2.05495 175.793)
(0.422848 0.66039 203.117)
(-52.8449 -7.03288 -149.365)
(-52.3582 -6.91999 -105.781)
(-53.6248 -2.59192 -2.7514)
(56.6687 -21.2692 -27.8973)
(56.6166 -1.73799 -31.0228)
(56.8138 8.2175 -11.9016)
(-0.216823 -9.89525 -9.56663)
(-0.0956637 0.603767 -8.93683)
(0.0243703 -3.74037 -6.64074)
(-56.5117 -51.3623 -17.1689)
(-54.5733 -31.146 -22.6282)
(-55.2272 -24.5932 -31.4054)
(56.7079 -20.1103 -36.9827)
(56.7681 -6.73424 -38.2364)
(56.8179 3.94494 8.77413)
(-0.247227 -8.25399 11.3313)
(-0.190515 -0.49435 8.63938)
(-0.0564396 -1.92713 12.7671)
(-57.4396 -40.3848 -4.23035)
(-55.7219 -21.2871 -28.8195)
(-55.7568 -6.59388 -53.9619)
(57.397 -11.845 -46.7638)
(59.3737 -6.86165 -47.1415)
(56.5656 -0.726023 3.76293)
(-0.249973 22.2095 16.2021)
(-0.253252 11.6754 9.56652)
(-0.146572 1.48214 8.10032)
(-56.9982 7.74085 22.1643)
(-56.1833 -20.7575 -21.4762)
(-58.3489 -3.8881 -69.9042)
(56.9414 8.36041 -81.7908)
(57.3344 -2.88227 -65.3428)
(56.7599 -5.42477 -11.4654)
(-0.402086 13.2873 35.4338)
(-0.392435 0.996521 37.4378)
(-0.385697 -0.791058 61.1844)
(-58.4096 0.343064 66.0948)
(-58.0112 -9.21838 26.5943)
(-57.7737 8.70113 -99.5344)
(55.6723 -7.21236 -130.753)
(55.9608 -1.4001 -133.389)
(55.7368 -1.16569 -126.663)
(-0.229951 -0.372721 68.8354)
(-0.215608 -4.65595 71.4344)
(-0.217536 -3.2683 83.6061)
(-56.6875 -2.9915 109.114)
(-56.4609 6.59654 -58.4825)
(-55.9216 -2.7739 -132.963)
(53.4664 0.989008 -160.854)
(53.7066 -0.323233 -162.224)
(53.621 -0.143498 -160.301)
(0.412281 -0.452954 202.645)
(0.381402 -1.93755 174.501)
(0.357385 -0.103018 161.804)
(-53.9345 2.62405 -2.9333)
(-52.5088 7.27375 -107.859)
(-52.8379 6.58278 -151.982)
)
;

boundaryField
{
    fuel
    {
        type            fixedValue;
        value           uniform (0 0 0.25);
    }
    primary_air
    {
        type            fixedValue;
        value           uniform (0 0 2.5);
    }
    Secondary_air_RHS
    {
        type            fixedValue;
        value           uniform (0 41.6667 0);
    }
    Secondary_air_LHS
    {
        type            fixedValue;
        value           uniform (0 -41.6667 0);
    }
    outlet
    {
        type            pressureInletOutletVelocity;
        value           nonuniform List<vector> 
18
(
(0 0 -160.854)
(0.412281 -0.452954 202.645)
(0 0 -2.9333)
(0 0 -162.224)
(0.381402 -1.93755 174.501)
(0 0 -107.859)
(0 0 -160.301)
(0.357385 -0.103018 161.804)
(0 0 -151.982)
(0 0 -158.061)
(0.376038 -0.0628137 160.146)
(0 0 -149.365)
(0 0 -159.67)
(0.400291 2.05495 175.793)
(0 0 -105.781)
(0 0 -158.453)
(0.422848 0.66039 203.117)
(0 0 -2.7514)
)
;
    }
    stove_body
    {
        type            noSlip;
    }
    frontAndBack
    {
        type            empty;
    }
}


// ************************************************************************* //
