/*--------------------------------*- C++ -*----------------------------------*\
  =========                 |
  \\      /  F ield         | OpenFOAM: The Open Source CFD Toolbox
   \\    /   O peration     | Website:  https://openfoam.org
    \\  /    A nd           | Version:  6
     \\/     M anipulation  |
\*---------------------------------------------------------------------------*/
FoamFile
{
    version     2.0;
    format      ascii;
    class       volScalarField;
    location    "3.5";
    object      O2;
}
// * * * * * * * * * * * * * * * * * * * * * * * * * * * * * * * * * * * * * //

dimensions      [0 0 0 0 0 0 0];

internalField   nonuniform List<scalar> 
297
(
0
0
0
0
0
0
0
0
0
0
0
0
0
0
0
0
0
0
0
0
0
0
0
0
0
0
0
0.101216
0.138493
0.212793
0.180845
0.203868
0.226339
0.104518
0.1427
0.215289
0
0.0322061
0.0403502
0.0161197
0.148362
0.192566
0
0.0417689
0.052591
0
0.0288455
0
0.0148429
0.0256654
0.106454
0
0.0362998
0
0.00442057
0.0111587
0.0033451
0
0.00246001
0
0.00581109
0.0143433
0.00424494
9.14623e-07
3.20213e-07
9.05452e-08
1.65511e-06
7.72302e-08
3.7881e-09
1.0825e-06
4.84583e-07
1.01928e-07
4.74373e-11
1.28362e-11
1.59781e-12
9.40458e-11
2.46347e-11
1.44396e-12
6.62722e-11
2.65565e-11
5.80694e-12
0
0.0251669
0
0
0.00246069
0.0442282
0
0.0304472
0
0
0.0248724
0
0
0.00246017
0
0
0.0300929
0
0
0.0242222
0
0
0.0024601
0
0
0.0293202
0
1.99489e-15
7.21693e-16
5.55407e-17
2.47439e-15
8.40635e-16
3.71451e-17
2.37508e-15
1.59368e-15
3.93487e-16
5.08044e-19
2.96988e-19
8.36615e-21
3.65781e-19
3.93161e-19
1.13792e-20
5.26821e-19
1.06749e-18
2.58108e-19
3.89419e-20
7.90369e-20
1.12756e-22
1.80343e-20
2.16756e-19
2.06648e-20
1.0057e-19
1.05777e-18
1.05043e-18
1.32911e-21
4.63074e-26
3.63023e-30
8.50228e-22
4.75159e-24
1.39875e-26
1.52429e-20
8.81909e-23
2.15284e-25
2.56859e-24
2.20629e-26
2.34432e-29
9.67055e-23
5.31294e-23
3.37084e-27
2.26985e-20
7.88167e-22
3.39766e-25
9.61522e-23
1.41682e-25
6.35198e-29
4.75306e-21
2.67303e-24
7.81538e-28
8.73502e-19
7.30428e-21
5.1158e-25
2.00598e-29
1.00218e-24
4.71039e-20
1.88885e-29
8.5e-25
4.47755e-20
4.04483e-29
1.06608e-24
5.28341e-20
5.25139e-32
9.52701e-28
2.04534e-23
1.76235e-30
3.33436e-26
6.43417e-24
7.73343e-32
1.25567e-27
1.97622e-23
4.38611e-32
5.42313e-28
5.7142e-24
3.36492e-31
1.38942e-27
1.87399e-24
7.58884e-32
1.46084e-27
1.21037e-23
8.5454e-38
1.37381e-37
1.26904e-33
2.02885e-37
1.97554e-37
7.58097e-34
2.63846e-37
2.66716e-37
2.42373e-33
3.79759e-39
1.31842e-40
2.55134e-36
1.59789e-37
7.57691e-39
7.85353e-35
2.65693e-38
2.8128e-40
4.35323e-36
1.84586e-41
1.62721e-41
9.0039e-37
8.79928e-38
9.58175e-40
1.68491e-35
4.32371e-41
3.70777e-41
1.7074e-36
2.01638e-42
4.89601e-43
3.66264e-42
3.89906e-38
3.42616e-41
1.65171e-40
3.48647e-42
9.95871e-43
1.24403e-41
2.63077e-43
6.57121e-44
1.18254e-44
2.08239e-38
3.2307e-39
3.93573e-40
2.0249e-43
6.40719e-44
7.49212e-45
3.44537e-44
6.78949e-45
8.4521e-46
9.83723e-39
1.89419e-39
2.42431e-40
6.1925e-44
1.24264e-44
1.52424e-45
5.6836e-34
3.05221e-37
1.26611e-37
4.44719e-30
9.75795e-33
8.98365e-33
5.69957e-29
2.45189e-32
2.50022e-32
1.83507e-33
1.57547e-37
1.29648e-38
8.1054e-31
2.33679e-33
2.97734e-33
1.8494e-29
2.64309e-33
9.66729e-33
1.77589e-33
4.8758e-38
3.07284e-40
1.30289e-30
2.49404e-34
6.44603e-35
1.37609e-29
7.88751e-34
2.11122e-34
1.75645e-38
3.75139e-40
8.51698e-41
1.22566e-34
1.41405e-35
3.77704e-36
1.39075e-34
2.96511e-38
2.80179e-39
5.74093e-40
6.00372e-41
1.36277e-41
7.24952e-35
5.17706e-36
1.90833e-36
1.03301e-39
4.61923e-41
1.76393e-41
1.13848e-40
7.77691e-42
2.59699e-42
3.21949e-35
2.19364e-36
7.76619e-37
2.11506e-40
1.37485e-41
4.67225e-42
)
;

boundaryField
{
    fuel
    {
        type            fixedValue;
        value           uniform 0;
    }
    primary_air
    {
        type            fixedValue;
        value           uniform 0.23;
    }
    Secondary_air_RHS
    {
        type            fixedValue;
        value           uniform 0.23;
    }
    Secondary_air_LHS
    {
        type            fixedValue;
        value           uniform 0.23;
    }
    outlet
    {
        type            inletOutlet;
        inletValue      uniform 0;
        value           nonuniform List<scalar> 
18
(
0
3.21949e-35
0
0
2.19364e-36
0
0
7.76619e-37
0
0
9.83723e-39
0
0
1.89419e-39
0
0
2.42431e-40
0
)
;
    }
    stove_body
    {
        type            fixedValue;
        value           uniform 0;
    }
    frontAndBack
    {
        type            empty;
    }
}


// ************************************************************************* //
