/*--------------------------------*- C++ -*----------------------------------*\
  =========                 |
  \\      /  F ield         | OpenFOAM: The Open Source CFD Toolbox
   \\    /   O peration     | Website:  https://openfoam.org
    \\  /    A nd           | Version:  6
     \\/     M anipulation  |
\*---------------------------------------------------------------------------*/
FoamFile
{
    version     2.0;
    format      ascii;
    class       volScalarField;
    location    "3.5";
    object      p;
}
// * * * * * * * * * * * * * * * * * * * * * * * * * * * * * * * * * * * * * //

dimensions      [1 -1 -2 0 0 0 0];

internalField   nonuniform List<scalar> 
297
(
117163
117163
117163
195231
195231
195231
117163
117163
117163
117163
117163
117163
195231
195231
195231
117163
117163
117163
117163
117163
117163
195231
195231
195231
117163
117163
117163
98072.1
97885.5
97859.7
162961
162855
162917
98054.3
97869.9
97843.3
98549.9
97641.4
97655.2
162674
162515
162328
98536.2
97631.7
97630.1
97387
96130.9
96520.2
157790
160092
158127
97438.3
96146.5
96519.8
94660.1
96318
94989.6
160021
158897
159588
94605
96276.7
95091.9
97718.3
97595.8
97357.4
162925
162094
162324
97688.2
97583.4
97419
97615.7
97769.9
97648.6
162617
162810
162750
97557.1
97736.4
97739.4
83052.4
94392.8
89032.5
136698
155751
147309
82875.4
94375.8
89428.4
82609.8
94391.2
88793.7
135231
155552
146281
82413.2
94368.3
89250.3
83816.8
94613.3
89415.9
136737
155964
146627
83628.9
94584.8
89921
97829.8
97880.7
97813.2
162883
162968
162897
97768
97831.6
97802.9
97870.9
97879.5
97845.9
162972
162993
162954
97829.9
97832.7
97802.1
97876.8
97874.4
97845.3
162999
162995
162978
97836.5
97829.3
97801.4
97874.1
97936.8
98118.9
162939
162972
163025
97846.1
97918.7
98065.9
97832.3
97838.8
97959.1
162938
162935
162954
97806.4
97841.9
97934.5
97781.6
97720.3
97690.3
162959
162932
162912
97799.6
97790.6
97768.9
98230.4
98024.3
97929.4
163122
163021
162969
98243.9
98005.7
97897.9
98021.6
97914.5
97883.9
162988
162952
162962
98011.6
97881.3
97847.2
97759.1
97798.1
97849.5
162908
162946
162986
97718.7
97758.4
97807.6
98411.6
98440.9
98408.5
163382
163385
163288
98450.6
98484.5
98445.3
98364
98371.8
98240.2
163224
163225
163131
98399.8
98409
98259.9
98298.2
98320.1
98124.8
162986
163032
162951
98330.2
98355.7
98129.5
97564
97532.7
97497.9
161889
161908
161833
97545.4
97509.4
97472
93376.1
93339.9
93347.7
154703
154697
154692
93350.6
93314
93324
86527.9
86522.2
86524.2
139559
139547
139532
86503.9
86498
86499.7
98300.6
98397.6
98445.4
163097
163145
163179
98118.2
98056.3
98018.9
98186
98317.8
98385.9
163024
163082
163119
98034.6
98019.4
97999.1
98071.8
98255.8
98325.1
162949
162999
163024
97977.7
98031
98009.9
97680.9
97743.1
97767.1
162360
162405
162394
97824.5
97862.4
97878.4
93732
93707.8
93708.2
155611
155616
155615
94030.9
94032.1
94053.1
87113.7
87111.4
87110.9
140520
140529
140529
87253.6
87254.7
87260.7
)
;

boundaryField
{
    fuel
    {
        type            zeroGradient;
    }
    primary_air
    {
        type            zeroGradient;
    }
    Secondary_air_RHS
    {
        type            zeroGradient;
    }
    Secondary_air_LHS
    {
        type            zeroGradient;
    }
    outlet
    {
        type            totalPressure;
        rho             rho;
        psi             none;
        gamma           1;
        p0              uniform 100000;
        value           nonuniform List<scalar> 
18
(
90404.1
100000
90625.9
90386.4
100000
90623.6
90389.5
100000
90641.6
89940
100000
89914.8
89914.1
100000
89888.3
89925.2
100000
89900.2
)
;
    }
    stove_body
    {
        type            zeroGradient;
    }
    frontAndBack
    {
        type            empty;
    }
}


// ************************************************************************* //
