/*--------------------------------*- C++ -*----------------------------------*\
  =========                 |
  \\      /  F ield         | OpenFOAM: The Open Source CFD Toolbox
   \\    /   O peration     | Website:  https://openfoam.org
    \\  /    A nd           | Version:  6
     \\/     M anipulation  |
\*---------------------------------------------------------------------------*/
FoamFile
{
    version     2.0;
    format      ascii;
    class       surfaceScalarField;
    location    "3.5";
    object      phi;
}
// * * * * * * * * * * * * * * * * * * * * * * * * * * * * * * * * * * * * * //

dimensions      [1 0 -1 0 0 0 0];

internalField   nonuniform List<scalar> 
675
(
1.27077e-05
-4.36288e-05
0.000155053
-1.27152e-05
2.10301e-06
0.000147453
-4.36273e-05
0.000155045
-1.97165e-05
4.36303e-05
0.000139084
1.97033e-05
-2.10283e-06
0.000171414
4.36265e-05
0.000139076
1.27085e-05
0.000155054
-1.27148e-05
0.000147454
0.000155044
7.65165e-06
-6.12097e-05
0.000208674
-7.65633e-06
5.44448e-07
0.000162281
-6.11853e-05
0.000208637
-3.76152e-05
6.12116e-05
5.41643e-05
3.7815e-05
-5.43982e-07
9.69613e-05
6.11845e-05
5.44085e-05
7.65242e-06
0.000208676
-7.65601e-06
0.000162283
0.000208636
2.39926e-06
8.22678e-05
-2.50113e-06
4.31763e-05
8.21292e-05
1.17866e-05
-8.22665e-05
-1.17571e-05
-4.31789e-05
-8.21304e-05
2.40236e-06
-2.49903e-06
0.00431778
0.00300956
-0.00410126
0.00446893
0.00245065
0.000618579
0.00444875
0.00324207
0.00883631
-0.00282903
0.00236427
0.00424927
-0.00214077
0.0145387
-0.00374884
0.0178141
0.00426431
-0.00386801
0.00446477
0.000878443
0.00393659
0.00500408
0.00611246
-0.0152173
-0.00917112
-0.000457851
0.0152527
0.0051363
-0.0110639
0.00228743
-0.00599282
0.012183
0.00451288
0.000592715
0.0112659
-0.00485392
0.0323213
0.00491259
-0.014773
-0.00903352
0.0154182
-0.00994943
0.000340064
0.0139489
-0.0295058
-0.00369669
-0.00559879
0.0248895
0.0150746
-0.0298342
-0.0372537
-0.0139495
0.0773367
0.0224929
0.00548722
-0.0595621
-0.0154979
0.0853905
0.000343162
-0.0290652
-0.00416941
0.0254192
-0.0296157
-0.0190965
-0.0172048
-0.0106281
0.0469304
0.0152426
0.00810931
-0.0225838
-0.019863
-0.0158329
-0.0192408
0.0503182
-0.00200086
0.0174076
0.0162086
-0.0488193
-0.0069632
-0.00736015
-0.0569548
0.0773907
0.0150759
0.0149118
-0.0527826
-0.0187915
-0.0101678
0.0463678
0.0149816
-0.0206674
-0.0204645
-0.0205411
0.0506005
0.00365406
-0.0085498
-0.00573154
-0.00410648
0.00615266
-0.0209724
-0.00669559
-0.0166478
0.000816575
0.00940144
-0.00255861
-0.0208118
-0.00538173
-0.0237872
0.00314399
-0.0157365
0.00472358
-0.00548886
-0.00195387
-0.0193673
-0.0193438
0.0115657
-0.00219419
-0.0150973
0.000714416
0.00240171
-0.0125182
-0.00401944
-0.0119047
0.00591035
0.0100339
-0.0206994
0.000919148
0.00105945
-0.0174392
-0.00300359
-0.0158227
0.019052
-0.0144975
0.012838
-0.012077
-0.00949642
-0.0008594
-0.000579543
-0.0353497
0.00057896
-0.000503237
0.0239544
-0.000677057
-0.0363855
-0.00340374
0.000594693
0.0675791
0.0015897
0.000501926
-0.0655608
0.000605917
0.0727797
-0.000863222
-0.0348747
0.000556517
0.0245015
-0.0362952
-0.00115449
-0.000183621
-0.0412556
0.00110279
-0.000447195
0.0221444
0.00015819
-0.0432272
-0.00277825
0.000211611
0.0581036
0.00252078
0.00044644
-0.0717535
-0.000255863
0.062887
-0.00115245
-0.0407374
0.00106449
0.022731
-0.0433129
-0.00186016
0.000185016
0.00112771
-0.000706435
0.000377899
-0.00235399
-0.000167255
0.00186387
0.000712768
-0.000511589
-0.00187026
0.00110912
0.00303738
-0.000760268
-0.00615943
-0.0112138
-0.00622061
-0.000367285
-0.00289196
-0.0009457
-0.00602752
-0.0111498
0.00478581
0.00125268
-0.0131846
-0.014312
-0.00440154
0.000657247
-0.00927358
0.000572644
-0.0103458
-0.0113957
0.00698769
-0.00822011
-0.0120111
-0.00119629
-0.00323232
-0.00248425
-0.00763341
0.001218
0.000697818
-0.0005324
-0.00754182
-0.00403513
0.00109776
0.00126498
5.58768e-05
-0.00218153
-0.00793534
0.00172435
0.000133798
-0.004805
-0.00953779
-0.00296931
-8.49793e-05
-0.00339315
-0.00014006
-0.00466442
-0.00845466
0.00140339
-0.00146458
-0.00802407
-0.00327584
0.00136465
-0.00032376
-0.00557352
-0.000865658
0.00120374
-0.000869645
-0.000811164
0.00121255
0.00051265
-0.00350414
0.000820223
-0.000531745
-0.00388747
-0.000879307
-0.000475935
-0.000128956
-0.00490217
-0.000172049
-0.00182356
0.000718725
0.000269338
-0.0102889
-0.000220291
-0.000641975
-0.0105251
0.00117534
-0.000942494
0.00158455
-0.0039199
-0.00819573
-0.0111535
0.000119758
-0.000581938
-0.00937299
-0.00110481
0.000499602
-0.0012286
0.00115862
-0.00771894
-0.0069757
-0.000536373
-0.00714997
-0.000929
-0.00429257
-0.00408505
-0.00810371
-0.000219109
-0.0002557
-0.00822549
0.00050361
-0.00132665
0.000297881
-0.00453038
-0.00791696
-0.00929163
-2.41934e-05
5.98814e-05
-0.00815802
-0.00047975
0.000349024
-5.50812e-05
0.00107949
-0.00772658
-0.00586035
-0.000271809
-0.00602354
-0.00124372
-0.00527218
-0.00509719
-0.00357039
-0.000191202
-0.00416277
-0.000735889
-0.00100205
-0.00769258
-0.00499925
-3.47034e-05
-0.00545962
7.315e-05
0.000792382
-0.00617557
-3.50321e-05
-0.00120356
-0.00568068
0.0100927
0.00141686
-0.00427154
-0.00723698
0.0101455
0.00137852
-0.00143041
-6.37265e-05
-0.00100373
0.0112733
-0.00140691
0.00112725
-0.00957636
0.0136305
-0.00139936
0.000421199
0.000186392
-0.000930992
0.0108036
-0.00454894
-0.00766246
0.0107432
-0.00133938
-0.00108147
0.00775842
0.000276498
-0.00502085
-0.00728457
0.00798205
0.000687396
-0.00234054
5.66367e-05
-0.000619425
0.00934195
-0.000202717
0.00136256
-0.00909756
0.0107968
-0.000651764
0.000306017
0.000161124
0.000224151
0.00834005
-0.00537488
-0.00771737
0.00855307
-0.00220434
-0.000391202
0.00370431
-0.000948256
-0.00777578
0.00177598
-0.000411324
0.000287557
0.00414605
0.00104034
-0.00477158
0.00337524
0.000665862
8.93861e-08
0.0037531
-0.00808787
0.00221454
-0.0016558
0.00146384
0.000192673
0.00206664
0.00158787
-0.00530951
0.00109062
-0.00626011
-0.00104899
-0.00153084
0.00404408
0.00498477
-0.00165261
-0.00279301
-0.00117617
-0.00232462
-0.00169994
0.000168864
0.00226237
-0.00561523
-0.00657677
-0.000704843
0.0014817
-0.000583472
0.00419326
0.0013918
-0.0115986
0.0007415
-0.0100921
3.52663e-05
-0.00152825
0.00701926
0.00514944
-0.00144489
-0.00507005
-0.00079932
-0.0047315
-0.000668168
-0.000691433
0.00450515
-0.0122337
-0.0105886
-0.00306629
0.00136554
0.00111801
0.00650287
0.00362496
-0.024792
0.00159274
-0.0129569
-0.000255687
-0.00139785
0.0100389
0.00448424
-0.00382197
-0.00236246
-0.00153129
-0.00189425
-0.00321435
0.00112493
0.00680771
-0.0260778
-0.0134001
0.0099903
0.00851396
-0.0173821
-0.00163197
0.0102272
-0.0233927
0.0102339
-0.0248185
-0.00215751
-0.00832969
0.0290452
-0.00418769
-0.0101025
0.0200028
-0.00994611
0.0141036
0.0104553
-0.0176559
-0.00181638
-0.0239043
-0.0251581
0.00379013
0.00719671
-0.0283709
0.00353428
0.00664633
-0.0297852
0.00725125
-0.0285374
0.00590434
-0.0069648
0.0373017
0.003911
-0.00641645
0.0350582
-0.00703863
0.0323037
0.00388253
-0.0285024
0.00348555
-0.029923
-0.0287106
0.000540321
0.0192698
-0.000241542
0.0192322
0.0194333
0.00325253
-0.0191772
0.00274356
-0.0191388
-0.019336
0.000554449
-0.000217928
-0.00511833
0.00135694
-0.00443908
-0.00318497
0.00128777
-0.0032254
0.00138114
-0.00456998
-0.0046633
-0.00094809
-0.000751461
-0.00264719
-0.00102576
0.000295793
-0.000981869
-0.000286337
-0.000182447
-0.00485087
0.00134459
-0.00255264
0.000363424
-0.00486012
0.000733279
-0.00823363
-0.00216461
0.00125242
-0.00717805
0.00141349
-0.00815288
-0.00522395
-0.000404456
-0.00211692
-0.00213094
-0.000616233
-0.000929865
-0.000928554
-7.73255e-05
-0.00248104
-0.007871
0.000209473
-0.00585894
-0.000355086
-0.00379527
0.000966778
-0.0131009
-0.00285715
0.00197304
-0.0100931
0.00267955
-0.0136941
-0.00538485
-0.00116808
-0.000773369
-0.00226682
-0.00168768
-0.000388213
-0.00114002
0.0014734
-0.00122349
-0.0134952
0.000465654
-0.009235
-0.00102895
0.000108607
0.00888341
-0.022073
0.00268153
0.00909207
-0.021731
0.00997956
-0.0209614
0.00179831
-0.0104422
0.0167536
0.000877083
-0.00983837
0.0194636
-0.00935459
0.0216856
-0.00404191
-0.0198985
-0.00426033
-0.0188542
-0.0146414
-0.000997847
0.00612138
-0.0272086
-0.000700235
0.00568446
-0.0277253
0.005819
-0.0274935
-0.00138819
-0.0085594
0.0328061
-0.00194254
-0.008331
0.0340174
-0.00879486
0.0343412
-0.00206765
-0.0263942
-0.00227869
-0.0269785
-0.0257196
0.000184825
0.0197746
-7.15651e-06
0.0196734
0.0196996
-0.000978743
-0.0203271
-0.00102754
-0.0202279
-0.0203602
-4.22351e-05
-0.00056463
)
;

boundaryField
{
    fuel
    {
        type            calculated;
        value           nonuniform List<scalar> 
36
(
0.000124069
0.000206738
0.000124069
0.000124069
0.000206738
0.000124069
0.000124069
0.000206738
0.000124069
-0.000124069
-0.000206738
-0.000124069
-0.000124069
-0.000206738
-0.000124069
-0.000124069
-0.000206738
-0.000124069
0
0
0
0
0
0
0
0
0
0
0
0
0
0
0
0
0
0
)
;
    }
    primary_air
    {
        type            calculated;
        value           nonuniform List<scalar> 9(-0.003225 -0.00535879 -0.00322441 -0.00321886 -0.00535532 -0.00321835 -0.00321801 -0.00535735 -0.00321747);
    }
    Secondary_air_RHS
    {
        type            calculated;
        value           nonuniform List<scalar> 9(0.00780731 0.0129176 0.00784202 0.00778637 0.0128275 0.0078264 0.00784092 0.0128578 0.00788522);
    }
    Secondary_air_LHS
    {
        type            calculated;
        value           nonuniform List<scalar> 9(0.0072829 0.0119871 0.00726738 0.00724409 0.0118585 0.00722685 0.00734994 0.0119906 0.00733346);
    }
    outlet
    {
        type            calculated;
        value           nonuniform List<scalar> 
18
(
-0.0471796
0.0738763
-0.0466919
-0.0472181
0.0739575
-0.0466968
-0.0472113
0.0733634
-0.0466571
-0.0481845
0.0724936
-0.0482381
-0.0482389
0.0739356
-0.0482935
-0.0482157
0.073814
-0.0482685
)
;
    }
    stove_body
    {
        type            calculated;
        value           uniform 0;
    }
    frontAndBack
    {
        type            empty;
        value           nonuniform 0();
    }
}


// ************************************************************************* //
