/*--------------------------------*- C++ -*----------------------------------*\
  =========                 |
  \\      /  F ield         | OpenFOAM: The Open Source CFD Toolbox
   \\    /   O peration     | Website:  https://openfoam.org
    \\  /    A nd           | Version:  6
     \\/     M anipulation  |
\*---------------------------------------------------------------------------*/
FoamFile
{
    version     2.0;
    format      ascii;
    class       volVectorField;
    location    "3.5";
    object      U;
}
// * * * * * * * * * * * * * * * * * * * * * * * * * * * * * * * * * * * * * //

dimensions      [0 1 -1 0 0 0 0];

internalField   nonuniform List<vector> 
297
(
(12.7307 0.0198446 0.284977)
(12.7312 -2.32473e-05 0.253895)
(12.7307 -0.0198579 0.284938)
(-3.94366e-10 -0.0278694 0.251454)
(-4.59032e-10 -4.81165e-05 0.24713)
(-4.87674e-10 0.0278531 0.251417)
(-12.7308 0.0198464 0.284979)
(-12.7312 -1.95993e-05 0.253895)
(-12.7306 -0.0198571 0.284937)
(12.7305 0.012875 0.298639)
(12.7322 -4.46627e-06 0.26944)
(12.7305 -0.0128751 0.298625)
(-4.24026e-10 -0.0844495 -0.00192811)
(-4.68817e-10 0.000575255 0.203786)
(-4.72283e-10 0.0846149 -0.00125892)
(-12.7306 0.0128769 0.298641)
(-12.7322 -8.62887e-07 0.269441)
(-12.7305 -0.0128745 0.298623)
(12.7273 0.024178 0.491205)
(12.7331 -0.000363042 0.431195)
(12.7273 -0.024313 0.491177)
(-3.0471e-10 0.0303487 0.26798)
(-4.30271e-10 -0.0026199 0.0871519)
(-3.07443e-10 -0.0292865 0.267542)
(-12.7274 0.0241839 0.491213)
(-12.7328 -0.000340881 0.43119)
(-12.7272 -0.0243116 0.49117)
(81.094 -12.798 -14.7701)
(60.5792 16.0491 4.93567)
(25.9075 17.0854 12.8329)
(-0.00159029 0.011921 6.06699)
(-0.00089709 5.47784 6.81184)
(-0.000569152 9.04588 11.707)
(-81.4848 -13.2747 -14.8472)
(-60.0714 15.7143 3.83474)
(-25.9401 17.1034 11.7608)
(133.096 -71.5345 47.7683)
(89.3179 10.9725 85.8193)
(67.2301 -21.4904 79.839)
(-0.00399726 -33.146 215.475)
(-0.00124029 18.3939 136.204)
(-0.00196629 -7.40262 119.513)
(-136.857 -76.2681 52.9711)
(-86.6976 11.693 89.4632)
(-61.7752 -18.8934 82.8326)
(130.281 -165.317 -8.45468)
(80.995 35.4526 183.316)
(75.5889 -8.65218 -21.5105)
(0.0106651 -79.9461 279.884)
(0.00141824 -18.6032 -9.71127)
(-4.40083e-05 17.0639 163.186)
(-133.868 -172.013 -0.252289)
(-80.2389 36.1418 182.549)
(-71.8913 -12.6649 -16.8563)
(83.3211 -73.6816 -251.504)
(45.7286 -5.3646 -29.2819)
(47.085 18.6987 -136.163)
(-0.0165836 -172.246 0.516475)
(-0.00348897 15.6271 -125.356)
(0.0187747 -10.7005 46.8714)
(-85.4674 -76.0807 -254.533)
(-47.9336 -6.64253 -28.07)
(-44.6513 20.317 -121.861)
(73.7069 2.04329 -182.182)
(19.5586 9.04336 -78.949)
(19.7026 -32.7459 -88.2361)
(-0.00791489 -68.1867 -139.395)
(-0.000769767 -9.56519 -73.2727)
(0.00637167 -16.9688 -80.6328)
(-77.1142 -7.91729 -180.957)
(-23.0482 15.9768 -84.6001)
(-14.0637 -19.8101 -72.7397)
(8.64501 20.8575 -14.9723)
(8.63708 4.48394 -12.0249)
(8.6263 -15.4958 -17.4396)
(-0.00117176 12.9903 -11.1177)
(-0.000666649 1.94541 -16.4612)
(0.0018043 -10.1627 -15.8995)
(-8.65046 18.4618 -13.937)
(-8.64177 12.9177 -12.1708)
(-8.62723 -3.30691 -14.879)
(113.663 -176.649 -521.89)
(67.4906 21.9058 182.227)
(70.7819 -0.180529 -285.255)
(-0.046491 -121.423 406.57)
(-0.00137374 -20.9547 -139.746)
(0.0564879 7.90268 239.98)
(-116.508 -184.755 -529.613)
(-65.8954 21.7458 181.766)
(-67.3692 -3.23466 -270.38)
(101.774 -114.424 -450.298)
(70.0025 14.1107 175.763)
(57.1461 10.6518 -235.432)
(-0.0533354 -120.852 458.948)
(-0.00189977 -7.16326 -143.916)
(0.0764728 9.21341 264.454)
(-104.385 -119.431 -457.886)
(-68.3688 13.3715 175.417)
(-54.0437 9.81021 -220.468)
(92.7646 -118.554 -391.704)
(69.5824 -8.12918 160.586)
(53.4059 8.23601 -209.185)
(-0.0586513 -180.605 510.129)
(-0.0024632 -0.606333 -139.34)
(0.0931152 -1.41158 312.355)
(-95.2508 -123.12 -397.603)
(-67.9116 -10.891 161.3)
(-50.7441 7.51807 -194.188)
(8.61199 29.3717 -9.55699)
(8.61774 -8.84036 -7.55469)
(8.59824 -28.7179 -6.94737)
(-0.00122687 20.1792 -8.84884)
(-0.000974853 -0.963772 -6.36385)
(-0.000203828 -16.7502 -6.56421)
(-8.61379 30.7473 -10.1491)
(-8.62617 11.7303 -7.32754)
(-8.60063 -21.446 -5.43629)
(8.63761 17.3116 -0.467597)
(8.62888 -7.27738 0.211659)
(8.61892 -17.5676 -2.57141)
(-0.000816051 9.18119 -2.20669)
(-0.000930158 -1.97837 -3.32573)
(-0.000868938 -10.2459 -1.85039)
(-8.63963 16.5937 -1.28399)
(-8.62616 -6.49183 -0.210483)
(-8.61936 -15.3569 -0.518325)
(8.63365 -4.522 -3.96917)
(8.62402 -1.62969 0.0929561)
(8.62508 -1.2922 -4.21567)
(-0.000802831 1.66301 -4.74561)
(-0.000897218 0.618295 -1.92887)
(-0.000870838 -4.33487 -3.74919)
(-8.64515 -0.73342 -5.70911)
(-8.62899 -2.58756 1.12214)
(-8.63007 1.93412 0.572202)
(8.59517 -30.8306 -3.65212)
(8.61541 -28.9508 -5.65219)
(8.6057 -23.7057 -7.71595)
(-0.000555681 -18.9951 -3.56489)
(-0.00036034 -17.7329 -3.77923)
(-0.00104989 -13.9816 -4.09051)
(-8.59818 -21.7841 -4.31593)
(-8.60999 -17.7659 -6.67226)
(-8.59917 -12.2483 -9.2816)
(8.60962 -23.6153 -0.467127)
(8.62328 -25.3856 -5.42123)
(8.59532 -21.4808 -11.4326)
(-0.000513043 -15.3237 1.34421)
(6.25104e-05 -15.4149 1.62217)
(-0.000489385 -12.7423 2.09359)
(-8.61507 -17.6709 -2.13426)
(-8.61661 -16.9381 -5.67086)
(-8.5897 -13.9361 -12.5013)
(8.62916 -10.4662 -4.43171)
(8.63064 -14.6685 -10.1054)
(8.60148 -19.1517 -16.6322)
(0.000356387 -8.40163 0.443983)
(0.00139701 -9.07922 0.845743)
(0.00156015 -10.6132 -0.244413)
(-8.62671 3.40608 4.51789)
(-8.61936 -2.44107 -3.32771)
(-8.59419 -12.6906 -14.9)
(8.61152 21.9843 -11.8935)
(8.6267 27.1616 -8.85587)
(8.60958 31.2678 -6.26511)
(0.000268622 17.0864 -6.19588)
(-0.000369647 22.0867 -5.91358)
(-0.000625191 24.1398 -5.20449)
(-8.6112 23.2385 -12.5163)
(-8.6297 29.0253 -9.59715)
(-8.60963 33.3862 -6.74149)
(8.60945 21.0287 -11.1715)
(8.63684 24.0725 -5.02155)
(8.63105 23.096 -0.412499)
(-0.000199993 14.9776 1.20462)
(-0.000659826 18.3412 1.99147)
(-0.000727414 18.0998 2.02336)
(-8.6097 22.2906 -12.0025)
(-8.64129 25.8011 -5.40198)
(-8.62905 24.9179 -0.0796245)
(8.61232 18.1558 -17.0674)
(8.64071 12.5512 -12.7314)
(8.64585 1.12783 -4.38964)
(-0.000804269 9.32821 0.529763)
(-0.000790579 7.59313 1.15019)
(-0.000832686 5.72138 0.426132)
(-8.6152 19.2258 -18.2224)
(-8.64548 12.7911 -12.1859)
(-8.65051 3.36107 -3.8197)
(8.61908 -3.93929 -6.73235)
(8.61877 2.01765 -16.3957)
(8.6038 12.7665 -20.1324)
(0.000773156 -2.95568 0.431673)
(0.000863698 3.3525 -7.54408)
(0.000731282 10.5227 -8.24654)
(-8.62207 -3.98132 -7.22092)
(-8.61821 2.48676 -17.2789)
(-8.6042 13.4251 -21.2173)
(8.6174 0.891489 4.76051)
(8.61693 4.08911 -19.0578)
(8.6041 14.4417 -21.3335)
(0.000710247 -1.15464 9.86778)
(0.000738998 4.28329 -5.43259)
(0.000392396 10.1948 -4.46135)
(-8.6172 1.2706 5.01678)
(-8.61615 4.54507 -20.1936)
(-8.60524 15.1715 -22.6015)
(8.61008 1.54864 -0.41678)
(8.65387 3.29918 -21.7356)
(8.62599 10.8317 -26.9185)
(0.000636118 -1.34019 13.5554)
(0.000704853 4.1889 -8.73343)
(9.24376e-05 6.47067 -6.24999)
(-8.60964 1.79584 -0.986771)
(-8.65538 3.69285 -22.8968)
(-8.62469 11.0779 -28.5336)
(8.6111 3.50114 -2.89544)
(8.62276 2.96132 -30.2414)
(8.61882 -9.93638 -46.094)
(-0.000370958 1.28339 46.217)
(-0.000465976 2.66304 26.7667)
(-0.000518375 -12.024 16.5344)
(-8.61436 3.86333 -3.25942)
(-8.62568 2.57157 -31.4901)
(-8.62122 -9.91045 -46.5816)
(8.52706 0.616407 -98.9449)
(8.52208 -0.0979997 -104.864)
(8.53012 5.83914 -99.1954)
(-0.000530745 1.29251 71.4386)
(-0.000538718 1.89009 62.4153)
(-0.000495468 0.277167 55.1818)
(-8.52716 0.496241 -99.4535)
(-8.524 0.0069541 -105.481)
(-8.53119 5.8698 -100.047)
(8.20099 0.110425 -139.478)
(8.19694 0.0732677 -139.677)
(8.19649 -0.0487254 -139.592)
(-0.00052945 0.779568 184.042)
(-0.000533346 1.18189 187.59)
(-0.000540177 0.335146 187.371)
(-8.20275 0.114201 -139.672)
(-8.19874 0.0820884 -139.876)
(-8.1983 -0.0437349 -139.785)
(8.59614 -16.1995 -11.7199)
(8.59196 -10.6811 -9.41935)
(8.59345 -6.92757 -12.6363)
(-0.00361677 -9.77928 -4.83926)
(-0.006766 -5.30562 -3.34845)
(-0.00845466 -1.67425 -4.12069)
(-8.59587 -6.79888 -13.3118)
(-8.60253 -1.54687 -8.39731)
(-8.60767 7.68359 -3.48677)
(8.58649 -16.6787 -17.9245)
(8.595 -8.66532 -13.1987)
(8.59582 -2.61106 -15.9851)
(-0.00300227 -10.5285 -0.623205)
(-0.00591858 -5.50116 1.95886)
(-0.00766957 -0.505102 1.57086)
(-8.58697 -9.85388 -17.8236)
(-8.59393 -7.74861 -10.5124)
(-8.60489 6.7874 0.620391)
(8.59932 -10.4318 -25.8027)
(8.60698 -9.18068 -18.1967)
(8.62081 -1.38216 -18.4213)
(-0.0018676 -9.2808 -2.56888)
(-0.00445777 -6.52263 -1.48486)
(-0.00625226 -0.988197 0.939606)
(-8.60694 -6.3779 -23.1523)
(-8.60851 -8.70584 -13.1026)
(-8.6027 1.40254 4.44121)
(8.61106 9.33453 -38.012)
(8.60913 0.0665913 -34.0343)
(8.61017 0.932474 -31.1792)
(0.00285691 8.38216 22.2982)
(0.00237224 -2.40837 27.0866)
(0.0022089 -0.577 32.0455)
(-8.59491 5.04689 -26.1884)
(-8.58979 -2.36617 -17.7109)
(-8.58441 -2.75476 -0.161717)
(8.52872 -4.49855 -94.7371)
(8.5299 1.15996 -96.8607)
(8.52597 -0.746898 -95.9467)
(0.00618603 0.784107 57.3633)
(0.00670818 -1.00479 60.6239)
(0.00712116 -0.606247 62.6747)
(-8.50744 -2.86759 -92.699)
(-8.50086 -0.132784 -95.445)
(-8.50411 -0.168951 -90.0066)
(8.19424 0.0466226 -135.873)
(8.19445 0.0400014 -136.011)
(8.19581 0.00487241 -135.987)
(0.00305893 0.166526 187.064)
(0.00313088 -0.529085 187.171)
(0.00327375 -0.270103 185.737)
(-8.18334 -0.0174073 -134.129)
(-8.18321 -0.143174 -134.147)
(-8.18431 -0.120817 -134.005)
)
;

boundaryField
{
    fuel
    {
        type            fixedValue;
        value           uniform (0 0 0.25);
    }
    primary_air
    {
        type            fixedValue;
        value           uniform (0 0 2.5);
    }
    Secondary_air_RHS
    {
        type            fixedValue;
        value           uniform (0 66.6667 0);
    }
    Secondary_air_LHS
    {
        type            fixedValue;
        value           uniform (0 -66.6667 0);
    }
    outlet
    {
        type            pressureInletOutletVelocity;
        value           nonuniform List<vector> 
18
(
(0 0 -135.873)
(0.00305893 0.166526 187.064)
(0 0 -134.129)
(0 0 -136.011)
(0.00313088 -0.529085 187.171)
(0 0 -134.147)
(0 0 -135.987)
(0.00327375 -0.270103 185.737)
(0 0 -134.005)
(0 0 -139.478)
(-0.00052945 0.779568 184.042)
(0 0 -139.672)
(0 0 -139.677)
(-0.000533346 1.18189 187.59)
(0 0 -139.876)
(0 0 -139.592)
(-0.000540177 0.335146 187.371)
(0 0 -139.785)
)
;
    }
    stove_body
    {
        type            noSlip;
    }
    frontAndBack
    {
        type            empty;
    }
}


// ************************************************************************* //
