/*--------------------------------*- C++ -*----------------------------------*\
  =========                 |
  \\      /  F ield         | OpenFOAM: The Open Source CFD Toolbox
   \\    /   O peration     | Website:  https://openfoam.org
    \\  /    A nd           | Version:  6
     \\/     M anipulation  |
\*---------------------------------------------------------------------------*/
FoamFile
{
    version     2.0;
    format      ascii;
    class       volScalarField;
    location    "3";
    object      O2;
}
// * * * * * * * * * * * * * * * * * * * * * * * * * * * * * * * * * * * * * //

dimensions      [0 0 0 0 0 0 0];

internalField   nonuniform List<scalar> 
297
(
0
0
0
0
0
0
0
0
0
0
0
0
0
0
0
0
0
0
0
0
0
0
0
0
0
0
0
0.110708
0.0635675
0.134238
0.193891
0.150077
0.194816
0.128253
0.111212
0.163328
0
6.69687e-05
0.000958874
0.100924
0.109611
0.107114
0
1.28266e-05
0
0
0
0
0.0574987
0.0237192
0.061567
0
0
0
0
4.00727e-11
0
0
0
0
0
2.39675e-11
0
1.18919e-13
4.37403e-14
1.2054e-16
8.75651e-14
1.29824e-13
2.03162e-18
1.59446e-12
1.97826e-13
4.02365e-17
7.62394e-14
1.61037e-14
4.43382e-16
2.48139e-13
3.26259e-14
3.32756e-15
3.7219e-14
3.98029e-15
7.13799e-16
0
0
0
0.0185647
6.17531e-07
0.0229758
0
0
0
0
0
0
0
6.54884e-09
0.00524837
0
1.0641e-09
0
0
0
0
0
0
0
0
0
0
5.20866e-14
1.19092e-14
4.16311e-16
2.34968e-13
3.13848e-16
2.58282e-15
3.25272e-14
7.26322e-15
2.88382e-16
2.68122e-15
9.72897e-16
5.25285e-17
9.46308e-15
6.02095e-16
1.34826e-15
2.39293e-15
3.58908e-16
3.21787e-17
3.42548e-16
5.69986e-17
1.33507e-17
1.2799e-16
4.09259e-17
1.82494e-16
4.70201e-16
7.16852e-17
1.01658e-17
1.49764e-16
4.49229e-19
6.9309e-19
1.63588e-15
1.41826e-17
9.56101e-20
4.88988e-17
1.59982e-18
2.44888e-20
1.02232e-16
2.81139e-18
4.12756e-18
9.97522e-16
5.06168e-16
1.34732e-16
5.93053e-17
4.88472e-18
3.37384e-18
3.74478e-17
2.28509e-18
9.3789e-18
1.76536e-16
1.41237e-16
9.97218e-17
2.30569e-17
4.87735e-18
1.19107e-17
4.86092e-17
3.66159e-17
2.54058e-14
1.71771e-14
1.41226e-13
2.17669e-13
7.5912e-16
1.21479e-14
1.53536e-14
2.79072e-16
1.89462e-16
3.82906e-15
1.62882e-14
3.34936e-14
5.47473e-15
6.15067e-16
2.75333e-15
3.93075e-15
6.21824e-16
1.64474e-16
1.4962e-15
6.56394e-15
2.99598e-15
2.69368e-16
1.01795e-15
1.0774e-15
1.73577e-15
4.36699e-22
9.31676e-22
1.08781e-20
8.91974e-20
9.19664e-20
1.66817e-18
1.5576e-19
7.61156e-18
6.21135e-18
4.94078e-22
2.59015e-21
2.2891e-20
1.98234e-19
2.08571e-19
2.8998e-16
7.31309e-19
2.59969e-17
1.95529e-17
1.78592e-21
3.23716e-21
2.38692e-20
1.0916e-16
1.04741e-15
4.1628e-15
1.26839e-18
5.48441e-17
8.04984e-16
3.57388e-22
1.28684e-21
6.65958e-21
5.50587e-17
3.31097e-16
1.09165e-15
1.91451e-18
4.42162e-17
3.38954e-16
6.28221e-23
3.1037e-22
1.10095e-21
1.22896e-17
6.1618e-17
1.84726e-16
3.08689e-18
9.32547e-18
1.33751e-16
1.24876e-23
5.73274e-23
2.84108e-22
3.8969e-18
2.04202e-17
7.44737e-17
3.19749e-18
1.54828e-17
7.92841e-17
1.0052e-22
7.13817e-24
1.00944e-24
1.99666e-21
1.09887e-21
1.16795e-21
3.30625e-20
4.30805e-20
1.89161e-21
2.34458e-22
1.88073e-23
1.98847e-24
3.15545e-19
1.94177e-21
1.38334e-21
1.86689e-19
2.68484e-19
2.64946e-21
2.74613e-22
2.43343e-23
1.32487e-23
5.71587e-17
1.45689e-17
1.51052e-18
9.73522e-18
5.60564e-19
3.10936e-21
4.53599e-23
9.88705e-24
2.6749e-24
1.14776e-17
3.63954e-18
4.573e-19
3.33657e-18
2.2772e-19
3.47711e-21
9.93864e-24
2.22692e-24
6.25573e-25
2.88197e-18
5.09644e-19
1.65239e-19
1.12647e-18
3.82445e-20
6.8961e-21
2.38028e-24
3.14539e-25
1.41253e-25
9.00431e-19
1.22316e-19
4.06596e-20
5.62228e-19
1.0709e-19
9.35061e-21
)
;

boundaryField
{
    fuel
    {
        type            fixedValue;
        value           uniform 0;
    }
    primary_air
    {
        type            fixedValue;
        value           uniform 0.23;
    }
    Secondary_air_RHS
    {
        type            fixedValue;
        value           uniform 0.23;
    }
    Secondary_air_LHS
    {
        type            fixedValue;
        value           uniform 0.23;
    }
    outlet
    {
        type            inletOutlet;
        inletValue      uniform 0;
        value           nonuniform List<scalar> 
18
(
0
9.00431e-19
0
0
1.22316e-19
0
0
4.06596e-20
0
0
3.8969e-18
0
0
2.04202e-17
0
0
7.44737e-17
0
)
;
    }
    stove_body
    {
        type            fixedValue;
        value           uniform 0;
    }
    frontAndBack
    {
        type            empty;
    }
}


// ************************************************************************* //
