/*--------------------------------*- C++ -*----------------------------------*\
  =========                 |
  \\      /  F ield         | OpenFOAM: The Open Source CFD Toolbox
   \\    /   O peration     | Website:  https://openfoam.org
    \\  /    A nd           | Version:  6
     \\/     M anipulation  |
\*---------------------------------------------------------------------------*/
FoamFile
{
    version     2.0;
    format      ascii;
    class       surfaceScalarField;
    location    "3";
    object      phi;
}
// * * * * * * * * * * * * * * * * * * * * * * * * * * * * * * * * * * * * * //

dimensions      [1 0 -1 0 0 0 0];

internalField   nonuniform List<scalar> 
675
(
-1.65249e-05
-2.82108e-05
0.000172218
7.48767e-06
-6.90643e-05
0.000173154
-2.59562e-05
0.000161006
3.08593e-05
2.81173e-05
0.000125381
-1.04728e-05
6.93467e-05
0.000114662
2.57756e-05
0.000150325
-1.65376e-05
0.000172287
7.57701e-06
0.000173254
0.000160984
-1.23836e-05
-4.68965e-05
0.000230912
5.17675e-06
-9.22851e-05
0.000247909
-3.34904e-05
0.000199158
6.56337e-05
4.67353e-05
-3.2875e-05
-1.86426e-05
9.26197e-05
1.4243e-05
3.3373e-05
6.58013e-05
-1.24056e-05
0.000230981
5.25216e-06
0.000248169
0.00019916
-2.87268e-05
0.000130904
-6.60988e-06
9.775e-05
6.38869e-05
1.84306e-05
-0.000131101
1.66875e-05
-9.78837e-05
-6.40009e-05
-2.87125e-05
-6.5675e-06
-0.000609304
0.00699387
-0.0032294
0.00451223
0.00641312
-0.00838415
0.00730234
0.000358157
-0.000718505
-0.0055686
0.0184948
-0.000138243
-0.00471811
0.0157705
-0.0061765
0.0185889
0.000553938
-0.002928
0.00260594
-0.00360053
-0.000407866
0.00436017
0.00962832
-0.0172122
-0.0015357
0.00872513
-0.0112117
0.0101208
-0.0113015
0.00127549
-0.00700152
0.0338524
0.000370838
-0.00541336
0.0307914
-0.00890516
0.0379936
0.00900513
-0.0189462
0.00387909
-0.00391165
-0.0054353
-0.0015468
0.0244865
-0.0400675
-0.00220886
0.0135397
-0.0240298
0.024477
-0.0380673
-0.0455429
-0.0236518
0.127604
0.0441118
-0.0143831
-0.0309133
-0.0246385
0.131184
-0.00209794
-0.0404625
-0.00290251
-0.0175062
-0.0330029
-0.00801578
-0.0141818
-0.0278525
0.0500939
0.00524766
0.00326124
-0.0436246
0.0271397
-0.0152581
-0.0281999
0.048686
0.0112416
0.0166436
0.057702
-0.0997506
-0.00953371
-0.00274405
-0.0135432
0.0403329
0.012815
0.0664344
-0.104117
-0.00479358
-0.0291986
0.0506397
0.0109869
-0.0403098
0.0217926
-0.0200664
0.0438304
-0.00179691
-0.00751254
-0.0184906
-0.00220955
-0.0104206
-0.0327225
-0.00977609
-0.0204039
0.0175516
0.00996478
0.0226276
-0.0166916
0.00745969
0.00280395
0.00857555
0.0313264
0.00387386
-0.0231067
5.37487e-06
-0.0289811
-0.011483
0.00746718
-0.00706968
-0.0190258
-0.00153134
-0.00317615
-0.0206994
-0.00463345
-0.0172677
0.001354
0.00261705
0.0115675
0.0063947
0.00220211
-0.00764599
0.00958465
0.0234739
-0.00457401
-0.0159212
-0.0135363
-0.017799
-0.0153463
-2.27823e-05
-0.00236658
-0.0429243
-0.000173946
-0.0008272
-0.023048
-0.00233901
-0.0411554
-0.0034769
0.00236877
0.117917
0.00344962
0.000303922
-0.0389687
0.00198086
0.121872
2.96898e-05
-0.043367
2.52739e-05
-0.0171961
-0.0362511
-0.000407417
-0.00106798
-0.0466848
0.000296666
9.43227e-05
-0.023842
-0.000975127
-0.0451245
-0.00174359
0.00106834
0.109126
0.00159052
-0.000258034
-0.0419473
0.0008517
0.113225
-0.000343819
-0.0471878
0.000447174
-0.0182446
-0.0401954
-0.000415553
-0.00140714
0.000244102
0.00264235
-0.00143008
-0.00196545
0.00151713
0.00181038
-0.00274459
0.00105902
-0.000259427
0.000545321
0.00522628
-0.00381534
-0.00605634
-0.0143645
-0.00495146
-0.00179268
-0.00871565
-0.00320038
-0.00463815
-0.0143952
-0.0015611
0.00197653
0.000183316
0.00714546
8.9481e-05
0.00101696
-0.0120974
0.00291582
0.0112088
0.00622977
0.00430492
-0.00440474
-0.0138484
-0.00690045
-0.00558256
-0.00383034
-0.015519
0.00604001
0.000694501
-0.000265331
-0.0125207
-0.00462569
0.00124036
0.000712641
0.000238064
0.00259568
-0.0121012
0.000837639
-0.00170428
-0.00310432
0.00479929
-0.00161085
-0.00124227
-0.0071696
-0.000809785
0.00341658
0.00723565
0.00326614
0.00190754
-0.0112957
-0.00705881
0.00349891
0.0012741
-0.0129747
-0.00128268
0.00369568
-0.00267664
-0.00451392
0.00395188
0.0027336
-0.0046394
-0.00241752
-0.0031225
0.00613364
-0.00280797
-0.00283014
-0.00260485
0.00592862
-0.000555809
-0.000664567
0.000110954
-0.00122334
-0.014129
-0.00241446
0.00213889
-0.0151489
0.000515227
0.000499925
0.00268573
-0.0067175
-0.0111186
-4.58241e-05
0.00102068
0.00283451
-0.00228386
0.00211333
0.000610565
0.00194833
0.00266764
-0.0042224
-0.0165507
0.00205108
-0.0167649
0.00231651
0.00241694
-0.0172413
-0.0116479
-0.00156784
0.00325091
-0.0126733
0.00112693
0.00039442
-1.23417e-05
-0.00903565
-0.0103449
0.0060502
0.000994002
0.00145491
0.00527509
0.000140057
0.00236377
0.000516319
0.00726234
0.00014153
-0.0128794
0.0029393
-0.0125325
0.00210185
0.00225473
-0.0118629
-0.00166799
0.000278254
-0.00224478
0.000971135
-0.00154205
-0.00973164
0.00788612
-0.000216851
0.0112487
-4.02343e-05
0.00120828
0.0157649
0.00149317
0.00354685
0.00700198
0.0148339
0.00261639
-0.00683532
-0.0106095
0.0139189
0.00020207
0.000717522
-0.0025018
0.00206607
-0.00128617
0.00165025
0.00481972
-0.00257186
-0.00477405
0.00163925
0.00206449
0.000522975
-0.0006676
0.0152407
0.00234629
-0.0159335
0.0148582
0.00203207
0.00154165
0.012449
-8.47479e-06
-0.00936471
-0.00990728
0.0116013
0.00136503
0.000205022
-0.00131927
0.00247231
-0.00398307
0.00103756
0.00738232
0.000375499
-0.00333017
0.000487841
0.00228822
0.000470742
-0.000996963
0.0115013
0.0028066
-0.0109261
0.0118587
0.00216356
0.00257128
0.00167164
-0.00144405
-0.00958838
0.00087046
0.00101105
0.000670592
-0.0100444
0.000952826
0.0150326
-0.00638849
-0.000358271
-0.000584294
-0.00311856
0.00687519
-0.00131747
-0.00393529
0.00249898
0.00143787
0.00375572
0.00265259
-0.0103417
0.00241813
-0.00926806
0.000498675
-0.0013922
0.00339698
0.00106505
0.00031036
0.00177838
-0.000656085
0.00156996
0.0107897
-0.0121745
0.0168918
-0.00578682
0.000306051
-0.00193882
0.00191211
0.00146376
0.00531165
0.00221388
-0.0198097
0.00160626
-0.015468
0.00139425
-0.0011162
0.00503324
0.00181529
0.000414273
0.00315795
-0.00060542
0.00597003
0.00791557
-0.0212056
0.0122759
-0.00973543
0.00104708
-0.00377834
0.00121227
0.00402794
0.00815175
0.00544651
-0.0371866
0.00206909
-0.0189725
-0.00380749
-0.00359156
0.0136476
-0.00803878
0.000789385
0.0120456
0.00131381
0.013721
0.00903732
-0.0338303
0.00330844
-0.00322064
0.0125434
0.0165307
0.0107899
-0.0232717
-0.00189247
0.0155382
-0.0342859
0.0148465
-0.0357131
-0.00730271
-0.00128014
0.0330633
-0.00664713
0.00486564
0.0221118
0.00317764
0.0187999
0.00968419
-0.0447262
0.0140321
-0.00269383
0.0297791
0.00782139
0.0066334
-0.0377196
0.0051152
0.00734408
-0.0389132
0.00756983
-0.03816
0.013576
-0.00413888
0.0302934
0.0143431
-0.003095
0.0315161
0.00135553
0.0394224
-0.00448857
-0.0443959
0.00203043
-0.0122933
0.0331819
0.00088525
0.0148546
-0.00010815
0.0159203
0.0152859
0.00562407
-0.0242607
0.00569188
-0.0228218
-0.0214927
-0.0177479
-0.0140936
-0.00413572
0.00226635
-0.00925214
0.00372282
0.00268003
-0.0105413
0.00273321
0.000986665
-0.00252113
-0.000641404
0.00119927
-0.00164557
0.000297122
0.00149513
-0.0015117
0.0025883
-0.0181036
0.000216776
-0.011569
-0.00624057
-0.0130835
-0.00583436
0.00170808
-0.0154709
0.00205582
0.00241833
-0.0208381
0.00219822
0.000847321
-0.00231915
-0.000582026
0.00595266
-0.0016874
0.000483259
0.0027854
-0.00123494
0.00431886
-0.013094
0.000859542
-0.00852603
-0.0103336
-0.0228538
-0.00994112
0.00193189
-0.0171838
0.00405755
0.00592848
-0.0407499
0.00128676
0.00363488
0.00832737
0.00135803
0.013818
0.00421493
0.000837762
0.0121349
-0.00380888
0.0136098
-0.00355183
0.0127649
-0.00960049
-0.0034546
-0.0362704
0.00450885
0.0147345
-0.0364335
-0.0167126
0.0155731
-0.0352205
0.0108739
-0.0239827
0.00652053
0.00250691
0.0195212
0.00748899
0.00383715
0.0228841
-0.00168323
0.0336298
-0.0151807
0.0304404
-0.00804885
-0.00676355
-0.0460163
-0.00500179
0.00762443
-0.0390515
-0.0078094
0.0072664
-0.0396594
0.00666565
-0.0384297
-0.0137299
0.0013542
0.0395336
-0.0120795
-0.00318779
0.0316946
-0.00328459
0.0315059
-0.00187776
0.0336882
0.00457877
-0.0163919
-0.0447137
2.19363e-05
0.0151105
-0.00090645
0.0157697
0.0147162
-0.00533788
-0.0208186
-0.00532593
-0.0220937
-0.0233604
0.0154408
0.0164419
)
;

boundaryField
{
    fuel
    {
        type            calculated;
        value           nonuniform List<scalar> 
36
(
0.000128047
0.000211625
0.000128049
0.000128048
0.000211623
0.000128049
0.000128047
0.000211625
0.000128049
-0.000128047
-0.000211625
-0.000128049
-0.000128048
-0.000211623
-0.00012805
-0.000128047
-0.000211625
-0.000128049
0
0
0
0
0
0
0
0
0
0
0
0
0
0
0
0
0
0
)
;
    }
    primary_air
    {
        type            calculated;
        value           nonuniform List<scalar> 9(-0.0031948 -0.0052781 -0.0031913 -0.00319512 -0.00527813 -0.0031917 -0.0031947 -0.00527835 -0.00319157);
    }
    Secondary_air_RHS
    {
        type            calculated;
        value           nonuniform List<scalar> 9(0.0052506 0.00843463 0.00525063 0.0052399 0.00840405 0.0052408 0.00523506 0.00842431 0.00523705);
    }
    Secondary_air_LHS
    {
        type            calculated;
        value           nonuniform List<scalar> 9(0.00525042 0.00842926 0.00524467 0.00524004 0.0083998 0.00523402 0.00523591 0.00842053 0.00522977);
    }
    outlet
    {
        type            calculated;
        value           nonuniform List<scalar> 
18
(
-0.0541604
0.0808229
-0.00255898
-0.0544778
0.0695734
-0.0394726
-0.0540307
0.0642784
-0.051619
-0.0534582
0.0638378
-0.0509064
-0.0538378
0.0703628
-0.0387687
-0.0535515
0.0819647
-0.00240637
)
;
    }
    stove_body
    {
        type            calculated;
        value           uniform 0;
    }
    frontAndBack
    {
        type            empty;
        value           nonuniform 0();
    }
}


// ************************************************************************* //
