/*--------------------------------*- C++ -*----------------------------------*\
  =========                 |
  \\      /  F ield         | OpenFOAM: The Open Source CFD Toolbox
   \\    /   O peration     | Website:  https://openfoam.org
    \\  /    A nd           | Version:  6
     \\/     M anipulation  |
\*---------------------------------------------------------------------------*/
FoamFile
{
    version     2.0;
    format      ascii;
    class       volScalarField;
    location    "3";
    object      T;
}
// * * * * * * * * * * * * * * * * * * * * * * * * * * * * * * * * * * * * * //

dimensions      [0 0 0 1 0 0 0];

internalField   nonuniform List<scalar> 
297
(
291.136
291.124
291.135
293.013
293.009
293.009
291.137
291.125
291.136
291.216
291.169
291.156
293.871
293.373
293.365
291.217
291.17
291.157
291.631
291.435
291.546
296.559
300.464
322.068
291.632
291.436
291.547
325.69
327.359
312.115
300.528
309.435
297.794
320.917
322.444
309.806
359.333
340.413
362.661
333.265
323.544
331.044
356.37
349.888
359.867
359.4
329.727
363.238
339.132
339.192
339.211
356.081
332.305
367.224
340.046
327.257
340.36
359.434
355.536
361.882
337.331
325.534
342.042
336.461
327.416
333.435
359.506
360.634
361.884
328.962
325.539
340.895
322.931
314.779
324.463
359.486
332.857
356.934
316.787
316.92
327.377
360.385
327.051
361.997
347.282
352.587
350.013
356.87
326.098
367.046
352.759
326.021
350.443
352.201
352.586
352.225
349.538
325.576
353.202
346.375
325.969
347.075
357.27
352.874
359.53
343.508
325.525
349.246
312.862
310.401
315.41
354.499
316.564
356.798
308.594
308.108
308.587
303.54
306.68
309.785
310.658
316.904
353.182
303.184
304.878
305.213
304.721
307.286
307.854
307.682
312.79
324.696
303.536
304.843
305.291
308.327
302.147
302.492
356.342
306.616
304.204
302.363
300.197
299.501
309.636
303.849
304.184
354.208
347.87
329.467
305.148
301.562
301.075
308.279
305.501
305.671
328.118
330.423
330.085
305.331
303.358
307.505
301.932
301.594
307.704
312.49
349.14
351.648
299.183
303.408
304.975
302.495
302.151
303.621
317.779
323.694
310.382
300.673
301.602
302.939
302.824
303.06
303.592
312.372
308.843
307.031
303.002
302.474
303.348
302.504
302.294
301.825
302.481
303.844
303.311
298.757
299.225
298.448
302.768
301.834
301.411
302.518
303.778
303.746
298.361
299.95
299.771
303.34
301.58
300.938
303.046
306.586
309.996
297.687
300.544
302.743
301.39
301.194
300.214
301.683
305.953
307.391
297.189
301.731
301.283
298.226
298.003
297.074
300.418
303.058
304.709
294.022
294.888
296.992
291.6
291.406
290.685
291.209
289.106
285.463
290.532
290.271
299.159
302.005
302.3
302.885
303.963
304.136
303.609
299.23
300.085
299.846
301.762
302.216
303.154
304.096
304.156
303.695
300.49
300.8
299.286
301.442
301.959
303.613
322.981
312.098
305.005
306.955
301.241
298.482
300.661
301.535
301.859
313.132
310.051
302.59
303.096
301.242
297.879
296.577
298.065
297.631
310.132
306.197
301.513
298.915
295.304
292.598
290.753
291.482
291.579
288.763
290.126
291.935
301.015
291.142
290.755
)
;

boundaryField
{
    fuel
    {
        type            fixedValue;
        value           uniform 293;
    }
    primary_air
    {
        type            fixedValue;
        value           uniform 293;
    }
    Secondary_air_RHS
    {
        type            fixedValue;
        value           uniform 293;
    }
    Secondary_air_LHS
    {
        type            fixedValue;
        value           uniform 293;
    }
    outlet
    {
        type            inletOutlet;
        inletValue      uniform 293;
        value           nonuniform List<scalar> 
18
(
293
288.762
293
293
290.124
293
293
291.934
293
293
291.208
293
293
289.081
293
293
285.459
293
)
;
    }
    stove_body
    {
        type            fixedValue;
        value           uniform 293;
    }
    frontAndBack
    {
        type            empty;
    }
}


// ************************************************************************* //
