/*--------------------------------*- C++ -*----------------------------------*\
  =========                 |
  \\      /  F ield         | OpenFOAM: The Open Source CFD Toolbox
   \\    /   O peration     | Website:  https://openfoam.org
    \\  /    A nd           | Version:  6
     \\/     M anipulation  |
\*---------------------------------------------------------------------------*/
FoamFile
{
    version     2.0;
    format      ascii;
    class       volScalarField;
    location    "0.5";
    object      p;
}
// * * * * * * * * * * * * * * * * * * * * * * * * * * * * * * * * * * * * * //

dimensions      [1 -1 -2 0 0 0 0];

internalField   nonuniform List<scalar> 
297
(
123780
123780
123780
204542
204542
204542
123780
123780
123780
123780
123780
123780
204542
204542
204542
123780
123780
123780
123780
123780
123780
204542
204542
204542
123780
123780
123780
97159.8
97174.4
97162.7
160506
160511
160521
97051.9
97063.7
97060.9
97166.8
97181.3
97161.4
160187
160301
160251
97052.9
97092.2
97102.2
97004.1
97132.9
96988
158310
159446
158301
96911.2
97061
96949.9
96425.7
96621.9
96440.9
159410
159216
159418
96375.5
96527.2
96269.1
96632.8
96869.3
96666.1
160173
159899
160157
96665.9
96701.9
96563.2
96667.7
97007.9
96720.4
160166
160090
160116
96769.8
96881.8
96631.7
95748.2
97108.8
95781.8
153762
158617
153913
95657.5
96974.3
95784.9
95556.8
97071.3
95586.8
153234
158648
153349
95463.1
96940.9
95606.3
95481.6
97013.2
95499.4
153614
158776
153711
95384.6
96889
95537
97300.8
97390.4
97307.6
160168
160154
160133
97130.5
97238
97045.5
97427.7
97456.7
97410.5
160188
160200
160226
97224
97295.6
97144.9
97482.8
97466.5
97452.4
160193
160247
160293
97245.7
97280.8
97180
97672.1
97860.6
98429.3
159960
159984
159909
97030.8
96959.9
96844.4
97392.2
97396.9
97809.5
160023
159924
159754
96976.4
96754.1
96481.8
97281.1
97140.4
97140.3
160060
159880
159629
96980.1
96706.7
96373
98418.4
97873.3
97697.7
159962
160001
159991
96875.3
96966.1
97045.6
97797.1
97405
97408
159756
159952
160008
96563.4
96822
97017.2
97132.6
97173.3
97323.2
159618
159876
160009
96463.5
96782.1
97021.7
98805.1
98953.5
98851.7
159732
159729
159808
98720.2
98109.5
97228.9
98503.1
98569.7
98329.5
159416
159402
159508
97900.2
97157.5
96586.3
98134
98154.3
97777.8
158880
158964
159030
96926.8
96348.5
96056.2
95792.2
95733.7
95718
155262
155221
155038
93164.6
93079.8
93005.2
91081.3
91016.1
91018
148081
148049
147993
89634.7
89615.8
89563.3
85260.1
85243.6
85226.9
136269
136171
136083
87785.3
87950.1
88132.5
98918.5
99043.8
98875.9
159804
159754
159751
97242.3
98212.4
98884.6
98405.3
98671.9
98571.4
159535
159430
159430
96549.2
97188.9
98019.1
97822.1
98258.6
98191.6
159064
158998
158886
95995.2
96332
96979.7
95591
95638.8
95744.4
154705
154928
154987
92830.2
92909.4
92987.8
90775.2
90766.5
90832.4
147535
147593
147623
89277
89339.1
89364
84936.1
84954.1
84970.2
135647
135734
135833
87799.1
87596.1
87436.4
)
;

boundaryField
{
    fuel
    {
        type            zeroGradient;
    }
    primary_air
    {
        type            zeroGradient;
    }
    Secondary_air_RHS
    {
        type            zeroGradient;
    }
    Secondary_air_LHS
    {
        type            zeroGradient;
    }
    outlet
    {
        type            totalPressure;
        rho             rho;
        psi             none;
        gamma           1;
        p0              uniform 100000;
        value           nonuniform List<scalar> 
18
(
87084.3
100000
99995.3
86874.8
100000
93836.5
87128.6
100000
88310.9
87393.5
100000
88666.7
87167
100000
93828.7
87338.4
100000
99991.2
)
;
    }
    stove_body
    {
        type            zeroGradient;
    }
    frontAndBack
    {
        type            empty;
    }
}


// ************************************************************************* //
