/*--------------------------------*- C++ -*----------------------------------*\
  =========                 |
  \\      /  F ield         | OpenFOAM: The Open Source CFD Toolbox
   \\    /   O peration     | Website:  https://openfoam.org
    \\  /    A nd           | Version:  6
     \\/     M anipulation  |
\*---------------------------------------------------------------------------*/
FoamFile
{
    version     2.0;
    format      ascii;
    class       volScalarField;
    location    "3.5";
    object      Qdot;
}
// * * * * * * * * * * * * * * * * * * * * * * * * * * * * * * * * * * * * * //

dimensions      [1 -1 -3 0 0 0 0];

internalField   nonuniform List<scalar> 
297
(
-0.000213225
-0.000140608
0
0
-0.000426449
-0.000426449
-0.000213225
-0.000213225
-0.000140608
-0.000213225
-0.000213225
-0.000213225
-0.000426449
0
0
-0.000353833
-0.000140608
0
0
-0.000140608
-0.000140608
-8.77982e-06
0
0
-0.000213225
-0.000353833
-0.000140608
0
0
0
0
0
1.75126e-09
-1.88618e-11
-3.77236e-11
0
0
2.51915e-10
5.13262e-10
0
0
0
0
0
0
0
0
0
-4.71545e-12
1.00766e-09
1.02652e-09
0
0
0
0
5.13262e-10
-1.17886e-12
0
0
0
0
5.13262e-10
-1.17886e-12
-1.43904e-16
-2.87808e-16
0
0
2.05305e-09
0
0
1.02652e-09
-1.43904e-16
0
-1.75664e-20
4.10609e-09
0
-7.02657e-20
0
0
4.10609e-09
4.10609e-09
0
-4.71545e-12
0
0
0
0
0
-4.71545e-12
0
0
0
0
0
0
5.13262e-10
0
-4.71545e-12
5.13262e-10
0
0
0
0
1.02652e-09
5.13262e-10
0
-4.71545e-12
0
0
0
0
0
-2.14434e-24
0
-4.28868e-24
0
-5.36085e-25
0
-5.2352e-28
4.10609e-09
-1.04704e-27
-1.04704e-27
0
0
0
0
0
0
0
0
-5.2352e-28
-6.544e-29
0
0
4.10609e-09
4.10609e-09
4.10609e-09
-7.61822e-39
-2.045e-30
0
0
0
-1.27813e-31
0
-3.99414e-33
-3.12042e-35
0
-2.55625e-31
-1.27813e-31
0
0
0
-4.99268e-34
-1.27813e-31
0
0
0
0
0
0
4.10609e-09
0
-3.04729e-38
0
4.10609e-09
0
0
0
4.10609e-09
0
0
-1.19035e-40
4.10609e-09
4.10609e-09
0
0
0
-1.19035e-40
0
4.10609e-09
0
4.10609e-09
-7.98829e-33
0
-3.90053e-36
-7.98829e-33
0
-1.95027e-36
-3.19531e-32
0
0
0
0
0
-1.85992e-42
0
4.10609e-09
-3.71984e-42
0
4.10609e-09
0
0
0
-2.3249e-43
0
0
-7.2653e-45
4.10609e-09
4.10609e-09
0
-2.27041e-46
0
0
4.10609e-09
4.10609e-09
0
-3.46437e-51
-8.66092e-52
0
-1.1352e-46
0
-4.43439e-49
0
0
0
-4.33046e-52
-1.08261e-52
4.10609e-09
0
-7.09502e-48
-8.86878e-49
4.10609e-09
4.10609e-09
-1.35327e-53
4.10609e-09
0
0
0
4.10609e-09
4.10609e-09
-1.08261e-52
0
0
0
-4.54081e-46
0
0
0
0
0
0
4.10609e-09
0
-2.27041e-46
0
-1.90456e-39
0
-7.43967e-42
4.10609e-09
-3.71984e-42
0
0
4.10609e-09
0
-3.80911e-39
0
0
0
0
0
0
0
0
0
0
8.21219e-09
4.10609e-09
-5.67602e-47
-7.09502e-48
0
-1.1086e-49
-2.77149e-50
0
-1.45306e-44
0
0
0
0
0
0
0
0
0
0
0
0
0
)
;

boundaryField
{
    fuel
    {
        type            calculated;
        value           uniform 0;
    }
    primary_air
    {
        type            calculated;
        value           uniform 0;
    }
    Secondary_air_RHS
    {
        type            calculated;
        value           uniform 0;
    }
    Secondary_air_LHS
    {
        type            calculated;
        value           uniform 0;
    }
    outlet
    {
        type            calculated;
        value           uniform 0;
    }
    stove_body
    {
        type            calculated;
        value           uniform 0;
    }
    frontAndBack
    {
        type            empty;
    }
}


// ************************************************************************* //
