/*--------------------------------*- C++ -*----------------------------------*\
  =========                 |
  \\      /  F ield         | OpenFOAM: The Open Source CFD Toolbox
   \\    /   O peration     | Website:  https://openfoam.org
    \\  /    A nd           | Version:  6
     \\/     M anipulation  |
\*---------------------------------------------------------------------------*/
FoamFile
{
    version     2.0;
    format      ascii;
    class       volScalarField;
    location    "1.5";
    object      O2;
}
// * * * * * * * * * * * * * * * * * * * * * * * * * * * * * * * * * * * * * //

dimensions      [0 0 0 0 0 0 0];

internalField   nonuniform List<scalar> 
297
(
0
0
0
0
0
0
0
0
0
0
0
0
0
0
0
0
0
0
0
0
0
0
0
0
0
0
0
0.0306835
0.0682622
0.0484929
0.0685254
0.0896659
0.0793494
0.030678
0.0683085
0.0487114
0
0.0136841
0
0.0195254
0.0605447
0.0316395
0
0.0136675
0
0
0.0111172
0
0.0145775
0.0144541
0.0189135
0
0.011089
0
0.00224617
0.00663708
0.00224048
0
0.000884611
0
0.00224308
0.00662251
0.00223358
0
2.34494e-08
0
0
0
0
0
2.3338e-08
0
2.6753e-14
9.10218e-14
0
0
3.40685e-14
0
0
9.08061e-14
0
0
0.0111007
0
0
0.000908699
0
0
0.011073
0
0
0.0110687
0
0
0.000886292
0
0
0.0110413
0
0
0.0109878
0
0
0.000886052
0
0
0.0109606
0
5.83987e-19
2.84253e-18
0
0
5.6707e-19
0
0
2.63957e-18
0
7.92933e-23
5.74074e-22
4.31344e-24
7.49973e-24
3.22858e-22
5.68255e-24
3.96608e-24
5.11238e-22
1.74607e-23
3.4739e-23
5.73919e-22
3.47154e-23
7.34295e-24
3.04213e-22
5.54612e-24
2.68455e-23
5.08609e-22
2.96625e-23
5.03491e-30
6.85486e-34
1.38689e-37
0
2.91835e-32
8.22918e-37
0
0
3.38274e-37
9.32283e-29
1.80576e-32
1.21072e-36
7.56354e-29
3.02081e-32
7.55426e-37
2.06065e-28
2.04563e-32
1.10295e-36
2.28614e-27
9.69801e-32
2.14907e-36
1.64895e-28
9.37602e-33
7.03538e-37
1.96042e-27
8.35371e-32
1.86876e-36
9.16235e-34
8.72831e-29
7.487e-24
1.13447e-34
7.18876e-30
0
6.49713e-37
2.62299e-33
3.45768e-29
2.15971e-36
6.05403e-32
1.85588e-27
1.40832e-35
4.67285e-31
8.56292e-29
1.63314e-36
2.5567e-32
1.50676e-28
2.43963e-36
1.01449e-31
2.34625e-27
2.72124e-36
2.12199e-32
2.14141e-28
2.92208e-36
1.23498e-31
1.81143e-27
3.8862e-47
1.39466e-42
2.76666e-38
3.03403e-47
3.08002e-43
3.07868e-39
1.15981e-48
5.04585e-45
5.76565e-41
2.38736e-49
4.00247e-45
8.08946e-41
1.02461e-48
5.26814e-45
2.17369e-40
7.4544e-49
3.60352e-45
7.47512e-41
2.89113e-49
1.11147e-45
4.29538e-41
8.62155e-49
1.35452e-45
5.77736e-41
1.03201e-48
1.18926e-45
5.75417e-41
4.35922e-49
2.68763e-48
1.50498e-46
8.27863e-49
8.78441e-47
8.95966e-46
1.00407e-48
9.30988e-48
3.40344e-46
7.58605e-53
7.41172e-52
4.90534e-51
8.8248e-48
8.68935e-47
5.6958e-46
6.51556e-53
9.6506e-52
4.49825e-51
2.37938e-53
2.31465e-52
1.36466e-51
4.23913e-48
4.05429e-47
2.44657e-46
2.3788e-53
2.31445e-52
1.36484e-51
1.31982e-41
1.84824e-45
8.86573e-49
2.6737e-41
1.6251e-45
1.44929e-48
3.06603e-41
1.46416e-45
1.18516e-48
5.39626e-41
3.01585e-45
8.52915e-49
2.25596e-41
1.16038e-45
9.57373e-49
4.95305e-41
2.51806e-45
1.01809e-48
4.35675e-41
1.13396e-45
7.43109e-49
1.86745e-41
5.37213e-46
8.79393e-49
3.62766e-41
7.45442e-46
9.52279e-49
2.19012e-46
3.9256e-48
6.36599e-49
4.3784e-46
4.80328e-47
8.44967e-49
2.13766e-46
8.71331e-48
9.37496e-49
1.90782e-51
4.08149e-52
2.48287e-53
2.76867e-46
4.75093e-47
3.69084e-48
2.24412e-51
3.53537e-52
2.91997e-53
6.59737e-52
1.25182e-52
1.05875e-53
1.18531e-46
2.20666e-47
1.85151e-48
6.59835e-52
1.253e-52
1.0478e-53
)
;

boundaryField
{
    fuel
    {
        type            fixedValue;
        value           uniform 0;
    }
    primary_air
    {
        type            fixedValue;
        value           uniform 0.23;
    }
    Secondary_air_RHS
    {
        type            fixedValue;
        value           uniform 0.23;
    }
    Secondary_air_LHS
    {
        type            fixedValue;
        value           uniform 0.23;
    }
    outlet
    {
        type            inletOutlet;
        inletValue      uniform 0;
        value           nonuniform List<scalar> 
18
(
0
1.18531e-46
0
0
2.20666e-47
0
0
1.85151e-48
0
0
4.23913e-48
0
0
4.05429e-47
0
0
2.44657e-46
0
)
;
    }
    stove_body
    {
        type            fixedValue;
        value           uniform 0;
    }
    frontAndBack
    {
        type            empty;
    }
}


// ************************************************************************* //
