/*--------------------------------*- C++ -*----------------------------------*\
  =========                 |
  \\      /  F ield         | OpenFOAM: The Open Source CFD Toolbox
   \\    /   O peration     | Website:  https://openfoam.org
    \\  /    A nd           | Version:  6
     \\/     M anipulation  |
\*---------------------------------------------------------------------------*/
FoamFile
{
    version     2.0;
    format      ascii;
    class       volScalarField;
    location    "1.5";
    object      Qdot;
}
// * * * * * * * * * * * * * * * * * * * * * * * * * * * * * * * * * * * * * //

dimensions      [1 -1 -3 0 0 0 0];

internalField   nonuniform List<scalar> 
297
(
7.99471e-05
7.99471e-05
0
0
0
0
7.99471e-05
0
7.99471e-05
0.000132667
0
0
0.000159894
0
0
-7.99471e-05
0
0.000132667
5.27202e-05
0
0
-3.0791e-09
7.99471e-05
0
0
0
0
2.82884e-11
0
-1.51126e-09
-1.53955e-09
0
1.53955e-09
0
0
2.82884e-11
0
7.0721e-12
0
0
0
0
0
0
0
0
0
-1.53955e-09
1.41442e-11
-1.52541e-09
-1.53955e-09
0
0
0
0
-1.53955e-09
0
0
0
0
0
0
0
0
1.3489e-17
0
0
0
0
0
0
0
1.28641e-23
0
0
0
0
0
0
0
0
-7.69776e-10
0
0
-1.53955e-09
-1.53955e-09
0
-7.69776e-10
0
0
-7.69776e-10
0
-7.69776e-10
0
-1.53955e-09
0
0
0
0
-7.69776e-10
0
-7.69776e-10
-1.53955e-09
-1.53955e-09
-1.53955e-09
-7.69776e-10
7.0721e-12
0
0
1.57032e-27
0
0
0
0
0
0
0
-1.53955e-09
0
2.99515e-33
0
0
5.99031e-33
0
0
1.19806e-32
0
-1.53955e-09
0
0
0
0
0
0
0
0
-1.53955e-09
0
0
0
0
0
0
-1.70255e-46
0
0
6.81019e-46
0
0
0
0
1.11578e-41
0
0
0
0
0
0
0
0
0
0
0
0
0
0
-3.0791e-09
0
0
0
0
0
0
0
0
0
0
0
0
-1.53955e-09
0
0
0
0
0
1.8281e-37
0
0
-1.53955e-09
0
-1.53955e-09
0
0
0
0
-1.53955e-09
0
0
0
2.53699e-54
0
1.23877e-57
0
0
0
0
0
-1.54846e-58
0
0
0
1.2685e-54
0
0
-1.53955e-09
0
0
0
-7.9281e-56
0
0
-1.53955e-09
0
0
0
0
0
2.41947e-60
0
7.9281e-56
0
-1.53955e-09
0
0
0
1.51217e-61
0
0
-1.53955e-09
-1.53955e-09
0
0
-1.53955e-09
0
0
0
0
0
0
0
0
0
0
0
-1.53955e-09
2.0783e-50
0
0
0
1.2685e-54
0
-1.53955e-09
0
0
2.0783e-50
6.34248e-55
1.23877e-57
0
0
-1.53955e-09
0
0
0
0
3.96405e-56
0
0
0
0
0
0
1.89021e-62
-1.53955e-09
3.96405e-56
-1.53955e-09
1.20973e-60
0
1.89021e-62
3.02433e-61
0
4.72552e-63
1.53955e-09
-1.53955e-09
2.47753e-57
3.02433e-61
0
4.72552e-63
)
;

boundaryField
{
    fuel
    {
        type            calculated;
        value           uniform 0;
    }
    primary_air
    {
        type            calculated;
        value           uniform 0;
    }
    Secondary_air_RHS
    {
        type            calculated;
        value           uniform 0;
    }
    Secondary_air_LHS
    {
        type            calculated;
        value           uniform 0;
    }
    outlet
    {
        type            calculated;
        value           uniform 0;
    }
    stove_body
    {
        type            calculated;
        value           uniform 0;
    }
    frontAndBack
    {
        type            empty;
    }
}


// ************************************************************************* //
