/*--------------------------------*- C++ -*----------------------------------*\
  =========                 |
  \\      /  F ield         | OpenFOAM: The Open Source CFD Toolbox
   \\    /   O peration     | Website:  https://openfoam.org
    \\  /    A nd           | Version:  6
     \\/     M anipulation  |
\*---------------------------------------------------------------------------*/
FoamFile
{
    version     2.0;
    format      ascii;
    class       volVectorField;
    location    "1.5";
    object      U;
}
// * * * * * * * * * * * * * * * * * * * * * * * * * * * * * * * * * * * * * //

dimensions      [0 1 -1 0 0 0 0];

internalField   nonuniform List<vector> 
297
(
(33.8958 -0.0236384 0.238975)
(33.8953 0.000285099 0.265312)
(33.8958 0.0238417 0.243268)
(-0.00116362 0.0337949 0.265236)
(-0.00111232 -0.000200902 0.264332)
(-0.00116341 -0.0335435 0.265246)
(-33.8979 -0.0209718 0.239342)
(-33.8973 0.000313572 0.264378)
(-33.8978 0.0212098 0.243065)
(33.9057 -0.017813 0.28568)
(33.8955 -0.00121756 0.291149)
(33.9051 0.0169403 0.281606)
(-0.00116849 0.10092 0.104417)
(-0.00111931 -0.00453012 0.0583699)
(-0.00116822 -0.100855 0.0994071)
(-33.9076 -0.0153285 0.284633)
(-33.8973 -0.00118143 0.288291)
(-33.9071 0.0145717 0.281341)
(33.7693 -0.0769188 0.504905)
(33.8865 0.00374189 0.51677)
(33.8429 0.0851734 0.507773)
(-0.000982735 0.0388333 0.138271)
(-0.000950846 -0.00405114 0.223463)
(-0.000980984 -0.0302696 0.148817)
(-33.7806 -0.0760598 0.505282)
(-33.8884 0.00296373 0.514846)
(-33.8437 0.0831715 0.507726)
(22.4138 9.50016 1.48197)
(22.2945 5.54621 7.11391)
(22.3125 -9.5176 8.96863)
(-3.3644e-05 5.48459 2.33056)
(2.36629e-06 2.68392 1.99988)
(2.39884e-05 -6.03621 4.90266)
(-22.4253 9.4981 1.44571)
(-22.3037 5.61583 7.12266)
(-22.319 -9.45576 9.04886)
(22.4529 11.543 9.77436)
(22.4843 2.0971 39.6014)
(22.4169 -12.7194 16.8735)
(0.000276216 24.1909 75.5122)
(1.04632e-05 0.178624 70.6818)
(-0.000183608 -27.159 79.6817)
(-22.4652 11.5621 9.89639)
(-22.4934 1.81235 39.5242)
(-22.4264 -12.6182 16.8718)
(21.8912 -0.914407 -18.1217)
(22.5296 4.20292 60.7268)
(21.8255 -1.19737 -1.05833)
(2.3656e-05 -21.0871 115.505)
(0.000160042 0.892047 -10.6427)
(-5.06676e-05 18.6766 120.305)
(-21.9037 -1.04539 -18.0283)
(-22.5381 4.45366 60.8529)
(-21.8342 -1.33228 -1.14088)
(22.1969 -17.2133 -123.815)
(22.267 -4.07802 -8.01721)
(22.2368 19.956 -115.285)
(-3.90039e-05 -3.64585 2.01645)
(-0.000251904 3.37358 -79.8861)
(2.63379e-05 2.11198 15.1272)
(-22.2069 -17.2538 -123.88)
(-22.2818 -4.11946 -8.03995)
(-22.2442 19.9432 -115.289)
(22.5818 37.495 -83.4618)
(22.7485 -13.6404 -73.6455)
(22.5662 -29.3995 -75.6458)
(-3.64782e-05 17.3352 -47.0202)
(-2.20082e-05 1.74861 -60.3428)
(9.81277e-05 -11.302 -32.4513)
(-22.6023 37.473 -83.4913)
(-22.7722 -13.54 -73.6718)
(-22.575 -29.4186 -75.6412)
(23.247 27.8507 -26.6823)
(23.22 -16.9942 -22.6189)
(23.2928 -32.6188 -26.4379)
(-8.61441e-05 28.5641 -27.7622)
(-9.50915e-05 12.4831 -28.3773)
(4.64664e-05 -17.2659 -30.3787)
(-23.287 27.8327 -26.6742)
(-23.2527 -16.9101 -22.6161)
(-23.3162 -32.5586 -26.4374)
(16.21 2.9188 -182.131)
(21.6041 -0.894133 82.4842)
(16.3855 -2.45384 -171.748)
(-0.00281341 -12.5391 162.604)
(-0.000417756 3.36035 -98.9861)
(0.00165025 10.0248 167.288)
(-16.2083 2.81016 -182.278)
(-21.6134 -0.938681 82.5228)
(-16.399 -2.52784 -171.742)
(17.0748 -2.58768 -185.461)
(19.3367 -1.30825 81.8901)
(17.196 3.84246 -175.322)
(-0.00218085 -6.68929 181.351)
(-0.000485737 3.39588 -101.851)
(0.00130221 4.18525 186.175)
(-17.085 -2.66885 -185.622)
(-19.3527 -1.37904 81.9311)
(-17.2004 3.78902 -175.302)
(21.1174 -8.61324 -167.703)
(19.5583 -1.64977 79.2366)
(21.0194 10.7209 -158.236)
(-0.00149356 -0.982039 177.738)
(-0.000590446 3.4353 -102.205)
(0.000916148 -1.36597 182.784)
(-21.1361 -8.6634 -167.832)
(-19.5733 -1.75469 79.266)
(-21.022 10.6912 -158.223)
(22.9003 55.7353 -14.3253)
(23.0727 1.2692 -15.624)
(22.9068 -56.1048 -14.5895)
(-0.000128121 39.6912 -16.3275)
(-0.000134824 -4.15598 -16.4988)
(-7.02745e-05 -40.5677 -14.014)
(-22.9406 55.635 -14.3313)
(-23.1125 1.33096 -15.6296)
(-22.9516 -55.9794 -14.579)
(23.1854 35.1391 -4.5476)
(23.2812 -3.05329 -1.31583)
(23.2094 -35.4737 -4.59868)
(-0.000117374 21.422 -8.31791)
(-0.000108896 0.860129 -7.20508)
(-8.1783e-05 -22.6058 -7.89194)
(-23.2335 35.0912 -4.56608)
(-23.3211 -2.98555 -1.34561)
(-23.2439 -35.3965 -4.62448)
(23.3188 -3.91197 -5.00421)
(23.3249 -0.681704 3.35278)
(23.318 4.39253 -5.21841)
(-0.000125441 6.48777 -5.59871)
(-9.46825e-05 -1.74968 -2.0229)
(-8.18736e-05 -6.71569 -4.59944)
(-23.3473 -3.80483 -5.03584)
(-23.3661 -0.665641 3.30994)
(-23.3499 4.33721 -5.20696)
(22.8708 -58.8251 -6.01705)
(23.1385 -53.2973 -9.37257)
(23.0546 -45.5822 -12.7063)
(-0.000132983 -45.7539 -5.50946)
(-0.000182485 -43.7067 -5.08788)
(-0.000351435 -36.5712 -5.23687)
(-22.9252 -58.6971 -5.98437)
(-23.1993 -53.1623 -9.32983)
(-23.1188 -45.455 -12.6615)
(23.0812 -43.7009 -2.80566)
(23.2601 -45.3196 -10.9717)
(22.9635 -38.3194 -20.4281)
(-8.7268e-05 -37.1825 -0.344514)
(-9.46605e-05 -37.5038 1.55599)
(-0.000196388 -31.4827 3.63749)
(-23.1191 -43.6353 -2.82566)
(-23.2975 -45.2297 -10.9739)
(-22.9983 -38.2459 -20.4185)
(23.3522 -8.12734 -5.0797)
(23.3488 -23.7741 -18.3582)
(22.992 -32.9008 -29.104)
(-5.50003e-05 -19.6712 2.04582)
(-7.63625e-06 -20.8642 4.36994)
(2.69472e-05 -22.8627 4.29041)
(-23.3836 -8.14025 -5.04158)
(-23.3804 -23.74 -18.3053)
(-23.0251 -32.8453 -29.0595)
(23.0615 45.1974 -12.6061)
(23.1432 52.814 -9.29612)
(22.8738 58.3538 -5.99841)
(-0.000353463 36.4295 -5.24295)
(-0.000221187 43.2016 -5.02473)
(-0.00017557 45.8206 -5.56562)
(-23.1138 45.0959 -12.585)
(-23.1932 52.7088 -9.26939)
(-22.9216 58.2582 -5.9759)
(22.9544 37.9831 -20.2536)
(23.2478 44.9843 -10.9201)
(23.0736 43.2678 -2.86999)
(-0.00024095 31.2609 3.54448)
(-0.000167169 37.2428 1.63473)
(-0.000146532 37.072 -0.555567)
(-22.9992 37.9362 -20.2586)
(-23.2942 44.9364 -10.9214)
(-23.1159 43.2369 -2.87869)
(22.994 32.6286 -28.8555)
(23.3481 23.6979 -18.398)
(23.3499 7.53709 -5.14329)
(-7.69335e-05 22.6899 4.23993)
(-0.000118702 20.7806 4.2822)
(-0.000132018 19.5884 1.97437)
(-23.023 32.5968 -28.8274)
(-23.3762 23.6839 -18.3455)
(-23.3777 7.62685 -5.08884)
(22.9052 14.1483 -22.1831)
(22.9089 21.0433 -15.2544)
(22.9892 32.7608 -17.822)
(-0.000935721 13.5198 -11.1392)
(-0.000767607 18.2783 -6.11373)
(-0.000557242 27.7554 -6.47251)
(-22.9836 14.1074 -22.0868)
(-22.9762 20.9895 -15.1857)
(-23.0487 32.6641 -17.7739)
(22.9498 5.55101 -34.0446)
(22.9806 18.2231 -24.1584)
(22.9007 31.5622 -30.49)
(-0.00075965 9.24976 -10.2804)
(-0.000589618 14.4034 -4.95846)
(-0.000419275 25.3337 -3.10311)
(-23.0276 5.56704 -33.9117)
(-23.0353 18.1978 -24.1227)
(-22.9495 31.5196 -30.4669)
(23.2679 4.66963 -42.5458)
(23.0411 20.1684 -37.7291)
(22.9461 18.3681 -46.9462)
(-0.000590751 7.43734 -16.3742)
(-0.000442153 15.147 -11.2681)
(-0.000279345 20.5836 -0.772452)
(-23.3355 4.68095 -42.4021)
(-23.071 20.1468 -37.6995)
(-22.9807 18.3467 -46.8827)
(23.181 -5.69293 -67.9102)
(23.1814 -4.41114 -63.1365)
(23.1862 -10.2155 -67.45)
(0.000104345 -6.32832 4.44892)
(0.000122743 1.66048 17.6275)
(0.000146649 -7.82436 14.7074)
(-23.2293 -5.62981 -67.7634)
(-23.1843 -4.38592 -63.1396)
(-23.2195 -10.217 -67.3378)
(22.7888 2.47063 -132.659)
(22.7784 -1.15696 -133.042)
(22.7706 4.60225 -131.779)
(0.000315153 -2.03005 64.4949)
(0.00028274 0.183045 66.78)
(0.000280429 -1.88162 61.1189)
(-22.7877 2.43725 -132.559)
(-22.7774 -1.14339 -132.994)
(-22.7697 4.59679 -131.72)
(21.6772 -0.0938765 -165.964)
(21.6794 -0.0268845 -165.865)
(21.6818 -0.168015 -165.528)
(0.000211369 -0.594529 172.058)
(0.000207943 0.33195 170.717)
(0.000206118 -0.516184 168.561)
(-21.6766 -0.091588 -165.93)
(-21.6788 -0.0258337 -165.835)
(-21.6812 -0.167025 -165.498)
(22.9829 -33.0654 -17.9678)
(22.9037 -21.235 -15.3765)
(22.8969 -14.2655 -22.3927)
(-0.000663527 -28.1357 -6.51829)
(-0.000974961 -18.4612 -6.17352)
(-0.00111154 -13.6935 -11.2416)
(-23.0515 -32.9434 -17.8959)
(-22.9791 -21.1675 -15.2856)
(-22.9881 -14.2175 -22.2655)
(22.908 -31.783 -30.7424)
(22.9974 -18.4112 -24.333)
(22.9602 -5.5822 -34.3859)
(-0.000458104 -25.5758 -3.14369)
(-0.000694731 -14.5218 -5.01938)
(-0.000860124 -9.33163 -10.4178)
(-22.9499 -31.7134 -30.7003)
(-23.0362 -18.3658 -24.2839)
(-23.027 -5.59344 -34.2173)
(22.9411 -18.493 -47.3547)
(23.0478 -20.3061 -38.0764)
(23.2825 -4.70443 -42.9863)
(-0.000279572 -20.8269 -0.780808)
(-0.000494284 -15.2363 -11.4392)
(-0.000666838 -7.52275 -16.5734)
(-22.9811 -18.4638 -47.2685)
(-23.0741 -20.2679 -38.0358)
(-23.3398 -4.71048 -42.8108)
(23.1775 10.225 -67.9866)
(23.177 4.46069 -63.6517)
(23.1523 5.77389 -68.6037)
(0.000189516 7.75543 14.6669)
(0.000158492 -1.62118 17.5024)
(0.000132765 6.3842 3.80029)
(-23.2234 10.2304 -67.8604)
(-23.188 4.43529 -63.6613)
(-23.2339 5.70652 -68.4251)
(22.7726 -4.58848 -132.342)
(22.7806 1.16649 -133.6)
(22.7911 -2.50939 -133.279)
(0.000350805 1.88405 61.1676)
(0.000353228 -0.122098 66.8359)
(0.000390856 2.06393 64.9254)
(-22.7715 -4.58387 -132.272)
(-22.7794 1.14945 -133.545)
(-22.7898 -2.47622 -133.196)
(21.683 0.168957 -166.01)
(21.6806 0.0267803 -166.349)
(21.6788 0.0960394 -166.452)
(0.000220915 0.505138 168.359)
(0.000221541 -0.345004 170.561)
(0.000223063 0.587176 171.812)
(-21.6824 0.168235 -165.975)
(-21.68 0.0267037 -166.314)
(-21.6782 0.0943366 -166.414)
)
;

boundaryField
{
    fuel
    {
        type            fixedValue;
        value           uniform (0 0 0.25);
    }
    primary_air
    {
        type            fixedValue;
        value           uniform (0 0 2.5);
    }
    Secondary_air_RHS
    {
        type            fixedValue;
        value           uniform (0 150 0);
    }
    Secondary_air_LHS
    {
        type            fixedValue;
        value           uniform (0 -150 0);
    }
    outlet
    {
        type            pressureInletOutletVelocity;
        value           nonuniform List<vector> 
18
(
(0 0 -166.01)
(0.000220915 0.505138 168.359)
(0 0 -165.975)
(0 0 -166.349)
(0.000221541 -0.345004 170.561)
(0 0 -166.314)
(0 0 -166.452)
(0.000223063 0.587176 171.812)
(0 0 -166.414)
(0 0 -165.964)
(0.000211369 -0.594529 172.058)
(0 0 -165.93)
(0 0 -165.865)
(0.000207943 0.33195 170.717)
(0 0 -165.835)
(0 0 -165.528)
(0.000206118 -0.516184 168.561)
(0 0 -165.498)
)
;
    }
    stove_body
    {
        type            noSlip;
    }
    frontAndBack
    {
        type            empty;
    }
}


// ************************************************************************* //
