/*--------------------------------*- C++ -*----------------------------------*\
  =========                 |
  \\      /  F ield         | OpenFOAM: The Open Source CFD Toolbox
   \\    /   O peration     | Website:  https://openfoam.org
    \\  /    A nd           | Version:  6
     \\/     M anipulation  |
\*---------------------------------------------------------------------------*/
FoamFile
{
    version     2.0;
    format      ascii;
    class       surfaceScalarField;
    location    "1.5";
    object      phi;
}
// * * * * * * * * * * * * * * * * * * * * * * * * * * * * * * * * * * * * * //

dimensions      [1 0 -1 0 0 0 0];

internalField   nonuniform List<scalar> 
675
(
-6.91764e-06
-2.60651e-05
0.000159749
7.0969e-06
-4.89612e-05
0.000161834
-2.61198e-05
0.000159981
1.06095e-05
2.69382e-05
0.000146136
-1.05889e-05
4.59863e-05
0.000135819
2.69925e-05
0.00014605
-5.85336e-06
0.000159612
6.03156e-06
0.000160969
0.000159842
-4.83918e-06
-3.29315e-05
0.000197929
4.61215e-06
-5.85884e-05
0.000211592
-3.20069e-05
0.000197008
2.45836e-05
3.35178e-05
5.46563e-05
-2.60106e-05
5.55947e-05
7.15148e-05
3.28445e-05
5.47377e-05
-3.88474e-06
0.000197537
3.66668e-06
0.000209588
0.000196874
-6.80229e-06
7.88042e-05
8.5182e-06
7.06887e-05
7.95925e-05
-1.2175e-06
-7.80642e-05
-2.96068e-07
-6.98264e-05
-7.88392e-05
-6.30126e-06
7.74446e-06
0.0126005
0.0112708
-0.0206886
-0.00219395
0.0122723
0.00559468
0.0129178
-0.0119295
0.00872189
-0.0112342
0.0192063
-0.00332965
-0.0122678
0.0417927
-0.0129529
0.0279542
0.0126412
-0.0206938
-0.00209461
0.00554071
-0.0118609
0.0374213
0.0277179
-0.0857519
-0.0354271
-0.0127881
0.0913764
0.0275486
-0.0748086
0.0161573
-0.0278325
0.0584325
-0.0191352
0.012789
0.0513296
-0.0274772
0.0636617
0.0372222
-0.0856632
-0.0355603
0.0912568
-0.0748068
0.00662592
0.0634971
-0.155983
-0.0064931
0.00207813
0.102806
0.0662041
-0.147602
-0.115943
-0.0634717
0.301347
0.113849
-0.00204562
-0.174335
-0.0661955
0.309888
0.00679008
-0.156041
-0.00639414
0.102793
-0.147507
-0.0641145
-0.0713176
-0.0506408
0.18629
0.0615693
0.0141788
-0.0548585
-0.0851132
-0.0729106
-0.0443626
0.178988
0.00953486
0.071353
0.0915653
-0.243853
0.00482984
-0.0141413
-0.172026
0.20519
0.072896
0.113357
-0.25437
-0.0641701
-0.0505531
0.18628
0.0614952
-0.0548141
-0.0850915
-0.0443861
0.178945
0.00575255
-0.0264179
-0.0301147
-0.0203919
0.0108812
-0.0395683
-0.039291
-0.0255711
0.0586157
0.0264463
-0.0198617
-0.0438646
-0.0108632
-0.0473283
0.0392716
-0.00900641
0.0058139
-0.0300591
-0.0203183
-0.0395136
-0.025548
-0.00936677
0.00360293
-0.0243781
-0.0225699
-0.000513218
-0.0258447
-0.0231893
-0.0249843
0.0279363
-0.00355625
-0.0406397
0.0199696
0.000563831
-0.040348
0.023101
-0.0353309
-0.00930658
-0.0243394
-0.0224493
-0.0258003
-0.0249325
-0.00223564
-0.00154313
-0.166064
0.00223986
0.000392313
0.0978703
-0.00140649
-0.158005
-0.00681563
0.00154734
0.282261
0.00732592
-0.000388731
-0.187854
0.00140408
0.291533
-0.00224228
-0.166105
0.00223152
0.0978595
-0.157927
-0.00214556
-0.000588798
-0.176903
0.00209181
-0.000572998
0.0940661
-0.000467955
-0.169189
-0.00305883
0.000591892
0.262112
0.00346303
0.000572969
-0.195605
0.000466364
0.272007
-0.0021543
-0.176922
0.0020861
0.0940519
-0.169127
-0.00505675
0.000410864
0.00489576
-0.00110343
0.000527695
-0.00351055
-0.000408907
0.00388451
0.00110385
-0.000528552
-0.00507766
0.00488749
0.00911065
-0.00201127
-0.0107244
-0.0207481
-0.00870203
-0.0014431
-0.00659182
-0.00232911
-0.0104462
-0.0209078
0.00882502
0.00201721
-0.026741
-0.0267575
-0.0116653
0.00145127
-0.0227666
0.0023286
-0.0249903
-0.0266702
0.00908804
-0.0107336
-0.0206731
-0.00865375
-0.0066107
-0.0104385
-0.0208149
0.00505521
0.000207344
-0.0016355
-0.0143447
-0.00612192
0.00169676
0.00288443
-8.64825e-05
-0.00196851
-0.0145077
0.00524779
-0.000182953
-0.0122147
-0.0193901
-0.00524833
-0.00168531
-0.0089104
9.19915e-05
-0.0109179
-0.0195064
0.00505117
-0.00165268
-0.0143056
-0.00609017
0.0028421
-0.0019714
-0.014459
-0.000195518
0.00164238
-0.0030749
0.000206197
0.00247826
0.00147526
-0.00323093
0.00146829
-0.0016248
-0.0104227
-0.00251976
-0.00246951
-0.00146385
-0.0105066
-0.000170956
-0.00309996
0.000197481
-0.00323059
-0.0190017
-0.000577007
-0.00132527
-0.0196226
0.00222771
-0.00160471
0.00270112
-0.00682962
-0.0154956
-0.025736
0.000577703
-0.00208808
-0.0226578
-0.0022196
0.00137077
-0.00269089
0.00312352
-0.020387
-0.0189101
-0.00132186
-0.0195266
-0.00159851
-0.00680974
-0.0154056
-0.0144597
-0.000656772
-0.000711657
-0.0146051
0.00149547
-0.00295
0.000233737
-0.00762697
-0.0140389
-0.0215973
0.000657509
-0.00131082
-0.0179011
-0.0014904
0.000661257
-0.000230252
0.00395366
-0.0182707
-0.0144117
-0.000706399
-0.0145592
-0.00293678
-0.00760899
-0.013988
-0.00404913
0.00011166
-0.00663106
-0.00036364
-0.00206169
-0.0121943
-0.0115967
-0.000108931
-0.0116605
0.000360764
0.00205972
-0.0118299
-0.00404071
-0.00661212
-0.0121593
0.0194472
0.00268281
-0.00677851
-0.0153498
0.0188446
0.00222501
-0.00161845
-0.000548441
-0.00135039
0.022494
-0.00267307
0.0030686
-0.0202089
0.0255664
-0.00221641
0.00136861
0.000550906
-0.0022904
0.0193717
-0.00676575
-0.0152772
0.0187701
-0.001611
-0.001349
0.0144927
0.000231608
-0.00756522
-0.0139359
0.0143472
0.00150253
-0.00297158
-0.000605275
-0.000737816
0.0177679
-0.000224918
0.00388774
-0.0181325
0.0214852
-0.00149488
0.000648588
0.000614813
-0.00141528
0.0144543
-0.00755207
-0.0138911
0.0143085
-0.00295532
-0.000724612
0.00659217
-0.0020448
-0.0121109
0.00394857
-0.000324023
0.000140568
0.0115644
0.00204544
-0.0117686
0.011563
0.000325915
-0.000134375
0.00658054
-0.0120854
0.00395474
0.00671231
0.00222547
-0.00894
0.0103636
0.00197878
-0.00563163
0.00229786
-0.00728452
0.00945483
-0.00221286
-0.00502121
0.0152769
-0.00196739
-0.00188011
-0.00228583
-0.000351401
0.00666165
-0.00887646
0.0103007
-0.00560783
-0.00726252
0.00500612
0.00192727
-0.0158753
0.00929759
0.00179458
-0.0117191
0.00125083
-0.013174
0.00709922
-0.00191678
-0.00828056
0.0134105
-0.00178696
-0.0046135
-0.0012431
-0.0025823
0.00497476
-0.0157698
0.00926292
-0.0116843
-0.013134
0.00604687
0.00412544
-0.0260494
0.00658553
0.00206276
-0.0143217
0.000880711
-0.0195804
0.00775463
-0.00410677
-0.00780609
0.0124065
-0.00206209
-0.00514329
-0.000879184
-0.000186649
0.00600679
-0.0258851
0.00656563
-0.0143063
-0.0195332
-0.00731152
0.0131392
-0.0318775
-0.00123083
0.0110648
-0.0314674
0.0107936
-0.0316047
0.00176577
-0.0131383
0.0167125
-0.00236142
-0.0111002
0.0211562
-0.0108135
0.0190665
-0.00723289
-0.0317914
-0.00120008
-0.0314399
-0.0315471
0.000168339
0.00558783
-0.0376343
0.000718056
0.00567346
-0.0376913
0.0063001
-0.0371875
-0.00297783
-0.00562741
0.0309061
-0.0019457
-0.00571388
0.0315121
-0.00633508
0.0297564
0.000190462
-0.0376098
0.000711608
-0.0376755
-0.0371711
-0.000103194
0.0176704
-0.000266348
0.0176511
0.0176471
-0.000444118
-0.017682
0.000207541
-0.0176624
-0.0176584
-9.8331e-05
-0.000264278
-0.0104609
0.00230966
-0.00734592
-0.00677478
0.00198761
-0.00566939
0.00224574
-0.0090242
-0.0154166
-0.00229666
-0.000366039
-0.00955251
-0.00197519
-0.00191254
-0.00223161
-0.00507987
-0.0103853
-0.00731718
-0.0067181
-0.00564394
-0.00895206
-0.00936603
0.00125945
-0.013279
-0.00504766
0.00180932
-0.0117994
0.00194437
-0.016019
-0.0135351
-0.00125381
-0.00259223
-0.00716951
-0.00180206
-0.00467054
-0.00193345
-0.00837604
-0.00932835
-0.0132309
-0.00501414
-0.0117617
-0.0159019
-0.00663125
0.000878985
-0.0197213
-0.00609716
0.00208018
-0.0144153
0.00415593
-0.026274
-0.012531
-0.000879961
-0.000133876
-0.00783135
-0.00207999
-0.005213
-0.00413468
-0.00792047
-0.00660868
-0.0196617
-0.00605269
-0.014399
-0.0260912
0.00124274
0.0108146
-0.0317781
0.00737254
0.0110979
-0.0316428
0.013203
-0.0321047
0.00239516
-0.0108366
0.01913
-0.00176821
-0.0111344
0.0211901
-0.0131996
0.0167209
0.00121376
-0.0317116
0.00729229
-0.0316118
-0.0319986
-0.000708559
0.00628184
-0.0373514
-0.000145559
0.00565009
-0.0378559
0.00555874
-0.0378091
0.00202814
-0.00632343
0.0297074
0.00309094
-0.00569818
0.0314731
-0.00560864
0.0309795
-0.000703782
-0.0373316
-0.00017731
-0.0378368
-0.0377849
0.000267468
0.0175975
0.000105016
0.0176014
0.017614
-0.00024242
-0.0176099
0.000366408
-0.0176139
-0.0176267
0.000266693
0.000102545
)
;

boundaryField
{
    fuel
    {
        type            calculated;
        value           nonuniform List<scalar> 
36
(
0.000126318
0.000210229
0.000126298
0.000126317
0.00021023
0.000126298
0.000126318
0.000210229
0.000126298
-0.000126318
-0.000210229
-0.000126299
-0.000126317
-0.00021023
-0.000126298
-0.000126318
-0.000210229
-0.000126299
0
0
0
0
0
0
0
0
0
0
0
0
0
0
0
0
0
0
)
;
    }
    primary_air
    {
        type            calculated;
        value           nonuniform List<scalar> 9(-0.00318306 -0.00528325 -0.00318304 -0.00318351 -0.00528513 -0.00318352 -0.00318325 -0.00528528 -0.00318326);
    }
    Secondary_air_RHS
    {
        type            calculated;
        value           nonuniform List<scalar> 9(0.0140407 0.0228372 0.0140454 0.013734 0.0220329 0.0137385 0.0141551 0.0225675 0.0141585);
    }
    Secondary_air_LHS
    {
        type            calculated;
        value           nonuniform List<scalar> 9(0.0138495 0.0227774 0.0138416 0.013558 0.0220018 0.0135506 0.0140167 0.0225723 0.0140113);
    }
    outlet
    {
        type            calculated;
        value           nonuniform List<scalar> 
18
(
-0.0552168
0.0651572
-0.0552085
-0.0552953
0.0660822
-0.055287
-0.0553185
0.0665866
-0.0553095
-0.0552013
0.0667021
-0.0551933
-0.055179
0.0661733
-0.0551718
-0.0551007
0.0652691
-0.0550936
)
;
    }
    stove_body
    {
        type            calculated;
        value           uniform 0;
    }
    frontAndBack
    {
        type            empty;
        value           nonuniform 0();
    }
}


// ************************************************************************* //
