/*--------------------------------*- C++ -*----------------------------------*\
  =========                 |
  \\      /  F ield         | OpenFOAM: The Open Source CFD Toolbox
   \\    /   O peration     | Website:  https://openfoam.org
    \\  /    A nd           | Version:  6
     \\/     M anipulation  |
\*---------------------------------------------------------------------------*/
FoamFile
{
    version     2.0;
    format      ascii;
    class       volScalarField;
    location    "2.5";
    object      p;
}
// * * * * * * * * * * * * * * * * * * * * * * * * * * * * * * * * * * * * * //

dimensions      [1 -1 -2 0 0 0 0];

internalField   nonuniform List<scalar> 
297
(
111866
111866
111866
182364
182364
182364
111866
111866
111866
111866
111866
111866
182364
182364
182364
111866
111866
111866
111866
111866
111866
182365
182365
182365
111866
111866
111866
97528.5
97553.8
97538.2
159447
159430
159446
97538.7
97553.9
97528.1
97476.2
97500.6
97498.1
159256
159273
159256
97497.9
97500.6
97476.4
97369.4
97496.1
97452
158210
158764
158212
97450.3
97496.5
97370.5
97384
97444.3
97343.6
159280
158986
159281
97343.3
97444.5
97384.1
97341.7
97385.7
97261.9
159212
159162
159211
97263.2
97386
97340.9
97275.8
97379.9
97151
158962
159033
158958
97154.1
97380.9
97274.3
97232.9
97588.2
97187.4
156385
158288
156384
97187.1
97590.7
97233.5
97203.1
97584.6
97152.5
156177
158352
156175
97152
97586.5
97203.5
97189.5
97570
97145.6
156373
158516
156371
97145.1
97569.1
97189.4
97600.2
97626.5
97548
158934
159031
158931
97550.3
97627.8
97599.1
97665.1
97674.9
97634.1
159050
159045
159047
97636.3
97676.3
97663.9
97688.1
97684.5
97676.3
159126
159074
159123
97678.4
97685.9
97687
97695.3
97639.5
97605.4
158535
158689
158905
97662.6
97603.6
97559.1
97639.3
97542.4
97458.8
158797
158797
158913
97629.6
97540.6
97448.6
97614.9
97516.3
97437.1
158915
158803
158727
97613
97520.9
97419.9
97562.2
97605.8
97664.4
158903
158689
158537
97598.3
97634.6
97693.3
97451.7
97542.9
97631.5
158911
158797
158798
97451.7
97537.4
97637.3
97423
97523.2
97614.8
158724
158802
158916
97430.2
97511.4
97612.8
98425.6
98179
97766.8
159068
159051
159026
98662.6
98372.4
97869.3
98126.1
97814.4
97535
158981
158944
158984
98340
97957.4
97591.6
97786.8
97509.6
97328.6
158762
158633
158598
97987.2
97612.6
97368.7
96596.3
96521.2
96502.6
157249
157150
157082
96714.9
96619.8
96604.6
95328.2
95366.9
95420.1
153241
153224
153224
95235.1
95284.6
95353.1
92440.5
92521.7
92585.8
141635
141656
141691
92060.4
92133.7
92197.9
97877.5
98381.5
98672.6
159030
159055
159072
97762.6
98174
98420
97599.5
97965.7
98348.5
158987
158948
158985
97531
97809.6
98120.9
97376.1
97619.9
97992.5
158602
158638
158766
97325
97505.5
97783.3
96611.4
96627.6
96724
157090
157157
157257
96500.7
96518.4
96592.3
95338.6
95269.8
95220.3
153211
153210
153227
95430.4
95378
95340.3
92196.6
92132.5
92059.1
141689
141655
141632
92588.5
92524.4
92443.4
)
;

boundaryField
{
    fuel
    {
        type            zeroGradient;
    }
    primary_air
    {
        type            zeroGradient;
    }
    Secondary_air_RHS
    {
        type            zeroGradient;
    }
    Secondary_air_LHS
    {
        type            zeroGradient;
    }
    outlet
    {
        type            totalPressure;
        rho             rho;
        psi             none;
        gamma           1;
        p0              uniform 100000;
        value           nonuniform List<scalar> 
18
(
93550.1
100000
93841
93169.4
100000
93536.7
92004.8
100000
92325
92323.4
100000
92006.9
93536.5
100000
93170.8
93840.9
100000
93551.4
)
;
    }
    stove_body
    {
        type            zeroGradient;
    }
    frontAndBack
    {
        type            empty;
    }
}


// ************************************************************************* //
