/*--------------------------------*- C++ -*----------------------------------*\
  =========                 |
  \\      /  F ield         | OpenFOAM: The Open Source CFD Toolbox
   \\    /   O peration     | Website:  https://openfoam.org
    \\  /    A nd           | Version:  6
     \\/     M anipulation  |
\*---------------------------------------------------------------------------*/
FoamFile
{
    version     2.0;
    format      ascii;
    class       surfaceScalarField;
    location    "2.5";
    object      phi;
}
// * * * * * * * * * * * * * * * * * * * * * * * * * * * * * * * * * * * * * //

dimensions      [1 0 -1 0 0 0 0];

internalField   nonuniform List<scalar> 
675
(
-1.88616e-06
-0.000215828
0.000336187
2.74635e-06
-0.000225834
0.000339695
-0.000212569
0.000333793
5.16828e-06
0.000215828
-0.00024372
-1.63914e-05
0.000225835
-0.000237015
0.00021257
-0.000248441
-1.88284e-06
0.00033619
2.74788e-06
0.000339694
0.000333795
-1.2243e-06
1.7609e-05
0.000319826
2.57156e-06
1.14652e-05
0.000324473
1.84249e-05
0.000317959
3.35468e-06
-1.76093e-05
-0.000211971
-4.40246e-06
-1.14646e-05
-0.000206275
-1.84243e-05
-0.000216092
-1.22158e-06
0.000319828
2.57359e-06
0.000324472
0.000317961
-3.90262e-06
0.000205278
7.58504e-06
0.000194566
0.000207086
5.34916e-06
-0.000205278
-4.86435e-06
-0.000194566
-0.000207085
-3.90047e-06
7.58743e-06
-0.00586313
0.00589582
0.00317468
0.00610991
0.00312254
-0.0118875
0.00596537
0.00335168
0.00175377
-0.00596938
0.0153547
-0.00174032
-0.0031242
0.0149835
-0.00589284
0.0153608
-0.00609326
0.00333145
0.00587779
-0.0118874
0.00319156
-0.00144966
0.00813762
-0.00351224
0.0003122
0.00288687
-0.0165363
0.00860968
-0.00494719
-0.000636618
-0.00860025
0.0327312
0.000607577
-0.00288835
0.0195148
-0.00814828
0.0327248
-0.0003521
-0.00491525
0.00140855
-0.0165363
-0.00354902
0.00697816
0.0123507
-0.02284
0.0008285
0.00528975
-0.0156531
0.0151932
-0.0193124
-0.0319662
-0.0151936
0.0922489
0.0319498
-0.00530293
-0.0338091
-0.0123442
0.0922061
-0.000838177
-0.0192696
-0.00698964
-0.0157114
-0.0228831
-0.00121053
-0.00649345
-0.0199272
0.0276306
0.00519393
0.0075895
-0.0263567
0.0123718
-0.00551411
-0.0132503
0.0239608
0.0190852
0.00550723
0.0402866
-0.07138
-0.019068
-0.00758348
0.00428953
0.0490387
0.00650404
0.0402761
-0.0713638
-0.00519371
-0.0132301
0.023928
0.00121763
-0.0263653
0.0123618
-0.0199405
0.027663
0.00238286
-0.00475687
-0.017556
0.000257815
-0.00162921
-0.0226014
-0.00185283
-0.0111338
0.00857892
0.00184818
0.025096
-0.00856938
0.00162705
0.0181816
0.00476135
0.0250991
-0.000251824
-0.0111357
-0.00238144
-0.0226095
-0.0175582
-0.00283189
-0.000327531
-0.014397
-0.00728899
-0.00125281
-0.0168898
-0.00295696
-0.0154634
-0.0101461
0.00295489
0.0319604
0.0101468
0.00125402
-0.00461634
0.0003281
0.0319626
0.00729484
-0.0154728
0.00283407
-0.0168941
-0.0143973
0.000839306
-0.00271863
-0.0241584
-0.000164494
-0.00181419
-0.0128315
-0.00178611
-0.0208854
-0.00277362
0.00179328
0.0853645
0.00277269
0.00188349
-0.0430545
0.00271163
0.0853428
0.000167031
-0.0208412
-0.000832583
-0.0128311
-0.0242014
0.000370849
-0.00144066
-0.0262855
0.000140593
-0.00126857
-0.0113325
-0.00111696
-0.0228217
-0.00138809
0.00112096
0.0790524
0.00138819
0.00131537
-0.0484165
0.00143671
0.079049
-0.000136146
-0.0227803
-0.000362996
-0.0112888
-0.0263242
0.000318933
-0.00217059
0.000143985
0.00121626
-0.00191094
-0.0015435
0.00190728
0.00154345
-0.00124641
0.00217387
-0.000140313
-0.000316771
0.00256137
-0.00251159
-0.00392277
-0.0105249
-0.00586402
-0.001081
-0.00738382
-0.00381688
-0.00502021
-0.0124917
-0.00154176
0.00381603
0.0162795
0.0108963
0.00154525
0.00108033
-0.0098646
0.0025108
0.01628
0.0108982
0.00586603
-0.00502659
-0.0124934
-0.00256059
-0.00738647
-0.00392295
-0.0105253
0.00296809
0.000439199
0.00089557
-0.00822692
-0.00461359
0.00124259
-0.00104532
-0.000210148
0.00043715
-0.0098627
-0.0008457
0.00020915
0.00487727
0.0124798
0.00085049
-0.00124367
-0.00907461
-0.000440353
0.00487654
0.0124814
0.00461577
0.000434078
-0.00986374
-0.00296714
-0.00104651
0.000895481
-0.0082273
0.00120463
0.00211054
-0.00242097
-0.00243064
0.00258931
0.00182896
-0.00382454
0.00195018
-0.0018296
0.00686908
-0.00194469
-0.0025906
-0.00211234
0.0068702
0.00243339
-0.00382508
-0.00120304
-0.00242137
-0.0120193
-0.00167903
0.00120526
-0.0123821
-0.000869112
0.00123078
-0.00101021
0.00136112
-0.0127337
0.00689755
0.00123975
0.0010802
0.00640082
0.000719148
-0.0010937
0.000947911
0.000627292
0.00381357
-0.0103949
0.00110873
-0.0108004
0.00112441
0.00134604
-0.0111983
-0.00953024
-0.00195105
0.00282217
-0.00968886
-0.00060844
0.0019964
-0.000303211
0.000777189
-0.00880258
0.011139
0.00134374
-0.000874287
0.0104235
0.000500841
-0.00148981
0.000524642
0.00256692
0.00765418
-0.00822836
0.00245287
-0.00847236
0.00186902
0.00145783
-0.00805923
-0.00129418
0.000290142
-0.000149394
0.000850107
0.000820734
-0.000193683
0.0068037
-0.000519614
0.00703214
-0.000870057
-0.000532535
0.010951
-0.000488722
0.000509994
0.0014356
0.0107999
-0.000948051
0.00134629
-0.0111988
0.0103941
-0.000719814
0.00112464
-0.00124062
0.00110881
-0.00640206
0.00100908
0.00062863
0.00381664
-0.00689603
0.00086827
-0.00109329
0.00167993
0.0010808
0.0123771
0.00136172
-0.0127288
0.012016
0.00123079
0.00120456
0.00847197
-0.00052417
0.00145773
-0.00806008
0.00822759
-0.0005008
0.00186872
-0.00134427
0.0024528
-0.0104268
0.000300995
0.00257038
0.00766058
-0.0111387
0.000606903
-0.00148798
0.00195215
-0.000873402
0.0096829
0.000777133
-0.00879611
0.00952686
0.00199541
0.0028218
-0.000510466
0.000532196
0.0014352
0.000487888
0.000869397
0.000518925
-0.00703719
-0.000819432
0.0109598
-0.00680549
-0.000849297
-0.00028983
0.00014369
-0.000184925
0.00129144
0.00694422
0.000284461
-0.00722895
0.011406
-0.00125318
-0.0032086
-2.57602e-05
0.000232646
0.00429062
-0.000276943
-0.0037291
-0.000745688
0.00103833
0.00274496
-2.19548e-06
0.00304771
0.00780298
-0.00807896
0.0127831
-0.00394081
5.31846e-05
0.00496859
0.000268624
-0.0124639
0.00814334
-0.000602507
-0.00578107
0.000406394
-9.07734e-05
0.00327597
-0.000325619
-0.00641071
-0.00395326
0.000619558
0.00875228
-0.000469403
0.00763112
0.00534119
-0.0137483
0.00851753
-0.00649716
-0.000694022
0.00502118
0.00232138
-0.0197995
0.00409778
-0.000847085
-0.00400983
-0.000398988
0.00584114
0.000713639
-0.00258883
-0.00221425
-0.00682666
0.00133109
0.0141143
-2.75131e-05
0.0113929
0.00488494
-0.0212266
0.00539747
-0.00567937
0.00449117
0.00453763
0.00666015
-0.0309787
0.00541098
0.00316356
-0.00804118
0.00241843
0.00883968
0.0112216
-0.00750908
0.000727053
0.0128772
-0.00347271
0.0190878
-0.00331004
0.0299897
0.00327861
-0.0320395
0.00604571
-0.0119295
0.00721277
-0.0124315
0.0105073
-0.0290871
-0.011567
0.00711086
-0.0160242
0.00660811
-0.00934219
-7.60939e-05
-0.0102832
0.0216003
-0.00343236
-0.00656369
0.0361257
-0.00629089
0.039465
-0.0128066
-0.0294776
-0.0124517
-0.0188348
-0.0115133
-0.00864784
0.0223223
-0.00647876
0.0214898
0.023027
-0.00767202
-0.0217304
-0.00774067
-0.0206208
-0.0218447
-0.00762539
-0.00635795
-0.0127883
3.05293e-06
5.13452e-05
-0.00780632
-0.00103789
-0.00394408
0.0002787
-0.0080847
0.000743759
2.56628e-05
0.00304639
-0.00429189
0.00125355
0.00274379
-0.000283663
-0.00372974
-0.011405
0.000232801
-0.00694324
-0.00320739
-0.00722577
-0.0085237
0.000470359
-0.000698035
-0.00534485
-0.000618646
-0.00650332
0.00032592
-0.0137511
0.00394982
-0.000406195
0.00762656
-0.00327726
0.000603065
0.00874883
-0.000266147
-0.00641494
-0.00814113
-9.08917e-05
-0.00496553
-0.00577921
-0.0124585
-0.00540322
2.84548e-05
0.00448318
-0.00488644
-0.00133
-0.0056884
0.00258641
-0.0212267
0.00682141
0.000399235
0.0113851
-0.000714467
0.000847909
0.014107
-0.00232
-0.00222241
-0.00409482
0.00583931
-0.00501535
-0.00401087
-0.0198022
-0.00605784
0.00331724
0.00722808
-0.00331026
0.00347939
-0.0119125
0.00751383
-0.0320209
-0.0128738
-0.00241125
0.0300001
-0.011218
-0.00315501
0.0190978
-0.00665132
0.000736763
-0.00539805
0.00883903
-0.00450914
-0.00804367
-0.0309838
0.0124675
0.00627537
-0.0115238
0.0128432
0.00654717
-0.0188437
0.0102754
-0.029491
0.00342955
-0.00662188
0.0394571
7.21327e-05
-0.00712661
0.0361181
-0.0105191
0.0215912
0.0115449
-0.00934312
0.0123859
-0.0160251
-0.0290874
0.00635752
0.0218441
0.00762714
0.0206201
0.021731
0.00774053
-0.0230266
0.00767325
-0.0214897
-0.0223155
0.0064776
0.00864527
)
;

boundaryField
{
    fuel
    {
        type            calculated;
        value           nonuniform List<scalar> 
36
(
0.000118459
0.000193114
0.000118459
0.000118459
0.000193114
0.000118459
0.000118459
0.000193114
0.000118459
-0.00011846
-0.000193113
-0.00011846
-0.00011846
-0.000193113
-0.00011846
-0.00011846
-0.000193113
-0.00011846
0
0
0
0
0
0
0
0
0
0
0
0
0
0
0
0
0
0
)
;
    }
    primary_air
    {
        type            calculated;
        value           nonuniform List<scalar> 9(-0.00320712 -0.00524324 -0.00320746 -0.00320795 -0.00524267 -0.00320795 -0.00320744 -0.00524322 -0.00320711);
    }
    Secondary_air_RHS
    {
        type            calculated;
        value           nonuniform List<scalar> 9(0.0031959 0.00514253 0.00319742 0.00319475 0.00513566 0.00319643 0.00319453 0.00514209 0.00319597);
    }
    Secondary_air_LHS
    {
        type            calculated;
        value           nonuniform List<scalar> 9(0.0031974 0.00514255 0.00319589 0.00319642 0.0051357 0.00319474 0.00319597 0.00514217 0.00319451);
    }
    outlet
    {
        type            calculated;
        value           nonuniform List<scalar> 
18
(
-0.0397222
0.0765937
-0.0388466
-0.0407297
0.0783023
-0.0396814
-0.0435907
0.073319
-0.0427568
-0.0427605
0.0733217
-0.0435868
-0.0396818
0.0783018
-0.040727
-0.0388467
0.0765933
-0.0397196
)
;
    }
    stove_body
    {
        type            calculated;
        value           uniform 0;
    }
    frontAndBack
    {
        type            empty;
        value           nonuniform 0();
    }
}


// ************************************************************************* //
