/*--------------------------------*- C++ -*----------------------------------*\
  =========                 |
  \\      /  F ield         | OpenFOAM: The Open Source CFD Toolbox
   \\    /   O peration     | Website:  https://openfoam.org
    \\  /    A nd           | Version:  6
     \\/     M anipulation  |
\*---------------------------------------------------------------------------*/
FoamFile
{
    version     2.0;
    format      ascii;
    class       volScalarField;
    location    "2.5";
    object      Qdot;
}
// * * * * * * * * * * * * * * * * * * * * * * * * * * * * * * * * * * * * * //

dimensions      [1 -1 -3 0 0 0 0];

internalField   nonuniform List<scalar> 
297
(
-1.13665e-11
0
-1.13665e-11
0
3.13434e-05
-9.0932e-11
3.13434e-05
1.8888e-05
0
1.24555e-05
1.8888e-05
3.13434e-05
6.22773e-06
6.22773e-06
9.44399e-06
1.8888e-05
0
0
-4.5466e-11
6.22773e-06
1.88879e-05
0
6.22773e-06
-3.63728e-10
-4.5466e-11
0
6.22768e-06
0
6.68331e-12
0
0
0
0
0
6.68331e-12
2.67332e-11
6.68331e-12
0
-3.63728e-10
2.67332e-11
0
2.67332e-11
0
0
-3.57045e-10
0
2.08853e-13
0
-3.63728e-10
6.68331e-12
0
0
-3.63728e-10
-3.63728e-10
0
0
-3.6331e-10
0
0
0
4.17707e-13
-3.63728e-10
0
0
4.17707e-13
0
-7.25786e-10
0
0
-3.6331e-10
-3.63728e-10
4.17707e-13
0
2.08853e-13
4.17707e-13
-7.27456e-10
0
0
-3.6331e-10
0
0
-3.63728e-10
0
0
-3.63728e-10
-7.27456e-10
-3.63728e-10
-3.63728e-10
0
0
-3.63728e-10
-3.63728e-10
0
-3.63728e-10
-7.27456e-10
-3.57045e-10
-3.63728e-10
0
0
0
0
-3.63728e-10
1.67083e-12
0
-3.63728e-10
-3.63728e-10
0
0
0
-3.63728e-10
-3.63728e-10
0
0
8.35413e-13
-3.63728e-10
2.08853e-13
0
0
-3.63519e-10
0
8.35413e-13
0
0
0
-3.63728e-10
0
-3.63519e-10
0
0
-7.27456e-10
-7.27039e-10
8.35413e-13
-3.63728e-10
-3.63728e-10
-3.63519e-10
0
-3.63728e-10
-3.63676e-10
8.35413e-13
0
8.35413e-13
-3.63728e-10
0
0
0
-3.63676e-10
0
8.35413e-13
0
0
0
0
5.22133e-14
-3.63519e-10
0
5.22133e-14
-7.27456e-10
0
4.17707e-13
0
0
0
-3.63676e-10
0
2.08853e-13
8.35413e-13
-7.27456e-10
-7.26621e-10
0
-3.63624e-10
0
0
-3.63728e-10
2.08853e-13
0
8.35413e-13
0
0
5.22133e-14
2.08853e-13
0
0
0
0
-7.27456e-10
0
-3.63728e-10
-3.63728e-10
-3.63728e-10
0
0
2.61067e-14
0
2.08853e-13
-7.26621e-10
0
0
0
-3.63728e-10
0
0
0
4.17707e-13
0
8.15833e-16
2.61067e-14
-3.63702e-10
-3.63725e-10
2.61067e-14
-3.63728e-10
0
-7.27039e-10
-7.26621e-10
-3.63728e-10
5.22133e-14
0
3.26333e-15
6.52667e-15
0
-7.27456e-10
2.08853e-13
0
-3.63727e-10
0
0
0
0
-3.63728e-10
3.26333e-15
0
0
0
3.26333e-15
6.52667e-15
-3.63728e-10
-3.63728e-10
7.96712e-19
0
-3.63728e-10
0
0
3.98356e-19
-3.63728e-10
2.61067e-14
-3.63728e-10
8.15833e-16
8.35413e-13
0
-7.27453e-10
0
-3.63728e-10
3.26333e-15
2.61067e-14
2.61067e-14
-3.63728e-10
0
0
0
0
0
0
-3.63728e-10
0
-3.63727e-10
0
4.17707e-13
0
-3.63728e-10
0
0
0
0
0
0
2.08853e-13
0
0
-3.63722e-10
-3.63728e-10
0
3.26333e-15
-3.63727e-10
-3.63728e-10
0
-3.63728e-10
2.61067e-14
1.30533e-14
0
7.96712e-19
-3.63728e-10
9.9589e-20
0
-3.63728e-10
0
0
-3.63728e-10
9.9589e-20
)
;

boundaryField
{
    fuel
    {
        type            calculated;
        value           uniform 0;
    }
    primary_air
    {
        type            calculated;
        value           uniform 0;
    }
    Secondary_air_RHS
    {
        type            calculated;
        value           uniform 0;
    }
    Secondary_air_LHS
    {
        type            calculated;
        value           uniform 0;
    }
    outlet
    {
        type            calculated;
        value           uniform 0;
    }
    stove_body
    {
        type            calculated;
        value           uniform 0;
    }
    frontAndBack
    {
        type            empty;
    }
}


// ************************************************************************* //
