/*--------------------------------*- C++ -*----------------------------------*\
  =========                 |
  \\      /  F ield         | OpenFOAM: The Open Source CFD Toolbox
   \\    /   O peration     | Website:  https://openfoam.org
    \\  /    A nd           | Version:  6
     \\/     M anipulation  |
\*---------------------------------------------------------------------------*/
FoamFile
{
    version     2.0;
    format      ascii;
    class       volScalarField;
    location    "2.5";
    object      T;
}
// * * * * * * * * * * * * * * * * * * * * * * * * * * * * * * * * * * * * * //

dimensions      [0 0 0 1 0 0 0];

internalField   nonuniform List<scalar> 
297
(
291.503
291.142
291.249
298.624
297.96
298.209
291.503
291.142
291.249
291.545
291.162
291.29
305.588
304.163
304.477
291.545
291.162
291.29
293.929
293.134
293.518
306.53
304.881
305.352
293.929
293.134
293.518
293.284
295.86
293.316
294.907
295.954
294.899
293.314
295.858
293.284
297.167
297.601
298.034
297.605
296.964
297.616
298.03
297.598
297.172
299.978
297.616
300.908
300.124
300.924
300.126
300.91
297.611
299.982
296.549
295.775
296.853
303.185
302.68
303.188
296.852
295.774
296.551
295.626
295.615
296.416
303.17
303.127
303.172
296.415
295.614
295.627
295.033
295.387
295.715
302.972
302.399
302.972
295.717
295.388
295.033
300.419
297.04
301.4
301.138
301.957
301.142
301.403
297.033
300.423
299.371
296.544
299.553
301.427
301.962
301.433
299.986
296.541
299.065
298.748
295.922
299.116
302.376
302.074
302.378
299.113
295.917
298.751
295.208
295.35
295.544
302.711
299.626
302.711
295.546
295.351
295.208
294.615
294.875
294.902
302.46
299.629
302.459
294.905
294.876
294.614
294.658
294.766
294.821
300.777
299.784
300.775
294.824
294.768
294.657
294.85
294.055
293.742
302.697
302.717
302.717
294.574
293.847
293.552
295.06
294.081
293.766
302.357
302.013
302.115
294.76
293.878
293.607
294.81
294.16
293.901
300.593
300.066
300.091
294.645
293.979
293.772
293.554
293.848
294.574
302.715
302.716
302.696
293.737
294.053
294.851
293.609
293.879
294.76
302.113
302.013
302.357
293.76
294.079
295.06
293.773
293.98
294.646
300.09
300.066
300.595
293.897
294.157
294.81
293.471
293.789
293.29
298.096
298.791
302.722
293.959
294.132
293.568
293.234
293.668
293.39
298.128
299.819
302.324
293.727
294.041
293.703
292.775
293.679
294.025
298.106
300.161
300.943
293.133
294.057
293.786
292.476
293.163
292.075
298.215
298.351
298.349
292.903
293.257
291.876
291.399
292.679
292.941
297.943
296.424
295.823
291.783
292.673
293.031
287.93
287.306
287.282
285.038
282.625
283.267
288.102
287.504
287.494
293.574
294.138
293.959
302.726
298.794
298.098
293.286
293.783
293.464
293.709
294.045
293.757
302.327
299.822
298.13
293.387
293.666
293.246
293.792
294.07
293.246
300.945
300.164
298.111
294.022
293.679
292.725
291.884
293.265
292.99
298.355
298.357
298.221
292.074
293.162
292.462
293.016
292.658
291.666
295.815
296.416
297.932
292.949
292.687
291.426
287.494
287.504
288.101
283.266
282.624
285.037
287.285
287.308
287.933
)
;

boundaryField
{
    fuel
    {
        type            fixedValue;
        value           uniform 293;
    }
    primary_air
    {
        type            fixedValue;
        value           uniform 293;
    }
    Secondary_air_RHS
    {
        type            fixedValue;
        value           uniform 293;
    }
    Secondary_air_LHS
    {
        type            fixedValue;
        value           uniform 293;
    }
    outlet
    {
        type            inletOutlet;
        inletValue      uniform 293;
        value           nonuniform List<scalar> 
18
(
293
283.267
293
293
282.626
293
293
285.038
293
293
285.037
293
293
282.625
293
293
283.266
293
)
;
    }
    stove_body
    {
        type            fixedValue;
        value           uniform 293;
    }
    frontAndBack
    {
        type            empty;
    }
}


// ************************************************************************* //
