/*--------------------------------*- C++ -*----------------------------------*\
  =========                 |
  \\      /  F ield         | OpenFOAM: The Open Source CFD Toolbox
   \\    /   O peration     | Website:  https://openfoam.org
    \\  /    A nd           | Version:  6
     \\/     M anipulation  |
\*---------------------------------------------------------------------------*/
FoamFile
{
    version     2.0;
    format      ascii;
    class       volVectorField;
    location    "2.5";
    object      U;
}
// * * * * * * * * * * * * * * * * * * * * * * * * * * * * * * * * * * * * * //

dimensions      [0 1 -1 0 0 0 0];

internalField   nonuniform List<vector> 
297
(
(138.857 0.0112382 0.26181)
(139.015 -0.00475241 0.257142)
(138.823 -0.00121505 0.261888)
(8.53567e-07 0.114045 -0.565837)
(-9.67577e-07 -0.0266819 -0.577688)
(-1.44794e-07 -0.111661 -0.559962)
(-138.857 0.0112469 0.261812)
(-139.015 -0.00473985 0.257141)
(-138.823 -0.00121119 0.26189)
(138.686 -0.0109381 0.606868)
(138.884 -0.00141851 0.617212)
(138.649 0.0242027 0.602164)
(1.29416e-07 0.00469266 -0.316447)
(-2.17286e-07 -0.0101908 -0.314898)
(-5.28295e-07 0.0332702 -0.320133)
(-138.686 -0.0109311 0.606873)
(-138.884 -0.0014063 0.61721)
(-138.649 0.0242079 0.602169)
(131.287 -0.0503558 0.951165)
(131.855 0.0030183 0.965836)
(131.111 0.0753977 0.944409)
(-2.4683e-07 -0.00982519 0.521547)
(2.30264e-07 -0.00849141 0.534244)
(-9.39321e-07 0.0437536 0.511918)
(-131.287 -0.0503507 0.951167)
(-131.855 0.00302921 0.965835)
(-131.111 0.0754035 0.94441)
(92.6184 -2.63939 -3.33534)
(93.9618 0.374746 -8.18062)
(92.6373 2.66717 -4.11713)
(0.00225168 -1.14708 3.27622)
(2.1888e-05 -2.89845e-05 3.01297)
(-0.0022147 1.15562 3.27128)
(-92.6362 -2.65138 -4.08101)
(-93.962 -0.372346 -8.17903)
(-92.6196 2.65099 -3.37095)
(94.7889 0.422934 8.77182)
(94.9977 1.3599 -14.6833)
(95.0744 -3.15179 7.13285)
(0.00487267 1.63353 24.6529)
(8.55586e-07 0.00310679 16.6298)
(-0.00486958 -1.66143 24.6536)
(-95.0745 3.10734 7.09338)
(-94.9978 -1.36011 -14.6833)
(-94.7896 -0.465711 8.81753)
(95.2266 13.9846 -11.0378)
(94.5186 2.33493 -15.8023)
(95.6142 -8.53987 -2.03309)
(0.0184655 -1.57331 30.2408)
(0.000108846 -0.000848124 2.94812)
(-0.0185949 1.56679 30.2371)
(-95.6158 8.54157 -2.00122)
(-94.481 -2.33191 -15.8037)
(-95.2269 -13.9876 -11.0653)
(94.2302 8.06248 -22.5317)
(94.5456 -1.94883 -16.5628)
(94.4913 -1.01417 -19.3539)
(-0.00926358 0.864264 0.451205)
(5.48067e-05 0.00744822 -7.86021)
(0.00921319 -0.87187 0.454126)
(-94.4921 1.01706 -19.3235)
(-94.5643 1.94834 -16.575)
(-94.2298 -8.05548 -22.5609)
(94.1475 12.1919 -17.7078)
(94.186 -2.7551 -21.907)
(94.7825 -6.60622 -12.4176)
(-0.0180859 1.53401 4.32708)
(6.6365e-05 0.00577833 0.686231)
(0.0181979 -1.53949 4.32606)
(-94.7828 6.60955 -12.4099)
(-94.186 2.76131 -21.9135)
(-94.1474 -12.1933 -17.7134)
(94.116 15.6062 -24.1432)
(93.953 -6.88286 -22.8833)
(94.3419 -15.7272 -23.1564)
(-0.0281188 -0.459084 14.0243)
(0.000229666 0.00251913 6.66715)
(0.0285 0.455426 14.0241)
(-94.3415 15.7293 -23.1649)
(-93.9523 6.88482 -22.8873)
(-94.1156 -15.6045 -24.1428)
(87.972 17.805 -18.8202)
(88.0045 1.335 -11.5931)
(89.7584 -10.2799 -16.9334)
(-0.0107326 -1.77558 38.9465)
(0.000530828 0.00434435 -22.1046)
(0.010792 1.76438 38.9378)
(-89.7492 10.3094 -16.902)
(-89.9951 -1.293 -11.6316)
(-87.9846 -17.7761 -18.8508)
(86.0781 12.0992 -22.063)
(90.034 -0.118948 -9.44858)
(87.5356 -4.37339 -18.9077)
(-0.00981326 -1.91702 42.1911)
(0.000415381 0.00846715 -21.1127)
(0.00981771 1.90284 42.1847)
(-87.6469 4.40472 -18.8856)
(-91.4982 0.18652 -9.40829)
(-86.0069 -12.065 -22.0882)
(80.9574 10.7584 -21.7257)
(94.4946 -0.263922 -10.2445)
(82.7553 -3.48446 -18.7693)
(-0.00798499 -2.0815 41.2812)
(-0.000220163 0.00762988 -17.3673)
(0.00788887 2.06638 41.2768)
(-82.7754 3.4943 -18.7463)
(-93.5143 0.303412 -10.2269)
(-80.9387 -10.7445 -21.7476)
(92.1055 24.7787 -5.41047)
(92.9736 -7.63978 -8.14306)
(91.6645 -29.044 -6.8228)
(-0.0112599 -8.41438 13.6145)
(0.000298135 0.00479997 -5.39148)
(0.0115097 8.41759 13.6155)
(-91.6625 29.0505 -6.82885)
(-92.9722 7.64182 -8.14551)
(-92.1051 -24.778 -5.41091)
(93.3097 19.9493 -1.35365)
(93.6312 -3.57944 -3.7318)
(93.1816 -23.8757 -1.74204)
(-0.00659022 -10.2754 7.43041)
(0.000314599 0.00506429 -4.49499)
(0.00682319 10.28 7.42926)
(-93.1811 23.8808 -1.74578)
(-93.63 3.58257 -3.73399)
(-93.3103 -19.9487 -1.3537)
(93.9969 3.37274 0.840311)
(94.1409 -2.36318 -1.12376)
(93.9597 -6.60708 2.28952)
(-0.00223498 -5.56636 -0.0412737)
(0.000321911 0.00495731 -0.862541)
(0.00247681 5.57144 -0.0417938)
(-93.9596 6.61104 2.28812)
(-94.1401 2.36961 -1.12383)
(-93.996 -3.37143 0.840175)
(90.1804 -31.6814 -1.4869)
(91.4512 -36.4104 -4.39895)
(91.7148 -38.0698 -5.76352)
(-0.00737566 15.6061 9.75393)
(-0.00814927 13.1679 5.9403)
(-0.0105956 11.8593 7.41553)
(-90.7364 -26.9294 -0.75097)
(-91.6261 -31.6429 -2.89833)
(-91.804 -33.3768 -3.91038)
(90.8009 -24.8478 4.05261)
(92.199 -29.3594 3.37673)
(92.817 -30.4802 1.61791)
(-0.00221058 19.277 1.85876)
(-0.000390837 19.364 -3.31997)
(-0.00228534 18.9319 -0.606647)
(-91.4049 -20.9773 3.6476)
(-92.2555 -25.2826 3.13176)
(-92.5242 -26.7089 1.99496)
(93.3936 -8.27565 7.62734)
(93.8913 -4.168 7.72323)
(93.8658 4.82992 8.11969)
(-0.000428886 11.222 -5.29664)
(0.00102129 10.8586 -3.32226)
(-0.00386775 15.0694 -0.635551)
(-93.5812 -4.96717 6.18808)
(-93.8439 -1.21826 6.21031)
(-93.5387 3.75953 7.47575)
(91.8013 33.3761 -3.91008)
(91.6254 31.6403 -2.89802)
(90.737 26.9274 -0.750904)
(0.00826545 -11.8637 7.41738)
(0.00654072 -13.1677 5.94117)
(0.0065105 -15.6038 9.75502)
(-91.7109 38.0601 -5.76458)
(-91.4497 36.4006 -4.39965)
(-90.183 31.6806 -1.48796)
(92.5201 26.7091 1.99476)
(92.2535 25.2806 3.13164)
(91.4031 20.9755 3.64772)
(2.1117e-06 -18.9406 -0.602561)
(-0.00125152 -19.3667 -3.31747)
(0.00132218 -19.275 1.86125)
(-92.8185 30.4668 1.61773)
(-92.2009 29.348 3.37593)
(-90.8011 24.8462 4.05185)
(93.5365 -3.75862 7.47561)
(93.8429 1.21647 6.20984)
(93.5811 4.96531 6.18787)
(0.00161652 -15.0813 -0.634915)
(-0.00265466 -10.8644 -3.32264)
(-0.000448952 -11.2226 -5.29734)
(-93.8711 -4.85011 8.12093)
(-93.8943 4.15726 7.7225)
(-93.3937 8.27282 7.62711)
(91.2038 15.2425 -16.8436)
(89.6188 19.1757 -10.7401)
(92.3457 31.2241 -8.23223)
(0.0536013 8.31441 -3.6612)
(0.0438014 5.46113 4.62211)
(0.0235474 -4.49515 10.7307)
(-90.9282 17.4602 -19.5173)
(-89.6807 21.6508 -13.0859)
(-92.278 34.5602 -10.6104)
(91.7359 4.21277 -30.2572)
(91.3337 11.8277 -16.2302)
(93.5168 24.1177 -1.79827)
(0.0478198 4.39129 -7.04554)
(0.032372 3.05011 8.34736)
(0.0128854 -10.913 8.3575)
(-91.6216 5.87513 -32.4022)
(-91.1516 11.3436 -18.7581)
(-93.5972 25.2613 -2.26697)
(95.1611 2.17881 -39.3709)
(91.0985 9.1345 -12.845)
(92.3982 6.99566 5.53142)
(0.0446782 4.48478 -11.7599)
(0.0228944 -6.48326 19.2645)
(0.00890585 -17.4889 11.764)
(-95.3532 3.27137 -41.142)
(-90.1503 5.66592 -15.2944)
(-92.9566 17.5818 3.13339)
(93.8272 -6.61343 -55.2092)
(93.29 1.26537 -1.03128)
(92.7055 7.29773 56.5929)
(0.0272814 -6.9699 13.0478)
(0.0226978 7.09322 38.3823)
(0.0234612 -2.11088 58.4716)
(-93.9602 -7.34712 -56.4017)
(-93.2192 -0.882324 -8.73504)
(-92.6713 11.6907 58.82)
(91.8711 -2.18331 -74.2597)
(91.2139 -7.97624 -18.3074)
(91.0131 0.0584642 12.0774)
(-0.0217634 -1.17838 30.535)
(-0.0191274 -0.435838 68.2087)
(-0.0155653 -0.716588 86.5239)
(-92.1 -1.71234 -78.3483)
(-91.2125 -8.4775 -33.0755)
(-91.0808 0.41475 -0.254325)
(86.3805 -1.90594 -120.258)
(85.7648 -3.15829 -109.629)
(86.1473 -1.43285 -106.842)
(-0.0879372 -2.02521 176.337)
(-0.0888688 -2.68437 187.374)
(-0.0893001 -1.55218 183.444)
(-86.7996 -1.71617 -122.922)
(-86.0945 -2.77356 -112.909)
(-86.3717 -1.45384 -109.494)
(92.2796 -34.5726 -10.6125)
(89.6806 -21.6599 -13.0895)
(90.9211 -17.4643 -19.5225)
(-0.0264019 4.49274 10.7296)
(-0.0470142 -5.46522 4.62202)
(-0.0571254 -8.31625 -3.66051)
(-92.3475 -31.2229 -8.23228)
(-89.6234 -19.1731 -10.7388)
(-91.2074 -15.2416 -16.8403)
(93.5957 -25.2764 -2.27498)
(91.1508 -11.3578 -18.7697)
(91.5983 -5.87869 -32.4204)
(-0.0156034 10.9045 8.3515)
(-0.0353259 -3.05443 8.34491)
(-0.050858 -4.39205 -7.05023)
(-93.5193 -24.1142 -1.79809)
(-91.341 -11.8209 -16.2276)
(-91.7552 -4.20929 -30.2469)
(92.9538 -17.6011 3.1169)
(90.1504 -5.67601 -15.3147)
(95.3735 -3.27609 -41.1574)
(-0.0113573 17.4772 11.7538)
(-0.0254249 6.47662 19.254)
(-0.0466362 -4.48443 -11.77)
(-92.4011 -6.99288 5.52866)
(-91.1049 -9.12137 -12.8435)
(-95.1592 -2.17206 -39.3614)
(92.6707 -11.6938 58.8283)
(93.2165 0.872232 -8.72895)
(93.981 7.33992 -56.3853)
(-0.0254812 2.10993 58.4736)
(-0.0251138 -7.09271 38.3836)
(-0.0302996 6.97147 13.0479)
(-92.7088 -7.29579 56.5929)
(-93.2956 -1.25509 -1.03516)
(-93.8318 6.62035 -55.2162)
(91.08 -0.410796 -0.247531)
(91.2128 8.49009 -33.0604)
(92.0636 1.72274 -78.3303)
(0.0213164 0.715636 86.5292)
(0.0251648 0.434844 68.2149)
(0.0280362 1.17801 30.5404)
(-91.0053 -0.0640755 12.0718)
(-91.2052 7.95958 -18.3141)
(-91.8587 2.17188 -74.2722)
(86.3709 1.45381 -109.506)
(86.0935 2.77397 -112.921)
(86.79 1.7161 -122.94)
(0.0902121 1.55199 183.444)
(0.0897837 2.68462 187.375)
(0.0889133 2.02536 176.329)
(-86.146 1.43254 -106.842)
(-85.7634 3.15737 -109.628)
(-86.3762 1.90548 -120.244)
)
;

boundaryField
{
    fuel
    {
        type            fixedValue;
        value           uniform (0 0 0.25);
    }
    primary_air
    {
        type            fixedValue;
        value           uniform (0 0 2.5);
    }
    Secondary_air_RHS
    {
        type            fixedValue;
        value           uniform (0 25 0);
    }
    Secondary_air_LHS
    {
        type            fixedValue;
        value           uniform (0 -25 0);
    }
    outlet
    {
        type            pressureInletOutletVelocity;
        value           nonuniform List<vector> 
18
(
(0 0 -109.506)
(0.0902121 1.55199 183.444)
(0 0 -106.842)
(0 0 -112.921)
(0.0897837 2.68462 187.375)
(0 0 -109.628)
(0 0 -122.94)
(0.0889133 2.02536 176.329)
(0 0 -120.244)
(0 0 -120.258)
(-0.0879372 -2.02521 176.337)
(0 0 -122.922)
(0 0 -109.629)
(-0.0888688 -2.68437 187.374)
(0 0 -112.909)
(0 0 -106.842)
(-0.0893001 -1.55218 183.444)
(0 0 -109.494)
)
;
    }
    stove_body
    {
        type            noSlip;
    }
    frontAndBack
    {
        type            empty;
    }
}


// ************************************************************************* //
