# Probe 0 (0 -0.07 0.5)
# Probe 1 (0 -0.04 0.5)
# Probe 2 (0 -0.07 0.3)
# Probe 3 (0 -0.07 0.33)
# Probe 4 (0 -0.04 0.3)
# Probe 5 (0 -0.04 0.33)
# Probe 6 (0 0 0.33)
# Probe 7 (0 0 0.3)
# Probe 8 (0 0.1 0.33)
# Probe 9 (0 0.1 0.3)
# Probe 10 (0 0.14 0.3)
# Probe 11 (0 0.14 0.33)
# Probe 12 (0 0.17 0.3)
# Probe 13 (0 0.17 0.33)
# Probe 14 (0 0.14 0.5)
# Probe 15 (0 0.14 0.33)
#       Probe             0             1             2             3             4             5             6             7             8             9            10            11            12            13            14            15
#        Time
       0.0025        292.63        292.58       354.631       337.725       348.705       294.818       265.156       274.031       264.273       278.445       348.522       295.917       359.523       338.109       291.924       295.917
        0.005       292.846       292.315       367.187       343.977       348.009       349.295       338.532       308.953       333.387       279.105       340.659       336.673       360.413       336.973       292.373       336.673
       0.0075       292.529        292.53       365.123       342.561       348.738       359.324        356.62       331.597       348.257       344.332        341.38       348.317       362.543       336.371       291.932       348.317
         0.01       292.643       292.551       365.465        338.71       347.032       354.638       352.438        339.61       347.403           352       341.373       353.983       367.041       339.009       292.148       353.983
       0.0125        292.03       291.983       363.353       336.765       346.462       357.465       354.343       342.173       352.646       352.016       343.387       354.436       364.772       344.742       292.034       354.436
        0.015       292.166       292.112       362.841       338.621       344.654       355.791       357.005       340.315       349.894       350.737       339.534        355.54       360.845        331.21       292.089        355.54
       0.0175       292.011       291.998       365.911       340.955       339.161       359.027       357.329       337.854       350.475        350.94       338.318       356.589       367.815       332.282        292.02       356.589
         0.02       292.438       292.056        362.95       335.794       339.325       358.562       357.575       337.381       349.896       349.958       340.497       357.776       364.756       336.427       291.982       357.776
       0.0225       292.112       292.068       363.938       336.121       340.836       356.795       357.503       340.267       349.293        349.27       340.881       358.057        365.78       333.875           292       358.057
        0.025       292.167       292.153       364.209       336.578        345.08       353.124       353.645       348.394       352.283       348.146       340.176       357.907       364.526       334.186       292.129       357.907
       0.0275       292.088       292.116        363.55       337.563       345.429       352.116       352.514       343.711       352.033       348.283       341.013       360.799       366.432       337.491       292.278       360.799
