/*--------------------------------*- C++ -*----------------------------------*\
  =========                 |
  \\      /  F ield         | OpenFOAM: The Open Source CFD Toolbox
   \\    /   O peration     | Website:  https://openfoam.org
    \\  /    A nd           | Version:  6
     \\/     M anipulation  |
\*---------------------------------------------------------------------------*/
FoamFile
{
    version     2.0;
    format      ascii;
    class       volScalarField;
    location    "5";
    object      O2;
}
// * * * * * * * * * * * * * * * * * * * * * * * * * * * * * * * * * * * * * //

dimensions      [0 0 0 0 0 0 0];

internalField   nonuniform List<scalar> 
297
(
0
0
0
0
0
0
0
0
0
0
0
0
0
0
0
0
0
0
0
0
0
0
0
0
0
0
0
0.0664115
0.0830143
0.155567
0.164877
0.161076
0.206313
0.0625253
0.0766773
0.142586
0
7.83099e-06
0.0219263
0.0768043
0.125632
0.10813
0
5.92278e-06
0.0102975
0
0
0
0.049724
0.0245372
0.0750152
0
0
0
0
9.85415e-11
0
0
0
0
4.60375e-06
1.04522e-09
0
0
0
0
0
0
0
0
0
0
0
0
0
0
0
0
0
0
0
0
0
0
0.00695652
5.33828e-07
0.0306826
0
0
0
0
0
0
0
0
0.0103193
0
1.13699e-08
0
0
0
0
0
0
0
0
0
0
0
0
0
0
0
0
0
0
0
4.8578e-22
3.62478e-17
4.03586e-16
0
0
0
0
0
0
3.01309e-21
1.07173e-17
2.76005e-16
0
0
0
8.93031e-19
2.96812e-18
0
0
4.62804e-18
6.82241e-19
0
3.50003e-17
5.91732e-20
0
0
0
0
1.1651e-18
7.00118e-19
0
0
0
0
0
0
9.21475e-17
6.25181e-17
4.08531e-17
0
0
0
0
5.43606e-23
0
2.99086e-21
0
0
0
0
0
2.0309e-20
3.87596e-18
0
8.03209e-21
6.90037e-21
0
3.28422e-22
0
0
2.11343e-20
1.81697e-18
7.36724e-19
1.76046e-20
8.50972e-21
3.33477e-21
1.30966e-19
2.17432e-19
3.26243e-19
1.56019e-18
2.9024e-18
2.8102e-18
1.39476e-25
7.37226e-26
4.17944e-25
8.10477e-21
3.46671e-21
4.44688e-21
2.22277e-20
2.23041e-20
2.21012e-20
1.82668e-25
1.10471e-25
6.3798e-25
8.07053e-21
3.58318e-21
4.5703e-21
2.25608e-20
2.29535e-20
2.26839e-20
2.67885e-25
1.25681e-25
6.6956e-25
1.38296e-20
2.13186e-20
7.71048e-20
2.28529e-20
2.39399e-20
9.53889e-19
1.123e-25
1.39135e-25
3.97555e-25
9.4265e-21
1.37862e-20
3.43926e-20
2.30507e-20
5.27255e-20
4.12895e-19
7.5895e-26
1.44064e-25
4.49966e-25
6.92177e-21
1.38357e-20
2.13571e-20
2.56369e-20
8.36329e-20
3.32953e-19
4.84709e-26
1.10699e-25
3.33562e-25
8.96342e-21
3.15124e-20
9.39307e-20
2.0423e-20
8.7733e-20
3.10056e-19
7.28962e-19
7.16954e-19
7.10196e-19
1.70434e-19
1.46313e-19
2.90218e-19
1.03988e-23
7.59001e-24
1.10693e-23
7.10316e-19
6.92918e-19
6.91655e-19
1.96275e-19
1.70721e-19
2.89567e-19
1.04044e-23
6.42243e-24
1.3722e-23
2.93248e-17
6.89861e-19
6.87846e-19
2.07831e-20
3.43806e-20
3.45792e-19
1.10371e-23
6.10623e-24
1.18282e-23
1.3466e-17
1.13688e-18
6.8124e-19
2.88516e-21
9.9393e-21
1.61451e-19
1.28532e-23
6.06349e-24
6.28905e-24
1.03567e-17
2.60445e-18
6.7804e-19
2.23906e-20
1.46704e-19
1.66238e-19
1.26172e-23
5.11079e-24
2.41364e-24
9.26249e-18
2.5768e-18
5.97388e-19
2.45478e-18
8.64529e-19
2.79067e-19
1.34163e-23
4.76033e-24
1.57693e-24
)
;

boundaryField
{
    fuel
    {
        type            fixedValue;
        value           uniform 0;
    }
    primary_air
    {
        type            fixedValue;
        value           uniform 0.23;
    }
    Secondary_air_RHS
    {
        type            fixedValue;
        value           uniform 0.23;
    }
    Secondary_air_LHS
    {
        type            fixedValue;
        value           uniform 0.23;
    }
    outlet
    {
        type            inletOutlet;
        inletValue      uniform 0;
        value           nonuniform List<scalar> 
18
(
0
2.45478e-18
0
0
8.64529e-19
0
0
2.79067e-19
0
0
8.96342e-21
0
0
3.15124e-20
0
0
9.39307e-20
0
)
;
    }
    stove_body
    {
        type            fixedValue;
        value           uniform 0;
    }
    frontAndBack
    {
        type            empty;
    }
}


// ************************************************************************* //
