/*--------------------------------*- C++ -*----------------------------------*\
  =========                 |
  \\      /  F ield         | OpenFOAM: The Open Source CFD Toolbox
   \\    /   O peration     | Website:  https://openfoam.org
    \\  /    A nd           | Version:  6
     \\/     M anipulation  |
\*---------------------------------------------------------------------------*/
FoamFile
{
    version     2.0;
    format      ascii;
    class       volScalarField;
    location    "5";
    object      p;
}
// * * * * * * * * * * * * * * * * * * * * * * * * * * * * * * * * * * * * * //

dimensions      [1 -1 -2 0 0 0 0];

internalField   nonuniform List<scalar> 
297
(
120441
120441
120442
199354
199353
199353
120438
120440
120440
120441
120441
120441
199354
199353
199353
120438
120439
120440
120441
120441
120441
199354
199353
199353
120439
120439
120440
97108.4
97110.8
97102.1
160536
160567
160617
97143.2
97166.1
97164
97101.1
97056.9
97044.1
160208
160316
160279
97130
97112.6
97110.9
97008.7
97017.8
96698.9
158221
159408
158259
96992.4
97022.3
96784.2
96058.4
96418.6
96154.6
159181
158901
158952
96183.7
96420.3
96185.3
96418.8
96599.7
96506.7
159953
159717
159759
96545.1
96539.5
96395.4
96469.7
96782
96704.2
160000
159963
159962
96800.8
96812.9
96537.3
95468.3
97099.6
95707.4
152656
157965
154844
95033.3
96998.6
95772.5
95252.3
97063.1
95550.1
152053
157904
154387
94757.6
96964.4
95623.8
95227.9
96984.3
95454.8
152523
158001
154514
94665
96902.3
95542.6
97009
97283.4
97201.9
159988
160074
160186
97155.7
97262.2
97112.9
97125.4
97353.4
97325.9
160014
160151
160283
97247.6
97319.6
97178
97213.4
97342.1
97356.5
160037
160196
160325
97276.6
97304.6
97214.3
97029.8
96895.6
96780
160091
160040
159906
97482.5
97699.3
98398.4
96972.7
96673.5
96364.6
160077
159950
159695
97142.1
97163.4
97688.1
96958.4
96602.3
96241.2
160092
159893
159582
97052.9
96932.7
96931.4
98461.6
97775.4
97541.5
159867
159931
159911
96742.8
96894.8
97018.6
97679.8
97193.5
97186.8
159615
159861
159902
96333.5
96665
96940.9
96812.5
96868.7
97062.2
159484
159793
159897
96218.6
96608.1
96932.4
98943.2
99124.1
98994.7
159671
159666
159718
99093.2
98287
97180.3
98567
98671.3
98375
159288
159259
159331
98096.8
97104.1
96385.1
98090.1
98173.3
97716.8
158648
158748
158807
96949.5
96182.5
95796.4
95269.4
95193.8
95177.8
154492
154471
154299
92592.6
92536.2
92454.5
90170.9
90091
90093.6
146764
146736
146682
88795.4
88766
88680.9
84161.1
84144.1
84125.8
134907
134811
134712
86642.4
86798
86993.4
97255.7
98380.3
99196.2
159821
159800
159813
98972.9
99115.9
98954.1
96475.9
97220.4
98219
159448
159391
159451
98376.9
98684.6
98586.5
95923.4
96341.5
97085.6
158959
158932
158853
97747.7
98198.4
98125.2
92597.8
92677.4
92723.4
154454
154661
154689
95290.7
95303.6
95381.2
88753.9
88849.7
88884.6
146832
146887
146912
90247
90244.6
90323.2
87022.6
86843.5
86689.8
134781
134879
134967
84226.7
84241.4
84255
)
;

boundaryField
{
    fuel
    {
        type            zeroGradient;
    }
    primary_air
    {
        type            zeroGradient;
    }
    Secondary_air_RHS
    {
        type            zeroGradient;
    }
    Secondary_air_LHS
    {
        type            zeroGradient;
    }
    outlet
    {
        type            totalPressure;
        rho             rho;
        psi             none;
        gamma           1;
        p0              uniform 100000;
        value           nonuniform List<scalar> 
18
(
99997.2
100000
86545
93553.4
100000
86509.1
87917.1
100000
86620.6
86464.3
100000
87809.8
86256.1
100000
93545.6
86392.6
100000
99997.9
)
;
    }
    stove_body
    {
        type            zeroGradient;
    }
    frontAndBack
    {
        type            empty;
    }
}


// ************************************************************************* //
