/*--------------------------------*- C++ -*----------------------------------*\
  =========                 |
  \\      /  F ield         | OpenFOAM: The Open Source CFD Toolbox
   \\    /   O peration     | Website:  https://openfoam.org
    \\  /    A nd           | Version:  6
     \\/     M anipulation  |
\*---------------------------------------------------------------------------*/
FoamFile
{
    version     2.0;
    format      ascii;
    class       surfaceScalarField;
    location    "5";
    object      phi;
}
// * * * * * * * * * * * * * * * * * * * * * * * * * * * * * * * * * * * * * //

dimensions      [1 0 -1 0 0 0 0];

internalField   nonuniform List<scalar> 
675
(
-1.33031e-05
-2.9238e-05
0.000169364
2.15295e-05
-7.97416e-05
0.000171546
-2.53027e-05
0.000173297
2.56466e-06
3.72639e-05
0.000143948
-3.01681e-05
7.45829e-05
9.14872e-05
2.3738e-05
0.000133845
-7.4307e-06
0.000171147
2.31322e-05
0.000170454
0.000173324
-8.45602e-06
-4.74191e-05
0.000224504
1.66362e-05
-0.000114742
0.000260283
-4.13805e-05
0.000230255
3.38931e-05
5.78096e-05
6.71056e-06
-8.04107e-05
0.000110757
-1.74858e-05
3.82076e-05
-2.42108e-05
-2.63155e-06
0.000230452
1.93099e-05
0.000258129
0.000229748
-7.01513e-07
9.69063e-05
2.1169e-05
0.000109936
0.000122825
-8.56241e-06
-9.66722e-05
-1.44404e-05
-0.000110404
-0.000125191
5.06847e-06
2.40948e-05
0.00629741
0.00474987
-0.00797035
0.00721936
0.00522467
-0.00305537
0.00790935
0.0023903
-0.000244674
-0.00550537
0.0156142
-0.0042333
-0.00600368
0.0203761
-0.00892174
0.0177966
0.00617578
-0.00859716
0.0072341
-0.00397101
0.00138438
0.0119529
0.00668626
-0.0266812
0.00932525
0.00371606
-0.00422033
0.00811624
0.00352799
0.00407807
-0.00672985
0.0248548
0.00817857
-0.00371074
0.0236168
-0.00928406
0.0432892
0.0145797
-0.0299779
0.0111901
-0.00435177
0.00325703
-0.00837792
0.0249326
-0.0432669
-0.00860946
0.0118636
-0.0158893
0.0181957
-0.0233182
-0.0490692
-0.0238789
0.122732
0.0417607
-0.0123387
-0.0430017
-0.0198734
0.123105
-0.00499888
-0.0489241
-0.0049123
-0.0168505
-0.0215976
-0.0206725
-0.00888106
-0.0248371
0.0544077
0.00276374
0.00263164
-0.0440123
0.0179354
-0.0101786
-0.0248839
0.037812
0.0160028
0.0195122
0.0487196
-0.0930448
-0.00350557
-0.00227627
-0.0302586
0.0546531
0.00838728
0.0685437
-0.0906299
-0.00734818
-0.0325489
0.0594056
0.00973906
-0.0390919
0.0196799
-0.0170239
0.035091
-0.00333793
-0.00740973
-0.0139869
-0.00987485
-0.00630527
-0.0311295
-0.0129052
-0.0219072
0.018187
0.00853389
0.0146889
-0.00909946
0.00723297
-0.0164561
0.00575635
0.0408064
0.0049217
-0.0289317
0.00203436
-0.0289841
-0.00923269
0.0113462
-0.00938135
-0.0158117
-0.00135737
0.00212135
-0.0204757
-0.0049852
-0.0183475
0.000815965
0.000309451
0.0043493
-0.00321318
0.00112167
-0.0112019
0.0128885
0.0198637
-0.0111785
-0.0173392
-0.0195206
-0.0193837
-0.0156205
-0.000714689
-0.0025064
-0.0459757
-0.00138863
-0.000956229
-0.01426
-0.00231504
-0.0283396
-0.00354316
0.0021801
0.112112
0.00273261
0.000532129
-0.0507673
0.00199728
0.111912
-0.000813943
-0.0518351
-0.000840544
-0.0162994
-0.026398
-0.00100581
-0.000605546
-0.0502818
-0.000520637
-0.000428589
-0.0143167
-0.00145245
-0.0333441
-0.00159053
0.00104627
0.102612
0.00230404
-0.000132208
-0.0549607
0.00129299
0.101885
-0.000918349
-0.0557582
8.82816e-05
-0.0174412
-0.0309613
-0.00195414
0.000164584
-0.000275543
0.00193822
-0.00173807
-0.00128353
0.0015465
0.00171252
-0.00136998
0.00163339
-0.000687968
0.000175933
0.00742622
-0.00382551
-0.00410739
-0.0152881
-0.00457523
-0.00110099
-0.00736491
-0.00135622
-0.00455141
-0.0169333
-0.00266156
0.00148668
-0.00419384
0.00588082
-0.00218144
0.000639183
-0.0133998
0.00471303
0.0104432
0.00119023
0.00343252
-0.0039549
-0.0152816
-0.00834865
-0.00695582
-0.00317428
-0.0161502
0.00983961
0.000675874
-0.000498271
-0.0141025
-0.00113387
0.00194672
0.00167326
0.00183958
0.00465578
-0.0121726
0.000160764
-0.00285498
-0.00421557
0.00343675
-0.00273214
-0.00155418
-0.00698675
0.000614552
0.0047673
0.00417574
0.00177925
0.00387176
-0.0124337
-0.00886422
0.00212561
0.00109506
-0.0125511
0.00212262
0.00286012
-0.0054669
0.000331039
0.00347282
0.00303915
0.00195183
-0.00297509
-0.00404113
0.00570797
-0.00321305
-0.00324137
-0.00220786
0.00680987
-0.000481712
0.000336167
-0.00159386
-0.00275182
-0.0180209
-0.000364437
0.00144374
-0.0179459
-0.0020189
0.00193147
-0.00175505
0.0019696
-0.0181748
-0.00333898
0.00218342
0.00197336
-0.00478857
-0.00129031
0.000726192
-0.00289624
0.00285205
-0.00648979
-0.0155577
0.00158964
-0.0168596
1.12698e-05
-0.00765515
-0.0120912
-0.0130411
-0.000498062
0.00280806
-0.0128233
3.32733e-05
0.00167062
-0.000289007
0.00167303
-0.0122492
0.00359817
0.00156044
0.000506577
0.0030285
-0.00123288
0.00256334
0.000102405
0.00748328
-0.00200666
-0.0120757
0.00263764
-0.0135649
0.000275183
-0.0106148
-0.0104901
0.00470596
5.80226e-05
0.00635534
2.61103e-05
-0.00136958
0.00940623
0.00778619
-0.000409441
0.011208
-0.000822685
0.00184988
0.0154759
-0.000532385
-0.00108105
-0.0098351
0.0162634
0.00296549
-0.00760788
-0.0116284
0.0149887
-0.0001474
0.00141616
-0.00308392
0.00278659
0.00209065
0.00156719
0.00450676
-0.00520411
-0.00227062
0.00180925
0.0023824
0.000608193
-8.65828e-05
0.0172224
0.00220188
-0.0178662
0.0167344
0.00229459
0.0020747
0.0136717
-4.10283e-05
-0.0101718
-0.0110773
0.0129461
0.00122402
0.000914239
-0.00179561
0.00342946
-0.00215688
0.000759642
0.00779758
-0.00194357
-0.00181702
0.000334785
0.00293056
0.000314852
-0.000571127
0.0125804
0.00240429
-0.0120261
0.0129968
0.00221687
0.0029619
0.00220536
-0.00181811
-0.0105659
0.00222474
0.000894787
0.000191699
-0.00981936
0.00128105
0.0145105
-0.00590683
-8.70912e-05
-0.000569565
-0.00486785
0.00855265
-0.0027349
-0.00407963
0.00299031
0.00108568
0.00412362
0.00296662
-0.0111832
0.00254859
-0.0100626
0.0022519
-0.00186218
0.00258561
0.00357022
-7.82096e-05
0.00171373
-0.000931288
0.00183678
0.0121243
-0.0139924
0.0188142
-0.00677568
8.75727e-06
-0.00254401
0.00238096
0.00124294
0.00560327
0.00262957
-0.0219685
0.00165126
-0.0171987
0.00238702
-0.00148286
0.00404953
0.00378305
0.000261156
0.00267042
-0.000764008
0.00608189
0.00898812
-0.0244653
0.0134487
-0.0109802
0.00066271
-0.00463537
0.00150843
0.00436262
0.00892103
0.00629291
-0.0418155
0.00208845
-0.0209362
-0.00292908
-0.00421716
0.0126941
-0.00640237
0.000614108
0.0118064
0.00133368
0.0149367
0.00994921
-0.0386323
0.00272569
-0.00314716
0.0132725
0.0184462
0.011086
-0.0251957
-0.00220251
0.0161381
-0.0372743
0.0155524
-0.0386991
-0.00896866
-0.00157452
0.0342771
-0.00773995
0.0039091
0.0227628
0.0030248
0.0196846
0.00689322
-0.0470953
0.015352
-0.00770232
0.0316485
0.00832566
0.00644703
-0.0399478
0.00552428
0.00670045
-0.0411498
0.00739109
-0.0405432
0.011939
-0.00271964
0.0315239
0.0133735
-0.00329773
0.0313285
0.00107886
0.0393849
-0.00444116
-0.0453557
0.00216504
-0.0175904
0.0349046
0.000878202
0.0143148
1.11084e-05
0.0151916
0.0147249
0.00542755
-0.0232187
0.00529045
-0.0222366
-0.0210519
-0.0160886
-0.0159412
-0.018881
0.000901944
-0.000205722
-0.0120925
6.24782e-05
-0.00685839
0.00187322
-0.0139707
-0.00426292
-0.00253142
0.00121021
-0.00274369
-0.00310185
0.00164642
-0.0030812
0.00220498
-0.00407606
-0.0105423
0.00420863
-0.0113836
0.0011315
-0.0134886
0.00081457
0.000212486
-0.00898866
-0.000227006
-0.0111346
0.00149277
-0.0244511
-0.00410598
-0.00172132
0.00584777
-0.0032731
-0.00248484
0.0030725
-0.00235731
0.00277522
-0.00539846
-0.0173539
0.00244078
-0.0217064
0.00121873
-0.00194642
-0.0013341
0.0129049
-0.00972137
-0.000534031
-0.00282953
0.00434087
-0.038515
0.00748515
-0.00192918
0.0145191
0.0033279
-0.00596526
0.012548
-0.00151151
0.0119451
-0.00899817
-0.0201159
0.00445602
-0.0411251
0.00416604
-0.0159053
-0.00245343
0.0312857
-0.00692399
-0.00349255
-0.00827476
0.00160841
-0.0468898
0.00705537
-0.0152329
0.0202876
0.00909356
-0.016118
0.0231064
-0.0113012
0.0339503
0.002329
-0.0376501
-0.018073
-0.0368451
-0.0252138
-0.00201468
-0.00126099
0.0345381
0.00405884
0.0032542
-0.0176128
0.0024189
-0.0453248
-0.0129404
-0.00742799
0.0393571
-0.0115424
-0.00674467
0.0316859
-0.00676302
0.0315575
-0.00487921
-0.0402018
-0.00764723
-0.0408098
-0.0396287
0.015941
0.020817
0.0160555
0.0222199
0.0230212
-0.00484837
-0.0147743
-0.00515082
-0.015055
-0.01447
2.58358e-05
-0.000779963
)
;

boundaryField
{
    fuel
    {
        type            calculated;
        value           nonuniform List<scalar> 
36
(
0.00012754
0.000211104
0.000127538
0.00012754
0.000211103
0.000127538
0.000127541
0.000211103
0.000127539
-0.00012754
-0.000211104
-0.000127537
-0.00012754
-0.000211103
-0.000127539
-0.000127541
-0.000211103
-0.000127539
0
0
0
0
0
0
0
0
0
0
0
0
0
0
0
0
0
0
)
;
    }
    primary_air
    {
        type            calculated;
        value           nonuniform List<scalar> 9(-0.00319331 -0.00527904 -0.00319445 -0.00319338 -0.00528008 -0.0031952 -0.0031931 -0.0052817 -0.00319514);
    }
    Secondary_air_RHS
    {
        type            calculated;
        value           nonuniform List<scalar> 9(0.00594478 0.00961797 0.00594882 0.00593501 0.00958958 0.00593958 0.00592909 0.00959752 0.00593454);
    }
    Secondary_air_LHS
    {
        type            calculated;
        value           nonuniform List<scalar> 9(0.00592993 0.00948207 0.0059029 0.00591651 0.00944461 0.00588578 0.00591499 0.00947382 0.00588003);
    }
    outlet
    {
        type            calculated;
        value           nonuniform List<scalar> 
18
(
-0.00223924
0.0797657
-0.0550098
-0.0399576
0.0692491
-0.0550671
-0.0523
0.0638801
-0.0548875
-0.055147
0.0636133
-0.0524921
-0.0554801
0.0688768
-0.039979
-0.0552629
0.0804309
-0.0020984
)
;
    }
    stove_body
    {
        type            calculated;
        value           uniform 0;
    }
    frontAndBack
    {
        type            empty;
        value           nonuniform 0();
    }
}


// ************************************************************************* //
