/*--------------------------------*- C++ -*----------------------------------*\
  =========                 |
  \\      /  F ield         | OpenFOAM: The Open Source CFD Toolbox
   \\    /   O peration     | Website:  https://openfoam.org
    \\  /    A nd           | Version:  6
     \\/     M anipulation  |
\*---------------------------------------------------------------------------*/
FoamFile
{
    version     2.0;
    format      ascii;
    class       surfaceScalarField;
    location    "4";
    object      phi;
}
// * * * * * * * * * * * * * * * * * * * * * * * * * * * * * * * * * * * * * //

dimensions      [1 0 -1 0 0 0 0];

internalField   nonuniform List<scalar> 
675
(
1.27103e-05
-4.36267e-05
0.000155044
-1.27145e-05
2.10069e-06
0.000147452
-4.36289e-05
0.000155042
-1.96902e-05
4.36282e-05
0.000139069
1.96393e-05
-2.1005e-06
0.000171508
4.36281e-05
0.000139016
1.27111e-05
0.000155045
-1.27141e-05
0.000147453
0.000155042
7.65881e-06
-6.12285e-05
0.000208673
-7.65421e-06
5.42037e-07
0.000162282
-6.11842e-05
0.000208631
-3.73554e-05
6.12305e-05
5.38607e-05
3.7918e-05
-5.41571e-07
9.72153e-05
6.11833e-05
5.4462e-05
7.65958e-06
0.000208675
-7.65389e-06
0.000162284
0.00020863
2.40905e-06
8.22528e-05
-2.49347e-06
4.31739e-05
8.21266e-05
1.14666e-05
-8.22515e-05
-1.18183e-05
-4.31764e-05
-8.21278e-05
2.41214e-06
-2.49137e-06
0.0043195
0.00300695
-0.00410093
0.00447446
0.0024473
0.000617013
0.00444388
0.0032503
0.00883567
-0.00282905
0.00236113
0.00425025
-0.00214168
0.0145329
-0.00375071
0.0178063
0.00426386
-0.00386811
0.00446461
0.000876211
0.00393262
0.00500633
0.00611141
-0.0152183
-0.00916269
-0.000458568
0.0152456
0.00513334
-0.0110444
0.00228888
-0.00599289
0.0121775
0.0045122
0.000589238
0.0112646
-0.00485641
0.0323125
0.00491386
-0.0147746
-0.00903102
0.0154112
-0.00995342
0.000340597
0.0139493
-0.029507
-0.00370122
-0.00559746
0.024887
0.0150793
-0.0298237
-0.0372495
-0.0139496
0.0773277
0.0224931
0.00548587
-0.0595582
-0.015498
0.0853879
0.000344398
-0.0290674
-0.00417128
0.0254148
-0.0296213
-0.0190916
-0.0172006
-0.0106347
0.0469287
0.0152416
0.00810552
-0.0225746
-0.0198615
-0.0158303
-0.0192314
0.0503067
-0.00199738
0.017402
0.016209
-0.0488122
-0.00696058
-0.00735746
-0.0569486
0.077385
0.0150696
0.0149244
-0.052783
-0.018787
-0.0101757
0.0463665
0.0149737
-0.0206548
-0.0204609
-0.0205557
0.0506025
0.00364466
-0.00854469
-0.005732
-0.00410647
0.00615711
-0.0209723
-0.00668485
-0.0166462
0.000818004
0.00940471
-0.00255639
-0.0208015
-0.00537378
-0.023788
0.0031645
-0.0157207
0.00470534
-0.00547386
-0.00195512
-0.0193602
-0.0193337
0.0115813
-0.00219412
-0.0150967
0.000741167
0.00242424
-0.0125436
-0.00403316
-0.0118645
0.00594912
0.0100462
-0.0207012
0.000976015
0.00106787
-0.0174319
-0.00297993
-0.0157834
0.0190712
-0.0144834
0.0129054
-0.0121051
-0.00939071
-0.000859318
-0.000579782
-0.0353499
0.000578896
-0.000503205
0.023952
-0.000676911
-0.0363744
-0.00340388
0.000594978
0.067571
0.00158998
0.000501874
-0.0655572
0.000606186
0.0727787
-0.000863144
-0.0348757
0.000556444
0.0244972
-0.0362997
-0.00115443
-0.000183838
-0.0412548
0.00110265
-0.000447198
0.0221422
0.000158825
-0.0432161
-0.00277821
0.000211911
0.0580964
0.00252006
0.000446408
-0.0717491
-0.000255736
0.0628872
-0.00115246
-0.0407371
0.00106447
0.0227267
-0.0433163
-0.00185954
0.000184553
0.00112749
-0.000706367
0.000378003
-0.00235379
-0.000166608
0.00186322
0.000712667
-0.000510877
-0.0018696
0.00110884
0.00303316
-0.000761533
-0.00615904
-0.0112076
-0.00627257
-0.000356874
-0.00288196
-0.000948993
-0.00596508
-0.0112227
0.00476724
0.00126385
-0.0131707
-0.0143179
-0.00443859
0.000649079
-0.00922932
0.000564435
-0.010287
-0.0114464
0.00702016
-0.00819765
-0.0120409
-0.00118897
-0.00324401
-0.00233643
-0.00767657
0.00123133
0.000694604
-0.000545657
-0.00753865
-0.00400524
0.0011013
0.0012518
7.70237e-05
-0.00201532
-0.00803143
0.00170071
0.00015294
-0.00478947
-0.00953577
-0.00297831
-9.89082e-05
-0.00334812
-0.000160263
-0.00464254
-0.00838252
0.00143178
-0.00145
-0.00802566
-0.00331665
0.00140773
-0.000225753
-0.00558492
-0.000873238
0.00119946
-0.000871813
-0.000837585
0.00121474
0.00051689
-0.00336868
0.000813153
-0.000519395
-0.00387948
-0.000831277
-0.000487138
-0.000140242
-0.00481342
-0.000189428
-0.0017794
0.000732622
0.000369388
-0.0103771
-0.000230435
-0.000615125
-0.0106346
0.00119801
-0.000940311
0.00165305
-0.00426651
-0.00802108
-0.0112409
0.000123269
-0.000557793
-0.00944329
-0.00111097
0.000512654
-0.00123851
0.00114399
-0.00769438
-0.007074
-0.000478647
-0.00725914
-0.000925416
-0.00435313
-0.00414524
-0.00825859
-0.000221836
-0.000166019
-0.00837897
0.000504326
-0.00132424
0.000192553
-0.00474909
-0.00808853
-0.00920361
-1.31479e-05
5.6222e-05
-0.00806912
-0.000465166
0.000349204
-5.90102e-05
0.00108041
-0.00775204
-0.00579972
-0.000275984
-0.00598026
-0.0012096
-0.00531737
-0.00507539
-0.00331397
-0.000220386
-0.00385093
-0.000787006
-0.0010246
-0.00757485
-0.00494633
-2.97089e-05
-0.00547348
9.05802e-05
0.000793719
-0.00620962
6.46504e-05
-0.00105428
-0.00557864
0.0100881
0.00141275
-0.00427053
-0.00723003
0.0101388
0.00137722
-0.00142784
-6.42343e-05
-0.00100459
0.01129
-0.00146882
0.00115085
-0.00955843
0.0136501
-0.00140443
0.000422588
0.000196106
-0.000926693
0.0108164
-0.00459636
-0.00768985
0.01076
-0.00134909
-0.00108483
0.00775974
0.00027514
-0.00502169
-0.0072834
0.00798221
0.00068711
-0.00233742
5.66244e-05
-0.000617742
0.00935126
-0.00022922
0.00138485
-0.0090797
0.0108052
-0.000650844
0.000307832
0.000173671
0.000227236
0.00832252
-0.005412
-0.00773631
0.00854392
-0.00222208
-0.000393209
0.00370499
-0.000949181
-0.00777715
0.00177744
-0.000409853
0.000287797
0.00415163
0.0010554
-0.00477014
0.00337523
0.000675734
1.22372e-05
0.00370772
-0.00806473
0.00216099
-0.00165178
0.00146345
0.000188693
0.0020615
0.00158836
-0.00530128
0.00108935
-0.00625754
-0.00104985
-0.00152445
0.00403835
0.00497636
-0.00164491
-0.00279226
-0.00118288
-0.00230911
-0.00168444
0.000160263
0.00228449
-0.00561375
-0.0065889
-0.000707298
0.00148155
-0.000585162
0.00419364
0.0013911
-0.011593
0.000740433
-0.0100874
4.17833e-05
-0.00152425
0.00700304
0.00515328
-0.00143738
-0.0050745
-0.00080132
-0.00469286
-0.00066094
-0.000703098
0.00454782
-0.01226
-0.0105787
-0.00306693
0.00136639
0.00111584
0.00649996
0.00362211
-0.0247816
0.00159082
-0.0129551
-0.0002489
-0.00139708
0.0100162
0.00450451
-0.00382952
-0.00237541
-0.00148698
-0.00187977
-0.00322307
0.0011226
0.00682887
-0.0261416
-0.0133016
0.00998776
0.00851374
-0.017383
-0.00163145
0.0102261
-0.0233859
0.0102301
-0.0248142
-0.00214045
-0.00833354
0.0290079
-0.00418806
-0.0100996
0.0200023
-0.0099214
0.014088
0.0104562
-0.0176652
-0.00189636
-0.0238865
-0.025117
0.00378669
0.00719148
-0.0283632
0.00353416
0.00664068
-0.0297761
0.0072445
-0.0285265
0.00589059
-0.00697107
0.03728
0.00390656
-0.00642313
0.0350502
-0.00704807
0.0322872
0.00385796
-0.028491
0.0034579
-0.0299065
-0.0287044
0.000538411
0.0192746
-0.000243287
0.0192362
0.0194376
0.00324579
-0.0191832
0.00274512
-0.0191442
-0.0193408
0.000553984
-0.000213368
-0.00494073
0.00136759
-0.0044457
-0.00306806
0.00128207
-0.00315369
0.00142436
-0.00449179
-0.00468346
-0.000978844
-0.000662979
-0.00268283
-0.00102481
0.000308078
-0.000976728
-0.000279875
-0.000170643
-0.00495355
0.00135404
-0.00254887
0.000378072
-0.00514168
0.000684723
-0.00807491
-0.00227457
0.00128604
-0.00730487
0.00146663
-0.00823246
-0.00539649
-0.000401498
-0.00193088
-0.00224461
-0.000588483
-0.000967327
-0.000927784
-0.00012838
-0.0024721
-0.00795769
0.000143018
-0.00575156
-0.000405753
-0.004077
0.00074512
-0.0123153
-0.00314347
0.00185476
-0.0100913
0.00290046
-0.0142767
-0.00557338
-0.00109989
-0.000721077
-0.00253511
-0.00163232
-0.000516613
-0.00113751
0.00137602
-0.00129468
-0.0133408
0.000372237
-0.00904978
-0.00117015
0.000752859
0.00863018
-0.0217087
0.0032546
0.00909839
-0.0217068
0.0100154
-0.021057
0.00174937
-0.0104189
0.0165716
0.000872573
-0.00982454
0.0192762
-0.00936518
0.0216209
-0.00395536
-0.019791
-0.00405753
-0.0187605
-0.0145817
-0.000807358
0.00614334
-0.0270547
-0.000591172
0.00569509
-0.0276259
0.00581924
-0.0274735
-0.00138185
-0.00857393
0.0326617
-0.00196758
-0.00835068
0.0338999
-0.00880837
0.0342745
-0.00205376
-0.026313
-0.00225938
-0.026908
-0.0256518
0.000236358
0.0198288
5.23733e-05
0.019719
0.0197338
-0.000993828
-0.0203621
-0.00105822
-0.0202635
-0.020392
-3.51874e-05
-0.00056197
)
;

boundaryField
{
    fuel
    {
        type            calculated;
        value           nonuniform List<scalar> 
36
(
0.000124069
0.000206738
0.000124069
0.000124069
0.000206738
0.000124069
0.000124069
0.000206738
0.000124069
-0.000124069
-0.000206738
-0.000124069
-0.000124069
-0.000206738
-0.000124069
-0.000124069
-0.000206738
-0.000124069
0
0
0
0
0
0
0
0
0
0
0
0
0
0
0
0
0
0
)
;
    }
    primary_air
    {
        type            calculated;
        value           nonuniform List<scalar> 9(-0.00322459 -0.00535812 -0.00322401 -0.00321845 -0.00535464 -0.00321794 -0.00321759 -0.00535665 -0.00321706);
    }
    Secondary_air_RHS
    {
        type            calculated;
        value           nonuniform List<scalar> 9(0.00780653 0.0129162 0.00784109 0.00778559 0.012826 0.00782545 0.00784013 0.0128564 0.00788424);
    }
    Secondary_air_LHS
    {
        type            calculated;
        value           nonuniform List<scalar> 9(0.00728204 0.0119859 0.00726647 0.00724321 0.0118572 0.0072259 0.00734901 0.0119892 0.00733244);
    }
    outlet
    {
        type            calculated;
        value           nonuniform List<scalar> 
18
(
-0.0471295
0.0738395
-0.0466468
-0.0471705
0.0739401
-0.0466515
-0.0471643
0.0733349
-0.0466124
-0.048177
0.0724909
-0.0482287
-0.0482314
0.0739302
-0.048284
-0.0482082
0.0738096
-0.048259
)
;
    }
    stove_body
    {
        type            calculated;
        value           uniform 0;
    }
    frontAndBack
    {
        type            empty;
        value           nonuniform 0();
    }
}


// ************************************************************************* //
