/*--------------------------------*- C++ -*----------------------------------*\
  =========                 |
  \\      /  F ield         | OpenFOAM: The Open Source CFD Toolbox
   \\    /   O peration     | Website:  https://openfoam.org
    \\  /    A nd           | Version:  6
     \\/     M anipulation  |
\*---------------------------------------------------------------------------*/
FoamFile
{
    version     2.0;
    format      ascii;
    class       volVectorField;
    location    "4";
    object      U;
}
// * * * * * * * * * * * * * * * * * * * * * * * * * * * * * * * * * * * * * //

dimensions      [0 1 -1 0 0 0 0];

internalField   nonuniform List<vector> 
297
(
(12.7307 0.0198564 0.284984)
(12.7311 -1.71232e-05 0.253894)
(12.7306 -0.0198633 0.284932)
(-4.14204e-10 -0.0278416 0.251473)
(-4.67179e-10 -0.00015632 0.247145)
(-4.86574e-10 0.0277846 0.25139)
(-12.7307 0.0198582 0.284986)
(-12.7311 -1.34914e-05 0.253894)
(-12.7306 -0.0198624 0.284931)
(12.7305 0.0129309 0.298619)
(12.7321 1.45436e-05 0.269438)
(12.7305 -0.0128792 0.298619)
(-4.41122e-10 -0.0841424 -0.00239083)
(-4.73339e-10 0.00161084 0.2038)
(-4.68223e-10 0.0846042 -0.00124602)
(-12.7305 0.0129327 0.298622)
(-12.7321 1.81303e-05 0.269439)
(-12.7304 -0.0128786 0.298618)
(12.7273 0.0243009 0.491162)
(12.7331 -0.000319779 0.431195)
(12.7273 -0.0243274 0.491166)
(-3.14305e-10 0.036341 0.268234)
(-4.30054e-10 -0.0072965 0.0878329)
(-3.02456e-10 -0.0328813 0.267508)
(-12.7274 0.0243067 0.491171)
(-12.7327 -0.000297634 0.431189)
(-12.7271 -0.0243261 0.491158)
(81.0934 -12.7728 -14.7769)
(60.5788 16.0581 4.92802)
(25.9074 17.09 12.8305)
(-0.00157247 0.0202365 6.07081)
(-0.000881695 5.47568 6.81117)
(-0.000555726 9.04602 11.7045)
(-81.4841 -13.2534 -14.8575)
(-60.0708 15.7102 3.82174)
(-25.94 17.1006 11.7415)
(133.095 -71.5158 47.766)
(89.3173 10.9989 85.8048)
(67.2293 -21.4597 79.9502)
(-0.00392999 -33.0987 215.45)
(-0.00121086 18.3858 136.181)
(-0.00193918 -7.39965 119.509)
(-136.856 -76.2371 52.9669)
(-86.6969 11.6974 89.4524)
(-61.7746 -18.8896 82.8328)
(130.28 -165.297 -8.4995)
(80.9945 35.4371 183.316)
(75.5883 -8.66709 -21.3483)
(0.0106645 -79.9384 279.854)
(0.00140715 -18.5989 -9.67117)
(-9.22361e-05 17.0577 163.189)
(-133.867 -171.983 -0.30992)
(-80.2385 36.1301 182.534)
(-71.8908 -12.6721 -16.9081)
(83.3206 -73.6779 -251.604)
(45.7285 -5.36559 -29.2629)
(47.0849 18.7119 -136.121)
(-0.0164543 -172.21 0.550064)
(-0.00348023 15.6273 -125.364)
(0.0188762 -10.7007 46.9675)
(-85.4665 -76.0813 -254.667)
(-47.9333 -6.65762 -28.0358)
(-44.6512 20.3066 -121.939)
(73.7067 1.90512 -182.267)
(19.5585 9.04123 -78.9296)
(19.7025 -32.7201 -88.1944)
(-0.00803784 -68.3289 -139.436)
(-0.000813303 -9.54119 -73.3142)
(0.00629319 -16.9617 -80.638)
(-77.1145 -8.07173 -181.084)
(-23.0482 15.9548 -84.5787)
(-14.0637 -19.8122 -72.8374)
(8.64495 20.8439 -14.9674)
(8.63696 4.52421 -12.0275)
(8.62634 -15.5186 -17.4591)
(-0.00120279 12.9795 -11.1183)
(-0.000689477 1.96988 -16.459)
(0.001826 -10.1387 -15.8897)
(-8.65049 18.4773 -13.9102)
(-8.64176 12.9269 -12.1905)
(-8.62725 -3.24409 -14.8482)
(113.661 -176.625 -521.943)
(67.4906 21.8879 182.228)
(70.783 -0.167932 -285.208)
(-0.0466667 -121.414 406.545)
(-0.00136836 -20.9525 -139.753)
(0.0562414 7.89725 239.992)
(-116.505 -184.728 -529.679)
(-65.8958 21.7328 181.753)
(-67.3681 -3.23062 -270.436)
(101.775 -114.409 -450.371)
(70.0022 14.0914 175.763)
(57.1458 10.6655 -235.389)
(-0.0535583 -120.843 458.916)
(-0.001892 -7.1623 -143.924)
(0.0761537 9.2045 264.468)
(-104.386 -119.416 -457.981)
(-68.3689 13.3568 175.405)
(-54.044 9.80822 -220.534)
(92.7613 -118.539 -391.786)
(69.582 -8.15587 160.588)
(53.4054 8.24819 -209.142)
(-0.058948 -180.594 510.135)
(-0.00245436 -0.605031 -139.348)
(0.0927163 -1.4168 312.387)
(-95.2463 -123.104 -397.711)
(-67.9116 -10.9089 161.285)
(-50.7431 7.51567 -194.258)
(8.61188 29.3459 -9.55734)
(8.61746 -8.80374 -7.57082)
(8.59816 -29.0309 -6.94291)
(-0.00132452 20.1661 -8.84494)
(-0.00102133 -1.00605 -6.33888)
(-0.000227049 -16.8068 -6.54546)
(-8.6139 30.8558 -10.1488)
(-8.62614 11.8368 -7.33122)
(-8.60069 -21.4867 -5.27668)
(8.63745 17.2651 -0.475083)
(8.62873 -7.12954 0.236409)
(8.6187 -17.4136 -2.36164)
(-0.0009207 9.15735 -2.20539)
(-0.000987106 -2.02185 -3.32165)
(-0.00094492 -10.1908 -1.79748)
(-8.63971 16.6815 -1.25065)
(-8.62579 -6.38531 -0.210435)
(-8.61919 -15.6329 -0.489327)
(8.63349 -4.52836 -3.97251)
(8.62387 -1.64009 0.0446897)
(8.62505 -1.24244 -4.24845)
(-0.000908473 1.65952 -4.73762)
(-0.000956776 0.611032 -1.90899)
(-0.000953953 -4.10549 -3.80541)
(-8.64533 -0.812491 -5.70971)
(-8.62895 -2.57753 1.13516)
(-8.63023 2.06213 0.614333)
(8.59468 -31.269 -3.6284)
(8.61451 -28.9377 -5.65586)
(8.60463 -22.9807 -8.09766)
(-0.000698062 -19.1231 -3.53424)
(-0.000699119 -18.0024 -3.82992)
(-0.00132888 -13.8147 -4.28562)
(-8.59816 -22.0205 -4.17514)
(-8.61006 -18.2055 -6.82997)
(-8.598 -12.3244 -9.55089)
(8.60901 -24.2302 -0.373651)
(8.62264 -25.8056 -5.7037)
(8.59257 -21.3602 -12.1958)
(-0.000656568 -15.1955 1.41954)
(-0.000219011 -15.2856 1.72862)
(-0.000738456 -12.5496 2.22911)
(-8.61523 -17.711 -2.18005)
(-8.61654 -16.6638 -5.69553)
(-8.58891 -14.0187 -12.6333)
(8.62901 -9.99958 -4.15571)
(8.62856 -13.5031 -9.83955)
(8.59922 -18.959 -16.7437)
(0.0002038 -8.20302 0.411177)
(0.00122584 -9.26488 0.748856)
(0.00145658 -10.5825 -0.246639)
(-8.62667 3.66634 4.61183)
(-8.61919 -2.08921 -3.05011)
(-8.59446 -12.5703 -15.0046)
(8.61151 21.9721 -11.8778)
(8.62658 27.1399 -8.83555)
(8.60945 31.2507 -6.26071)
(-7.80297e-06 17.061 -6.17771)
(-0.000488942 22.1312 -5.92842)
(-0.000756484 24.1645 -5.21091)
(-8.6163 23.1031 -12.6612)
(-8.63001 28.9908 -9.71057)
(-8.60977 33.487 -6.79677)
(8.60937 21.0251 -11.1712)
(8.6367 24.071 -5.01779)
(8.63085 23.0951 -0.416621)
(-0.000387762 14.9626 1.24461)
(-0.000818218 18.3575 2.00287)
(-0.000877996 18.1116 2.03261)
(-8.61438 22.2051 -12.2538)
(-8.64171 25.7681 -5.48336)
(-8.62912 24.9239 -0.0775264)
(8.61219 18.1626 -17.0726)
(8.64058 12.5458 -12.7274)
(8.64569 1.13516 -4.37506)
(-0.000930145 9.33693 0.544664)
(-0.00093923 7.58857 1.14846)
(-0.000976352 5.71517 0.425945)
(-8.61507 19.2016 -18.3228)
(-8.64552 12.5425 -12.1992)
(-8.65077 3.25481 -3.77539)
(8.61894 -3.92741 -6.7338)
(8.61867 2.00817 -16.3613)
(8.60375 12.7632 -20.1203)
(0.000567646 -2.971 0.420101)
(0.000636516 3.35762 -7.54352)
(0.000457943 10.5078 -8.23875)
(-8.62253 -3.99353 -7.25056)
(-8.61861 2.54742 -17.2919)
(-8.60514 13.5282 -21.2741)
(8.61726 0.892767 4.74096)
(8.61681 4.07783 -19.045)
(8.60401 14.4513 -21.3291)
(0.000524651 -1.18129 9.84799)
(0.000532582 4.31988 -5.43546)
(0.000160587 10.1882 -4.42787)
(-8.61762 1.23429 4.9798)
(-8.61651 4.62185 -20.2181)
(-8.60588 15.2724 -22.6875)
(8.60997 1.54076 -0.408636)
(8.65374 3.30108 -21.7151)
(8.62584 10.8494 -26.9163)
(0.000488491 -1.3599 13.5325)
(0.000552271 4.22986 -8.75188)
(-8.70912e-05 6.48831 -6.18523)
(-8.60993 1.78831 -0.987102)
(-8.65581 3.82078 -22.8848)
(-8.62493 11.1821 -28.5188)
(8.6111 3.49201 -2.91005)
(8.62275 2.97337 -30.2254)
(8.61879 -9.93621 -46.104)
(-0.000371975 1.29037 46.1728)
(-0.000480626 2.64968 26.8036)
(-0.000540124 -11.9975 16.5453)
(-8.61438 3.88891 -3.32053)
(-8.62571 2.48484 -31.3783)
(-8.62119 -9.83861 -46.3155)
(8.52706 0.618793 -98.9226)
(8.52208 -0.100738 -104.834)
(8.53013 5.8358 -99.1533)
(-0.000531048 1.28987 71.387)
(-0.000533741 1.88492 62.4055)
(-0.000486591 0.280296 55.1395)
(-8.52716 0.479091 -99.4291)
(-8.52399 0.0136002 -105.433)
(-8.53117 5.8293 -100.062)
(8.20095 0.109954 -139.451)
(8.1969 0.072342 -139.65)
(8.19645 -0.0491716 -139.565)
(-0.000520473 0.777756 184.034)
(-0.000525063 1.18046 187.576)
(-0.00053414 0.336781 187.36)
(-8.20269 0.114188 -139.638)
(-8.19868 0.0831211 -139.841)
(-8.19825 -0.0426338 -139.75)
(8.59587 -16.2122 -11.6025)
(8.5921 -10.4459 -8.91048)
(8.59434 -6.28567 -12.2435)
(-0.00362334 -9.84049 -4.96427)
(-0.00681232 -5.37928 -3.31132)
(-0.00856673 -1.62486 -4.14805)
(-8.59543 -6.76897 -13.5101)
(-8.60213 -1.71188 -8.51556)
(-8.60767 7.70718 -3.49476)
(8.58651 -17.8102 -17.6282)
(8.59231 -9.82065 -13.0128)
(8.59571 -1.67277 -15.6001)
(-0.00306562 -10.9253 -0.384003)
(-0.00591719 -5.71266 1.81378)
(-0.00789576 -0.476399 1.55496)
(-8.58683 -9.56733 -18.3843)
(-8.59315 -8.0278 -10.4546)
(-8.60482 6.78619 0.599763)
(8.59383 -10.7038 -25.9052)
(8.60025 -12.2871 -19.3691)
(8.62154 0.00537739 -18.0178)
(-0.00182755 -9.24655 -2.22299)
(-0.00440259 -7.32262 -1.53436)
(-0.00665761 -0.82156 0.737661)
(-8.6077 -6.04936 -23.4411)
(-8.60768 -8.96972 -12.9808)
(-8.60289 1.36822 4.18328)
(8.61036 8.5043 -36.4326)
(8.60894 1.31296 -34.0697)
(8.6104 -0.0903652 -31.284)
(0.00290451 8.44088 21.9443)
(0.00233432 -2.42512 26.5836)
(0.00213105 -0.643604 31.8611)
(-8.59492 4.65325 -26.1312)
(-8.58973 -2.11796 -17.5517)
(-8.58447 -2.73849 -0.154239)
(8.52877 -4.31732 -94.1545)
(8.53002 1.10091 -96.5267)
(8.52601 -0.465617 -95.9752)
(0.00612672 0.808006 56.9674)
(0.00669448 -1.04647 60.2789)
(0.00711849 -0.553331 62.4974)
(-8.50752 -2.76886 -92.385)
(-8.50093 -0.17214 -95.2191)
(-8.5042 -0.157791 -89.795)
(8.19397 0.0581081 -135.694)
(8.19414 0.0658592 -135.842)
(8.19552 0.0187374 -135.82)
(0.00303223 0.167914 186.969)
(0.00310859 -0.547626 187.126)
(0.00326249 -0.256987 185.664)
(-8.18312 -0.0156035 -133.97)
(-8.18298 -0.140377 -133.987)
(-8.1841 -0.120007 -133.847)
)
;

boundaryField
{
    fuel
    {
        type            fixedValue;
        value           uniform (0 0 0.25);
    }
    primary_air
    {
        type            fixedValue;
        value           uniform (0 0 2.5);
    }
    Secondary_air_RHS
    {
        type            fixedValue;
        value           uniform (0 66.6667 0);
    }
    Secondary_air_LHS
    {
        type            fixedValue;
        value           uniform (0 -66.6667 0);
    }
    outlet
    {
        type            pressureInletOutletVelocity;
        value           nonuniform List<vector> 
18
(
(0 0 -135.694)
(0.00303223 0.167914 186.969)
(0 0 -133.97)
(0 0 -135.842)
(0.00310859 -0.547626 187.126)
(0 0 -133.987)
(0 0 -135.82)
(0.00326249 -0.256987 185.664)
(0 0 -133.847)
(0 0 -139.451)
(-0.000520473 0.777756 184.034)
(0 0 -139.638)
(0 0 -139.65)
(-0.000525063 1.18046 187.576)
(0 0 -139.841)
(0 0 -139.565)
(-0.00053414 0.336781 187.36)
(0 0 -139.75)
)
;
    }
    stove_body
    {
        type            noSlip;
    }
    frontAndBack
    {
        type            empty;
    }
}


// ************************************************************************* //
