/*--------------------------------*- C++ -*----------------------------------*\
  =========                 |
  \\      /  F ield         | OpenFOAM: The Open Source CFD Toolbox
   \\    /   O peration     | Website:  https://openfoam.org
    \\  /    A nd           | Version:  6
     \\/     M anipulation  |
\*---------------------------------------------------------------------------*/
FoamFile
{
    version     2.0;
    format      ascii;
    class       volScalarField;
    location    "2.5";
    object      p;
}
// * * * * * * * * * * * * * * * * * * * * * * * * * * * * * * * * * * * * * //

dimensions      [1 -1 -2 0 0 0 0];

internalField   nonuniform List<scalar> 
297
(
118619
118618
118619
197551
197551
197551
118619
118618
118619
118619
118619
118619
197552
197552
197552
118619
118619
118619
118619
118619
118619
197553
197552
197553
118619
118619
118619
98074.2
97947.1
97708.3
162945
162643
162227
97797.7
97999.1
97822.8
95759.6
95113.7
95222.5
160653
158361
158127
97457.8
96044.9
95143.3
94526.1
92132.1
90352.8
153788
149842
151941
91981.4
90348.3
92373.9
93922.3
93723.3
95402.7
153145
154354
156376
95957.5
93519.4
93976.1
96242.3
95800.5
96752.4
157392
159070
161503
94248.6
95413
97422.7
96435.7
96887.1
97431.7
161101
161558
162382
96860.3
96877.1
97521.7
90335.3
90916.7
86416.7
137921
145302
149054
92936.3
89509.7
85560
90282.3
90895.8
86336.4
137154
145007
147721
93129.8
89585.1
85391.5
90831.6
91112.6
86889.4
138232
145573
147472
93710.7
89902.2
85914.9
97746.4
97712.1
97530.8
163019
163636
163482
98421.5
98492.4
97847.7
97997.3
98023.3
97944.9
163429
164253
163834
98731
99126.4
98276.3
98153.5
98219.2
98030.7
163648
164607
164009
98869.7
99557.6
98655.1
98170.4
98292.7
98427.1
163320
162864
162345
98135.4
98005.9
97965.7
98107.4
98085.4
98108.6
163352
162793
162182
98181.3
97923.9
97731.5
98027.8
97894.7
97714.3
163442
162831
162103
98266.6
97844.4
97425.6
98351.8
98295.6
98256.5
162062
162582
163009
97152.2
97521.4
97991.1
98251.6
98271.9
98217.4
162032
162579
163012
96954.2
97415.6
97972.5
98153.3
98272
98241.3
161953
162560
163038
96905.3
97413.3
97991.6
98352.8
98540
98516.2
161436
161527
161715
98504.6
97990.8
97321.9
98140.1
98291.2
98305.4
161195
161253
161539
97999.6
97308.7
96891
97889.6
97998.5
98033.5
160834
160888
161168
97472.8
96881.7
96610.9
96656.9
96638.8
96658.2
158417
158387
158268
94966.7
94904.6
94824.4
91898.7
91863.1
91848.5
151127
151101
151047
90920.8
90897.1
90793.4
85525.6
85519.2
85515.5
138882
138842
138780
87350.3
87485.2
87622.1
98465
98353.2
98197
162132
161986
161836
98016.5
97971.1
97867.8
98228.3
98248.8
98135.8
161950
161833
161705
97868
97946.5
97873.8
98041
98188.7
98071.9
161795
161722
161559
97796.8
98001.3
97909.3
97252.9
97293.1
97336.1
160880
160968
160954
97369.6
97415.9
97464.5
92817.3
92807.5
92852.4
153360
153367
153377
92772.7
92758.5
92800.9
85944
85943.3
85949.9
138294
138311
138325
85937.4
85937.1
85944.1
)
;

boundaryField
{
    fuel
    {
        type            zeroGradient;
    }
    primary_air
    {
        type            zeroGradient;
    }
    Secondary_air_RHS
    {
        type            zeroGradient;
    }
    Secondary_air_LHS
    {
        type            zeroGradient;
    }
    outlet
    {
        type            totalPressure;
        rho             rho;
        psi             none;
        gamma           1;
        p0              uniform 100000;
        value           nonuniform List<scalar> 
18
(
89278
100000
89264.3
89260.3
100000
89246.2
89296.3
100000
89282.5
88597.4
100000
89681.8
88565.1
100000
93718.8
88559.2
100000
99999.1
)
;
    }
    stove_body
    {
        type            zeroGradient;
    }
    frontAndBack
    {
        type            empty;
    }
}


// ************************************************************************* //
