/*--------------------------------*- C++ -*----------------------------------*\
  =========                 |
  \\      /  F ield         | OpenFOAM: The Open Source CFD Toolbox
   \\    /   O peration     | Website:  https://openfoam.org
    \\  /    A nd           | Version:  6
     \\/     M anipulation  |
\*---------------------------------------------------------------------------*/
FoamFile
{
    version     2.0;
    format      ascii;
    class       volScalarField;
    location    "4";
    object      O2;
}
// * * * * * * * * * * * * * * * * * * * * * * * * * * * * * * * * * * * * * //

dimensions      [0 0 0 0 0 0 0];

internalField   nonuniform List<scalar> 
297
(
0
0
0
0
0
0
0
0
0
0
0
0
0
0
0
0
0
0
0
0
0
0
0
0
0
0
0
0.101219
0.0615108
0.134029
0.188907
0.150774
0.198568
0.0998925
0.106496
0.167123
0
7.54737e-06
0.00699053
0.0889657
0.111396
0.104591
0
1.24848e-05
0.00055855
0
0
0
0.0539069
0.0257503
0.0670042
0
0
0
0
2.48012e-11
0
0
0
0
0
0
0
2.56452e-18
1.96173e-16
0
1.06748e-20
4.22082e-19
1.63621e-20
4.19055e-21
8.88097e-20
1.52075e-20
2.55192e-21
8.40536e-21
8.29372e-21
8.79154e-21
9.67553e-20
3.09166e-20
3.38373e-21
8.55303e-21
1.5901e-20
0
0
0
0.0161192
6.67632e-07
0.0252633
0
0
0
0
7.09261e-10
0
0
1.03087e-08
0.00786088
0
2.96326e-09
0
0
0
0
0
0
0
0
0
0
1.77065e-21
3.81672e-21
8.13743e-21
7.5639e-21
1.01941e-20
3.0811e-20
1.06721e-21
2.86371e-21
4.66166e-21
3.70902e-22
1.40339e-21
4.73315e-21
2.33855e-21
9.95318e-21
3.01518e-20
4.77617e-22
2.18123e-21
2.85703e-21
8.67682e-23
5.98324e-22
2.38567e-21
3.36279e-21
8.41854e-21
1.93875e-20
1.1274e-21
2.32924e-21
2.74704e-21
1.74634e-21
4.30389e-22
4.38649e-22
1.98844e-20
1.87235e-22
9.6687e-23
7.32714e-22
1.33449e-22
1.76751e-22
4.64662e-21
1.57566e-21
1.81173e-21
2.90448e-20
2.70412e-20
1.97996e-20
2.89772e-21
1.00992e-21
9.60694e-22
3.17421e-21
1.54701e-21
3.01405e-21
1.9686e-20
1.96692e-20
1.9735e-20
2.85338e-21
1.78238e-21
4.78722e-21
4.43633e-23
4.07315e-23
8.78825e-22
1.29028e-21
6.4016e-21
6.9727e-21
1.33679e-22
5.85105e-22
8.28696e-22
1.53028e-22
1.20967e-22
4.24111e-22
2.42496e-21
3.25623e-21
2.34148e-21
2.21388e-22
2.88326e-22
4.5967e-22
3.18635e-22
1.59341e-22
2.14912e-22
2.44409e-21
2.50449e-21
2.84924e-21
5.89449e-22
3.68597e-22
4.68696e-22
7.24376e-28
1.73378e-27
8.25714e-27
2.49411e-25
2.06572e-26
1.99653e-24
1.76328e-24
2.26803e-23
2.21609e-23
8.75212e-28
2.76964e-27
1.307e-26
1.01402e-24
2.99702e-25
6.5133e-23
8.02637e-24
5.72321e-23
5.34332e-23
3.2725e-27
3.19871e-27
1.35064e-26
9.49903e-23
6.52113e-22
1.79336e-21
1.33642e-23
9.6978e-23
5.67999e-22
2.3792e-27
2.84716e-27
6.73726e-27
1.24869e-22
4.7466e-22
8.45364e-22
1.97533e-23
1.72729e-22
4.1865e-22
6.24683e-28
1.52561e-27
4.90892e-27
8.32657e-23
1.82335e-22
5.0041e-22
2.88356e-23
8.05653e-23
3.84229e-22
1.48638e-28
3.49515e-28
1.20146e-27
4.05856e-23
9.82807e-23
3.34483e-22
2.41784e-23
9.176e-23
3.49565e-22
8.16346e-26
1.56627e-26
5.0697e-27
2.51644e-23
1.7694e-23
5.86225e-23
2.27815e-22
2.29835e-22
1.78238e-22
1.23951e-25
2.64052e-26
7.12947e-27
6.9872e-22
2.37791e-23
5.92771e-23
4.34313e-22
4.49859e-22
1.79832e-22
1.24961e-25
3.0438e-26
2.71537e-26
1.51292e-20
6.50385e-21
1.38098e-21
4.58288e-21
6.57495e-22
1.80275e-22
6.26429e-26
3.1306e-26
1.63999e-26
7.36085e-21
5.0221e-21
1.29904e-21
3.40952e-21
9.05266e-22
1.80585e-22
3.38937e-26
1.72791e-26
8.62614e-27
4.72915e-21
1.97285e-21
1.05044e-21
3.2532e-21
1.07215e-21
1.82097e-22
1.11553e-26
3.5093e-27
2.69726e-27
3.06144e-21
9.93773e-22
4.80393e-22
2.98973e-21
9.60929e-22
1.37352e-22
)
;

boundaryField
{
    fuel
    {
        type            fixedValue;
        value           uniform 0;
    }
    primary_air
    {
        type            fixedValue;
        value           uniform 0.23;
    }
    Secondary_air_RHS
    {
        type            fixedValue;
        value           uniform 0.23;
    }
    Secondary_air_LHS
    {
        type            fixedValue;
        value           uniform 0.23;
    }
    outlet
    {
        type            inletOutlet;
        inletValue      uniform 0;
        value           nonuniform List<scalar> 
18
(
0
3.06144e-21
0
0
9.93773e-22
0
0
4.80393e-22
0
0
4.05856e-23
0
0
9.82807e-23
0
0
3.34483e-22
0
)
;
    }
    stove_body
    {
        type            fixedValue;
        value           uniform 0;
    }
    frontAndBack
    {
        type            empty;
    }
}


// ************************************************************************* //
