/*--------------------------------*- C++ -*----------------------------------*\
  =========                 |
  \\      /  F ield         | OpenFOAM: The Open Source CFD Toolbox
   \\    /   O peration     | Website:  https://openfoam.org
    \\  /    A nd           | Version:  6
     \\/     M anipulation  |
\*---------------------------------------------------------------------------*/
FoamFile
{
    version     2.0;
    format      ascii;
    class       volScalarField;
    location    "4";
    object      O2;
}
// * * * * * * * * * * * * * * * * * * * * * * * * * * * * * * * * * * * * * //

dimensions      [0 0 0 0 0 0 0];

internalField   nonuniform List<scalar> 
297
(
0
0
0
0
0
0
0
0
0
0
0
0
0
0
0
0
0
0
0
0
0
0
0
0
0
0
0
0.0294797
0.0762431
0.0464952
0.092439
0.137981
0.114197
0.0295121
0.0763217
0.0465279
0
0.0131259
0
0.0156073
0.0652039
0.030636
0
0.0131497
0
0
0.0100997
0
0.0113563
0.0157884
0.0135471
0
0.0101184
0
0.00204552
0.00609404
0.0020453
0
0.000812348
0
0.00205018
0.00610552
0.0020505
0
2.04496e-08
0
0
0
0
0
2.04889e-08
0
2.30546e-14
7.80098e-14
0
0
0
0
8.69042e-15
7.82608e-14
0
0
0.0101003
0
0
0.000842874
0
0
0.0101153
0
0
0.0100515
0
0
0.000812394
0
0
0.0100859
0
0
0.00998596
0
0
0.000812577
0
0
0.00998884
0
5.0222e-19
2.37995e-18
0
0
3.289e-20
0
1.36589e-19
2.33397e-18
0
6.74964e-23
4.67219e-22
2.89576e-24
6.14412e-24
1.86256e-22
4.42458e-24
1.99438e-23
4.47087e-22
1.74614e-23
2.5928e-23
4.70993e-22
2.47509e-23
6.15193e-24
2.71113e-22
4.38779e-24
2.24775e-23
4.50218e-22
2.23557e-23
0
3.89297e-34
8.86023e-38
0
2.40419e-31
4.73493e-36
0
0
2.55415e-37
6.30787e-29
1.14581e-32
8.34248e-37
7.07268e-29
8.49124e-32
2.36504e-36
1.91682e-28
1.59933e-32
8.37506e-37
1.60489e-27
6.75595e-32
1.52711e-36
1.32622e-28
9.61513e-33
9.42784e-37
1.4537e-27
6.14488e-32
1.40266e-36
7.82969e-34
7.47522e-29
6.42314e-24
1.35269e-34
7.86358e-30
0
4.34963e-34
2.05701e-29
1.75662e-24
1.71703e-36
4.90728e-32
1.55816e-27
1.62392e-35
4.99129e-31
6.44977e-29
1.56516e-36
3.14121e-32
5.00145e-28
1.86733e-36
7.40596e-32
1.72598e-27
2.98802e-36
1.98074e-32
1.82978e-28
2.46266e-36
1.0164e-31
1.49704e-27
3.23727e-47
1.18948e-42
2.36025e-38
4.72584e-47
3.96672e-43
3.87056e-39
4.80335e-47
6.73094e-43
1.32212e-38
1.8959e-49
2.72476e-45
5.3018e-41
9.24697e-49
5.8612e-45
2.49356e-40
6.88069e-49
2.85516e-45
6.87221e-41
2.59971e-49
9.62548e-46
3.76217e-41
7.25419e-49
1.43831e-45
6.29481e-41
8.38036e-49
9.82659e-46
4.75657e-41
3.85907e-49
2.33796e-48
1.31887e-46
6.868e-49
8.79702e-47
8.84923e-46
8.14424e-49
7.615e-48
2.81412e-46
7.45564e-53
7.35782e-52
4.80401e-51
8.68815e-48
8.65254e-47
5.61827e-46
6.38966e-53
9.7169e-52
4.34455e-51
2.3424e-53
2.29023e-52
1.34673e-51
4.17451e-48
4.0125e-47
2.41459e-46
2.34179e-53
2.28997e-52
1.34691e-51
8.30458e-42
1.02781e-45
4.99298e-49
1.20331e-40
5.17809e-45
1.35402e-48
2.29638e-41
1.09067e-45
8.61117e-49
3.66488e-41
2.05686e-45
5.24026e-49
5.39405e-41
1.79681e-45
7.02111e-49
3.71828e-41
1.87727e-45
7.36321e-49
3.08689e-41
8.00346e-46
4.54954e-49
2.14686e-41
5.20909e-46
6.19151e-49
2.71198e-41
5.5506e-46
6.87002e-49
1.42048e-46
2.51046e-48
4.15621e-49
3.65333e-46
3.96386e-47
5.96266e-49
1.57887e-46
6.35762e-48
6.75698e-49
1.53996e-51
3.35102e-52
2.09463e-53
2.3059e-46
3.90866e-47
3.23861e-48
1.84349e-51
2.90374e-52
2.4603e-53
5.5272e-52
1.03306e-52
8.83686e-54
9.90882e-47
1.81601e-47
1.57762e-48
5.52808e-52
1.03385e-52
8.74173e-54
)
;

boundaryField
{
    fuel
    {
        type            fixedValue;
        value           uniform 0;
    }
    primary_air
    {
        type            fixedValue;
        value           uniform 0.23;
    }
    Secondary_air_RHS
    {
        type            fixedValue;
        value           uniform 0.23;
    }
    Secondary_air_LHS
    {
        type            fixedValue;
        value           uniform 0.23;
    }
    outlet
    {
        type            inletOutlet;
        inletValue      uniform 0;
        value           nonuniform List<scalar> 
18
(
0
9.90882e-47
0
0
1.81601e-47
0
0
1.57762e-48
0
0
4.17451e-48
0
0
4.0125e-47
0
0
2.41459e-46
0
)
;
    }
    stove_body
    {
        type            fixedValue;
        value           uniform 0;
    }
    frontAndBack
    {
        type            empty;
    }
}


// ************************************************************************* //
