/*--------------------------------*- C++ -*----------------------------------*\
  =========                 |
  \\      /  F ield         | OpenFOAM: The Open Source CFD Toolbox
   \\    /   O peration     | Website:  https://openfoam.org
    \\  /    A nd           | Version:  6
     \\/     M anipulation  |
\*---------------------------------------------------------------------------*/
FoamFile
{
    version     2.0;
    format      ascii;
    class       volScalarField;
    location    "4";
    object      p;
}
// * * * * * * * * * * * * * * * * * * * * * * * * * * * * * * * * * * * * * //

dimensions      [1 -1 -2 0 0 0 0];

internalField   nonuniform List<scalar> 
297
(
115624
115624
115624
192429
192429
192429
115624
115624
115624
115624
115624
115624
192429
192429
192429
115624
115624
115624
115624
115624
115624
192429
192429
192429
115624
115624
115624
96774.7
96790.9
96777.7
160652
160713
160715
96769.7
96785.9
96773.9
97096.6
96578.6
96922.2
160544
160959
160494
97104.3
96592.3
96929.9
93497.8
93591.1
93849
150296
155910
150746
93527.4
93595.3
93874.4
90165.3
93423.9
89756.8
153941
153687
153423
90162.7
93384.4
89759.4
95789.1
96185.7
95617
159716
159201
159762
95787.1
96172
95616.8
95756.3
96182.6
95674.3
159082
159775
159431
95766.4
96188.8
95685.2
70222.8
91485.5
71101.3
115527
148670
116035
70212.3
91395.9
71090.5
68730.7
91351.7
69577.3
111504
148062
111926
68714.5
91233.8
69562
71049.5
91497
71742.2
114316
148364
114603
71028.7
91358.6
71723
96550.8
96702.7
96532.4
160155
160390
160200
96548.2
96698.8
96530
96676.9
96703.2
96656.2
160476
160525
160480
96671.5
96697.3
96650.9
96679.4
96690.9
96660.2
160625
160592
160610
96672.6
96683.8
96653.6
96818.6
97051.8
97621.8
160433
160557
160813
96811.1
97043.7
97612.2
96683.8
96752.9
97145.3
160484
160492
160560
96676.6
96746.1
97138.6
96558
96414.4
96333.5
160613
160527
160403
96551.2
96409.2
96330.8
97627.2
97066
96835.3
160842
160583
160445
97618.6
97058.1
96827.7
97158.7
96772.8
96703.9
160593
160521
160505
97152.3
96765.8
96696.5
96360.5
96439.4
96579.9
160438
160558
160638
96357.2
96433.5
96572.5
98870.3
98640.1
98225.8
161863
161673
161291
98853.5
98625.9
98214.9
98552.6
98280.8
97833
161495
161302
160936
98539.5
98270.5
97825.2
98147.6
97863.2
97333.2
161022
160787
160520
98137.9
97856.1
97328.3
96167.2
96071.8
95900.1
158808
158690
158581
96170.5
96075.5
95904.2
90198.5
90238.9
90293.1
149014
149013
149010
90203.4
90243.2
90297.3
82814.1
82815.1
82817.4
132613
132609
132598
82817.6
82818.5
82820.8
98230.7
98651.5
98885.8
161267
161656
161849
98217.8
98635.2
98866.4
97831.1
98285.8
98561.9
160906
161278
161475
97821.6
98273.6
98546.5
97321.7
97860.1
98149
160482
160752
160993
97315.4
97851
98137.1
95863.6
96037.1
96133.8
158512
158621
158741
95867.4
96040.4
96136.7
90228.7
90174.1
90132.8
148901
148904
148905
90234
90179.4
90138.9
82748.2
82745.8
82744.8
132494
132506
132511
82752.4
82750.1
82749.1
)
;

boundaryField
{
    fuel
    {
        type            zeroGradient;
    }
    primary_air
    {
        type            zeroGradient;
    }
    Secondary_air_RHS
    {
        type            zeroGradient;
    }
    Secondary_air_LHS
    {
        type            zeroGradient;
    }
    outlet
    {
        type            totalPressure;
        rho             rho;
        psi             none;
        gamma           1;
        p0              uniform 100000;
        value           nonuniform List<scalar> 
18
(
86328.1
100000
86333.4
86278.4
100000
86283.7
86264
100000
86270
86333.2
100000
86338.1
86346.7
100000
86351.1
86396.1
100000
86400.4
)
;
    }
    stove_body
    {
        type            zeroGradient;
    }
    frontAndBack
    {
        type            empty;
    }
}


// ************************************************************************* //
