/*--------------------------------*- C++ -*----------------------------------*\
  =========                 |
  \\      /  F ield         | OpenFOAM: The Open Source CFD Toolbox
   \\    /   O peration     | Website:  https://openfoam.org
    \\  /    A nd           | Version:  6
     \\/     M anipulation  |
\*---------------------------------------------------------------------------*/
FoamFile
{
    version     2.0;
    format      ascii;
    class       surfaceScalarField;
    location    "4";
    object      phi;
}
// * * * * * * * * * * * * * * * * * * * * * * * * * * * * * * * * * * * * * //

dimensions      [1 0 -1 0 0 0 0];

internalField   nonuniform List<scalar> 
675
(
-7.84629e-07
-4.37888e-05
0.000167009
-5.79155e-07
-4.38892e-05
0.000166115
-4.39568e-05
0.000165805
-3.73315e-06
4.37888e-05
0.000119931
4.85885e-06
4.38891e-05
0.000107399
4.39567e-05
0.000120707
-7.84089e-07
0.000167008
-5.78742e-07
0.000166115
0.000165806
1.69635e-06
-7.18185e-05
0.000237132
-2.33261e-06
-7.84068e-05
0.000248549
-7.27364e-05
0.000236202
1.08998e-05
7.18197e-05
-3.45981e-05
-3.14149e-06
7.84067e-05
-3.53718e-05
7.27354e-05
-2.79116e-05
1.6971e-06
0.000237132
-2.33196e-06
0.000248549
0.000236202
4.76137e-06
0.000109947
-6.87554e-06
0.000137757
0.000106896
-1.84671e-05
-0.000109946
1.79198e-05
-0.000137757
-0.000106898
4.76308e-06
-6.87399e-06
0.0129887
0.0118529
-0.0216565
-0.00225394
0.0125594
0.00583785
0.0134977
-0.0125696
0.00907902
-0.01184
0.0198953
-0.00320759
-0.0125438
0.0426744
-0.0134833
0.0290637
0.012974
-0.0216084
-0.0022624
0.00587015
-0.0125393
0.0394668
0.0285769
-0.0897185
-0.0368893
-0.0129891
0.0951205
0.0290718
-0.0785747
0.0168378
-0.0285298
0.0602787
-0.0207626
0.0130234
0.0544135
-0.0290262
0.0665185
0.0394233
-0.089742
-0.0368762
0.095049
-0.0786217
0.00709857
0.06639
-0.163177
-0.00701086
0.00268485
0.106203
0.069618
-0.155181
-0.120083
-0.0664381
0.312673
0.117544
-0.00288709
-0.177292
-0.069667
0.322845
0.0068628
-0.162903
-0.00678683
0.106643
-0.154927
-0.066215
-0.0745318
-0.05241
0.193079
0.0638217
0.0143107
-0.0556951
-0.0886417
-0.0763503
-0.0457742
0.185929
0.00970274
0.0745836
0.0971969
-0.255881
0.00541965
-0.0141036
-0.176354
0.20895
0.0763967
0.120251
-0.267489
-0.0660009
-0.0524507
0.192697
0.0636497
-0.0557911
-0.0882339
-0.0458375
0.185548
0.00591732
-0.0281647
-0.0301644
-0.0206718
0.0106434
-0.0398533
-0.0406933
-0.0257345
0.0604577
0.0281307
-0.0195174
-0.0471143
-0.010651
-0.0478238
0.0406046
-0.00816728
0.00599845
-0.0300614
-0.020686
-0.0397662
-0.0256807
-0.00944318
0.00370425
-0.0243708
-0.0228236
-0.000473347
-0.025994
-0.0234574
-0.0250517
0.0284737
-0.00366501
-0.0406659
0.0197717
0.000522703
-0.0402746
0.0233698
-0.0352852
-0.00937431
-0.0243129
-0.0227066
-0.0259232
-0.0249727
-0.0023163
-0.00163783
-0.173081
0.00236581
0.000417833
0.101228
-0.00154363
-0.165307
-0.00714647
0.00163854
0.293821
0.00757683
-0.000415283
-0.190893
0.00154417
0.304514
-0.00231185
-0.172797
0.00235966
0.10143
-0.165042
-0.00221791
-0.000614782
-0.183819
0.00219217
-0.000597254
0.0976105
-0.000520015
-0.176334
-0.00319988
0.000615731
0.273855
0.00355723
0.000589429
-0.198707
0.00052079
0.285004
-0.0022206
-0.183507
0.00219599
0.0975232
-0.176027
-0.00521994
0.000441728
0.00511666
-0.00114469
0.000536296
-0.0036709
-0.000436764
0.00399114
0.00113913
-0.000531154
-0.00524927
0.00514581
0.00915727
-0.0020848
-0.0106523
-0.0207822
-0.00870247
-0.00146365
-0.0066582
-0.00241795
-0.0103852
-0.0209401
0.00876129
0.00209319
-0.0269029
-0.0267081
-0.0116415
0.00147804
-0.0228247
0.00242131
-0.0251596
-0.0266102
0.00912841
-0.0106453
-0.020705
-0.0086646
-0.00665535
-0.0103651
-0.0208492
0.0051708
0.000202153
-0.00157215
-0.0144447
-0.00620673
0.00176295
0.00297106
-7.23515e-05
-0.00189965
-0.0146101
0.00515663
-0.000182687
-0.0123915
-0.0192879
-0.00515599
-0.00174634
-0.00900917
8.46083e-05
-0.0110839
-0.0193903
0.00515969
-0.00158043
-0.0144113
-0.00618655
0.00294054
-0.0019002
-0.0145665
-0.000184363
0.00176153
-0.0031408
0.00018394
0.00261821
0.00159085
-0.00329653
0.00137169
-0.00173942
-0.0102663
-0.00242247
-0.0026009
-0.00157225
-0.0103428
-0.00016495
-0.0031599
0.000170007
-0.00330271
-0.0190291
-0.000619529
-0.00129119
-0.019667
0.00222352
-0.00158752
0.00269044
-0.00682851
-0.0155322
-0.0257138
0.000621414
-0.00213828
-0.0226178
-0.00221467
0.00134143
-0.00268028
0.00314211
-0.0203885
-0.0189414
-0.00128715
-0.0195751
-0.00158184
-0.00681147
-0.0154446
-0.0145176
-0.000697351
-0.000686887
-0.0146831
0.00149175
-0.00291632
0.000196945
-0.00762678
-0.0140837
-0.0215485
0.000699757
-0.00137721
-0.017824
-0.00148552
0.000595158
-0.000192033
0.00394505
-0.0182363
-0.0144742
-0.000680381
-0.0146402
-0.00290227
-0.00761158
-0.0140328
-0.00410947
0.0001262
-0.00671314
-0.000314017
-0.00211068
-0.0122314
-0.0114723
-0.000121485
-0.0115039
0.000312438
0.00210938
-0.0117782
-0.00410528
-0.006696
-0.0121989
0.0194925
0.00267279
-0.00677395
-0.0153934
0.0188715
0.00222282
-0.00160366
-0.000587353
-0.00132386
0.0224553
-0.00266377
0.00308973
-0.0202072
0.0255499
-0.00221417
0.00134203
0.0005905
-0.00233746
0.0194162
-0.00676337
-0.0153167
0.0187965
-0.0015956
-0.00131979
0.0145693
0.000194293
-0.0075596
-0.01398
0.0144077
0.0015016
-0.00294549
-0.000656574
-0.000704779
0.0176991
-0.000187157
0.00387994
-0.0181068
0.0214532
-0.00149453
0.000583689
0.000662627
-0.00149263
0.0145355
-0.00755039
-0.0139358
0.0143742
-0.00293006
-0.000696073
0.00667613
-0.00209253
-0.0121453
0.00400499
-0.000276121
0.000159093
0.0114174
0.00209248
-0.0117215
0.0114485
0.000276052
-0.000152616
0.00666572
-0.0121239
0.00401047
0.00672144
0.00221328
-0.0089351
0.0103894
0.00195384
-0.0056225
0.00228345
-0.00728857
0.00946688
-0.00220022
-0.00504997
0.0153035
-0.00194251
-0.00193733
-0.00227168
-0.000346502
0.00666653
-0.00886503
0.0103198
-0.0055944
-0.00726772
0.00500866
0.00192211
-0.0158662
0.0093181
0.0017784
-0.0117109
0.00122698
-0.0131784
0.00710816
-0.00191206
-0.00832083
0.0134356
-0.00177095
-0.00471274
-0.00121687
-0.00257185
0.0049772
-0.0157528
0.00928118
-0.0116682
-0.0131385
0.00603901
0.00413418
-0.0260395
0.00659778
0.00205579
-0.0143259
0.000849941
-0.0195769
0.00777184
-0.00411525
-0.00784061
0.0124346
-0.0020569
-0.00526057
-0.00084921
-0.000158012
0.00599607
-0.0258627
0.00657656
-0.0143045
-0.0195344
-0.00730741
0.0131298
-0.0318633
-0.00121988
0.0110565
-0.0314716
0.010792
-0.0315906
0.00178115
-0.0131299
0.0166388
-0.00243308
-0.0110952
0.0211062
-0.0108157
0.0190171
-0.00722118
-0.0317747
-0.0011827
-0.0314416
-0.0315363
0.000163344
0.0056064
-0.0376321
0.000700693
0.00568936
-0.0376974
0.00630248
-0.0371915
-0.00296398
-0.00564596
0.0308546
-0.0019164
-0.00572898
0.0314764
-0.00633653
0.0297392
0.000186466
-0.0376072
0.000697412
-0.0376816
-0.0371755
-9.92527e-05
0.0176726
-0.000266162
0.0176535
0.0176458
-0.000458589
-0.0176845
0.000203822
-0.0176652
-0.0176573
-9.4085e-05
-0.000263799
-0.0104793
0.00229558
-0.00735122
-0.0067842
0.00196247
-0.00565974
0.0022324
-0.00901711
-0.0154459
-0.00228242
-0.000362267
-0.00956245
-0.0019501
-0.00196744
-0.00221834
-0.00510925
-0.010404
-0.00732305
-0.00672302
-0.00563072
-0.0089408
-0.00938669
0.00123618
-0.0132849
-0.0050523
0.00179226
-0.0117843
0.00193872
-0.0160081
-0.0135545
-0.0012288
-0.00257775
-0.00717582
-0.00178508
-0.00476925
-0.00192788
-0.00841647
-0.00934783
-0.0132368
-0.00501713
-0.0117461
-0.0158852
-0.00664197
0.000847483
-0.0197228
-0.00608809
0.00207361
-0.0144121
0.00416455
-0.0262612
-0.0125585
-0.000848074
-0.000100702
-0.00784546
-0.00207482
-0.00533225
-0.00414269
-0.00795245
-0.00661935
-0.0196643
-0.0060409
-0.014399
-0.0260681
0.00122711
0.0108128
-0.0317652
0.00736277
0.0110886
-0.0316387
0.0131964
-0.0320965
0.00246803
-0.0108345
0.0190805
-0.001795
-0.0111279
0.0211493
-0.0131894
0.0166405
0.0011962
-0.0316975
0.00727798
-0.031611
-0.0319817
-0.000692998
0.00628158
-0.0373531
-0.000136159
0.00566424
-0.0378591
0.00558015
-0.0378121
0.00199031
-0.00632373
0.0296956
0.00307109
-0.00571339
0.0314449
-0.00562775
0.0309195
-0.000687794
-0.0373334
-0.000171703
-0.0378403
-0.037781
0.000269809
0.017596
0.000106303
0.017604
0.0176167
-0.000235737
-0.01761
0.0003891
-0.0176182
-0.0176311
0.000266958
9.94137e-05
)
;

boundaryField
{
    fuel
    {
        type            calculated;
        value           nonuniform List<scalar> 
36
(
0.000122439
0.000203771
0.000122439
0.000122439
0.000203771
0.000122439
0.000122439
0.000203771
0.000122439
-0.000122439
-0.000203771
-0.000122439
-0.000122439
-0.000203771
-0.000122439
-0.000122439
-0.000203771
-0.000122439
0
0
0
0
0
0
0
0
0
0
0
0
0
0
0
0
0
0
)
;
    }
    primary_air
    {
        type            calculated;
        value           nonuniform List<scalar> 9(-0.00318233 -0.00528288 -0.00318217 -0.00318286 -0.00528486 -0.0031827 -0.00318243 -0.00528494 -0.00318231);
    }
    Secondary_air_RHS
    {
        type            calculated;
        value           nonuniform List<scalar> 9(0.0140285 0.0228941 0.0140264 0.0137279 0.0220833 0.0137248 0.014155 0.0226115 0.0141512);
    }
    Secondary_air_LHS
    {
        type            calculated;
        value           nonuniform List<scalar> 9(0.0138552 0.0227938 0.0138531 0.0135608 0.0220002 0.0135576 0.0140183 0.022555 0.0140142);
    }
    outlet
    {
        type            calculated;
        value           nonuniform List<scalar> 
18
(
-0.0552186
0.0651361
-0.0552097
-0.0552993
0.0660427
-0.0552904
-0.0553221
0.0665552
-0.0553121
-0.0552053
0.0666703
-0.055197
-0.0551838
0.0661327
-0.0551764
-0.0551033
0.0652462
-0.055096
)
;
    }
    stove_body
    {
        type            calculated;
        value           uniform 0;
    }
    frontAndBack
    {
        type            empty;
        value           nonuniform 0();
    }
}


// ************************************************************************* //
