/*--------------------------------*- C++ -*----------------------------------*\
  =========                 |
  \\      /  F ield         | OpenFOAM: The Open Source CFD Toolbox
   \\    /   O peration     | Website:  https://openfoam.org
    \\  /    A nd           | Version:  6
     \\/     M anipulation  |
\*---------------------------------------------------------------------------*/
FoamFile
{
    version     2.0;
    format      ascii;
    class       volVectorField;
    location    "4";
    object      U;
}
// * * * * * * * * * * * * * * * * * * * * * * * * * * * * * * * * * * * * * //

dimensions      [0 1 -1 0 0 0 0];

internalField   nonuniform List<vector> 
297
(
(35.5151 -0.0208072 0.288854)
(35.5148 -0.00386649 0.299166)
(35.5151 0.0195997 0.289899)
(5.5413e-09 0.0165027 0.297547)
(2.87053e-09 0.00225307 0.318298)
(3.82047e-10 -0.0148853 0.304329)
(-35.5151 -0.0208066 0.288851)
(-35.5148 -0.00386505 0.299166)
(-35.5151 0.0196002 0.2899)
(35.5284 -0.00197253 0.304842)
(35.5213 -2.57744e-05 0.311634)
(35.53 -0.000880067 0.303338)
(3.58763e-09 0.0832284 -0.232653)
(9.36937e-10 0.0181453 -0.327944)
(-1.54853e-09 -0.0798939 -0.239546)
(-35.5284 -0.00197038 0.304844)
(-35.5213 -2.22157e-05 0.311634)
(-35.53 -0.000878157 0.303337)
(35.5666 -0.00283017 0.548721)
(35.5373 -0.00406013 0.563264)
(35.5724 -0.00760673 0.544972)
(1.24012e-09 0.0337542 0.447645)
(-6.16454e-10 0.0024452 0.499482)
(-2.45067e-09 -0.0591141 0.464389)
(-35.5666 -0.00282366 0.548719)
(-35.5373 -0.0040504 0.563264)
(-35.5724 -0.00760121 0.544973)
(21.7824 9.20602 1.28774)
(22.0245 5.39885 6.91431)
(21.6441 -9.28511 8.51085)
(-0.00026103 5.46947 2.04461)
(-0.000263482 2.70136 1.61328)
(-0.000197083 -5.95775 4.61163)
(-21.7933 9.20552 1.31702)
(-22.0332 5.39156 6.92808)
(-21.6507 -9.28716 8.53234)
(21.5728 11.1538 9.20004)
(21.6116 2.43424 37.8192)
(21.3069 -12.3979 16.0945)
(0.000388264 23.2287 72.0391)
(0.00069457 0.0196143 68.1882)
(0.000384437 -26.2327 75.7565)
(-21.5845 11.1464 9.20797)
(-21.6195 2.4247 37.8143)
(-21.3144 -12.3977 16.0886)
(21.0274 -0.626035 -17.579)
(21.6185 3.87086 57.6047)
(20.7421 -1.32486 -0.937221)
(0.00158104 -20.3836 110.849)
(0.000228812 0.665236 -9.277)
(0.00133362 17.9749 114.876)
(-21.0368 -0.700362 -17.5578)
(-21.6194 3.86378 57.7353)
(-20.7478 -1.25465 -0.937548)
(21.7452 -16.5794 -120.185)
(21.9828 -3.87452 -8.02286)
(21.6193 19.0834 -111.305)
(-0.000133604 -3.56092 2.34062)
(-0.00219173 3.77865 -77.3149)
(0.000133654 1.54014 14.7706)
(-21.755 -16.5375 -120.197)
(-22.0039 -3.85261 -8.04749)
(-21.6259 19.039 -111.305)
(22.9341 36.8062 -81.6478)
(23.3726 -13.432 -72.6836)
(22.3726 -28.5726 -73.2753)
(-0.000103576 16.9376 -44.6685)
(-0.000734194 1.2451 -58.1206)
(-8.70323e-06 -11.064 -29.6439)
(-22.9531 36.8025 -81.6706)
(-23.3976 -13.3805 -72.7505)
(-22.3816 -28.5949 -73.301)
(24.3481 27.9492 -26.6088)
(24.3138 -17.145 -22.8269)
(24.3976 -32.9415 -26.3359)
(0.000586978 28.566 -27.8354)
(0.000351738 12.5155 -28.7214)
(0.000627019 -16.9885 -30.7962)
(-24.3877 27.9334 -26.573)
(-24.3476 -17.0624 -22.7924)
(-24.4211 -32.8755 -26.3031)
(15.5656 2.83513 -174.524)
(20.7901 -0.549474 78.3424)
(15.6174 -2.46967 -164.133)
(-0.000716952 -11.9537 155.871)
(-0.00438349 2.93733 -95.73)
(-0.000726347 9.44898 159.255)
(-15.5778 2.94155 -174.361)
(-20.7933 -0.565015 78.5996)
(-15.6262 -2.57197 -163.95)
(16.505 -2.48487 -178.041)
(18.6383 -0.944195 77.7891)
(16.6031 3.53226 -167.912)
(-0.000917262 -6.28422 173.661)
(-0.00572201 3.04939 -98.6209)
(-0.000848433 3.68244 176.845)
(-16.515 -2.37003 -177.883)
(-18.6443 -0.941683 78.0266)
(-16.6101 3.4181 -167.729)
(20.5498 -8.34863 -161.664)
(18.7946 -1.28049 75.4207)
(20.3357 10.1812 -152.046)
(-0.00107636 -0.829995 169.992)
(-0.00767665 3.15318 -99.0501)
(-0.000967917 -1.71806 173.432)
(-20.5492 -8.2441 -161.526)
(-18.8332 -1.27674 75.448)
(-20.3295 10.0743 -151.88)
(23.9681 55.8663 -14.3085)
(24.1486 1.39799 -15.7008)
(23.9745 -56.2299 -14.614)
(-0.000149405 39.4707 -16.3473)
(-0.000217213 -4.21214 -16.4542)
(-0.000134925 -40.3502 -13.9839)
(-24.0114 55.7727 -14.2977)
(-24.1922 1.41348 -15.689)
(-24.0217 -56.1111 -14.585)
(24.279 35.6224 -4.43601)
(24.3774 -2.96682 -1.31573)
(24.3019 -35.9409 -4.48886)
(-0.000310433 20.8796 -8.4335)
(-0.000339702 0.887019 -7.19711)
(-0.000300534 -22.0555 -8.02782)
(-24.3157 35.5736 -4.45345)
(-24.4141 -2.95112 -1.33487)
(-24.3376 -35.8752 -4.51227)
(24.4254 -3.96302 -5.00373)
(24.4275 -0.682332 3.40537)
(24.4211 4.4268 -5.25253)
(-0.000392999 5.98558 -5.64744)
(-0.00040494 -1.69381 -1.93408)
(-0.000375135 -6.23504 -4.63281)
(-24.4515 -3.8696 -5.01634)
(-24.4638 -0.67841 3.37508)
(-24.4546 4.35545 -5.23676)
(23.9399 -58.9049 -5.968)
(24.2373 -53.411 -9.35343)
(24.1489 -45.6765 -12.7051)
(-0.000426756 -45.6991 -5.53602)
(-0.000466824 -43.7323 -5.09506)
(-0.000542856 -36.5504 -5.22452)
(-23.9957 -58.7847 -5.93204)
(-24.298 -53.28 -9.31151)
(-24.2111 -45.5458 -12.6637)
(24.1649 -43.9501 -2.73073)
(24.3638 -45.4799 -10.99)
(24.0371 -38.4525 -20.4623)
(-0.000407713 -37.0792 -0.422426)
(-0.000388752 -37.4479 1.51169)
(-0.000389036 -31.4258 3.68135)
(-24.203 -43.8994 -2.75332)
(-24.4019 -45.3978 -10.9975)
(-24.076 -38.3876 -20.461)
(24.4592 -8.54912 -5.13972)
(24.4608 -24.1421 -18.4426)
(24.067 -33.0418 -29.1319)
(-0.000387725 -19.4136 2.00527)
(-0.00029771 -20.6059 4.4268)
(-0.000152052 -22.7366 4.35037)
(-24.4925 -8.58109 -5.09211)
(-24.4944 -24.1137 -18.3812)
(-24.1017 -32.9943 -29.0916)
(24.1479 45.2859 -12.6062)
(24.2361 52.9249 -9.27623)
(23.9396 58.4247 -5.94833)
(-0.000484748 36.4251 -5.22955)
(-0.000449352 43.2327 -5.0288)
(-0.000427238 45.7919 -5.59057)
(-24.208 45.1849 -12.5806)
(-24.2948 52.8267 -9.24431)
(-23.9951 58.3398 -5.92085)
(24.0331 38.1046 -20.281)
(24.3533 45.1809 -10.9307)
(24.1567 43.4672 -2.79421)
(-0.00036086 31.2078 3.59081)
(-0.000398069 37.2117 1.59549)
(-0.000420588 36.9932 -0.634701)
(-24.0738 38.0579 -20.29)
(-24.394 45.1318 -10.935)
(-24.1944 43.448 -2.8073)
(24.0729 32.7671 -28.8602)
(24.4633 24.0596 -18.5243)
(24.4605 7.95034 -5.1751)
(-0.000188444 22.5754 4.29441)
(-0.000336117 20.5437 4.32968)
(-0.000418569 19.3467 1.91641)
(-24.0993 32.7393 -28.8389)
(-24.4892 24.051 -18.4685)
(-24.4861 8.0191 -5.12987)
(23.961 14.1648 -22.1522)
(23.9736 21.0828 -15.2148)
(24.0673 32.8264 -17.8003)
(-0.000954395 13.6046 -11.1516)
(-0.000800481 18.3167 -6.14056)
(-0.00061801 27.804 -6.44406)
(-24.0644 14.122 -22.0446)
(-24.0558 21.0322 -15.1322)
(-24.1355 32.726 -17.746)
(24.0302 5.55494 -34.0248)
(24.0619 18.2786 -24.1278)
(23.9761 31.6355 -30.5157)
(-0.000743787 9.24996 -10.3707)
(-0.000581735 14.3991 -5.11019)
(-0.00044628 25.3972 -3.15778)
(-24.1125 5.5729 -33.8754)
(-24.1192 18.2612 -24.0729)
(-24.0243 31.5871 -30.4847)
(24.3788 4.6757 -42.5402)
(24.1283 20.2083 -37.7429)
(24.0249 18.4152 -46.9677)
(-0.000547456 7.47249 -16.4473)
(-0.000405381 15.1057 -11.4747)
(-0.000281292 20.6885 -0.630605)
(-24.4499 4.69025 -42.3797)
(-24.1593 20.1872 -37.6987)
(-24.056 18.3952 -46.9052)
(24.2802 -5.69903 -67.9182)
(24.28 -4.43135 -63.1773)
(24.291 -10.1877 -67.419)
(0.000195989 -6.33322 4.52675)
(0.000214887 1.59716 17.7082)
(0.000238415 -7.75259 14.7173)
(-24.3309 -5.63016 -67.7627)
(-24.2822 -4.39765 -63.1694)
(-24.3198 -10.1904 -67.3119)
(23.8631 2.47478 -132.556)
(23.8516 -1.14896 -133.011)
(23.8432 4.59698 -131.739)
(0.000303266 -1.99814 64.3713)
(0.000265264 0.146778 66.7359)
(0.000259506 -1.82744 61.0458)
(-23.862 2.43958 -132.454)
(-23.8506 -1.13631 -132.961)
(-23.8423 4.59472 -131.679)
(22.6898 -0.0997333 -165.931)
(22.6922 -0.0191231 -165.836)
(22.6946 -0.1792 -165.488)
(0.000231489 -0.590622 171.904)
(0.000227824 0.321617 170.534)
(0.000225653 -0.507997 168.414)
(-22.6892 -0.0972025 -165.896)
(-22.6916 -0.0179755 -165.805)
(-22.6939 -0.178174 -165.458)
(24.0724 -33.124 -17.9452)
(23.9807 -21.2813 -15.3355)
(23.9724 -14.2871 -22.3621)
(-0.00072998 -28.1805 -6.4893)
(-0.000926037 -18.4942 -6.19666)
(-0.00109967 -13.7716 -11.2511)
(-24.1385 -32.9993 -17.8699)
(-24.0589 -21.2121 -15.2327)
(-24.069 -14.2321 -22.2247)
(23.9759 -31.8342 -30.7677)
(24.0771 -18.4799 -24.2897)
(24.041 -5.58668 -34.364)
(-0.000545284 -25.6269 -3.19797)
(-0.000694043 -14.5178 -5.166)
(-0.000875067 -9.32902 -10.5078)
(-24.0249 -31.7684 -30.7289)
(-24.1199 -18.439 -24.2339)
(-24.1117 -5.59964 -34.1816)
(24.0147 -18.5365 -47.3766)
(24.1375 -20.34 -38.0786)
(24.3942 -4.71239 -42.9763)
(-0.000361971 -20.9354 -0.628521)
(-0.000517829 -15.1842 -11.6513)
(-0.000673789 -7.55787 -16.6456)
(-24.0562 -18.51 -47.2937)
(-24.1627 -20.3035 -38.0417)
(-24.4545 -4.7205 -42.7866)
(24.2754 10.1973 -67.9492)
(24.2776 4.47273 -63.6533)
(24.2516 5.7818 -68.6066)
(0.000225084 7.68293 14.6907)
(0.000193185 -1.56134 17.6046)
(0.000166834 6.39041 3.90011)
(-24.3238 10.2022 -67.8206)
(-24.2861 4.44721 -63.6789)
(-24.3357 5.70864 -68.4189)
(23.8453 -4.58595 -132.296)
(23.8538 1.16467 -133.559)
(23.8653 -2.51843 -133.221)
(0.000328327 1.82833 61.1145)
(0.000329684 -0.0882366 66.8037)
(0.000371904 2.02584 64.7674)
(-23.8441 -4.58052 -132.224)
(-23.8526 1.14366 -133.505)
(-23.864 -2.47995 -133.092)
(22.6959 0.180954 -165.967)
(22.6936 0.0206252 -166.316)
(22.6915 0.103644 -166.417)
(0.000279154 0.497488 168.227)
(0.000281929 -0.332477 170.378)
(0.000287123 0.583716 171.658)
(-22.6951 0.179599 -165.929)
(-22.6928 0.0191842 -166.279)
(-22.6907 0.100462 -166.375)
)
;

boundaryField
{
    fuel
    {
        type            fixedValue;
        value           uniform (0 0 0.25);
    }
    primary_air
    {
        type            fixedValue;
        value           uniform (0 0 2.5);
    }
    Secondary_air_RHS
    {
        type            fixedValue;
        value           uniform (0 150 0);
    }
    Secondary_air_LHS
    {
        type            fixedValue;
        value           uniform (0 -150 0);
    }
    outlet
    {
        type            pressureInletOutletVelocity;
        value           nonuniform List<vector> 
18
(
(0 0 -165.967)
(0.000279154 0.497488 168.227)
(0 0 -165.929)
(0 0 -166.316)
(0.000281929 -0.332477 170.378)
(0 0 -166.279)
(0 0 -166.417)
(0.000287123 0.583716 171.658)
(0 0 -166.375)
(0 0 -165.931)
(0.000231489 -0.590622 171.904)
(0 0 -165.896)
(0 0 -165.836)
(0.000227824 0.321617 170.534)
(0 0 -165.805)
(0 0 -165.488)
(0.000225653 -0.507997 168.414)
(0 0 -165.458)
)
;
    }
    stove_body
    {
        type            noSlip;
    }
    frontAndBack
    {
        type            empty;
    }
}


// ************************************************************************* //
