/*--------------------------------*- C++ -*----------------------------------*\
  =========                 |
  \\      /  F ield         | OpenFOAM: The Open Source CFD Toolbox
   \\    /   O peration     | Website:  https://openfoam.org
    \\  /    A nd           | Version:  6
     \\/     M anipulation  |
\*---------------------------------------------------------------------------*/
FoamFile
{
    version     2.0;
    format      ascii;
    class       volScalarField;
    location    "1";
    object      O2;
}
// * * * * * * * * * * * * * * * * * * * * * * * * * * * * * * * * * * * * * //

dimensions      [0 0 0 0 0 0 0];

internalField   nonuniform List<scalar> 
297
(
0
0
0
0
0
0
0
0
0
0
0
0
0
0
0
0
0
0
0
0
0
0
0
0
0
0
0
0.0351483
0.0452121
0.0895978
0.0150661
0.0238668
0.0682554
0.0346325
0.0448006
0.0892786
0
0.0044384
0.0514091
0
5.00739e-05
0.0438912
0
0.0040113
0.0494264
0
0.000661304
0.0379704
0
0.000196171
0.039111
0
0.000668274
0.0360385
0
0
0
6.59535e-06
1.07877e-05
0
8.99144e-06
0
0
0
0
0
0
0
0
0
0
0
0
0
0
0
0
0
0
0
0
0
1.78461e-05
0.00544837
0
0.000193302
0.0197307
0
0.000250108
0.00768801
0
8.54771e-07
0
0
0.000187865
0
0
3.64331e-06
0
0
0
0
0
0.000167509
0
0
0
0
0
0
0
0
0
0
9.99003e-22
0
0
1.94756e-19
2.70328e-19
2.64795e-19
9.25928e-20
4.61114e-20
9.24695e-21
6.29172e-21
6.33759e-21
5.59278e-20
1.91597e-19
1.08834e-19
2.60396e-22
8.5372e-20
5.14465e-20
9.24721e-21
6.39141e-21
6.42034e-21
2.56349e-20
0
1.54761e-26
4.46975e-28
6.30887e-22
7.22347e-24
4.50598e-27
4.27642e-20
1.19211e-22
6.94403e-26
1.98059e-23
1.3785e-24
2.72244e-27
2.78436e-22
9.01864e-23
1.61605e-26
2.44963e-21
1.49798e-21
2.86658e-25
2.75025e-22
2.30326e-23
4.93802e-27
3.99899e-21
6.37948e-22
3.57827e-26
2.55281e-20
1.00316e-20
4.99042e-25
3.50389e-21
1.10108e-20
1.08937e-20
4.69343e-22
3.5191e-21
4.25299e-21
6.39399e-22
7.93678e-22
8.19408e-22
2.76976e-20
8.998e-20
6.64443e-20
9.80686e-21
3.27019e-20
5.33344e-20
2.13689e-21
2.72612e-21
6.29663e-21
1.88494e-19
1.91043e-19
1.85951e-19
7.2059e-20
8.37037e-20
9.07115e-20
2.17591e-20
1.50728e-20
6.3757e-21
3.61422e-25
3.68048e-25
8.31882e-22
1.05122e-23
6.6223e-23
2.05629e-22
5.80606e-23
6.93699e-22
7.06999e-22
2.80408e-25
2.58433e-25
1.51762e-21
5.03413e-22
3.65144e-22
6.80311e-22
2.47815e-22
1.50216e-21
1.50933e-21
3.13577e-25
1.77776e-25
2.25773e-21
5.48836e-21
2.10203e-20
4.51626e-20
4.20181e-22
2.12875e-21
1.89386e-20
9.6939e-26
7.64115e-26
1.75002e-25
5.0238e-21
1.09842e-20
2.03295e-20
6.08542e-22
5.17046e-21
1.35479e-20
2.229e-26
4.91094e-26
1.41425e-25
3.12318e-21
7.25972e-21
1.30022e-20
6.34024e-22
2.67605e-21
1.07968e-20
5.70594e-27
1.4356e-26
3.3773e-26
1.56163e-21
3.96738e-21
9.40097e-21
5.06047e-22
2.63915e-21
1.03013e-20
5.81938e-32
8.86124e-36
2.27967e-36
1.67391e-30
1.10607e-33
1.2432e-33
1.39089e-29
2.77952e-33
2.7792e-33
1.39839e-31
6.08664e-36
1.25472e-36
3.30573e-30
5.49178e-34
1.08915e-33
1.25131e-29
7.44113e-34
1.08466e-33
1.03381e-31
1.42966e-36
1.07774e-36
3.31124e-30
2.31673e-34
7.12601e-34
1.08529e-29
2.49126e-34
2.5462e-34
4.13607e-37
2.39164e-38
9.32129e-38
7.42858e-35
1.70671e-35
2.59641e-34
8.13246e-35
8.77016e-36
1.92855e-35
2.89265e-40
5.91402e-40
1.47407e-39
3.83613e-35
3.8966e-35
1.81691e-34
4.83703e-40
4.78438e-40
1.7909e-39
5.99922e-41
7.89614e-41
3.08872e-40
1.71187e-35
2.20143e-35
8.78812e-35
1.06394e-40
1.4055e-40
5.45854e-40
)
;

boundaryField
{
    fuel
    {
        type            fixedValue;
        value           uniform 0;
    }
    primary_air
    {
        type            fixedValue;
        value           uniform 0.23;
    }
    Secondary_air_RHS
    {
        type            fixedValue;
        value           uniform 0.23;
    }
    Secondary_air_LHS
    {
        type            fixedValue;
        value           uniform 0.23;
    }
    outlet
    {
        type            inletOutlet;
        inletValue      uniform 0;
        value           nonuniform List<scalar> 
18
(
0
1.71187e-35
0
0
2.20143e-35
0
0
8.78812e-35
0
0
1.56163e-21
0
0
3.96738e-21
0
0
9.40097e-21
0
)
;
    }
    stove_body
    {
        type            fixedValue;
        value           uniform 0;
    }
    frontAndBack
    {
        type            empty;
    }
}


// ************************************************************************* //
