/*--------------------------------*- C++ -*----------------------------------*\
  =========                 |
  \\      /  F ield         | OpenFOAM: The Open Source CFD Toolbox
   \\    /   O peration     | Website:  https://openfoam.org
    \\  /    A nd           | Version:  6
     \\/     M anipulation  |
\*---------------------------------------------------------------------------*/
FoamFile
{
    version     2.0;
    format      ascii;
    class       surfaceScalarField;
    location    "1";
    object      phi;
}
// * * * * * * * * * * * * * * * * * * * * * * * * * * * * * * * * * * * * * //

dimensions      [1 0 -1 0 0 0 0];

internalField   nonuniform List<scalar> 
675
(
1.62476e-06
5.09741e-06
0.000143617
-6.66473e-07
4.4954e-06
0.000146244
5.02034e-06
0.000144841
-9.50418e-06
-5.2349e-06
0.000196933
7.02693e-06
-4.62212e-06
0.000174156
-5.14506e-06
0.000194726
1.53007e-06
0.000143567
-5.82487e-07
0.000145951
0.0001448
1.52033e-06
-2.82641e-06
0.000165062
-5.52045e-07
1.56354e-05
0.000150371
-2.61789e-06
0.000167248
-1.33697e-05
2.67923e-06
0.000165442
7.87986e-06
-1.52575e-05
0.00015039
2.4785e-06
0.000158528
1.38019e-06
0.000165005
-4.30551e-07
0.000150218
0.000167196
-2.89944e-06
5.637e-05
1.04932e-05
1.97038e-05
6.64215e-05
1.90977e-05
-5.64715e-05
-3.18937e-05
-1.93019e-05
-6.65477e-05
-3.02958e-06
1.06374e-05
0.0295869
-0.0203159
-0.00647789
0.0309854
-0.00806385
0.0100573
0.00257868
0.0330472
0.0413271
0.0199451
-0.0766059
0.0456504
0.00752439
-0.014039
-0.00234305
0.0535682
0.0299394
-0.00604399
0.0329921
0.0102046
0.0325958
0.0321702
-0.0137583
-0.0252317
0.0218016
0.000321212
0.0191012
0.00861196
0.0462525
0.0413979
0.015039
-0.146846
0.0216984
-6.84456e-05
0.00384335
-0.0103255
0.0960157
0.0325165
-0.0247961
0.02207
0.0195249
0.0480367
0.0245597
0.00475536
-0.0514261
0.0321504
0.011948
0.00303464
0.016463
0.0599555
0.0337553
-0.00315092
-0.172751
0.0239457
-0.0116634
0.0342686
-0.019437
0.12622
0.0251674
-0.0577638
0.0272347
0.0017549
0.0604545
-0.0297069
0.0160551
-0.0706179
0.0751559
-0.0251194
-0.00503929
-0.0151834
0.0159459
-0.00249637
0.045724
-0.0600268
-0.0633534
-0.0218281
-0.0531516
0.157897
-0.0346062
0.00173702
-0.0142711
-0.019961
0.00335791
0.0519174
-0.0885979
-0.0299261
-0.0644293
0.07941
-0.0208031
-0.0191084
0.0165082
0.0426009
-0.0612045
-0.0203149
-0.0150411
-0.0293286
-0.0224057
-0.00534685
-0.00455447
0.00382935
0.0206622
-0.0409165
0.0139191
-0.0464077
-0.0401471
0.00460517
-0.0289304
-0.00311522
0.0142171
-0.0207449
-0.0289742
-0.0226343
-0.0140196
0.0148107
-0.018163
0.00538008
-0.0163556
-0.0167184
0.000688513
-0.00774645
0.00464274
-0.00186355
-0.0260406
0.00123283
-0.0164209
-0.0367544
-0.00304408
-0.0146489
-0.00515372
-0.0124289
-0.0153365
-0.0131247
-0.0196282
-0.0106834
-0.00778479
-0.00250364
4.31859e-05
-0.0552896
0.0034165
0.000685471
-0.00382851
-0.0101013
0.0684927
-0.00170136
-2.44767e-05
-0.181012
0.0043596
-0.000882018
0.0301527
0.0112651
0.104182
-0.00232551
-0.0619959
0.00410363
-0.00535074
0.0706166
-0.00274077
0.00025057
-0.0590709
0.000285037
0.000399884
-0.00760536
-0.001107
0.0645662
-0.00261433
-0.000272174
-0.187814
0.00222238
-0.000869713
0.0269712
0.000806199
0.097833
-0.00302522
-0.065553
0.000161991
-0.00926503
0.0660453
-0.00634608
0.0161391
-8.28394e-05
0.00174384
-0.00109435
-0.0104026
-0.0133477
0.000660677
-0.00189464
0.00102873
-0.00549815
-8.01284e-05
-0.00708743
-0.000457307
-0.0013786
-0.00765485
-0.0140209
-0.000707755
-9.99754e-05
-0.00067738
-0.00179457
-0.0134684
-0.0108273
0.00161812
-0.0075449
0.000209317
-0.0143985
-0.000757712
-0.0109558
-0.000225628
-0.0106624
-0.0164567
0.00502203
-0.000898411
-0.0156095
-0.00619848
-0.000194474
-0.00334668
-0.0107237
-0.00734465
0.00162988
0.0053024
-0.00120546
-0.0105904
0.00180199
0.00153497
0.000306977
-0.00160212
-0.0109455
-0.00410595
-0.00100569
-0.00255169
0.00214422
-0.00771039
-0.00211275
-0.00340706
-0.00225025
-0.00414861
-0.0115877
0.0083179
0.00182818
-0.0119452
0.000999658
0.00481424
0.0017501
-0.0065342
-0.00117475
0.00223246
0.00400316
-0.00184125
0.00251284
0.00116104
-0.00433104
-0.00297897
-0.00214998
0.00522874
-0.00206461
-0.00182404
-0.00218644
-0.00283315
-0.000157465
-7.9075e-06
0.00247539
0.00161909
-0.0128408
-0.000144091
-0.000494841
-0.0134867
0.00134267
-0.000727857
0.0011336
-0.00562051
-0.00904042
-0.0153069
-0.000216254
-0.00110002
-0.0125327
-0.00165848
0.000206811
-0.00191233
0.0011162
-0.0105939
-0.0101485
-0.000753321
-0.0102441
-0.00150626
-0.00519914
-0.00692476
-0.0107695
-0.000537318
-0.000122106
-0.0108642
0.000550368
-0.00120435
-0.000739418
-0.00640171
-0.00937926
-0.0122181
-0.000312829
-0.000730422
-0.0103367
-0.000872288
-0.000278576
-0.00108698
0.00112151
-0.0099917
-0.00723499
-0.000356137
-0.00797391
-0.00159906
-0.00675937
-0.00747071
-0.00411315
-0.00030765
-0.00498242
-0.000346286
-0.0020659
-0.00934935
-0.0034344
-0.000478837
-0.00372169
-0.000368615
0.000631088
-0.00530148
0.000753227
-0.00119224
-0.00729208
0.00887877
0.00185464
-0.00211106
-0.00859739
0.00844222
0.00151322
-0.00104791
0.000413209
0.000366793
0.00402354
0.00118126
0.00279284
-0.00620618
0.00218744
0.00156044
0.00171871
0.000984429
0.00181273
0.01643
0.00129364
-0.0165718
0.0163335
0.00162321
0.00169178
0.00354843
0.00129024
-0.00149029
-0.00543268
0.00254348
0.000813812
-0.000826873
0.000902618
0.000796316
-0.00112097
0.00100858
0.00572663
-0.0015933
-0.00222981
0.00060343
0.00296854
0.000916697
0.00170251
0.0110892
0.0021287
-0.0109466
0.0116402
0.00164417
0.00229706
-0.00271358
0.0010841
0.000167412
-0.00419085
0.000681745
0.000603429
-0.0104692
0.00127768
0.0159441
-0.00758219
0.000696378
-5.4516e-05
-0.00455187
0.00792545
-0.00223809
-0.00274794
0.0025613
0.000143597
0.00409113
0.00210184
-0.00896881
0.00162271
-0.00613409
0.00497895
-0.00233205
-3.56794e-05
0.00621832
-0.000857378
0.00174613
-0.000938062
0.00256351
0.0109959
-0.0133232
0.0171054
-0.0069663
-0.000412232
-0.00226606
0.00250868
-0.000138305
0.00272407
0.00197375
-0.0159569
0.00140064
-0.0102467
0.00488587
-0.00200373
-0.000363383
0.0038979
-0.000298275
0.00502967
-0.000445143
0.00670359
0.00870199
-0.0240278
0.0121204
-0.0106857
0.000306099
-0.00272883
0.00189132
0.000667471
0.00395866
0.00339781
-0.0260627
0.00129398
-0.00741535
-0.00213425
-0.00447146
0.00817274
-0.00888445
0.000148461
0.0150479
0.000757281
0.0142885
0.00990185
-0.0384091
0.00235497
-0.00299525
0.0113302
0.00836501
0.0154744
-0.0231801
-0.00554764
0.0174012
-0.0295545
0.0167766
-0.029733
-0.00865964
0.00099837
0.0313459
-0.00481238
0.0060076
0.0226226
0.00419896
0.0220755
0.00454916
-0.0419798
0.0153951
-0.00784672
0.0309113
0.00392115
0.00867664
-0.0357758
0.00200693
0.00868513
-0.0363237
0.00876639
-0.0364911
0.0057117
-0.000794054
0.0351469
0.00859151
-0.00346049
0.0319313
-0.00131623
0.0407932
-0.00244752
-0.0403474
0.00515139
-0.0189266
0.0347259
0.000456912
0.0158038
0.000304801
0.0159309
0.0159219
0.00156867
-0.0211732
0.00169214
-0.0228794
-0.0227033
-0.0117777
-0.0137142
-0.00289578
0.00137
-0.00753631
0.0019245
0.00174538
-0.00657731
0.00162206
0.000297387
-0.00515662
-0.00144286
-0.0026087
0.00139962
-0.00157389
-0.0032209
-0.00142989
0.00446589
-0.00217777
-0.00620519
0.00177332
-0.00557682
0.000268015
-0.00557714
0.000768722
-0.012126
0.000728592
0.00150665
-0.0143994
0.00159428
-0.000572656
-0.0054748
-0.00122689
-0.00511832
0.000244782
-0.00136755
-0.00605231
-0.00146147
0.00777969
-0.00391757
-0.0109982
0.00107817
-0.0119864
-0.000183982
-0.00774187
0.0012474
-0.0149965
0.00361487
0.00463025
-0.0303935
0.00139055
0.00164822
-0.00512647
-0.00186768
-0.00216969
0.000513466
-0.00380041
-0.00325
-0.00127433
0.0109697
-0.00651042
-0.013656
0.00292155
-0.025257
0.00140728
0.00237942
0.00966074
-0.0270513
-0.012609
0.0104591
-0.0258738
0.00780241
-0.0187693
0.0046434
-0.0108531
0.0137291
0.00305918
-0.0108732
0.0196918
-0.00849695
0.0303522
0.00136243
-0.0258425
-0.0106745
-0.0240766
-0.0177585
-0.00358872
0.0067724
-0.0302396
-0.00437181
0.00609035
-0.0311856
0.00661428
-0.0297596
-0.00425047
-0.00741613
0.0322089
-0.00658492
-0.00684678
0.0350049
-0.00739863
0.0378219
-0.00392001
-0.0293517
-0.00413703
-0.0307197
-0.0293078
6.46956e-05
0.0188138
-0.000641949
0.0186887
0.0186761
-0.0030422
-0.0192151
-0.00365093
-0.0190504
-0.0190391
0.00032271
-0.000509415
)
;

boundaryField
{
    fuel
    {
        type            calculated;
        value           nonuniform List<scalar> 
36
(
0.000130154
0.00021647
0.000130154
0.000130153
0.000216471
0.000130154
0.000130153
0.000216468
0.000130153
-0.000130154
-0.000216471
-0.000130154
-0.000130154
-0.000216472
-0.000130154
-0.000130153
-0.000216469
-0.000130153
0
0
0
0
0
0
0
0
0
0
0
0
0
0
0
0
0
0
)
;
    }
    primary_air
    {
        type            calculated;
        value           nonuniform List<scalar> 9(-0.00321472 -0.00538896 -0.00323643 -0.00319821 -0.00533773 -0.00320305 -0.00320737 -0.00533288 -0.00319039);
    }
    Secondary_air_RHS
    {
        type            calculated;
        value           nonuniform List<scalar> 9(0.00610331 0.0101231 0.00615766 0.0060874 0.0100707 0.00615867 0.00610973 0.0101037 0.00619051);
    }
    Secondary_air_LHS
    {
        type            calculated;
        value           nonuniform List<scalar> 9(0.00629906 0.0100403 0.00630412 0.00629603 0.0100056 0.00628503 0.00632554 0.0100683 0.00630184);
    }
    outlet
    {
        type            calculated;
        value           nonuniform List<scalar> 
18
(
-0.0491163
0.073311
-0.048889
-0.049166
0.0733825
-0.0489376
-0.0490762
0.0719154
-0.048856
-0.0520335
0.0705877
-0.0497543
-0.0520992
0.0706522
-0.0398767
-0.0521047
0.0811435
-0.00168961
)
;
    }
    stove_body
    {
        type            calculated;
        value           uniform 0;
    }
    frontAndBack
    {
        type            empty;
        value           nonuniform 0();
    }
}


// ************************************************************************* //
