/*--------------------------------*- C++ -*----------------------------------*\
  =========                 |
  \\      /  F ield         | OpenFOAM: The Open Source CFD Toolbox
   \\    /   O peration     | Website:  https://openfoam.org
    \\  /    A nd           | Version:  6
     \\/     M anipulation  |
\*---------------------------------------------------------------------------*/
FoamFile
{
    version     2.0;
    format      ascii;
    class       volScalarField;
    location    "1";
    object      Qdot;
}
// * * * * * * * * * * * * * * * * * * * * * * * * * * * * * * * * * * * * * //

dimensions      [1 -1 -3 0 0 0 0];

internalField   nonuniform List<scalar> 
297
(
0
0.000149314
0
0
0
0
0
0
5.93354e-05
0
5.93354e-05
8.99787e-05
0
0.000298628
0
0
0
0
8.99787e-05
0
-5.41478e-11
8.99787e-05
0
5.93354e-05
-1.69212e-12
4.49893e-05
8.99786e-05
0
0
3.1838e-11
0
-8.50446e-10
0
1.5919e-11
-8.66365e-10
0
0
1.98987e-12
1.5919e-11
0
0
-8.66365e-10
-8.66365e-10
0
0
0
-4.33183e-10
0
-8.66365e-10
-8.66365e-10
-8.66365e-10
0
0
-8.66365e-10
0
-4.33183e-10
0
0
0
0
0
-4.33183e-10
-4.33183e-10
0
0
0
0
0
-8.66365e-10
-8.66365e-10
0
-4.33183e-10
0
0
0
-1.73273e-09
0
-1.73273e-09
0
-8.66365e-10
0
-4.33183e-10
0
0
-8.66365e-10
-8.66365e-10
7.95949e-12
0
-4.3312e-10
-8.64375e-10
-4.33183e-10
0
-4.33183e-10
0
1.24367e-13
-8.66365e-10
-8.66365e-10
-4.33183e-10
-4.33183e-10
0
-4.33183e-10
0
-8.66365e-10
6.21835e-14
-8.66365e-10
-8.66365e-10
4.85809e-16
0
-1.73273e-09
-1.73273e-09
0
-3.46546e-09
0
-3.46546e-09
0
-1.73273e-09
0
0
0
0
0
5.52301e-29
0
0
0
5.52301e-29
1.1046e-28
0
0
-3.46546e-09
-3.46546e-09
1.38075e-29
-1.73273e-09
6.90376e-30
0
0
1.31679e-35
0
-3.46546e-09
0
-3.46546e-09
-1.73273e-09
1.07871e-31
0
1.34839e-32
0
-1.73273e-09
0
1.07871e-31
0
0
8.6297e-31
0
0
0
3.29197e-36
0
8.6297e-31
0
2.7615e-29
6.90376e-30
4.21372e-34
0
0
6.90376e-30
0
3.45188e-30
-3.46546e-09
0
8.6297e-31
-1.73273e-09
-1.73273e-09
5.52301e-29
5.52301e-29
0
0
5.52301e-29
0
1.72594e-30
0
-1.73273e-09
1.1046e-28
1.1046e-28
0
-3.46546e-09
-3.46546e-09
1.38075e-29
1.38075e-29
0
-1.73273e-09
0
0
-3.46546e-09
-3.46546e-09
2.15743e-31
0
-1.73273e-09
4.31485e-31
0
-1.73273e-09
8.6297e-31
0
4.31485e-31
8.6297e-31
0
-1.73273e-09
8.6297e-31
2.10686e-34
0
1.72594e-30
-3.46546e-09
2.7615e-29
5.52301e-29
4.31485e-31
0
-1.73273e-09
1.05343e-34
5.26715e-35
0
6.90376e-30
1.38075e-29
0
0
3.45188e-30
-1.73273e-09
-1.73273e-09
0
1.05343e-34
0
0
-1.73273e-09
-1.73273e-09
0
0
-1.73273e-09
-1.73273e-09
-1.73273e-09
1.72594e-30
3.45188e-30
-1.73273e-09
0
-1.73273e-09
6.90376e-30
0
0
1.53294e-45
1.60741e-39
0
0
1.28593e-38
0
1.56973e-42
1.00463e-40
-1.73273e-09
0
3.21481e-39
7.84867e-43
0
0
0
7.84867e-43
-1.73273e-09
0
-1.73273e-09
0
3.92433e-43
-3.46546e-09
6.42963e-39
0
1.96217e-43
0
-1.73273e-09
-1.73273e-09
0
0
0
-1.73273e-09
0
-1.73273e-09
0
0
1.49701e-48
-1.73273e-09
0
0
0
0
0
4.67817e-50
-1.73273e-09
0
-1.73273e-09
0
9.81083e-44
-1.73273e-09
0
-1.73273e-09
)
;

boundaryField
{
    fuel
    {
        type            calculated;
        value           uniform 0;
    }
    primary_air
    {
        type            calculated;
        value           uniform 0;
    }
    Secondary_air_RHS
    {
        type            calculated;
        value           uniform 0;
    }
    Secondary_air_LHS
    {
        type            calculated;
        value           uniform 0;
    }
    outlet
    {
        type            calculated;
        value           uniform 0;
    }
    stove_body
    {
        type            calculated;
        value           uniform 0;
    }
    frontAndBack
    {
        type            empty;
    }
}


// ************************************************************************* //
