/*--------------------------------*- C++ -*----------------------------------*\
  =========                 |
  \\      /  F ield         | OpenFOAM: The Open Source CFD Toolbox
   \\    /   O peration     | Website:  https://openfoam.org
    \\  /    A nd           | Version:  6
     \\/     M anipulation  |
\*---------------------------------------------------------------------------*/
FoamFile
{
    version     2.0;
    format      ascii;
    class       volVectorField;
    location    "1";
    object      U;
}
// * * * * * * * * * * * * * * * * * * * * * * * * * * * * * * * * * * * * * //

dimensions      [0 1 -1 0 0 0 0];

internalField   nonuniform List<vector> 
297
(
(30.1098 -0.0042142 0.22442)
(30.111 0.00217785 0.237082)
(30.1099 0.00457376 0.226773)
(3.3407e-06 -0.000646309 0.26419)
(3.68464e-06 -0.00303788 0.258285)
(3.95184e-06 -0.00365818 0.266488)
(-30.1098 -0.00445351 0.224357)
(-30.111 0.0021589 0.236864)
(-30.1099 0.00477703 0.226734)
(30.1195 -0.0112033 0.263488)
(30.1885 0.000199465 0.239723)
(30.1259 0.0142485 0.263399)
(3.14411e-06 0.00687478 0.233944)
(2.77935e-06 -0.00760673 0.254956)
(3.76521e-06 -0.0135335 0.211188)
(-30.1195 -0.0115439 0.263378)
(-30.1885 0.000143361 0.239249)
(-30.1259 0.0145513 0.263284)
(31.0729 -0.0845014 0.41931)
(30.2861 0.0197894 0.405927)
(30.9758 0.102318 0.423199)
(2.65332e-06 -0.0227326 0.16197)
(1.60268e-06 -0.0895665 -0.0722912)
(3.16048e-06 0.0594211 0.182849)
(-31.0728 -0.0848184 0.419287)
(-30.2823 0.0198514 0.405808)
(-30.9729 0.102649 0.423184)
(43.6774 17.9599 -23.6079)
(41.9526 29.7423 -11.5841)
(36.7332 39.9388 19.0298)
(0.068532 2.03482 -66.0688)
(0.0150574 28.2203 -42.925)
(-0.046931 39.4732 15.336)
(-43.0405 18.1317 -23.0607)
(-41.8258 30.6315 -11.2704)
(-36.4271 41.0161 15.9036)
(49.9376 8.24656 -11.2977)
(48.4578 43.2057 37.4094)
(41.0142 24.6268 68.2049)
(-0.20403 -24.3901 -109.132)
(-0.0768291 33.3034 -14.9884)
(0.179642 27.3296 63.5785)
(-47.519 8.92555 -9.74361)
(-46.5999 40.7911 34.7236)
(-41.0183 27.316 65.1584)
(51.7356 -21.0762 -40.3623)
(50.6535 45.2864 20.7947)
(44.5228 61.0998 112.024)
(0.182309 -36.0529 -138.872)
(-0.0224771 42.0458 25.3527)
(-0.222439 48.1386 88.2714)
(-47.0421 -17.3626 -39.1199)
(-46.9704 39.7455 16.2566)
(-42.9151 55.8255 104.74)
(43.3299 -40.6766 -100.19)
(53.5645 -61.6046 -22.6328)
(53.8368 32.3606 74.8839)
(0.0949538 -30.7309 -192.713)
(0.293208 -48.8324 -23.877)
(0.145909 22.5605 58.6128)
(-39.808 -33.5081 -99.4555)
(-49.953 -50.5495 -23.9034)
(-51.8198 33.3276 69.0413)
(38.9421 -14.0254 -76.8712)
(52.239 -40.212 -26.2807)
(53.8651 11.0997 39.3311)
(0.0223058 -32.3829 -68.0484)
(-0.068376 -30.2757 -59.4273)
(-0.183491 -4.15067 0.318602)
(-34.8512 -6.30793 -69.2643)
(-47.5932 -38.2046 -35.1033)
(-52.2254 9.53723 33.1093)
(25.7977 -13.6905 -23.2643)
(46.2743 -27.1044 -7.40247)
(51.5911 -6.97737 24.9473)
(-0.0230558 -7.02139 -26.286)
(0.02437 -21.2185 -19.6072)
(0.0110868 -16.7076 -2.59983)
(-24.8033 4.70256 -22.2979)
(-32.2098 -21.1548 -22.1254)
(-41.3876 -18.4177 0.353597)
(45.7711 -41.7701 -127.862)
(51.8883 -57.8365 -11.7965)
(50.2651 49.887 135.873)
(0.00696911 -45.0897 -227.651)
(0.0703736 16.7707 35.3549)
(0.0904763 41.1016 107.052)
(-42.1192 -34.9497 -127.457)
(-47.8674 -50.0195 -14.4896)
(-47.6302 43.6933 129.5)
(42.3328 -41.7819 -109.744)
(51.6654 -64.3822 -9.56803)
(48.8557 48.0669 141.78)
(-0.0177794 -42.3853 -218.166)
(0.0890936 2.95186 31.0289)
(0.117216 39.3661 115.191)
(-40.4643 -35.816 -119.443)
(-48.4343 -73.7545 -9.95346)
(-46.577 42.0357 136.481)
(44.4774 -41.661 -99.7757)
(52.2126 -63.5076 -9.18347)
(47.1123 46.7348 156.939)
(-0.041661 -42.5098 -208.792)
(0.113141 -25.2162 42.1035)
(0.133454 34.1831 137.753)
(-42.4138 -34.5018 -111.106)
(-49.976 -63.7778 -12.0358)
(-45.0063 44.8837 152.113)
(20.3274 -2.31523 -10.0648)
(20.31 -37.7218 -6.41003)
(20.3411 -39.2238 -5.27857)
(-0.0147838 -15.1452 -6.69177)
(0.00175925 -20.8711 -7.94846)
(0.0104708 -26.9733 -7.89631)
(-20.3277 36.4729 -9.27585)
(-20.3876 -5.07869 -7.45011)
(-20.3403 -31.2424 -7.27733)
(20.4053 -18.5417 3.92588)
(20.4416 -27.3205 3.19969)
(20.4404 -28.1913 1.99864)
(-0.0114157 -8.58885 -1.85208)
(-0.00313591 -6.39498 -1.85856)
(0.0100326 -17.0504 -0.754407)
(-20.4799 28.5692 5.61112)
(-20.4747 20.1455 4.4866)
(-20.4425 -16.2035 0.651173)
(20.4291 -11.9905 3.84164)
(20.4754 -0.56213 0.419436)
(20.4923 -2.67786 -4.19833)
(-0.00915092 -10.6136 -2.14685)
(-0.00657508 -1.45301 -2.25093)
(0.00914876 -2.88325 -4.05433)
(-20.5138 -11.0713 -0.348816)
(-20.4968 11.2072 3.72858)
(-20.4838 2.24308 2.3793)
(20.3622 -40.0492 -8.38816)
(20.4222 -35.4264 -10.3871)
(20.3226 -26.9021 -15.4576)
(0.00727462 -27.3088 -5.72305)
(0.00570462 -24.4186 -6.74495)
(-0.000501023 -18.5785 -6.6357)
(-20.3764 -31.0554 -7.48024)
(-20.4061 -26.8186 -10.853)
(-20.3785 -20.9495 -13.8949)
(20.3716 -33.2066 1.10921)
(20.4714 -32.3839 -5.71024)
(20.256 -26.1837 -14.6483)
(0.00833895 -20.2216 1.42089)
(0.0085845 -20.632 1.42993)
(0.00567541 -16.6866 0.469662)
(-20.4153 -22.2231 -1.77474)
(-20.4319 -21.7745 -6.98461)
(-20.3627 -21.4606 -16.4703)
(20.4965 -13.2628 -4.29476)
(20.5193 -18.3404 -11.6079)
(20.2933 -23.0206 -21.8514)
(0.0106605 -3.36494 -0.388039)
(0.0138776 -7.51574 1.3333)
(0.0145941 -9.96783 0.53211)
(-20.4693 4.62343 3.78979)
(-20.4426 -1.81177 -0.788035)
(-20.3257 -15.883 -20.4846)
(20.4635 26.4222 -14.079)
(20.5049 28.309 -12.4149)
(20.4289 28.0092 -9.04879)
(-0.0306286 9.94008 -4.50697)
(-0.0185474 6.98959 -4.82469)
(-0.0166412 1.37728 -1.06801)
(-20.1848 50.8605 -11.1184)
(-20.2206 47.2682 -10.2737)
(-20.3127 43.1811 -5.8847)
(20.4412 16.1876 -5.74156)
(20.4557 8.7357 0.0169571)
(20.4766 11.6956 4.05699)
(-0.0395908 1.32895 7.66702)
(-0.0243497 -5.13482 4.72607)
(-0.0170096 -4.12842 1.98623)
(-20.4658 39.4274 3.47034)
(-20.5 34.2759 7.2951)
(-20.4247 31.3578 6.87289)
(20.3833 -3.85917 4.3368)
(20.3912 -10.215 2.07631)
(20.3969 -10.4378 3.69288)
(-0.0428417 -24.1483 4.54726)
(-0.0273116 -17.1949 2.00333)
(-0.0171955 -13.9021 2.2947)
(-20.4543 -17.4976 10.5018)
(-20.5317 -8.28973 6.82042)
(-20.519 -2.14523 7.2327)
(20.3923 -4.88941 -9.30835)
(20.3189 4.16063 -23.7303)
(20.3557 10.2941 -20.2584)
(0.0448094 8.00985 -10.3153)
(0.00421981 7.99509 -7.91098)
(-0.0303739 11.5619 -5.5737)
(-19.9253 22.452 -33.2853)
(-19.9324 29.2564 -24.9907)
(-20.252 49.1041 -19.443)
(20.4097 -3.566 2.29359)
(20.3243 2.09059 -34.3299)
(20.3704 5.86858 -23.028)
(0.0178391 1.00181 6.68174)
(-0.02965 7.55936 6.86162)
(-0.0496828 7.996 11.4796)
(-20.0149 5.8367 -52.4762)
(-20.1505 21.8324 -30.4094)
(-20.4536 38.541 -5.48579)
(20.4049 -1.28033 2.35925)
(20.5615 1.21301 -41.0794)
(20.4339 2.4455 -23.2515)
(-0.00959333 -0.334503 -1.25366)
(-0.0486534 -10.46 17.1262)
(-0.0608922 -21.3478 16.361)
(-20.4321 2.04242 -65.1918)
(-20.2812 20.3785 -20.1836)
(-20.2944 -11.7945 18.4947)
(20.2778 2.30925 -25.2439)
(20.3307 0.823659 -59.781)
(20.2364 -1.27017 -60.0137)
(-0.112707 0.780588 51.1276)
(-0.1144 -2.31691 33.3502)
(-0.118934 -8.89231 34.2282)
(-20.4694 -11.3855 -91.8306)
(-20.4544 10.9224 35.5608)
(-20.4296 -2.82012 70.5147)
(20.0662 0.499412 -120.199)
(20.0694 1.45398 -123.947)
(20.021 1.25998 -124.131)
(-0.051902 2.03084 79.9027)
(-0.051805 2.52714 64.39)
(-0.0563193 -0.486207 66.9905)
(-19.9496 2.95641 -127.113)
(-19.9728 -3.45191 -73.8011)
(-19.9881 1.85519 103.358)
(19.4003 0.106454 -153.49)
(19.3962 0.173181 -153.752)
(19.3477 0.0627988 -153.775)
(0.100768 0.47231 179.295)
(0.108355 0.179199 179.08)
(0.116006 -0.207935 202.699)
(-19.0388 -3.09658 -145.111)
(-19.0134 -6.7281 -110.535)
(-19.5362 -2.71323 -2.93959)
(20.3433 -16.6966 -24.3845)
(20.3833 -3.46745 -20.4018)
(20.3966 4.4554 -8.69963)
(-0.00416665 -11.391 -9.25138)
(-0.00485799 -4.04155 -8.27117)
(-0.00477553 3.8214 0.608678)
(-20.3741 -10.5329 -19.5308)
(-20.3949 -3.56968 -17.018)
(-20.4023 4.36232 -6.45376)
(20.3173 -18.8893 -27.0233)
(20.3762 -6.08675 -23.8468)
(20.3804 -1.28865 6.67594)
(-0.000454541 -10.9219 -5.21145)
(-0.00430326 -5.04852 -6.6853)
(-0.00466213 2.20993 10.793)
(-20.3683 -12.3586 -23.6329)
(-20.3828 -4.06731 -19.983)
(-20.3851 0.644039 5.12315)
(20.3867 -12.4191 -34.2348)
(20.644 -5.36053 -27.0632)
(20.3474 -2.8521 -1.11168)
(0.00204147 -7.30199 -7.01168)
(-0.00515003 -5.02844 -10.7621)
(-0.00483856 2.28096 14.7932)
(-20.4312 -9.59346 -27.9763)
(-20.6003 -3.68221 -23.5382)
(-20.3483 -1.54303 0.82637)
(20.4066 9.42596 -51.2191)
(20.4292 -1.15069 -36.4412)
(20.351 -5.53459 -5.07257)
(0.00528923 11.2693 15.5595)
(0.00426343 -1.63076 25.6528)
(0.0031381 -1.53387 48.4638)
(-20.391 8.76142 -51.2978)
(-20.4012 -2.78247 -33.0366)
(-20.3333 -3.67608 -3.79946)
(20.1099 -5.80113 -105.663)
(20.0992 -0.686739 -109.52)
(20.1115 0.046331 -103.254)
(0.00485671 -0.590518 55.4321)
(0.00543678 -1.90832 62.9524)
(0.00535499 -1.42714 73.6196)
(-20.1013 -5.50155 -101.01)
(-20.0776 -0.29922 -107.405)
(-20.0933 -0.619113 -101.453)
(19.2587 0.0649155 -142.407)
(19.2596 -0.148084 -142.595)
(19.2697 -0.14122 -142.256)
(0.00562175 -0.456128 185.445)
(0.00544575 -1.27561 185.538)
(0.00535402 -0.893964 181.925)
(-19.2413 0.108692 -141.572)
(-19.242 -0.0572427 -141.754)
(-19.2529 -0.098752 -141.447)
)
;

boundaryField
{
    fuel
    {
        type            fixedValue;
        value           uniform (0 0 0.25);
    }
    primary_air
    {
        type            fixedValue;
        value           uniform (0 0 2.5);
    }
    Secondary_air_RHS
    {
        type            fixedValue;
        value           uniform (0 52.7778 0);
    }
    Secondary_air_LHS
    {
        type            fixedValue;
        value           uniform (0 -52.7778 0);
    }
    outlet
    {
        type            pressureInletOutletVelocity;
        value           nonuniform List<vector> 
18
(
(0 0 -142.407)
(0.00562175 -0.456128 185.445)
(0 0 -141.572)
(0 0 -142.595)
(0.00544575 -1.27561 185.538)
(0 0 -141.754)
(0 0 -142.256)
(0.00535402 -0.893964 181.925)
(0 0 -141.447)
(0 0 -153.49)
(0.100768 0.47231 179.295)
(0 0 -145.111)
(0 0 -153.752)
(0.108355 0.179199 179.08)
(0 0 -110.535)
(0 0 -153.775)
(0.116006 -0.207935 202.699)
(0 0 -2.93959)
)
;
    }
    stove_body
    {
        type            noSlip;
    }
    frontAndBack
    {
        type            empty;
    }
}


// ************************************************************************* //
