/*--------------------------------*- C++ -*----------------------------------*\
  =========                 |
  \\      /  F ield         | OpenFOAM: The Open Source CFD Toolbox
   \\    /   O peration     | Website:  https://openfoam.org
    \\  /    A nd           | Version:  6
     \\/     M anipulation  |
\*---------------------------------------------------------------------------*/
FoamFile
{
    version     2.0;
    format      ascii;
    class       volScalarField;
    location    "3";
    object      p;
}
// * * * * * * * * * * * * * * * * * * * * * * * * * * * * * * * * * * * * * //

dimensions      [1 -1 -2 0 0 0 0];

internalField   nonuniform List<scalar> 
297
(
117164
117164
117164
195230
195231
195230
117164
117164
117164
117164
117163
117164
195230
195231
195230
117164
117163
117164
117163
117163
117163
195231
195231
195231
117163
117163
117163
98073.9
97887.1
97861.3
162963
162857
162919
98055.9
97871.2
97844.6
98552.8
97644.2
97658
162678
162520
162332
98538.8
97634.2
97632.5
97390.5
96134.8
96524.2
157796
160098
158134
97441.4
96149.9
96523
94665.2
96323.5
94995
160030
158906
159597
94609.6
96282.4
95096.9
97725.1
97602.5
97363.6
162936
162105
162336
97695.4
97590.9
97427.3
97624
97777.4
97656.5
162631
162825
162765
97564.9
97745.9
97750
83057.4
94397.7
89036.4
136706
155760
147317
82881
94380.6
89434.1
82615.6
94396.2
88797.8
135239
155561
146290
82419.8
94373.3
89256.7
83823.3
94618.4
89420.2
136747
155973
146637
83636.5
94589.8
89928.1
97838.3
97888.6
97821.5
162896
162982
162911
97776
97839.2
97810.7
97879.5
97887.6
97853.2
162985
163007
162968
97838.1
97840
97810.1
97885.4
97882.4
97853.3
163012
163010
162993
97844.9
97837
97809.8
97886.8
97939.9
98098.9
162956
162987
163033
97855
97925.5
98065.3
97842.9
97847.6
97955.6
162954
162951
162967
97817.5
97852.1
97940
97791
97733.3
97717.6
162979
162951
162926
97811
97802
97782.4
98237.4
98031.7
97937.3
163133
163033
162981
98247.9
98013.6
97906.6
98027.8
97921.6
97891.7
162999
162963
162975
98017.4
97889.7
97856.4
97764.7
97805
97857.2
162919
162958
162999
97730
97767.1
97816.5
98417.7
98447.8
98415.8
163391
163394
163297
98457.1
98491.6
98451.4
98369.4
98377.6
98246.1
163232
163234
163140
98405.9
98415.1
98265.7
98302.4
98324.8
98129.7
162992
163038
162959
98335.3
98359.5
98135.8
97561.6
97530.3
97495.4
161885
161905
161829
97544
97508.3
97470.4
93366.8
93330.6
93338.5
154686
154679
154674
93338.8
93302.1
93312.1
86516.9
86511.2
86513.2
139541
139529
139514
86492.6
86486.7
86488.4
98278.2
98385.9
98437.8
163102
163147
163177
98110.2
98049.2
98012.3
98164.4
98298.7
98372.1
163032
163084
163115
98031
98014
97992.2
98058
98236.6
98310.7
162951
162994
163013
97974.8
98022.7
98000.1
97672.4
97742.5
97768.5
162321
162364
162355
97795.4
97836
97853
93701.7
93676.5
93674.4
155567
155572
155571
94006.2
94007
94028.4
87087.1
87085.7
87086
140499
140508
140507
87243.5
87244.6
87250.5
)
;

boundaryField
{
    fuel
    {
        type            zeroGradient;
    }
    primary_air
    {
        type            zeroGradient;
    }
    Secondary_air_RHS
    {
        type            zeroGradient;
    }
    Secondary_air_LHS
    {
        type            zeroGradient;
    }
    outlet
    {
        type            totalPressure;
        rho             rho;
        psi             none;
        gamma           1;
        p0              uniform 100000;
        value           nonuniform List<scalar> 
18
(
90387.7
100000
90618.2
90370.5
100000
90615.6
90372.4
100000
90633.6
89932.1
100000
89905.8
89906.1
100000
89879.2
89917.2
100000
89891.2
)
;
    }
    stove_body
    {
        type            zeroGradient;
    }
    frontAndBack
    {
        type            empty;
    }
}


// ************************************************************************* //
