/*--------------------------------*- C++ -*----------------------------------*\
  =========                 |
  \\      /  F ield         | OpenFOAM: The Open Source CFD Toolbox
   \\    /   O peration     | Website:  https://openfoam.org
    \\  /    A nd           | Version:  6
     \\/     M anipulation  |
\*---------------------------------------------------------------------------*/
FoamFile
{
    version     2.0;
    format      ascii;
    class       volScalarField;
    location    "0.5";
    object      O2;
}
// * * * * * * * * * * * * * * * * * * * * * * * * * * * * * * * * * * * * * //

dimensions      [0 0 0 0 0 0 0];

internalField   nonuniform List<scalar> 
297
(
0
0
0
0
0
0
0
0
0
0
0
0
0
0
0
0
0
0
0
0
0
0
0
0
0
0
0
0.14559
0.0924303
0.0573865
0.199641
0.150708
0.169629
0.157623
0.0917913
0.0576165
0
1.19888e-05
0
0.102923
0.13199
0.0619348
0
1.46175e-05
0
0
0
0
0.0667117
0.0251338
0.041612
0
0
0
0
1.20482e-06
0
0
0
0
1.78433e-05
3.6634e-07
0
0
0
0
0
0
0
0
0
0
0
2.56593e-17
2.24089e-16
0
1.00369e-15
0
0
0
0
0
7.09311e-07
0
0.0156563
3.00345e-07
0.00340361
0
9.07885e-07
0
0
2.51739e-06
0
0
0
0
0
1.87596e-06
0
0
3.7873e-06
0
0
0
0
0
1.4849e-06
0
0
0
5.7945e-21
0
0
0
0
0
0
1.61836e-24
1.04068e-24
8.59695e-25
0
7.58817e-22
8.16012e-23
7.8002e-22
2.03279e-21
2.91059e-23
5.3854e-26
2.07574e-25
3.20224e-27
3.22807e-23
3.95567e-22
8.17986e-23
1.00367e-24
9.25878e-22
2.58332e-22
1.44314e-25
5.56207e-30
1.65516e-33
0
1.11859e-29
1.136e-32
2.51415e-28
6.44277e-29
7.44334e-32
4.14479e-26
1.52526e-30
1.19665e-32
9.55121e-25
1.74573e-28
1.07743e-32
8.24908e-25
1.2632e-27
3.0783e-31
2.62393e-27
1.90124e-31
3.51507e-32
1.61612e-23
4.74077e-27
2.62055e-31
8.53072e-23
1.29764e-26
5.67762e-31
1.98335e-30
2.25483e-25
2.09491e-20
8.53811e-29
9.18689e-24
5.20295e-19
4.48047e-30
2.9347e-25
2.72101e-20
1.88035e-31
4.48888e-29
1.33296e-24
1.3762e-29
4.4901e-28
1.86714e-23
8.41773e-31
6.41973e-29
1.77119e-24
3.77007e-31
6.48975e-30
8.15488e-26
2.67526e-30
2.3172e-29
4.94897e-26
3.96958e-31
1.54351e-29
1.39567e-25
3.8175e-39
6.22982e-39
6.78107e-35
1.32016e-37
3.14313e-37
1.79161e-33
5.32408e-38
4.65416e-38
2.5637e-34
4.46326e-40
5.12504e-40
1.27242e-35
1.03342e-37
6.77597e-38
7.98445e-34
1.37643e-38
2.04426e-39
3.65441e-35
5.04402e-41
1.1742e-40
7.80284e-36
5.36016e-38
4.85663e-39
1.04489e-34
1.70499e-40
1.73333e-40
8.52384e-36
4.88019e-42
1.17086e-42
3.10964e-41
2.36746e-38
2.03213e-40
1.00947e-39
1.72755e-41
4.6382e-42
5.96948e-41
1.59461e-43
4.24411e-44
1.25218e-44
1.27773e-38
2.14001e-39
6.89133e-40
1.23176e-43
4.13564e-44
8.25107e-45
2.15628e-44
4.47504e-45
1.19466e-45
6.13069e-39
1.24991e-39
3.41859e-40
3.83987e-44
8.21054e-45
2.13797e-45
2.43519e-37
4.90792e-41
7.48671e-44
5.69644e-36
5.08125e-39
4.73365e-39
3.00881e-35
8.40802e-39
8.66602e-39
1.07413e-36
8.29458e-41
3.58406e-44
2.62333e-36
2.3025e-39
2.65636e-39
2.59691e-35
2.10776e-39
4.85733e-39
1.10753e-36
3.15113e-41
2.65552e-44
1.36806e-35
1.9821e-39
1.72702e-40
1.7449e-35
7.20281e-40
2.68879e-40
5.65146e-42
1.87953e-43
3.48224e-44
2.95643e-38
3.53697e-39
1.29484e-40
1.31853e-40
8.69331e-44
7.07966e-45
1.31806e-43
2.27046e-44
6.26896e-46
1.6703e-38
1.89669e-39
7.85979e-41
1.51522e-43
1.67909e-44
8.00472e-46
2.5711e-44
2.92254e-45
1.23847e-46
7.31443e-39
8.26304e-40
3.52186e-41
4.74922e-44
5.37796e-45
2.26471e-46
)
;

boundaryField
{
    fuel
    {
        type            fixedValue;
        value           uniform 0;
    }
    primary_air
    {
        type            fixedValue;
        value           uniform 0.23;
    }
    Secondary_air_RHS
    {
        type            fixedValue;
        value           uniform 0.23;
    }
    Secondary_air_LHS
    {
        type            fixedValue;
        value           uniform 0.23;
    }
    outlet
    {
        type            inletOutlet;
        inletValue      uniform 0;
        value           nonuniform List<scalar> 
18
(
0
7.31443e-39
0
0
8.26304e-40
0
0
3.52186e-41
0
0
6.13069e-39
0
0
1.24991e-39
0
0
3.41859e-40
0
)
;
    }
    stove_body
    {
        type            fixedValue;
        value           uniform 0;
    }
    frontAndBack
    {
        type            empty;
    }
}


// ************************************************************************* //
