/*--------------------------------*- C++ -*----------------------------------*\
  =========                 |
  \\      /  F ield         | OpenFOAM: The Open Source CFD Toolbox
   \\    /   O peration     | Website:  https://openfoam.org
    \\  /    A nd           | Version:  6
     \\/     M anipulation  |
\*---------------------------------------------------------------------------*/
FoamFile
{
    version     2.0;
    format      ascii;
    class       volScalarField;
    location    "2.5";
    object      p;
}
// * * * * * * * * * * * * * * * * * * * * * * * * * * * * * * * * * * * * * //

dimensions      [1 -1 -2 0 0 0 0];

internalField   nonuniform List<scalar> 
297
(
123071
123071
123071
203105
203106
203105
123071
123071
123071
123061
123061
123060
203119
203118
203119
123061
123061
123060
123059
123060
123059
203131
203128
203131
123059
123060
123059
97136.1
97140.4
97159.9
161154
161145
161175
97116.1
97121.1
97139.5
97235.9
97145.9
97257.7
160994
161129
160944
97210.9
97126.8
97237.6
96599.3
96489.5
96506.1
157070
159663
156882
96595.6
96484.6
96497.8
94906.2
96169.8
95037
158699
158534
158899
94931.9
96139.8
95037.2
96747.5
96920.9
96813.4
161217
160782
161184
96737.1
96872.8
96876
96884.7
97096.3
97014.3
161081
161111
161135
96777
97017.8
97135.1
90695.6
96092
90222.3
145210
157021
144969
90823.3
96071.5
90292.3
90116
96074.2
89623
143587
156802
143498
90266.2
96052.3
89709.8
90375.5
96093.7
89948
144498
156889
144545
90530.3
96069.9
90044.5
97188.8
97377.7
97288.2
161002
161132
161113
97036.5
97259.6
97339.5
97252.3
97423.5
97354.2
161033
161158
161129
97112.1
97299
97377.8
97278.7
97421.3
97376.5
161061
161173
161138
97143.8
97303.3
97388.9
97231.3
97157.7
97117.5
160993
160961
160891
97220.6
97124.5
97056.6
97159.2
96984.6
96841
160972
160932
160819
97180
97019.1
96864.3
97149.7
96945.8
96784.7
160980
160889
160692
97169.6
96991.2
96807.6
96880.5
96997
97085.9
160363
160655
160749
97089.8
97031.2
97036.5
96494
96794.5
97014.5
160245
160637
160765
96518.2
96740.7
96951.9
96377.7
96751.5
97016.6
160001
160549
160775
96352.2
96668.4
96951.4
99326
98450.6
97328.9
160357
160204
160093
99512.4
98848.9
97778.5
98385.5
97266.4
96543.1
159607
159190
159460
98599.6
97779.4
96830.1
97368.3
96467.7
95963.2
158776
158269
158523
97439.2
96675.5
96054.4
93502.5
93421
93334.7
153895
153723
153477
92678.4
92536.8
92365.3
91075.7
91193.9
91257.7
147893
147905
147857
88801.9
88741.6
88700
87183.2
87298.1
87444.8
138324
138343
138330
86796.6
86955.5
87230.2
97475.8
98250.9
98834.1
160754
160750
160848
97265.9
97798.4
98234
96979
97479.1
98177.9
160477
160307
160523
96892.6
97222.1
97725.4
96691.3
97023.5
97589
160075
159937
160206
96634.6
96833.9
97214.3
95688.5
95720.6
95785.8
158272
158364
158462
95456.4
95492.5
95543.1
94312.3
94263.3
94190.5
154904
154918
154912
94423.3
94405.8
94360.7
90691.1
90606.5
90530.5
144126
144101
144065
91509.6
91423.2
91324.2
)
;

boundaryField
{
    fuel
    {
        type            zeroGradient;
    }
    primary_air
    {
        type            zeroGradient;
    }
    Secondary_air_RHS
    {
        type            zeroGradient;
    }
    Secondary_air_LHS
    {
        type            zeroGradient;
    }
    outlet
    {
        type            totalPressure;
        rho             rho;
        psi             none;
        gamma           1;
        p0              uniform 100000;
        value           nonuniform List<scalar> 
18
(
92471.9
100000
92950.3
92273
100000
92822
92052.9
100000
92581.9
88714.7
100000
87822.4
88946.4
100000
91614.9
89349.9
100000
99751.1
)
;
    }
    stove_body
    {
        type            zeroGradient;
    }
    frontAndBack
    {
        type            empty;
    }
}


// ************************************************************************* //
