/*--------------------------------*- C++ -*----------------------------------*\
  =========                 |
  \\      /  F ield         | OpenFOAM: The Open Source CFD Toolbox
   \\    /   O peration     | Website:  https://openfoam.org
    \\  /    A nd           | Version:  6
     \\/     M anipulation  |
\*---------------------------------------------------------------------------*/
FoamFile
{
    version     2.0;
    format      ascii;
    class       surfaceScalarField;
    location    "2.5";
    object      phi;
}
// * * * * * * * * * * * * * * * * * * * * * * * * * * * * * * * * * * * * * //

dimensions      [1 0 -1 0 0 0 0];

internalField   nonuniform List<scalar> 
675
(
-3.28123e-06
-0.000575144
0.00579171
3.69744e-06
-0.000566318
0.00577315
-0.000575327
0.00579234
2.97644e-06
0.000575145
0.00744994
-1.61735e-06
0.00056632
0.00747522
0.000575327
0.00745083
-3.27999e-06
0.00579172
3.69555e-06
0.00577314
0.00579235
-4.08043e-06
-0.000765668
0.00656158
4.32823e-06
-0.000828405
0.00659334
-0.000766175
0.00656293
7.38637e-05
0.000765668
0.00584399
-8.29025e-05
0.000828405
0.00597749
0.000766175
0.00583486
-4.08151e-06
0.00656158
4.32898e-06
0.00659334
0.00656293
3.70987e-07
0.00134852
3.31773e-06
0.00137567
0.00135357
-6.57767e-05
-0.00134852
6.47686e-05
-0.00137567
-0.00135357
3.70836e-07
3.31807e-06
-0.00127148
0.0046414
0.00939195
-0.00452145
0.00456159
0.0114537
0.00683299
0.00141725
-5.34986e-05
-0.00397006
0.0298382
-0.00531586
-0.00402698
0.0350272
-0.00614927
0.0288519
-0.00136746
0.0101578
-0.00427551
0.011644
0.00234317
0.0142726
0.0123255
-0.0172205
-0.0196316
0.00189843
0.0434377
0.0148828
-0.0331123
0.00328232
-0.0118658
0.0507176
-0.0104644
-0.00133413
0.0519773
-0.01401
0.0472512
0.0131199
-0.014845
-0.0195929
0.0430022
-0.0312749
0.0111211
0.0487748
-0.0771207
-0.00942757
0.0171067
0.0468703
0.0456258
-0.088172
-0.0800982
-0.0490271
0.228601
0.0805133
-0.0168732
-0.0746745
-0.0455753
0.218945
0.0110968
-0.0749798
-0.0101178
0.0473307
-0.086981
-0.0373236
-0.0373644
-0.0234013
0.098081
0.0383638
0.00328452
-0.0420081
-0.0369711
-0.0379896
-0.0315287
0.107873
0.00835413
0.0364597
0.109195
-0.191391
-0.0132287
-0.00285504
-0.0723654
0.100064
0.0379012
0.0901572
-0.179283
-0.0380871
-0.0217056
0.0962422
0.0375168
-0.0409178
-0.0375532
-0.031541
0.106946
0.00720707
-0.0205585
-0.0100554
-0.00435576
-0.0029937
-0.0274527
-0.0175297
-0.0183603
0.0297481
0.0219385
0.0369641
-0.0353909
0.00392431
-0.0141588
0.0182555
0.0189741
0.00587351
-0.00564254
-0.00710053
-0.0240155
-0.0203974
0.0155902
-0.0114939
-0.0141699
0.00536127
-0.000577928
-0.0166585
0.0017209
-0.0147237
-0.0114679
0.0103379
0.0265886
-0.0240116
0.00114351
-0.00336368
-0.00230086
-0.00103829
0.0158039
-0.011102
0.00901384
-0.0160791
-0.0137032
-0.00133551
-0.0019144
-0.0833555
0.00133794
0.000452934
0.0437434
-0.00231427
-0.093955
-0.00631441
0.00176873
0.216046
0.00591309
-0.000412649
-0.0860386
0.00226396
0.205119
-0.00134642
-0.0813629
0.00129592
0.0442751
-0.0928641
-0.00163273
-0.000218944
-0.0909279
0.00165005
-0.000836019
0.0412961
-0.000560305
-0.101117
-0.00234685
0.000143076
0.203015
0.00226898
0.000858604
-0.0923513
0.000521965
0.191299
-0.00165401
-0.0890058
0.00161528
0.0418638
-0.100109
-0.00280848
0.000510336
0.00299823
-0.00148228
0.000347711
-0.00238033
-0.000595897
0.00232149
0.00152703
-0.00043022
-0.00282717
0.00300982
0.00690342
-0.00310084
-0.00177732
-0.0162004
-0.00448724
-0.000316064
-0.00495302
-0.00175023
-0.0039467
-0.0135104
0.00125663
0.00327849
0.0104705
0.00847869
0.00280803
0.000770177
-0.00600591
0.00028328
-0.00561438
0.00534925
0.0117702
-0.00220138
-0.0173949
0.00104687
-0.00459092
-0.00242823
-0.00994942
0.00656914
0.00101386
0.00289601
-0.0122598
-0.00314482
0.00114889
0.00361384
0.00187592
0.00215148
-0.0111175
0.00290352
-0.00105749
0.00277045
0.00686475
0.00207449
-0.0020116
-0.00201813
-0.00228576
-0.00283914
0.00346044
0.01063
0.000480038
-0.0143775
0.000527465
0.00349747
0.00359513
-0.00778735
0.000154673
0.00272443
1.69518e-05
0.000845565
0.0029254
0.00328425
-0.000288342
-0.00075302
-0.00210141
0.00835602
0.00258666
-0.00243466
-0.00328311
0.00631535
-0.00100232
-0.000622008
5.66267e-05
0.00036518
-0.0143683
-0.000810518
0.0016711
-0.0149333
-0.00124699
0.00181299
-0.0012879
0.00152174
-0.015168
0.00465409
0.000286626
-0.000404134
0.00112483
0.000946513
0.00133303
0.00112345
0.00462242
-0.00591067
-0.0112127
0.00154739
-0.0119067
0.00164154
0.00164905
-0.0124262
-0.0112678
-0.000600513
0.0024254
-0.0108105
-3.05331e-05
0.0013869
-0.000348013
0.000954171
-0.00989577
0.00420503
0.00012287
-0.00187395
0.00295785
-4.59635e-05
0.00259336
0.000593883
0.00796962
-0.00133291
-0.00855857
0.00244041
-0.00860564
0.00164515
0.00180124
-0.00815785
0.00168071
0.000458089
0.00293549
0.000132603
-0.000441351
0.00433055
0.00551054
-0.000612287
0.00855743
-0.000322773
0.000788251
0.0152959
0.00219138
0.0035121
0.00610075
0.0174653
-0.00149867
0.00187038
-0.0178383
0.0173974
-0.00192023
0.00198573
-0.000761728
0.00195522
0.00427575
0.00152518
0.00523312
-0.0125393
-0.00320545
0.00229126
0.00326538
0.0010345
0.00347506
0.0185346
0.00193911
-0.0189621
0.0183477
0.00246716
0.00198425
0.0119327
-0.00118571
0.002776
-0.0116522
0.0123798
-0.000806218
0.00234291
-0.000743969
0.00281667
-0.00388432
0.000524318
0.011481
-0.00407886
-0.00762713
0.000374973
0.00582686
0.0011524
0.000815027
0.0129375
0.00168816
-0.0121729
0.0139229
0.00185048
0.00267939
-0.00494155
-0.00119385
0.00891082
-0.00244642
-0.000153577
0.00038622
-0.0150401
0.000983725
0.0243437
-0.00980221
0.000435325
-0.000242684
-0.00409964
0.00677073
-0.00181384
0.0119487
0.00215583
-0.0141014
0.0185413
0.000602378
-0.00719215
0.00101953
-0.000315416
0.0125295
-0.00353039
-0.00684911
0.0153601
-0.0026535
0.000418001
-0.00162693
0.00546021
0.0104582
-0.0139951
0.0183842
-0.0105859
-0.00221601
0.00894379
0.00179806
-0.0248409
0.0128693
0.000500755
-0.0116156
0.000893802
9.83866e-06
0.010516
-0.00201832
-0.0135499
0.00841886
-0.00119163
0.0042026
-0.000817204
0.0115056
0.0085858
-0.0245996
0.0142361
-0.017425
-0.000969638
0.00904364
0.0047005
-0.0385839
0.00233001
0.000265153
-0.00516507
-0.000603495
0.0118543
0.0022629
-0.00499493
-0.00611489
-0.0120466
-0.00141775
0.0201938
0.000565799
0.0226321
0.00969497
-0.0392931
0.00489211
-0.014037
0.0112599
-0.00251345
0.0131469
-0.0492219
0.00568843
0.00796769
-0.0213277
0.0062857
0.0112647
0.0115304
-0.00771262
0.00323349
0.0167818
-0.00340778
0.0263219
-0.00194206
0.0476551
0.00165964
-0.0486144
0.014587
-0.0303648
0.0239058
-0.0211773
0.0122004
-0.0402591
-0.0185062
0.0101818
-0.0341819
0.0105253
-0.0177685
-0.00587561
0.00155435
0.0197469
-0.00572205
0.00217738
0.0341762
0.00217936
0.0502922
0.000207587
-0.0472688
0.00284863
-0.0308242
0.0289358
-0.00871834
0.0192555
-0.0112249
0.0186716
0.0205564
-0.0117346
-0.0185653
-0.0125132
-0.0186034
-0.0196788
-0.013433
-0.0181922
-0.0154492
0.000711298
-0.000431811
-0.00982267
0.000200918
-0.00582871
0.00152064
-0.0113421
-0.0090109
-0.000616544
0.00442889
-0.00916982
-0.00012854
0.000490519
-0.00128657
-0.00635877
-0.0129657
-6.82945e-05
-0.00843212
-0.0046531
-0.00971149
-0.0103102
0.000582878
-0.000601928
-0.00716381
6.31786e-05
-0.00903839
0.000955622
-0.0194585
-0.0040299
-0.000575009
0.00828441
-0.00660616
-8.33762e-05
0.00321565
-0.000882301
-0.0111247
-0.00886189
6.73406e-05
-0.00600176
-0.00759278
-0.016595
-0.00300497
-0.000450295
0.00718315
-0.00642198
-0.0001973
-0.00542497
0.0030604
-0.02894
0.00845789
0.000698426
0.0139731
-0.00154329
1.98414e-05
0.013
-0.00270377
-0.00690417
-0.00140501
0.00827139
-0.00608442
-0.00289374
-0.0253943
-0.0047001
0.00351067
0.00837049
-0.000234243
0.00454349
-0.014431
0.00886976
-0.0380684
-0.0111893
-0.000857293
0.0295275
-0.00919051
-0.00262672
0.0181726
-0.00613019
-0.0011075
-0.0048183
0.0122294
-0.00386107
-0.0064867
-0.0354377
0.0132405
0.00705734
-0.0119291
0.0155037
0.00639826
-0.0231028
0.00776452
-0.0303529
0.00924338
-0.00803878
0.0353679
0.00876138
-0.00803995
0.0330779
-0.00862865
0.0240126
0.011812
-0.0076302
0.0143365
-0.0170605
-0.0297324
0.00792709
0.0225388
0.00711148
0.0206078
0.0201964
0.0115621
-0.0253681
0.0120633
-0.0229403
-0.0218682
0.00810011
0.00953879
)
;

boundaryField
{
    fuel
    {
        type            calculated;
        value           nonuniform List<scalar> 
36
(
0.00521248
0.00860416
0.00521248
0.00521252
0.00860403
0.00521252
0.00521248
0.00860417
0.00521248
-0.00521302
-0.00860306
-0.00521302
-0.00521301
-0.00860309
-0.00521301
-0.00521301
-0.00860307
-0.00521301
0
0
0
0
0
0
0
0
0
0
0
0
0
0
0
0
0
0
)
;
    }
    primary_air
    {
        type            calculated;
        value           nonuniform List<scalar> 9(-0.0127769 -0.0211975 -0.0127742 -0.0127774 -0.0211963 -0.0127749 -0.01278 -0.0212003 -0.0127773);
    }
    Secondary_air_RHS
    {
        type            calculated;
        value           nonuniform List<scalar> 9(0.00943462 0.0151596 0.00944194 0.00937196 0.0150057 0.00938103 0.00940594 0.0151152 0.00941604);
    }
    Secondary_air_LHS
    {
        type            calculated;
        value           nonuniform List<scalar> 9(0.00948412 0.0151848 0.00949747 0.00942351 0.015015 0.00943922 0.00945064 0.0151103 0.00946683);
    }
    outlet
    {
        type            calculated;
        value           nonuniform List<scalar> 
18
(
-0.0424065
0.0716972
-0.0411045
-0.0429067
0.0761094
-0.0414452
-0.0434494
0.0781163
-0.0420677
-0.0508022
0.0692945
-0.0524055
-0.0503529
0.0722231
-0.0446712
-0.0495559
0.0780171
-0.00892942
)
;
    }
    stove_body
    {
        type            calculated;
        value           uniform 0;
    }
    frontAndBack
    {
        type            empty;
        value           nonuniform 0();
    }
}


// ************************************************************************* //
