/*--------------------------------*- C++ -*----------------------------------*\
  =========                 |
  \\      /  F ield         | OpenFOAM: The Open Source CFD Toolbox
   \\    /   O peration     | Website:  https://openfoam.org
    \\  /    A nd           | Version:  6
     \\/     M anipulation  |
\*---------------------------------------------------------------------------*/
FoamFile
{
    version     2.0;
    format      ascii;
    class       volScalarField;
    location    "2.5";
    object      T;
}
// * * * * * * * * * * * * * * * * * * * * * * * * * * * * * * * * * * * * * //

dimensions      [0 0 0 1 0 0 0];

internalField   nonuniform List<scalar> 
297
(
292.187
292.186
292.187
293.003
293.003
293.003
292.187
292.186
292.187
292.187
292.186
292.187
293.01
293.008
293.01
292.187
292.186
292.187
292.142
292.138
292.142
304.043
293.122
303.989
292.142
292.138
292.142
292.33
292.357
292.441
293.027
293.062
293.061
292.316
292.352
292.432
288.024
289.979
288.52
290.123
292.091
290.343
288.03
290.1
288.391
286.166
288.478
288.648
287.773
290.006
288.547
285.613
288.331
288.386
286.968
291.674
288.007
287.379
288.49
288.748
286.757
291.094
287.865
288.14
293.577
291.961
287.599
288.73
288.739
287.06
292.593
292.004
295.004
297.705
296.932
288.414
291.025
290.572
293.926
297.731
296.772
284.687
288.321
286.314
284.325
288.209
285.719
284.271
288.183
286.112
285.191
288.433
286.596
282.702
288.086
284.27
284.872
288.297
286.296
286.259
288.449
287.19
282.241
288.049
283.957
286.014
288.318
287.165
298.799
298.632
296.568
288.4
295.042
297.551
298.646
299.07
296.097
300.298
299.346
296.828
290.335
298.396
298.174
299.72
299.807
296.241
300.433
299.47
297.369
298.002
300.327
298.704
299.61
299.788
296.49
296.525
296.441
296.292
297.584
297.528
297.364
295.48
295.319
295.192
296.78
296.679
296.654
298.096
297.895
297.479
295.7
295.644
295.666
296.909
296.788
296.725
298.059
297.88
297.541
296.01
295.876
295.969
300.402
300.324
300.102
303.048
296.998
288.338
300.489
300.419
300.108
300.884
300.703
300.05
301.403
290.565
288.917
299.779
300.032
299.479
299.922
300.432
300.328
295.428
294.237
297.145
298.895
299.633
299.827
301.052
301.066
300.256
302.7
302.782
302.737
301.232
301.051
300.334
300.658
301.066
300.904
302.763
302.8
302.615
300.693
299.524
299.537
299.518
301.067
300.063
302.607
300.289
297.487
299.691
298.775
299.022
297.717
300.786
295.763
303.008
299.629
295.416
297.927
295.861
295.483
293.919
296.851
299.166
300.978
297.499
293.906
293.163
294.229
294.457
291.689
291.314
290.833
289.084
286.452
282.728
291.134
289.943
295.037
296.364
296.913
296.895
297.272
297.362
297.413
295.197
295.908
295.984
296.794
296.799
296.536
297.268
297.555
297.6
295.913
296.233
296.05
296.851
296.855
295.969
297.283
297.327
297.584
296.079
296.325
295.39
294.348
296.463
295.045
295.755
296.246
297.646
294.036
295.824
294.033
295.914
295.188
292.853
294.025
294.373
296.118
295.269
295.523
292.364
290.333
290.158
290.072
284.416
283.261
282.724
289.865
289.663
289.649
)
;

boundaryField
{
    fuel
    {
        type            fixedValue;
        value           uniform 293;
    }
    primary_air
    {
        type            fixedValue;
        value           uniform 293;
    }
    Secondary_air_RHS
    {
        type            fixedValue;
        value           uniform 293;
    }
    Secondary_air_LHS
    {
        type            fixedValue;
        value           uniform 293;
    }
    outlet
    {
        type            inletOutlet;
        inletValue      uniform 293;
        value           nonuniform List<scalar> 
18
(
293
284.416
293
293
283.261
293
293
282.725
293
293
289.084
293
293
286.452
293
293
282.727
293
)
;
    }
    stove_body
    {
        type            fixedValue;
        value           uniform 293;
    }
    frontAndBack
    {
        type            empty;
    }
}


// ************************************************************************* //
