/*--------------------------------*- C++ -*----------------------------------*\
  =========                 |
  \\      /  F ield         | OpenFOAM: The Open Source CFD Toolbox
   \\    /   O peration     | Website:  https://openfoam.org
    \\  /    A nd           | Version:  6
     \\/     M anipulation  |
\*---------------------------------------------------------------------------*/
FoamFile
{
    version     2.0;
    format      ascii;
    class       volVectorField;
    location    "2.5";
    object      U;
}
// * * * * * * * * * * * * * * * * * * * * * * * * * * * * * * * * * * * * * //

dimensions      [0 1 -1 0 0 0 0];

internalField   nonuniform List<vector> 
297
(
(55.792 -0.0102293 10.5208)
(55.7935 0.00111487 10.5107)
(55.792 0.0111021 10.5215)
(-5.53963e-07 -0.04831 9.8068)
(1.12081e-06 0.00456008 9.83221)
(-2.45704e-07 0.0481668 9.80657)
(-55.792 -0.0102263 10.5208)
(-55.7934 0.00111332 10.5107)
(-55.792 0.0110976 10.5215)
(55.7351 -0.00454797 10.7362)
(55.7338 0.000153531 10.7271)
(55.735 0.00552336 10.7371)
(-2.02951e-07 0.243192 8.34815)
(6.21694e-07 -0.0229878 8.27349)
(-2.45695e-07 -0.247822 8.34377)
(-55.7351 -0.00455056 10.7362)
(-55.7338 0.000152719 10.7271)
(-55.735 0.00552513 10.7371)
(56.5691 -0.0223547 14.8946)
(56.563 0.00772726 14.9024)
(56.5686 0.0351916 14.8983)
(3.40122e-07 -7.4069 5.611)
(-1.20078e-07 0.034096 8.27176)
(-1.13487e-07 7.33992 5.59173)
(-56.5691 -0.022356 14.8946)
(-56.563 0.00772762 14.9024)
(-56.5686 0.0351932 14.8983)
(36.604 -0.399675 5.95533)
(36.5989 -1.51354 9.04958)
(36.6373 -1.22278 5.0372)
(-0.00170794 -0.215398 10.6951)
(-0.00165114 -0.988499 10.0248)
(-0.00175026 -0.777832 10.5891)
(-36.6063 -0.430764 6.13771)
(-36.6035 -1.47067 9.02853)
(-36.6402 -1.14817 4.9744)
(36.6812 8.01534 25.928)
(36.7894 -1.71956 22.5255)
(37.0728 -9.62972 17.295)
(-0.0021228 11.1552 49.3385)
(-0.00163086 -1.77935 36.6869)
(-0.00172309 -12.499 47.2805)
(-36.6357 7.5429 26.5477)
(-36.7597 -2.226 22.6404)
(-37.0259 -9.33664 18.4301)
(36.145 8.4688 13.1703)
(36.9611 -2.63157 29.9944)
(36.3977 -3.97862 -3.20112)
(-0.00031625 -9.49923 72.5819)
(-0.000424812 -0.984325 22.3026)
(-0.000731203 11.5959 69.5319)
(-36.0813 8.97144 15.7128)
(-36.922 -3.16477 30.4184)
(-36.3678 -4.31919 -2.11231)
(36.8926 -11.8305 -54.1621)
(36.8538 2.23655 -14.6389)
(37.0507 9.8954 -62.9607)
(0.00221847 -0.201191 29.3994)
(-0.00264803 -1.72687 -30.9791)
(1.16337e-05 2.22162 17.0211)
(-36.8551 -12.6499 -51.8322)
(-36.7789 1.40892 -13.2101)
(-37.0311 10.3501 -61.1901)
(37.1613 14.9668 -32.951)
(37.698 4.8362 -42.1807)
(37.677 -19.7961 -43.5623)
(-0.000890807 6.00569 5.0262)
(-0.00417413 -0.622731 -19.1881)
(0.00543062 -6.73621 -6.50823)
(-37.0079 11.3649 -30.4261)
(-37.5846 2.96675 -41.4817)
(-37.6156 -14.7897 -42.184)
(37.9974 19.38 -15.9168)
(38.3022 12.1674 -17.1692)
(38.3206 -18.0272 -17.9611)
(-0.00932402 2.02157 6.45992)
(-0.00687112 -8.69998 -14.0391)
(0.0105555 -7.10934 -1.5944)
(-37.9481 13.2884 -14.702)
(-38.3444 18.0489 -12.7023)
(-38.2187 -7.79459 -17.1671)
(31.1689 6.33654 -72.1064)
(35.9665 1.05091 35.2231)
(30.4574 -4.92954 -81.5823)
(0.0122092 -4.46234 98.2907)
(-0.00163891 -1.70803 -41.5534)
(0.00669951 6.9617 94.1952)
(-31.2882 6.5977 -70.3271)
(-35.9012 0.759026 35.6273)
(-30.536 -5.14167 -80.5653)
(32.3384 -0.948068 -75.6727)
(33.8606 1.42223 34.3066)
(31.803 0.673479 -85.0626)
(0.0115126 -1.63108 109.209)
(-0.00173798 -1.89712 -44.0818)
(0.0067777 4.15296 104.347)
(-32.432 -1.16186 -73.7456)
(-33.7943 1.16461 34.7214)
(-31.8466 0.672868 -83.9564)
(34.8928 -5.31081 -69.8878)
(34.1564 2.04747 32.3048)
(35.0058 4.65277 -79.5985)
(0.0110889 0.911138 107.961)
(-0.00207974 -1.92362 -44.4899)
(0.00706829 1.53778 102.786)
(-34.9596 -5.56391 -67.6579)
(-34.0908 1.93514 32.7064)
(-35.141 4.70375 -78.1898)
(38.09 37.8016 -8.03084)
(38.1648 4.22493 -9.28304)
(37.8418 -32.3859 -8.64496)
(-0.0132228 -3.24281 7.7102)
(-0.0104657 3.92729 -1.97772)
(0.00459325 4.92486 -2.39105)
(-38.1761 39.9909 -6.07011)
(-38.2599 29.8104 -9.99797)
(-37.8727 -22.0981 -7.60228)
(38.5489 29.5817 4.80973)
(38.3498 8.194 0.809258)
(38.1267 -25.9976 2.93749)
(-0.0122121 -1.51176 6.54764)
(-0.0111662 8.63289 -1.71274)
(0.00210718 -0.93951 -1.20899)
(-38.5728 33.9601 4.2835)
(-38.5558 27.1431 1.65575)
(-38.0714 -16.2331 3.08899)
(38.676 -4.52371 -1.24574)
(38.5042 2.63564 1.41013)
(38.2738 6.10784 -1.74558)
(-0.0121018 -12.2824 -1.61715)
(-0.0106618 3.85639 0.378678)
(0.00111862 6.43235 -1.49523)
(-38.6154 -20.8655 -5.15278)
(-38.5836 13.2343 0.871715)
(-38.1549 -1.60427 0.752881)
(37.8028 -37.1745 -3.94649)
(37.7546 -42.8939 -8.01297)
(37.6591 -46.6794 -9.55243)
(-0.000952988 7.19145 -1.6903)
(-0.00296718 11.6551 -0.4818)
(-0.00541494 -6.50675 1.23195)
(-37.7948 -29.257 -2.79425)
(-37.71 -33.361 -6.04985)
(-37.6224 -37.9978 -7.10394)
(37.9305 -30.7513 5.94933)
(38.1921 -34.6662 4.91452)
(38.1979 -35.7715 1.7709)
(0.00186333 5.38011 -1.83868)
(0.00309121 12.7492 2.96811)
(0.00208215 2.22142 9.57451)
(-37.8889 -23.5274 5.60474)
(-38.0503 -25.8434 4.99124)
(-38.002 -29.2279 3.22265)
(38.1758 -1.1881 6.97731)
(38.2458 3.42292 7.55503)
(38.1525 11.9868 10.8542)
(0.00178662 9.59059 -0.507165)
(0.00407115 13.459 0.529029)
(0.00203713 22.9586 5.76448)
(-38.0771 1.00798 5.81154)
(-38.136 6.97465 6.14831)
(-37.9569 12.6185 8.50423)
(37.8641 55.9149 -11.2729)
(37.949 49.8352 -9.47681)
(38.2636 46.062 -5.25645)
(0.0189273 20.8513 -2.11721)
(0.00305063 -3.01721 1.69721)
(-0.0042679 -13.6917 6.68728)
(-37.6725 57.7333 -11.7965)
(-37.7732 52.6058 -8.91281)
(-38.233 49.7322 -5.07212)
(38.502 42.5709 5.49981)
(38.5678 35.5795 8.36197)
(38.3509 33.0774 8.06936)
(0.00217971 3.55743 15.4605)
(-0.00468334 -20.3418 8.24977)
(-0.00542872 -11.7079 3.07103)
(-38.5274 46.087 1.56724)
(-38.6146 43.1504 7.38969)
(-38.2346 37.7291 7.75584)
(38.3019 -18.2022 11.6744)
(38.6633 -8.83842 7.74946)
(38.6072 -3.58823 7.5861)
(-0.00225543 -36.8278 6.91556)
(-0.00737047 -25.0351 -0.107638)
(-0.00585458 -18.1816 -0.704223)
(-38.2603 -17.8881 14.767)
(-38.5706 -4.39522 8.58342)
(-38.5642 1.73485 7.50157)
(37.432 23.7289 -35.3663)
(37.2024 31.5445 -26.4421)
(38.2378 53.5154 -20.7514)
(0.0167947 18.3283 -14.8252)
(0.0360371 20.5153 -10.7367)
(0.0405404 26.5374 -3.83412)
(-37.9301 18.6283 -36.4112)
(-37.9186 28.789 -31.9266)
(-38.2269 50.1111 -24.906)
(37.6723 3.92255 -56.4984)
(37.6318 22.529 -32.6334)
(38.6232 40.6534 -5.73125)
(0.019208 9.14616 -15.9491)
(0.0467898 13.849 -2.92842)
(0.0260299 19.5451 17.4318)
(-37.6726 9.50754 -55.4238)
(-37.4597 23.941 -44.9484)
(-38.2375 37.1052 -13.2347)
(38.903 -0.43274 -71.2931)
(37.8021 18.2274 -22.7491)
(37.6727 -13.5079 16.0571)
(0.00642372 6.48232 -23.8965)
(0.0187056 -11.7257 24.4198)
(0.00794007 -30.5584 23.5884)
(-38.9855 3.63441 -72.8073)
(-37.9515 16.053 -47.5052)
(-37.5083 -3.3706 18.9643)
(38.382 -13.9163 -96.3055)
(38.5254 3.2604 4.92055)
(37.7334 -3.00118 97.7187)
(-0.0785137 -9.27423 11.6589)
(-0.0832931 11.8034 52.0517)
(-0.090175 -11.0116 93.2655)
(-38.6483 -5.07445 -107.364)
(-38.2237 -4.68602 -55.1728)
(-38.1132 6.97425 54.9877)
(37.0787 -1.02007 -129.549)
(37.2742 -14.9163 -94.1735)
(37.5423 -3.61898 -6.874)
(-0.223886 -1.67442 40.9528)
(-0.238161 1.23996 75.7104)
(-0.244967 -8.562 110.59)
(-37.6502 0.488775 -139.557)
(-37.7925 -4.09266 -104.992)
(-37.7999 5.74783 89.6816)
(36.0014 -2.56577 -148.745)
(35.8928 -4.3471 -147.018)
(35.9301 -2.5967 -143.984)
(-0.0384448 -3.33466 174.438)
(-0.0336287 -3.60018 180.313)
(-0.0207266 -5.04212 192.534)
(-36.0756 -4.47971 -155.297)
(-35.8918 -8.34555 -126.17)
(-36.4806 -1.07971 -20.8319)
(37.8602 -44.1158 -17.6939)
(37.0446 -25.9979 -21.3305)
(37.2272 -19.4657 -28.732)
(-0.0186713 -16.1562 -1.20994)
(-0.0403066 -13.1644 -7.05755)
(-0.0532521 -12.4575 -11.7119)
(-37.8142 -37.2121 -14.0356)
(-37.1886 -21.7578 -17.4265)
(-37.3613 -16.2773 -24.091)
(38.1534 -31.2991 -5.2344)
(37.4184 -18.4929 -26.7943)
(37.3436 -3.90575 -46.1643)
(-0.00769594 -11.9258 12.1373)
(-0.0230026 -7.4965 -2.1617)
(-0.0399881 -4.69769 -14.5761)
(-38.0956 -27.3102 -3.66717)
(-37.534 -15.3657 -21.8393)
(-37.5287 -2.35425 -40.2177)
(37.7578 0.316254 10.2022)
(37.5327 -11.9636 -16.6269)
(38.2567 -0.425284 -57.0991)
(-0.00497172 18.9822 15.4675)
(-0.0169154 8.67497 17.0774)
(-0.0333256 -3.22351 -18.7952)
(-37.5541 10.1556 11.4659)
(-37.6789 -13.2401 -13.7737)
(-38.2795 0.0683609 -51.119)
(37.7934 -3.84274 68.6229)
(38.1376 -0.902467 3.16149)
(38.1293 9.74971 -71.8422)
(-0.0210114 6.15746 58.0622)
(-0.0206673 -8.34248 35.752)
(-0.0220873 8.06367 8.12099)
(-37.7906 2.44755 65.0857)
(-38.1204 -5.08897 14.5957)
(-38.0345 8.50888 -67.0109)
(37.5911 1.62382 -0.0357567)
(37.5083 10.2878 -56.0054)
(37.3344 0.828024 -95.007)
(0.010177 4.26601 84.4817)
(0.0130698 2.71207 65.0228)
(0.0157166 1.37857 31.4152)
(-37.4995 2.9639 27.2354)
(-37.5609 9.10871 -20.3893)
(-37.2171 1.62978 -86.7672)
(36.0507 1.74199 -118.993)
(35.9268 3.29089 -120.684)
(35.9191 1.9271 -122.538)
(0.0767452 2.83141 177.295)
(0.0762512 4.14617 187.71)
(0.0739878 2.65875 192.413)
(-35.8172 1.76081 -114.853)
(-35.6553 3.95978 -115.974)
(-35.6151 2.60095 -118.051)
)
;

boundaryField
{
    fuel
    {
        type            fixedValue;
        value           uniform (0 0 10);
    }
    primary_air
    {
        type            fixedValue;
        value           uniform (0 0 10);
    }
    Secondary_air_RHS
    {
        type            fixedValue;
        value           uniform (0 79.5 0);
    }
    Secondary_air_LHS
    {
        type            fixedValue;
        value           uniform (0 -79.5 0);
    }
    outlet
    {
        type            pressureInletOutletVelocity;
        value           nonuniform List<vector> 
18
(
(0 0 -118.993)
(0.0767452 2.83141 177.295)
(0 0 -114.853)
(0 0 -120.684)
(0.0762512 4.14617 187.71)
(0 0 -115.974)
(0 0 -122.538)
(0.0739878 2.65875 192.413)
(0 0 -118.051)
(0 0 -148.745)
(-0.0384448 -3.33466 174.438)
(0 0 -155.297)
(0 0 -147.018)
(-0.0336287 -3.60018 180.313)
(0 0 -126.17)
(0 0 -143.984)
(-0.0207266 -5.04212 192.534)
(0 0 -20.8319)
)
;
    }
    stove_body
    {
        type            noSlip;
    }
    frontAndBack
    {
        type            empty;
    }
}


// ************************************************************************* //
