# Probe 0 (0 -0.07 0.5)
# Probe 1 (0 -0.04 0.5)
# Probe 2 (0 -0.07 0.3)
# Probe 3 (0 -0.07 0.33)
# Probe 4 (0 -0.04 0.3)
# Probe 5 (0 -0.04 0.33)
# Probe 6 (0 0 0.33)
# Probe 7 (0 0 0.3)
# Probe 8 (0 0.1 0.33)
# Probe 9 (0 0.1 0.3)
# Probe 10 (0 0.14 0.3)
# Probe 11 (0 0.14 0.33)
# Probe 12 (0 0.17 0.3)
# Probe 13 (0 0.17 0.33)
# Probe 14 (0 0.14 0.5)
# Probe 15 (0 0.14 0.33)
#       Probe             0             1             2             3             4             5             6             7             8             9            10            11            12            13            14            15
#        Time
          0.5       292.046       292.092        302.06       301.866       301.594       301.883       302.098       301.648       302.098       301.805       301.598       301.915       302.026       301.899       292.086       301.915
            1       292.105       292.154       301.981       301.937       301.639       301.976       302.077       301.853       302.088       301.892       301.659        301.98       302.017       301.855       292.163        301.98
          1.5       292.041       292.089        301.81       301.701       301.466       301.758       301.858       301.601       301.914       301.673       301.501       301.801       301.829       301.726       292.106       301.801
            2       292.045       292.093       301.794       301.693       301.469       301.747       301.866       301.615       301.913       301.676       301.507       301.797       301.837       301.708       292.097       301.797
          2.5        292.04       292.087       301.785       301.681       301.454       301.738       301.864       301.616       301.901        301.67       301.505       301.793        301.83        301.71       292.106       301.793
            3        292.04       292.087       301.785       301.681       301.454       301.738       301.864       301.616       301.901        301.67       301.505       301.793        301.83        301.71       292.106       301.793
          3.5        292.04       292.087       301.785       301.681       301.454       301.738       301.864       301.616       301.901        301.67       301.505       301.793        301.83        301.71       292.106       301.793
            4        292.04       292.087       301.785       301.681       301.454       301.738       301.864       301.616       301.901        301.67       301.505       301.793        301.83        301.71       292.106       301.793
          4.5        292.04       292.087       301.785       301.681       301.454       301.738       301.864       301.616       301.901        301.67       301.505       301.793        301.83        301.71       292.106       301.793
            5        292.04       292.087       301.785       301.681       301.454       301.738       301.864       301.616       301.901        301.67       301.505       301.793        301.83        301.71       292.106       301.793
