/*--------------------------------*- C++ -*----------------------------------*\
  =========                 |
  \\      /  F ield         | OpenFOAM: The Open Source CFD Toolbox
   \\    /   O peration     | Website:  https://openfoam.org
    \\  /    A nd           | Version:  6
     \\/     M anipulation  |
\*---------------------------------------------------------------------------*/
FoamFile
{
    version     2.0;
    format      ascii;
    class       volScalarField;
    location    "1.5";
    object      p;
}
// * * * * * * * * * * * * * * * * * * * * * * * * * * * * * * * * * * * * * //

dimensions      [1 -1 -2 0 0 0 0];

internalField   nonuniform List<scalar> 
297
(
119073
119072
119073
198744
198742
198745
119073
119072
119073
119073
119073
119073
198753
198752
198754
119073
119073
119073
119073
119074
119073
198762
198762
198762
119073
119074
119073
98166.5
97837.5
97771.2
162790
162246
162060
98075.2
97963.5
97510.1
96463.6
95595.9
94978.5
160382
158372
157023
97236.6
96117.5
94796.3
95334.6
92425.5
91110.9
154379
150664
153052
92420.2
90825.8
92251.5
92199.3
93445.8
95214.2
152121
153858
156366
95997.3
93471.2
94430.3
96107.3
96068.8
97291.5
158644
160042
162404
94821.5
95997.3
97916.1
97172.2
97139.7
97598.1
161616
161788
162593
97066.9
97411.1
98025.1
92338.4
91059.1
87961.6
139707
146467
149538
93177.5
90301.6
87230.3
92416.5
91013.6
87861.1
138944
146206
148423
93267.7
90377.3
87082.1
92940.9
91194.4
88261.9
140031
146697
148266
93673.8
90637.6
87509.3
97577.6
97532.1
97709.1
162567
162534
162634
97691.1
97842.3
97835.9
97571.3
97673.1
97802.6
162746
162796
162686
97771.9
97933.8
97643.5
97567
97796.5
97892.8
162840
162963
162739
97778
97983
97530
97711
97809.8
98180.8
162840
162834
162789
97828
97916.7
98134.3
97624.5
97639.8
97862.7
162833
162754
162605
97668.4
97715.8
97811.6
97588.3
97471.9
97469.4
162894
162782
162508
97558.9
97521.2
97422.4
98141.1
97998.8
97916.7
162430
162620
162764
97352.9
97532.2
97703.6
98032
97954.3
97822.2
162380
162606
162738
97138.4
97412.7
97648.7
97928.5
97929
97795.1
162279
162576
162730
97067
97393.5
97635.5
98400.8
98528.6
98415.3
162256
162279
162326
98824.7
98293.4
97591.7
98193.7
98284.2
98207.6
161953
161946
162104
98268.2
97562.8
97124.4
97934.1
97986.8
97939.3
161474
161467
161647
97658.3
97056.7
96781.2
96609
96589.9
96598.1
158534
158496
158369
94760.2
94704.7
94629.9
91801.7
91766.7
91753
151255
151234
151183
90807.1
90785.7
90682
85417.7
85411.4
85407.5
138815
138775
138713
87241.3
87378
87517.8
98469.8
98549.9
98505.5
162895
162923
162859
98252.5
98221.2
98117.6
98218.3
98424.8
98419.6
162654
162696
162653
98030
98140.1
98082.2
98005.3
98312.2
98285.3
162400
162446
162350
97870.7
98107.6
98037
97083.8
97117.4
97152.4
160911
160997
160978
97185.6
97220.1
97255.8
92690.7
92678.3
92723
153504
153510
153519
92663.4
92650.5
92694.6
85779.6
85779.5
85786.6
138125
138142
138156
85781.1
85780.9
85788
)
;

boundaryField
{
    fuel
    {
        type            zeroGradient;
    }
    primary_air
    {
        type            zeroGradient;
    }
    Secondary_air_RHS
    {
        type            zeroGradient;
    }
    Secondary_air_LHS
    {
        type            zeroGradient;
    }
    outlet
    {
        type            totalPressure;
        rho             rho;
        psi             none;
        gamma           1;
        p0              uniform 100000;
        value           nonuniform List<scalar> 
18
(
89210.6
100000
89209.4
89191.5
100000
89190.5
89230.1
100000
89228.7
88583.1
100000
89661.2
88549.7
100000
93724.7
88543.9
100000
99998.8
)
;
    }
    stove_body
    {
        type            zeroGradient;
    }
    frontAndBack
    {
        type            empty;
    }
}


// ************************************************************************* //
