/*--------------------------------*- C++ -*----------------------------------*\
  =========                 |
  \\      /  F ield         | OpenFOAM: The Open Source CFD Toolbox
   \\    /   O peration     | Website:  https://openfoam.org
    \\  /    A nd           | Version:  6
     \\/     M anipulation  |
\*---------------------------------------------------------------------------*/
FoamFile
{
    version     2.0;
    format      ascii;
    class       surfaceScalarField;
    location    "1.5";
    object      phi;
}
// * * * * * * * * * * * * * * * * * * * * * * * * * * * * * * * * * * * * * //

dimensions      [1 0 -1 0 0 0 0];

internalField   nonuniform List<scalar> 
675
(
1.09668e-05
-8.53549e-05
0.000161395
-1.08364e-05
-4.50085e-05
0.000154791
-8.56953e-05
0.000161522
-1.84112e-05
8.53504e-05
0.000138808
1.93791e-05
4.50293e-05
0.000168839
8.5691e-05
0.000138574
1.0958e-05
0.000161397
-1.08269e-05
0.000154799
0.000161524
7.46286e-06
-0.000104451
0.000218509
-6.82782e-06
-4.95076e-05
0.000179426
-0.000103503
0.000217968
-3.11721e-05
0.000104445
2.94132e-05
3.64742e-05
4.95331e-05
8.39028e-05
0.000103497
3.71897e-05
7.45618e-06
0.000218508
-6.8209e-06
0.000179447
0.000217968
1.39073e-06
5.02709e-05
-9.65674e-07
1.51615e-05
4.97631e-05
-3.9305e-06
-5.02765e-05
-9.41432e-07
-1.51642e-05
-4.9768e-05
1.38035e-06
-9.56428e-07
0.0266316
-0.0184503
-0.00327658
0.0275046
-0.00916278
0.00980695
0.000476689
0.0293424
0.0366747
0.0192051
-0.0678898
0.0395025
0.00913949
-0.0166581
-0.00156243
0.0531992
0.0261961
-0.00472286
0.0261768
0.00915648
0.0284892
0.0267072
-0.0133381
-0.017689
0.0217224
2.40144e-05
0.017136
0.00967867
0.0423395
0.039113
0.0101922
-0.131384
0.03007
-0.00237991
-0.000955045
-0.010054
0.0995958
0.0298155
-0.0208875
0.0254483
0.0155206
0.039515
0.0163909
0.00678927
-0.0446891
0.0342745
0.0106556
-0.0129808
0.0113517
0.0625494
0.0351972
-0.00677058
-0.154599
0.0219084
-0.0113806
0.0387839
-0.011771
0.14744
0.0176391
-0.0464073
0.037368
-0.013139
0.0634033
-0.0157542
0.0249066
-0.0700901
0.0732124
-0.0203057
-0.00955334
-0.010352
0.0239723
-0.0043216
0.0454485
-0.0632787
-0.0393861
-0.0221886
-0.0624801
0.151193
-0.0333049
0.0091007
-0.0106265
-0.0189389
0.00242714
0.0541948
-0.0921289
-0.0170158
-0.0750487
0.0726749
-0.0236676
-0.0165237
0.0242597
0.0449079
-0.0655991
-0.02513
-0.0210536
-0.030845
-0.0227682
-0.00909951
-0.00635025
0.00132677
0.0208931
-0.0429263
0.0219164
-0.0514369
-0.0415391
0.00548375
-0.0228344
-0.00306333
0.0190009
-0.0222846
-0.0330037
-0.0239788
-0.00850149
0.0202117
-0.0153122
0.000902785
-0.0161466
-0.0146559
-0.00233016
-0.00310061
0.0044759
0.00236187
-0.0239694
0.00187145
-0.0269749
-0.0332882
-0.0010323
-0.0156265
-0.00469166
-0.00744882
-0.0115198
-0.0206336
-0.0136687
-0.00716413
0.00120342
-0.00205231
0.000593714
-0.0497524
0.00293762
0.00044038
-0.0181682
-0.0128478
0.0719746
-0.00122967
-0.000186661
-0.16327
0.00471609
-1.21197e-05
0.0328522
0.0139044
0.115168
-0.00210484
-0.0515759
0.00244662
-0.0180239
0.0738424
-0.00209316
0.000904149
-0.0552478
0.000533984
0.0002799
-0.0208438
-0.00199976
0.0681921
-0.00181773
-0.000318066
-0.171396
0.00232537
6.36155e-05
0.0285542
0.0021333
0.103247
-0.00227278
-0.0574011
0.000375153
-0.0209869
0.0704248
-0.00272214
0.0139363
0.000297172
0.00031747
-0.0010844
-0.00842917
-0.00938444
0.00112623
-4.30466e-05
0.0010833
-0.00274759
8.06821e-05
-0.00471035
-0.000644307
-0.00342944
-0.00740167
-0.00882319
0.000114873
0.00100012
-0.000157858
0.00562251
-0.0112608
-0.0122019
0.000483131
-0.0122284
-0.0040315
-0.0166582
-0.00116054
-0.0100042
-4.38024e-05
-0.00731009
-0.0177057
-0.00135566
-0.00545233
-0.0138852
-0.0104314
0.000770099
0.00316834
-0.0123453
-0.00984801
0.0015518
-0.00198043
0.00662683
-0.0107088
0.000453694
0.00110182
-0.000252053
0.00480276
-0.00987172
-0.00703176
-0.00215507
-0.00585041
0.0039211
-0.0101226
-0.00176255
-0.0044816
2.47184e-05
-0.00442308
-0.0132634
-0.00417695
0.00411541
-0.0081191
-0.00978575
0.00447626
0.00288077
-0.0101487
-0.00350124
0.00247101
-0.00130668
-0.0051796
0.00180398
0.000817756
-0.00213277
-0.00392717
-0.00312201
0.00322703
-0.00315403
-0.00298019
-0.00171166
-0.00440223
-0.0031493
0.00354962
-0.00191795
-0.00156265
-0.011862
0.000249294
0.000349169
-0.0124956
0.00169385
-0.000939303
0.00158203
-0.00518792
-0.00869091
-0.0164008
-0.000151957
-0.000984156
-0.0137479
-0.00164357
0.000578745
-0.0015569
0.00152145
-0.0122747
-0.0122603
-0.000253625
-0.0126023
-0.00122602
-0.0052695
-0.00879152
-0.0100337
0.000226458
0.000165901
-0.00969429
0.000997418
-0.00223206
7.84967e-05
-0.0058655
-0.00895093
-0.0134286
-0.00016239
-0.000386546
-0.0109788
-0.000968544
2.78969e-05
-4.71493e-05
0.00190688
-0.0113516
-0.0101873
-0.000385198
-0.00975605
-0.00253001
-0.00598333
-0.00897654
-0.00238049
0.000192699
-0.00444138
-0.000204289
-0.00142218
-0.0087942
-0.00416817
-0.000263723
-0.00459574
0.000272628
0.00143481
-0.00562952
-0.00221204
-0.00436153
-0.00878273
0.00785556
0.00165375
-0.00219481
-0.00733787
0.00782148
0.000793768
-0.000831159
0.00015654
0.000184299
0.00484825
0.000816766
0.00144171
-0.00542408
0.00433177
0.000761318
0.000381481
0.000327138
-0.000127531
0.0150766
0.000916992
-0.0151557
0.0146045
0.00110209
0.000834426
-0.000880204
0.00158323
0.00137934
-0.00432701
-0.00481197
0.000960276
0.00206382
0.00147106
0.00042384
-0.00425648
0.000632518
0.00610847
0.000537084
-0.00547339
-0.00017395
0.00258732
3.09306e-05
-0.000468697
0.00973859
0.00174152
-0.00990112
0.00935752
0.00119775
0.00190827
0.000928113
0.00144078
-0.00102364
0.00194664
0.000943807
0.000951918
-0.0064491
0.000956998
0.01306
-0.00337311
0.000320695
0.000111751
-0.00678699
0.00951769
-0.00537724
-0.00270117
0.00236962
0.000485318
0.00299679
0.00207185
-0.00765166
0.00171054
-0.0059941
0.0036838
-0.00225805
0.00125049
0.00471123
-0.00093434
0.00223756
-0.000959346
0.00211967
0.00990272
-0.0118619
0.0154554
-0.00625091
-0.000524387
-0.00222005
0.00224938
0.000596727
0.00200439
0.00197009
-0.0137335
0.0016196
-0.00988487
0.00337194
-0.00196458
0.00237139
0.00254554
-0.000507769
0.00577747
-0.000547006
0.00749757
0.00789093
-0.0214544
0.0110701
-0.00971705
0.000228472
-0.00247908
0.00166664
0.00152632
0.00380034
0.00309382
-0.0230095
0.00133466
-0.00840126
-0.00229538
-0.00400966
0.0105675
-0.00750115
-0.000251006
0.0145064
0.000488519
0.0140002
0.00899408
-0.0341879
0.000609571
-0.00141488
0.0109444
0.0075466
0.0148367
-0.0210778
-0.00396484
0.0168655
-0.0286288
0.0164377
-0.0290666
-0.00813885
0.00149058
0.0319802
-0.00464157
0.00501701
0.0228232
0.00379911
0.0219511
0.00652357
-0.0395978
0.0157172
-0.00597436
0.03006
0.00454767
0.00867179
-0.0342765
0.00242778
0.00855202
-0.0350392
0.00863445
-0.0352505
0.00672596
-0.00109176
0.0353916
0.00944394
-0.0035345
0.032533
-0.000969062
0.0412815
-0.00179294
-0.0389537
0.00549409
-0.0168438
0.0345469
0.000551824
0.0160616
0.000308943
0.0161566
0.0160217
0.00179009
-0.0214933
0.00213869
-0.023176
-0.0225357
-0.0117631
-0.0128862
-0.00290633
0.00162156
-0.00730334
0.00200108
0.00187222
-0.00673758
0.00171164
0.000286913
-0.00585922
-0.00161727
-0.00323117
0.00143781
-0.00187416
-0.00354415
-0.00171604
0.00491392
-0.00298508
-0.00735581
0.00196025
-0.00676071
0.000297857
-0.00513979
0.00115321
-0.0121922
0.000928806
0.00161078
-0.0143936
0.00171016
-0.000506178
-0.006342
-0.00114724
-0.00598293
6.15537e-05
-0.00161629
-0.0067103
-0.00171412
0.00844742
-0.00520043
-0.0122017
0.000885988
-0.0143898
-0.000464249
-0.00760389
0.00174883
-0.0150876
0.00357711
0.00438395
-0.0299512
0.0014863
0.00156352
-0.00546364
-0.00175389
-0.0026782
0.000382473
-0.0043875
-0.00377095
-0.00149208
0.0118544
-0.00767819
-0.0149702
0.00351209
-0.0298662
0.00162055
0.00225334
0.0103761
-0.0278717
-0.0122624
0.0107475
-0.0263435
0.00825375
-0.0191128
0.00439011
-0.0103691
0.0138462
0.00249382
-0.0107414
0.0198205
-0.00824554
0.0310858
0.00225364
-0.0278655
-0.0122356
-0.0263848
-0.0191254
-0.00392705
0.00685807
-0.0308614
-0.00457437
0.00614271
-0.0318923
0.00672083
-0.0304584
-0.00419674
-0.00684085
0.0321329
-0.00684748
-0.00612616
0.0351357
-0.00670238
0.0380419
-0.00391383
-0.0308577
-0.00457935
-0.0319073
-0.0304669
0.00011849
0.0186851
-0.000620547
0.0185486
0.0185454
-0.00314905
-0.0186877
-0.00383844
-0.0185491
-0.0185472
0.000127097
-0.0006196
)
;

boundaryField
{
    fuel
    {
        type            calculated;
        value           nonuniform List<scalar> 
36
(
0.000126092
0.000210478
0.000126092
0.000126092
0.000210478
0.000126092
0.000126092
0.000210477
0.000126092
-0.000126091
-0.000210458
-0.000126091
-0.000126091
-0.000210456
-0.000126091
-0.000126091
-0.00021046
-0.000126091
0
0
0
0
0
0
0
0
0
0
0
0
0
0
0
0
0
0
)
;
    }
    primary_air
    {
        type            calculated;
        value           nonuniform List<scalar> 9(-0.00322811 -0.00535316 -0.00322511 -0.00321728 -0.00533528 -0.0032214 -0.0032151 -0.0053292 -0.00320652);
    }
    Secondary_air_RHS
    {
        type            calculated;
        value           nonuniform List<scalar> 9(0.00610676 0.0103817 0.00605588 0.00609963 0.0103041 0.0060458 0.0061273 0.010293 0.00607535);
    }
    Secondary_air_LHS
    {
        type            calculated;
        value           nonuniform List<scalar> 9(0.006411 0.00969851 0.00646892 0.00641608 0.00964602 0.00647602 0.0064525 0.00972222 0.00650429);
    }
    outlet
    {
        type            calculated;
        value           nonuniform List<scalar> 
18
(
-0.0497708
0.0727099
-0.0497729
-0.0498086
0.07298
-0.0498103
-0.0497322
0.0713684
-0.0497345
-0.050999
0.0712909
-0.0487764
-0.0510627
0.0716278
-0.03898
-0.0510734
0.0820661
-0.000957166
)
;
    }
    stove_body
    {
        type            calculated;
        value           uniform 0;
    }
    frontAndBack
    {
        type            empty;
        value           nonuniform 0();
    }
}


// ************************************************************************* //
