/*--------------------------------*- C++ -*----------------------------------*\
  =========                 |
  \\      /  F ield         | OpenFOAM: The Open Source CFD Toolbox
   \\    /   O peration     | Website:  https://openfoam.org
    \\  /    A nd           | Version:  6
     \\/     M anipulation  |
\*---------------------------------------------------------------------------*/
FoamFile
{
    version     2.0;
    format      ascii;
    class       volScalarField;
    location    "1.5";
    object      T;
}
// * * * * * * * * * * * * * * * * * * * * * * * * * * * * * * * * * * * * * //

dimensions      [0 0 0 1 0 0 0];

internalField   nonuniform List<scalar> 
297
(
292.7
292.701
292.699
292.994
293
292.994
292.7
292.701
292.699
292.699
292.709
292.652
293.226
293.696
293.054
292.699
292.709
292.652
292.362
293.552
292.326
322.797
402.378
300.666
292.362
293.548
292.327
879.224
831.184
704.826
930.645
907.198
780.754
866.498
832.914
695.291
1077.26
1030.61
801.092
974.819
982.988
838.945
989.766
962.402
812.973
1154.37
1122.89
936.791
969.584
1014.26
873.214
987.88
1016.02
881.004
887.029
1133.29
1164.12
818.257
1044.36
1067.17
796.472
1088.12
1109.55
829.203
1141.07
1170.71
702.155
1003.39
1079.53
703.242
1071.78
1116.18
511.33
1073.07
1170.34
444.143
745.638
928.28
457.083
933.852
1115.36
1157.25
1136.43
1015.49
946.322
1019
928.88
1015.91
1086.57
964.97
1046.02
1136.15
1083.73
906.696
1019.55
958.195
935.957
1086.66
1028.77
953.061
1134.24
1153.16
871.013
1018.29
1057.02
860.375
1086.57
1093.23
349.357
471.882
466.53
308.647
305.081
301.23
302.295
345.509
365.813
337.285
339.768
337.056
312.996
305.638
301.671
304.837
311.321
309.18
324.409
320.859
319.467
313.525
311.429
303.9
306.586
308.983
305.56
300.313
300.404
300.589
301.063
301.048
301.054
300.637
300.672
300.732
300.69
300.67
300.766
301.364
301.31
301.258
300.932
300.881
300.873
300.933
300.837
300.809
301.724
301.696
301.541
301.058
301.035
300.908
302.076
306.351
306.227
300.455
300.546
301.189
298.857
299.049
299.151
307.521
337.142
337.028
315.312
320.437
318.051
300.899
300.96
301.024
302.435
327.639
331.46
318.145
320.61
316.834
305.352
304.783
304.952
301.764
301.625
301.358
300.701
301.033
300.955
298.566
299.255
298.835
301.864
301.485
301.161
300.838
301.113
301.842
298.344
300.01
300.009
301.934
301.336
300.955
301.422
305.352
312.711
298.155
300.566
305.498
300.979
301.046
300.384
300.225
303.885
306.258
298.348
300.276
301.615
298.379
298.184
297.456
299.043
302.268
302.735
294.963
294.782
297.401
292.12
292.096
291.379
287.618
287.774
284.952
291.054
291.05
302.008
300.658
300.736
300.848
301.102
301.11
300.979
300.638
300.615
300.644
300.668
300.767
300.924
301.266
301.204
300.928
300.633
300.608
300.705
300.553
300.711
300.993
301.49
301.174
300.904
300.573
300.611
300.786
300.39
300.684
300.582
301.911
301.071
299.128
300.61
300.82
300.663
298.093
297.949
298.019
300.11
299.032
298.54
298.05
297.822
298.013
291.716
291.712
291.833
287.682
287.426
287.662
291.718
291.713
291.834
)
;

boundaryField
{
    fuel
    {
        type            fixedValue;
        value           uniform 293;
    }
    primary_air
    {
        type            fixedValue;
        value           uniform 293;
    }
    Secondary_air_RHS
    {
        type            fixedValue;
        value           uniform 293;
    }
    Secondary_air_LHS
    {
        type            fixedValue;
        value           uniform 293;
    }
    outlet
    {
        type            inletOutlet;
        inletValue      uniform 293;
        value           nonuniform List<scalar> 
18
(
293
287.683
293
293
287.427
293
293
287.663
293
293
287.618
293
293
287.775
293
293
284.955
293
)
;
    }
    stove_body
    {
        type            fixedValue;
        value           uniform 293;
    }
    frontAndBack
    {
        type            empty;
    }
}


// ************************************************************************* //
