/*--------------------------------*- C++ -*----------------------------------*\
  =========                 |
  \\      /  F ield         | OpenFOAM: The Open Source CFD Toolbox
   \\    /   O peration     | Website:  https://openfoam.org
    \\  /    A nd           | Version:  6
     \\/     M anipulation  |
\*---------------------------------------------------------------------------*/
FoamFile
{
    version     2.0;
    format      ascii;
    class       volVectorField;
    location    "0.5";
    object      U;
}
// * * * * * * * * * * * * * * * * * * * * * * * * * * * * * * * * * * * * * //

dimensions      [0 1 -1 0 0 0 0];

internalField   nonuniform List<vector> 
297
(
(47.8002 -0.0127104 0.215445)
(47.8 -0.00440246 0.218764)
(47.8005 0.00525312 0.208319)
(-1.75122e-05 0.0265202 0.276919)
(-1.82564e-05 0.00793104 0.280259)
(-1.75196e-05 -0.019114 0.27751)
(-47.8002 -0.0121392 0.215467)
(-47.8001 -0.00321775 0.21889)
(-47.8005 0.00600375 0.208838)
(47.8806 -0.0226035 0.22756)
(47.8776 -0.0202775 0.24267)
(47.8985 0.0208732 0.245218)
(-1.71494e-05 0.0424346 0.24453)
(-1.84296e-05 0.0201613 0.264099)
(-1.80111e-05 -0.0269483 0.256727)
(-47.8795 -0.0221439 0.227767)
(-47.8778 -0.0185823 0.24274)
(-47.8994 0.021696 0.24575)
(48.3156 -0.224569 0.438958)
(49.0277 -0.0556702 0.440229)
(47.8648 0.158559 0.398562)
(-1.64812e-05 0.14756 0.0676488)
(-1.86881e-05 0.102122 0.0300796)
(-1.78344e-05 -0.180665 0.0343894)
(-48.3137 -0.223436 0.43851)
(-49.0274 -0.0540327 0.440238)
(-47.871 0.15991 0.399119)
(47.4806 15.2484 -5.60434)
(46.2719 21.0288 7.29269)
(41.7998 23.6107 7.42033)
(0.00269614 4.81999 -32.5896)
(0.00188952 16.9806 -20.1006)
(0.000775081 24.5171 12.115)
(-47.1833 15.2623 -5.77239)
(-46.119 21.1835 7.09873)
(-41.9104 24.2195 8.47544)
(51.1639 1.43459 -17.3389)
(50.4835 30.5085 13.9858)
(46.5504 24.1743 45.7299)
(0.000431855 -6.39301 -48.8902)
(-6.314e-05 25.0699 -3.57049)
(0.0012014 16.6344 44.1487)
(-50.2876 1.18287 -19.3739)
(-49.7561 30.1909 12.2026)
(-46.3097 24.4064 45.2736)
(50.5565 -22.1615 -54.7563)
(50.89 29.3985 8.3851)
(47.5414 37.4133 64.2997)
(-0.00172188 -21.0525 -80.7905)
(-0.00378411 25.4007 10.749)
(-0.00235567 34.9119 66.0927)
(-49.6536 -21.4857 -56.0535)
(-50.0454 28.8064 7.75198)
(-47.0287 37.489 64.2546)
(46.9466 -34.2422 -79.2891)
(52.7251 -39.4445 8.14625)
(53.1086 13.5222 49.7605)
(-0.00115028 -34.3431 -88.206)
(0.00180334 -26.9322 -28.3712)
(0.00089319 15.0741 52.3042)
(-46.2858 -33.4988 -79.6847)
(-51.5322 -40.0406 5.60938)
(-52.4711 13.2756 49.7046)
(41.9362 -3.82234 -62.595)
(50.7901 -30.8401 -23.1826)
(53.6301 2.48038 22.1575)
(-0.00310276 -6.51893 -60.9896)
(0.0033095 -24.1515 -29.8309)
(0.0017585 1.22707 13.4407)
(-41.4112 0.190143 -62.2817)
(-49.3549 -31.3523 -28.3744)
(-52.9861 3.16134 20.8338)
(34.3447 -7.87356 -20.043)
(41.372 -18.5868 -23.9484)
(43.783 -21.276 -9.86395)
(-0.001617 -23.087 -18.0769)
(0.00366243 -16.1452 -16.9211)
(0.00338914 -15.7187 -1.54358)
(-34.9967 1.95272 -19.3814)
(-38.4117 -18.4458 -21.5653)
(-44.1257 -20.9309 -7.39582)
(45.3384 -30.2818 -108.476)
(49.3912 21.1547 10.3357)
(50.6676 30.4866 82.2213)
(-0.0178067 -26.1431 -128.018)
(-0.00698779 14.6426 14.314)
(-0.00417618 27.1764 84.1694)
(-44.4668 -29.4125 -108.735)
(-48.7388 20.1238 9.75109)
(-50.2218 30.349 82.1901)
(48.6629 -32.4076 -100.54)
(50.0766 14.6678 5.33807)
(50.2213 30.3971 87.7347)
(-0.0197102 -28.2266 -117.221)
(-0.00710959 8.37553 12.481)
(-0.0041628 27.4264 91.5476)
(-47.6506 -31.6696 -100.827)
(-49.3614 13.0292 4.44454)
(-49.6637 30.1925 87.6417)
(51.6835 -32.3941 -96.4972)
(50.9111 -8.97469 11.9806)
(47.6952 25.5014 97.2573)
(-0.0193269 -27.8655 -110.597)
(-0.00638239 13.3458 15.4334)
(-0.00416834 22.5038 102.027)
(-50.8828 -31.6493 -96.7143)
(-50.1105 -12.8894 12.5906)
(-47.1017 25.3178 97.1674)
(32.37 30.9869 -5.08605)
(32.3075 -9.47322 -6.4223)
(32.0187 -34.062 -8.85593)
(0.00213013 -14.7445 -4.8471)
(0.00506352 -21.1997 -8.93638)
(-0.000904735 -26.5732 -7.87488)
(-32.1548 37.7142 -9.45879)
(-32.2279 -5.08202 -7.70779)
(-32.0793 -36.2305 -7.79864)
(32.5349 27.1966 1.64461)
(32.5926 21.8744 0.305212)
(32.3547 -24.1085 0.0567939)
(0.00517687 -1.88569 -0.893051)
(0.00516812 -8.42768 -2.73311)
(-0.00311425 -18.0774 -1.38439)
(-32.4138 29.1399 5.22273)
(-32.3814 -2.634 2.28939)
(-32.3584 -28.6829 1.43468)
(32.6254 2.06409 4.38261)
(32.6264 8.85359 2.1016)
(32.5288 -1.58608 0.0917577)
(0.00478478 -8.56088 0.358061)
(0.00480387 -5.58024 -1.25782)
(-0.00370776 -3.84636 -4.06295)
(-32.4672 -5.06329 1.00801)
(-32.447 -5.07656 3.12422)
(-32.4492 -2.65262 1.25031)
(32.0083 -34.1692 -7.24929)
(32.2843 -28.6405 -10.9899)
(32.2486 -23.1895 -13.9645)
(-0.00340693 -26.769 -6.31667)
(-0.00298463 -24.4411 -7.0761)
(0.000464833 -18.0346 -6.76072)
(-32.0402 -36.5434 -7.07664)
(-32.3381 -31.7614 -11.3951)
(-32.2935 -24.9107 -15.1974)
(32.3012 -26.4924 -0.799295)
(32.358 -26.2078 -6.88597)
(32.1031 -22.5028 -13.7686)
(-0.00540783 -19.1247 1.18325)
(-0.0059442 -19.855 1.38969)
(-0.00344477 -15.8413 1.48235)
(-32.3407 -29.8069 -0.333784)
(-32.4097 -29.8253 -6.75329)
(-32.1395 -24.289 -15.3094)
(32.4229 2.68103 0.507286)
(32.3846 -13.8303 -13.0734)
(31.9398 -19.5235 -18.8394)
(-0.00638266 -3.16037 -3.12691)
(-0.0076459 -7.35689 -0.375459)
(-0.00825465 -7.41237 3.38666)
(-32.4568 0.321796 0.314319)
(-32.4959 -16.4638 -11.9239)
(-32.0074 -21.3669 -21.0801)
(32.4587 23.5966 -18.4156)
(32.2396 37.0535 -6.41362)
(31.8313 32.4483 -2.52194)
(-0.0742524 -2.24901 -0.866852)
(-0.0391691 -14.6535 -0.676497)
(-0.0228802 -15.3058 -3.74923)
(-31.9209 53.2573 -10.4857)
(-32.0154 48.1168 -9.09703)
(-32.1507 44.1819 -5.79198)
(32.2785 17.9976 -18.6351)
(32.5921 33.0167 -4.38463)
(32.2394 28.3001 3.04057)
(-0.0648028 -8.46558 10.4629)
(-0.0258279 -9.34336 3.23681)
(-0.011042 -6.49196 0.0321476)
(-32.4491 41.472 4.14037)
(-32.5214 38.5447 6.8792)
(-32.3244 34.162 6.95542)
(32.2593 14.9538 -25.6869)
(32.666 2.71638 13.2038)
(32.5584 8.20611 10.7811)
(-0.0353567 -24.8311 7.65472)
(-0.0183593 -14.6178 2.4282)
(-0.00800403 -13.4013 -0.0328716)
(-32.38 -19.6705 9.08986)
(-32.5224 -11.3907 4.32925)
(-32.4362 -6.11708 4.39751)
(32.3215 -8.55703 -9.27281)
(32.2987 0.819157 -26.6916)
(32.3125 16.1347 -23.5772)
(0.0730459 5.06514 -6.61243)
(0.00367166 0.137991 -4.76218)
(-0.0678995 8.33581 -4.26353)
(-31.4057 23.6315 -33.3252)
(-31.3177 30.6407 -24.5156)
(-32.0521 51.6841 -19.1801)
(32.3529 -5.63802 7.32833)
(32.2904 6.04512 -34.9697)
(32.2207 15.0989 -33.1529)
(0.0284679 1.66951 10.7611)
(-0.0526876 2.16975 9.91976)
(-0.0917861 5.76354 13.0053)
(-31.6027 5.71846 -54.5453)
(-31.7949 21.856 -30.5205)
(-32.4614 40.4137 -5.08023)
(32.2699 -1.5115 6.64755)
(32.8516 4.41104 -44.1449)
(32.3939 7.88612 -43.7488)
(-0.0212698 -1.02735 6.98775)
(-0.0846248 -11.3823 17.8297)
(-0.0950302 -20.4496 19.4647)
(-32.5535 2.38408 -69.2387)
(-32.0467 20.7579 -20.5104)
(-31.9759 -14.3549 19.6736)
(32.1687 3.61237 -12.1879)
(32.2577 3.38815 -62.7641)
(32.2081 -4.41117 -78.0033)
(-0.183782 0.125387 60.2929)
(-0.1855 -2.39649 35.9908)
(-0.189282 -11.5169 32.3035)
(-32.5305 -10.2646 -97.0607)
(-32.511 12.1333 36.4821)
(-32.4634 -4.21256 72.3939)
(31.7063 1.40155 -123.496)
(31.6938 1.75189 -129.351)
(31.6349 4.32859 -128.688)
(-0.0940741 2.22673 87.3183)
(-0.0920712 3.62633 69.7981)
(-0.0991991 -0.382636 67.1018)
(-31.5863 2.83751 -130.652)
(-31.6534 -3.54713 -70.1379)
(-31.6321 0.753025 108.271)
(30.5893 0.154548 -156.832)
(30.5747 0.266256 -157.537)
(30.4977 -0.121272 -157.483)
(0.178282 0.570508 174.453)
(0.190366 1.24286 178.981)
(0.201949 -0.13159 203.003)
(-29.9845 -3.85587 -148.368)
(-29.9211 -6.86027 -108.658)
(-30.705 -3.6382 -1.03528)
(32.1064 -13.2668 -21.636)
(32.2519 -2.85869 -16.987)
(32.2646 4.95165 -6.08218)
(0.00274397 -10.9066 -8.3992)
(0.00400067 -4.10826 -8.3565)
(0.00385842 3.81323 0.598545)
(-32.1815 -14.7521 -23.2242)
(-32.2927 -3.50153 -18.679)
(-32.3077 4.66209 -7.44925)
(32.05 -15.4192 -23.2573)
(32.2481 -5.69528 -20.0827)
(32.2366 1.25753 4.86342)
(0.000504723 -10.361 -5.6453)
(0.00332038 -5.67885 -7.33556)
(0.00359687 2.52653 10.3663)
(-32.1287 -17.0213 -25.4706)
(-32.2753 -6.12601 -22.2301)
(-32.2755 -0.158603 5.94459)
(32.3142 -11.1702 -30.0763)
(32.8547 -4.84319 -23.3945)
(32.206 -1.61966 2.11946)
(-0.00141196 -8.46719 -7.36786)
(0.00318908 -5.3434 -11.1535)
(0.00324046 2.65494 14.3021)
(-32.3192 -11.8281 -32.3123)
(-32.9241 -5.33676 -25.4023)
(-32.2079 -2.62006 0.294486)
(32.2833 9.34675 -50.3326)
(32.3566 -2.23558 -32.6006)
(32.2105 -4.40445 -3.74227)
(-0.00403079 11.4019 14.9493)
(-0.00370124 -1.54857 24.7777)
(-0.00316627 -1.30979 48.268)
(-32.3506 9.28345 -49.9968)
(-32.393 -1.58129 -34.7648)
(-32.2307 -5.1094 -4.59117)
(31.7833 -5.96258 -99.9458)
(31.7555 -0.246179 -106.474)
(31.7757 -0.402988 -100.367)
(-0.00450438 -1.01462 55.3761)
(-0.00483185 -1.69855 61.8151)
(-0.00478383 -1.2891 73.1391)
(-31.7966 -5.87932 -102.169)
(-31.7753 -0.447765 -107.651)
(-31.7912 -0.0977957 -101.423)
(30.3079 0.21876 -140.581)
(30.3165 -0.10846 -141.035)
(30.3278 -0.109868 -140.514)
(-0.004881 -0.500574 184.108)
(-0.0047608 -1.2406 183.108)
(-0.00470521 -0.85653 180.764)
(-30.3234 0.207172 -141.105)
(-30.3321 -0.138544 -141.545)
(-30.3423 -0.134063 -140.995)
)
;

boundaryField
{
    fuel
    {
        type            fixedValue;
        value           uniform (0 0 0.25);
    }
    primary_air
    {
        type            fixedValue;
        value           uniform (0 0 2.5);
    }
    Secondary_air_RHS
    {
        type            fixedValue;
        value           uniform (0 52.7778 0);
    }
    Secondary_air_LHS
    {
        type            fixedValue;
        value           uniform (0 -52.7778 0);
    }
    outlet
    {
        type            pressureInletOutletVelocity;
        value           nonuniform List<vector> 
18
(
(0 0 -140.581)
(-0.004881 -0.500574 184.108)
(0 0 -141.105)
(0 0 -141.035)
(-0.0047608 -1.2406 183.108)
(0 0 -141.545)
(0 0 -140.514)
(-0.00470521 -0.85653 180.764)
(0 0 -140.995)
(0 0 -156.832)
(0.178282 0.570508 174.453)
(0 0 -148.368)
(0 0 -157.537)
(0.190366 1.24286 178.981)
(0 0 -108.658)
(0 0 -157.483)
(0.201949 -0.13159 203.003)
(0 0 -1.03528)
)
;
    }
    stove_body
    {
        type            noSlip;
    }
    frontAndBack
    {
        type            empty;
    }
}


// ************************************************************************* //
