/*--------------------------------*- C++ -*----------------------------------*\
  =========                 |
  \\      /  F ield         | OpenFOAM: The Open Source CFD Toolbox
   \\    /   O peration     | Website:  https://openfoam.org
    \\  /    A nd           | Version:  6
     \\/     M anipulation  |
\*---------------------------------------------------------------------------*/
FoamFile
{
    version     2.0;
    format      ascii;
    class       volVectorField;
    location    "4.5";
    object      U;
}
// * * * * * * * * * * * * * * * * * * * * * * * * * * * * * * * * * * * * * //

dimensions      [0 1 -1 0 0 0 0];

internalField   nonuniform List<vector> 
297
(
(138.968 0.00549686 0.25555)
(138.902 0.00616463 0.26379)
(139.022 -0.0219114 0.255653)
(-1.27368e-06 0.0990798 -0.580213)
(2.06899e-06 0.0428354 -0.590631)
(-1.15632e-06 -0.102688 -0.584841)
(-138.968 0.0054679 0.255498)
(-138.902 0.00612681 0.263755)
(-139.022 -0.0219203 0.255598)
(138.807 -0.0157262 0.604651)
(138.79 0.000145822 0.622158)
(138.865 -0.00650665 0.612107)
(-6.59172e-07 -0.0310852 -0.324315)
(5.60558e-07 0.0224293 -0.303436)
(8.15672e-07 -0.0168821 -0.325373)
(-138.807 -0.0157487 0.604567)
(-138.79 0.000106273 0.622112)
(-138.865 -0.00652381 0.61202)
(131.229 -0.0594444 0.949835)
(131.819 -0.00670399 0.967329)
(131.38 0.0184802 0.959894)
(-8.01824e-07 -0.0377469 0.506846)
(-2.03886e-06 0.0145365 0.529858)
(8.99072e-07 -0.0105519 0.521989)
(-131.228 -0.059456 0.949802)
(-131.819 -0.00673994 0.967317)
(-131.38 0.0184561 0.959862)
(92.6185 -2.63926 -3.33521)
(93.9619 0.374986 -8.18065)
(92.6374 2.6673 -4.11752)
(0.0022511 -1.1469 3.27648)
(1.62224e-05 0.000281144 3.01298)
(-0.00221894 1.15578 3.27105)
(-92.6362 -2.65123 -4.08062)
(-93.9621 -0.372108 -8.17899)
(-92.6197 2.6511 -3.37106)
(94.7888 0.422617 8.77233)
(94.9978 1.35939 -14.6831)
(95.0745 -3.15201 7.13254)
(0.00486258 1.63336 24.6534)
(-1.52007e-05 0.00266884 16.6298)
(-0.00488564 -1.66163 24.6532)
(-95.0745 3.10716 7.09386)
(-94.9979 -1.36058 -14.6835)
(-94.7897 -0.466057 8.81724)
(95.2267 13.9841 -11.0381)
(94.5188 2.33408 -15.802)
(95.6144 -8.54048 -2.03248)
(0.018497 -1.57397 30.2392)
(0.000136638 -0.00184167 2.9473)
(-0.0185589 1.56636 30.238)
(-95.6159 8.54093 -2.00242)
(-94.481 -2.33267 -15.8045)
(-95.2269 -13.9879 -11.0655)
(94.2304 8.06277 -22.5321)
(94.5454 -1.94822 -16.562)
(94.4915 -1.01381 -19.3521)
(-0.00921297 0.864585 0.451533)
(8.66396e-05 0.007574 -7.85927)
(0.00930943 -0.872092 0.454418)
(-94.4921 1.01763 -19.3248)
(-94.5645 1.94901 -16.5753)
(-94.2298 -8.05527 -22.5601)
(94.1475 12.193 -17.7083)
(94.1858 -2.75261 -21.9063)
(94.7826 -6.60468 -12.4161)
(-0.0180991 1.53511 4.3267)
(6.64428e-05 0.0080527 0.686386)
(0.0182998 -1.53846 4.32703)
(-94.7829 6.61107 -12.4105)
(-94.1864 2.76363 -21.9135)
(-94.1474 -12.1923 -17.7127)
(94.1157 15.6074 -24.1436)
(93.9531 -6.8804 -22.8838)
(94.3422 -15.7259 -23.1587)
(-0.0283702 -0.457879 14.0251)
(7.03568e-05 0.00500296 6.66695)
(0.0284184 0.456489 14.0224)
(-94.3416 15.7303 -23.1625)
(-93.9524 6.88627 -22.8871)
(-94.1158 -15.604 -24.144)
(87.9721 17.805 -18.8214)
(88.004 1.33499 -11.5931)
(89.7573 -10.2799 -16.9326)
(-0.0106878 -1.77557 38.9436)
(0.000557953 0.00544825 -22.106)
(0.0108479 1.76532 38.9397)
(-89.749 10.3095 -16.9039)
(-89.9949 -1.29289 -11.6325)
(-87.9837 -17.7761 -18.8506)
(86.0782 12.099 -22.0639)
(90.034 -0.118813 -9.44822)
(87.535 -4.3734 -18.9066)
(-0.00978128 -1.91686 42.1903)
(0.000443373 0.00979144 -21.1122)
(0.00986998 1.90399 42.185)
(-87.6465 4.40465 -18.8873)
(-91.4981 0.1867 -9.40896)
(-86.0062 -12.065 -22.0878)
(80.957 10.7584 -21.7261)
(94.4951 -0.263798 -10.244)
(82.7556 -3.48433 -18.7678)
(-0.00795689 -2.08134 41.2816)
(-0.000182643 0.00883786 -17.3662)
(0.00794474 2.06735 41.276)
(-82.7744 3.49447 -18.7477)
(-93.5144 0.303673 -10.2274)
(-80.9384 -10.7444 -21.7471)
(92.1046 24.7804 -5.4114)
(92.9734 -7.63881 -8.14459)
(91.6638 -29.0498 -6.82733)
(-0.011661 -8.41538 13.6156)
(-9.04084e-05 0.00542332 -5.39222)
(0.0110769 8.41486 13.6123)
(-91.6632 29.0455 -6.8255)
(-92.9727 7.64083 -8.14537)
(-92.1055 -24.7789 -5.41287)
(93.3083 19.9508 -1.35409)
(93.631 -3.57839 -3.73292)
(93.1816 -23.8811 -1.74464)
(-0.00704566 -10.2762 7.43099)
(-0.000133974 0.00474021 -4.4955)
(0.00629786 10.2776 7.42731)
(-93.1812 23.8761 -1.74387)
(-93.6306 3.58148 -3.73382)
(-93.3099 -19.9493 -1.35496)
(93.9958 3.37444 0.840094)
(94.1407 -2.36305 -1.12396)
(93.9594 -6.61214 2.28875)
(-0.0027147 -5.56727 -0.0413003)
(-0.000157892 0.00429418 -0.86272)
(0.00188949 5.56906 -0.0422368)
(-93.9599 6.60675 2.28868)
(-94.1407 2.36753 -1.12394)
(-93.997 -3.37169 0.839831)
(90.1786 -31.6884 -1.48781)
(91.4564 -36.411 -4.39927)
(91.7213 -38.069 -5.76441)
(-0.00790243 15.6013 9.75352)
(-0.00836916 13.1652 5.9405)
(-0.0104689 11.861 7.41622)
(-90.7383 -26.9285 -0.751213)
(-91.6261 -31.6391 -2.89825)
(-91.8025 -33.3737 -3.91038)
(90.7973 -24.8546 4.05146)
(92.2081 -29.3598 3.37535)
(92.8291 -30.4764 1.61711)
(-0.00278351 19.2723 1.85852)
(-0.000694077 19.3623 -3.31929)
(-0.00222126 18.9348 -0.604716)
(-91.403 -20.9763 3.64743)
(-92.2558 -25.2785 3.13158)
(-92.5237 -26.7053 1.99503)
(93.3927 -8.28138 7.62678)
(93.8916 -4.16809 7.72228)
(93.8668 4.83461 8.11966)
(-0.00105971 11.2186 -5.29679)
(0.000626568 10.8578 -3.32157)
(-0.00382985 15.0727 -0.634042)
(-93.5825 -4.96523 6.18794)
(-93.8455 -1.21447 6.21009)
(-93.5389 3.76452 7.47604)
(91.796 33.3751 -3.91013)
(91.6211 31.6392 -2.89818)
(90.7376 26.9273 -0.750978)
(0.0088521 -11.8646 7.41715)
(0.00676647 -13.1697 5.94109)
(0.00646822 -15.6062 9.75517)
(-91.714 38.0573 -5.7643)
(-91.4517 36.3975 -4.39943)
(-90.182 31.6748 -1.48761)
(92.5158 26.7073 1.99505)
(92.2494 25.279 3.13152)
(91.4017 20.9753 3.64734)
(0.000633039 -18.9409 -0.602952)
(-0.000974525 -19.3684 -3.31753)
(0.00127791 -19.2776 1.86122)
(-92.818 30.4669 1.61751)
(-92.201 29.3457 3.37659)
(-90.8019 24.8408 4.05222)
(93.5361 -3.76133 7.47557)
(93.8424 1.2154 6.20968)
(93.5801 4.96569 6.18799)
(0.00229219 -15.0821 -0.635321)
(-0.00234281 -10.8659 -3.3228)
(-0.000464122 -11.2247 -5.29739)
(-93.8701 -4.84861 8.12091)
(-93.8936 4.15596 7.72298)
(-93.3938 8.26838 7.6273)
(91.2035 15.2418 -16.8432)
(89.6195 19.1746 -10.7394)
(92.3456 31.2229 -8.23166)
(0.0550013 8.31485 -3.66193)
(0.0450172 5.46185 4.62148)
(0.0244844 -4.49561 10.7307)
(-90.9285 17.4615 -19.5224)
(-89.6785 21.6526 -13.089)
(-92.2776 34.5591 -10.6121)
(91.7403 4.21283 -30.254)
(91.3348 11.8268 -16.228)
(93.517 24.1161 -1.79638)
(0.0494727 4.39233 -7.04716)
(0.0337347 3.05158 8.34658)
(0.0139066 -10.9133 8.35618)
(-91.6054 5.87819 -32.4207)
(-91.1497 11.3505 -18.7667)
(-93.5966 25.2648 -2.27195)
(95.1672 2.17874 -39.3648)
(91.1004 9.13325 -12.8413)
(92.398 6.99295 5.5343)
(0.0465548 4.48582 -11.7625)
(0.0244297 -6.48196 19.2631)
(0.0100197 -17.4887 11.7618)
(-95.3507 3.27761 -41.166)
(-90.1474 5.68115 -15.307)
(-92.9557 17.5905 3.12487)
(93.8311 -6.6139 -55.2078)
(93.2926 1.265 -1.0289)
(92.7079 7.29725 56.595)
(0.0295177 -6.96972 13.0446)
(0.0246544 7.093 38.3796)
(0.025162 -2.11113 58.4687)
(-93.9628 -7.33988 -56.3989)
(-93.2162 -0.872562 -8.73569)
(-92.6711 11.6937 58.8167)
(91.8629 -2.18259 -74.2605)
(91.2106 -7.97483 -18.3108)
(91.0099 0.0587904 12.0707)
(-0.0263774 -1.17803 30.5346)
(-0.0233287 -0.435513 68.2068)
(-0.0193705 -0.716549 86.5218)
(-92.1002 -1.72405 -78.3346)
(-91.2153 -8.49451 -33.0728)
(-91.0822 0.409382 -0.253193)
(86.3797 -1.9057 -120.257)
(85.7657 -3.15791 -109.63)
(86.1482 -1.4327 -106.844)
(-0.0881069 -2.02435 176.334)
(-0.0889966 -2.68307 187.375)
(-0.08942 -1.55175 183.445)
(-86.8004 -1.71632 -122.935)
(-86.0951 -2.77389 -112.91)
(-86.3725 -1.45393 -109.495)
(92.2782 -34.5685 -10.6111)
(89.6809 -21.6555 -13.0867)
(90.9226 -17.4625 -19.5183)
(-0.025961 4.49582 10.7303)
(-0.046227 -5.46246 4.62335)
(-0.0561255 -8.3151 -3.65941)
(-92.3466 -31.2197 -8.23174)
(-89.6212 -19.1718 -10.738)
(-91.2086 -15.2412 -16.8403)
(93.5962 -25.2686 -2.27084)
(91.1525 -11.3487 -18.7627)
(91.618 -5.87572 -32.4085)
(-0.0151404 10.908 8.35532)
(-0.0345614 -3.05164 8.34828)
(-0.050103 -4.39075 -7.04606)
(-93.5195 -24.1116 -1.796)
(-91.3388 -11.8201 -16.2256)
(-91.7549 -4.20948 -30.2466)
(92.9547 -17.5898 3.12594)
(90.1514 -5.66541 -15.3009)
(95.3611 -3.27318 -41.1394)
(-0.0107841 17.4817 11.7612)
(-0.0246153 6.47911 19.2606)
(-0.0463684 -4.48348 -11.762)
(-92.3996 -6.98911 5.53446)
(-91.1021 -9.1238 -12.8377)
(-95.1433 -2.17239 -39.3661)
(92.6701 -11.6884 58.8304)
(93.2198 0.887356 -8.72813)
(93.9712 7.35012 -56.3889)
(-0.0236656 2.10984 58.4759)
(-0.0227236 -7.09302 38.3858)
(-0.0273256 6.97169 13.0511)
(-92.707 -7.2972 56.5878)
(-93.2925 -1.25867 -1.03686)
(-93.8169 6.61777 -55.2221)
(91.0814 -0.417857 -0.248901)
(91.2125 8.47021 -33.0655)
(92.0795 1.70932 -78.3445)
(0.0178464 0.715455 86.5286)
(0.0210614 0.435253 68.213)
(0.0234844 1.17839 30.5372)
(-91.0097 -0.0624535 12.0747)
(-91.2105 7.96542 -18.3193)
(-91.8884 2.17472 -74.2761)
(86.3709 1.45367 -109.504)
(86.0937 2.77339 -112.919)
(86.7932 1.71594 -122.928)
(0.0904003 1.55239 183.442)
(0.08994 2.68576 187.373)
(0.0889974 2.02612 176.335)
(-86.1455 1.43284 -106.836)
(-85.763 3.15779 -109.622)
(-86.3827 1.90585 -120.242)
)
;

boundaryField
{
    fuel
    {
        type            fixedValue;
        value           uniform (0 0 0.25);
    }
    primary_air
    {
        type            fixedValue;
        value           uniform (0 0 2.5);
    }
    Secondary_air_RHS
    {
        type            fixedValue;
        value           uniform (0 25 0);
    }
    Secondary_air_LHS
    {
        type            fixedValue;
        value           uniform (0 -25 0);
    }
    outlet
    {
        type            pressureInletOutletVelocity;
        value           nonuniform List<vector> 
18
(
(0 0 -109.504)
(0.0904003 1.55239 183.442)
(0 0 -106.836)
(0 0 -112.919)
(0.08994 2.68576 187.373)
(0 0 -109.622)
(0 0 -122.928)
(0.0889974 2.02612 176.335)
(0 0 -120.242)
(0 0 -120.257)
(-0.0881069 -2.02435 176.334)
(0 0 -122.935)
(0 0 -109.63)
(-0.0889966 -2.68307 187.375)
(0 0 -112.91)
(0 0 -106.844)
(-0.08942 -1.55175 183.445)
(0 0 -109.495)
)
;
    }
    stove_body
    {
        type            noSlip;
    }
    frontAndBack
    {
        type            empty;
    }
}


// ************************************************************************* //
