/*--------------------------------*- C++ -*----------------------------------*\
  =========                 |
  \\      /  F ield         | OpenFOAM: The Open Source CFD Toolbox
   \\    /   O peration     | Website:  https://openfoam.org
    \\  /    A nd           | Version:  6
     \\/     M anipulation  |
\*---------------------------------------------------------------------------*/
FoamFile
{
    version     2.0;
    format      ascii;
    class       volScalarField;
    location    "4.5";
    object      O2;
}
// * * * * * * * * * * * * * * * * * * * * * * * * * * * * * * * * * * * * * //

dimensions      [0 0 0 0 0 0 0];

internalField   nonuniform List<scalar> 
297
(
0
0
0
0
0
0
0
0
0
0
0
0
0
0
0
0
0
0
0
0
0
0
0
0
0
0
0
0.0430523
0.0541333
0.104131
0.0175615
0.0265368
0.0795879
0.0429463
0.0542868
0.105955
0
0.005975
0.0585398
0
0.000287491
0.0462904
0
0.00552737
0.056225
0
0.000688785
0.0416647
0
0.000245355
0.0417285
0
0.000961064
0.0390858
0
0
0
9.8434e-06
2.95984e-05
0
2.7436e-06
0
0
0
0
0
0
0
0
0
0
0
0
0
0
0
0
0
0
0
0
0
0.000280411
0.0075267
0
0.000238682
0.0236926
0
2.70221e-06
0.00514273
0
1.1566e-06
0
0
0.000236387
0.00260501
0
9.29849e-07
0
0
4.03739e-07
0
0
0.000234329
0
0
1.10522e-07
0
0
0
0
0
0
0
0
0
0
0
0
0
0
0
0
0
0
0
0
0
0
1.45973e-23
0
0
0
0
0
7.12255e-17
4.10809e-22
2.64546e-27
3.68926e-19
2.59038e-23
7.18693e-28
2.68314e-17
5.40723e-22
4.58114e-27
3.72611e-19
2.76823e-24
4.93004e-29
3.21989e-21
1.21872e-24
9.79507e-29
1.44327e-19
1.26162e-24
5.93662e-29
8.14423e-21
5.72312e-25
1.98611e-29
3.89504e-22
3.19917e-26
1.4499e-29
1.25247e-23
4.41267e-27
1.70063e-30
8.96764e-29
5.48308e-28
5.56533e-26
3.90277e-27
4.47651e-27
5.21799e-26
2.56391e-26
1.9368e-26
5.00398e-25
5.19288e-28
8.0945e-27
9.20748e-27
3.90142e-25
1.20746e-24
2.14945e-24
2.13133e-25
1.77402e-25
2.62821e-25
1.61329e-28
5.81475e-27
6.30283e-27
4.98901e-24
9.41117e-24
1.86597e-23
2.66933e-23
2.53029e-23
1.36301e-23
1.73485e-30
2.01379e-30
4.7973e-30
1.16378e-27
5.68197e-27
5.40481e-27
1.07519e-26
3.79161e-26
3.5776e-26
1.85407e-30
2.71046e-30
8.65749e-30
3.99478e-27
6.29745e-27
2.38892e-26
3.12332e-26
6.53147e-26
2.61774e-25
2.74476e-30
2.99486e-30
1.29408e-29
8.58792e-26
7.37072e-25
2.68771e-24
5.42244e-26
1.06504e-25
2.86284e-23
9.06419e-31
1.80924e-30
6.34583e-30
5.41125e-26
3.01062e-25
7.90257e-25
6.84363e-26
2.38338e-25
1.50686e-23
2.6048e-31
1.31124e-30
7.77193e-30
2.24498e-26
1.30208e-25
5.40994e-25
1.36785e-25
7.95401e-25
9.68218e-24
1.34697e-31
1.4465e-30
6.36224e-30
4.28899e-26
4.67991e-25
2.00384e-24
1.498e-25
1.74178e-24
7.76776e-24
9.53421e-32
1.16989e-35
2.77626e-36
5.06722e-32
1.9838e-35
1.94438e-35
1.98798e-31
2.9943e-35
3.77136e-35
1.4604e-33
5.57904e-38
1.90277e-37
3.19185e-33
2.69379e-37
1.28497e-35
1.64163e-33
6.31063e-38
6.34027e-36
4.36071e-34
6.17934e-39
3.45662e-39
6.0965e-34
3.17831e-38
7.15066e-36
3.31561e-35
6.79293e-40
1.92715e-39
2.05913e-39
1.02674e-40
2.90528e-40
5.65398e-39
1.26807e-39
2.36909e-36
2.06826e-40
8.90977e-41
2.20629e-40
5.88309e-43
5.42387e-42
1.31502e-41
3.38552e-38
3.32549e-37
1.68025e-36
6.24827e-43
4.34378e-42
1.65114e-41
9.13977e-44
7.58599e-43
2.98376e-42
2.5399e-38
2.05862e-37
8.3921e-37
1.64744e-43
1.38927e-42
5.33977e-42
)
;

boundaryField
{
    fuel
    {
        type            fixedValue;
        value           uniform 0;
    }
    primary_air
    {
        type            fixedValue;
        value           uniform 0.23;
    }
    Secondary_air_RHS
    {
        type            fixedValue;
        value           uniform 0.23;
    }
    Secondary_air_LHS
    {
        type            fixedValue;
        value           uniform 0.23;
    }
    outlet
    {
        type            inletOutlet;
        inletValue      uniform 0;
        value           nonuniform List<scalar> 
18
(
0
2.5399e-38
0
0
2.05862e-37
0
0
8.3921e-37
0
0
4.28899e-26
0
0
4.67991e-25
0
0
2.00384e-24
0
)
;
    }
    stove_body
    {
        type            fixedValue;
        value           uniform 0;
    }
    frontAndBack
    {
        type            empty;
    }
}


// ************************************************************************* //
