/*--------------------------------*- C++ -*----------------------------------*\
  =========                 |
  \\      /  F ield         | OpenFOAM: The Open Source CFD Toolbox
   \\    /   O peration     | Website:  https://openfoam.org
    \\  /    A nd           | Version:  6
     \\/     M anipulation  |
\*---------------------------------------------------------------------------*/
FoamFile
{
    version     2.0;
    format      ascii;
    class       surfaceScalarField;
    location    "4.5";
    object      phi;
}
// * * * * * * * * * * * * * * * * * * * * * * * * * * * * * * * * * * * * * //

dimensions      [1 0 -1 0 0 0 0];

internalField   nonuniform List<scalar> 
675
(
5.533e-07
-3.58946e-05
0.000158414
7.11212e-07
-3.53674e-05
0.000158344
-3.39742e-05
0.000157699
-1.09838e-06
3.58962e-05
0.000134946
-1.12712e-06
3.53673e-05
0.000134552
3.39741e-05
0.00013691
5.53949e-07
0.000158415
7.11286e-07
0.000158345
0.000157699
5.78324e-07
-5.25959e-05
0.000208727
2.9207e-07
-5.14318e-05
0.00020837
-4.95675e-05
0.000205844
-1.82644e-06
5.25972e-05
3.5007e-05
-6.89046e-06
5.14312e-05
3.96485e-05
4.95672e-05
3.44304e-05
5.78921e-07
0.000208728
2.92192e-07
0.00020837
0.000205844
1.95197e-07
8.16401e-05
2.53779e-06
7.91312e-05
8.15386e-05
8.09941e-07
-8.16401e-05
5.26304e-08
-7.91314e-05
-8.15389e-05
1.96017e-07
2.53809e-06
0.0251392
-0.0181554
-0.00344857
0.0283149
-0.00873016
0.0096017
0.00200914
0.026008
0.0360715
0.0174956
-0.0656466
0.0428862
0.00736718
-0.0163382
-0.00405938
0.0475928
0.0245459
-0.00304239
0.0273468
0.0103073
0.0256236
0.0265872
-0.0118126
-0.017829
0.020104
0.000120789
0.0151904
0.00865836
0.0386107
0.0409651
0.0127217
-0.129281
0.0265891
-0.00175808
-0.00174226
-0.0113653
0.0979944
0.0278775
-0.0187304
0.0201772
0.0140691
0.0367921
0.0150028
0.00616387
-0.0391537
0.0321224
0.0118539
-0.0142993
0.0147912
0.0592207
0.0359362
-0.00670769
-0.154512
0.0201597
-0.0129333
0.0344937
-0.015274
0.148539
0.0161079
-0.0428215
0.0345458
-0.0178055
0.0589188
-0.0175789
0.0247986
-0.0696186
0.0668148
-0.0196925
-0.00898618
-0.00991818
0.0243385
-0.00201231
0.0453049
-0.0620023
-0.040901
-0.0272414
-0.0584289
0.137672
-0.0305017
0.00601643
-0.00945695
-0.0163986
0.00199187
0.05331
-0.0912113
-0.0161837
-0.0732019
0.070742
-0.0188203
-0.0137259
0.027009
0.0440268
-0.061938
-0.0233245
-0.0142747
-0.0305868
-0.0218665
-0.00599572
-0.00583991
0.00246595
0.0205978
-0.0454818
0.0154219
-0.0552966
-0.0421637
0.00397996
-0.0245801
-0.00225571
0.0167164
-0.022367
-0.0335741
-0.0230177
-0.00907083
0.0178915
-0.0143765
0.000590389
-0.0147491
-0.0143903
-0.00304227
-0.00259368
0.00298776
0.00323924
-0.0255734
0.0015489
-0.0257728
-0.0340374
0.000260125
-0.0126539
-0.00276032
-0.00422046
-0.0112714
-0.0205287
-0.0139785
-0.00637311
0.00135579
-0.00195649
0.000245612
-0.0434807
0.00286508
0.000196736
-0.0191882
-0.0138387
0.0700538
-0.00122804
-0.000403246
-0.161692
0.00479987
0.000148038
0.0287041
0.0145455
0.114674
-0.00179805
-0.0474855
0.00239633
-0.0217173
0.0698954
-0.0020584
0.000561712
-0.0481077
0.000451392
0.000126946
-0.0216808
-0.00197428
0.0666029
-0.00182622
-0.000788544
-0.167276
0.0022207
7.0445e-05
0.0249282
0.00207016
0.102523
-0.00188717
-0.052182
0.00057576
-0.0239397
0.066559
-0.00249338
0.0149138
0.000244961
7.60362e-05
-0.00108638
-0.00786989
-0.0155574
0.00133591
-0.000367979
0.00107463
-0.00259207
0.00032598
-0.00413089
-0.00057804
-0.00282473
-0.00721599
-0.00774405
0.000466258
0.000800964
0.000569992
0.00568241
-0.00954179
-0.012581
3.57223e-05
-0.0107237
-0.00409256
-0.0172524
-0.00121064
-0.00704418
-0.000405187
-0.0033086
-0.016671
-0.00158054
-0.00512218
-0.0135458
-0.0110186
0.00112304
0.00356319
-0.011825
-0.00941562
0.00147574
-0.00177048
0.00642846
-0.00995186
0.000947482
0.000550397
0.000970056
0.00432144
-0.00819035
-0.0077169
-0.00256874
-0.00455912
0.0039615
-0.0113249
-0.00204048
-0.00262493
-0.000450035
-0.00195487
-0.0128046
-0.00427089
0.00439295
-0.0075944
-0.0101374
0.00449313
0.00281971
-0.00960709
-0.00433724
0.00253579
-0.000825912
-0.00593064
0.00240908
0.00189154
-0.00135899
-0.00385637
-0.00361185
0.00340008
-0.00367529
-0.00336588
-0.00221199
-0.00417588
-0.00284523
0.00371394
-0.00179814
-0.000887282
-0.0107259
0.000422342
0.000315054
-0.0119941
0.00165242
-0.000997941
0.0015064
-0.00521793
-0.0087439
-0.0158887
-0.000306384
-0.000445243
-0.0137387
-0.00166132
0.000867558
-0.00159278
0.00146386
-0.0122058
-0.0119297
-0.000299767
-0.0125457
-0.0011586
-0.00547553
-0.00873989
-0.00886335
0.000406337
0.000233627
-0.00926601
0.00104428
-0.00220167
6.83789e-05
-0.0058553
-0.00912156
-0.0131767
-0.00021039
-4.64064e-05
-0.0108335
-0.001031
0.000251554
-4.39941e-05
0.00200487
-0.0113726
-0.00980145
-0.000441834
-0.00972975
-0.00240612
-0.00621537
-0.0091124
-0.0016163
0.000367369
-0.00414631
-0.000196883
-0.0014057
-0.00902695
-0.00430339
-0.000344605
-0.00500786
0.000289759
0.00144178
-0.00599707
-0.00183015
-0.00411932
-0.00897823
0.0078982
0.00172848
-0.00240426
-0.00730769
0.00777003
0.000773497
-0.000877815
0.000173112
4.75433e-05
0.00467457
0.000797168
0.00133614
-0.00510971
0.00439881
0.00063746
0.000352865
0.000196772
9.27974e-05
0.0144253
0.000834511
-0.0145244
0.0140855
0.00106868
0.000910652
-0.000434893
0.0016098
0.000838751
-0.00455661
-0.00446784
0.000821736
0.00214338
0.00118684
0.000545038
-0.0042981
0.000691964
0.00588269
0.00066111
-0.00555282
-0.000171874
0.00254937
-7.92269e-05
-0.000447703
0.00895354
0.00172512
-0.00921801
0.00867947
0.00121846
0.00201713
0.0005153
0.00139293
-0.00120105
0.00152186
0.000895156
0.000900862
-0.00675542
0.000937263
0.0130989
-0.0036405
0.000268022
-3.23969e-05
-0.00723296
0.00981445
-0.00574358
-0.00284029
0.00241004
0.000487059
0.00285311
0.0021489
-0.00779011
0.00185281
-0.00628369
0.00341608
-0.00223863
0.00111933
0.00434183
-0.000918521
0.00205801
-0.000977768
0.00201465
0.00966042
-0.0121911
0.0149809
-0.00647414
-0.000672941
-0.00223891
0.00228341
0.000483892
0.00198941
0.00199521
-0.013978
0.00158489
-0.0104322
0.00320849
-0.00193341
0.00203818
0.00236636
-0.000485172
0.00531588
-0.0005076
0.00709776
0.0076824
-0.0220771
0.0105088
-0.00999669
-2.81004e-05
-0.00251283
0.00170064
0.00131724
0.00384167
0.00309406
-0.0234148
0.00132805
-0.00913944
-0.00237865
-0.00395721
0.0100124
-0.00763735
-0.000214874
0.0138396
0.000474684
0.013388
0.00874681
-0.0350435
0.000283891
-0.0019145
0.0104408
0.00780572
0.0148649
-0.0214404
-0.00366141
0.0168191
-0.02887
0.0164146
-0.0293552
-0.00793245
0.00132149
0.0316223
-0.00463928
0.00495964
0.0225216
0.00385913
0.021433
0.00602052
-0.0396582
0.0153106
-0.00610817
0.0297715
0.00448168
0.00876769
-0.0343699
0.00241356
0.00864703
-0.0351201
0.00872266
-0.0353274
0.00682382
-0.00143437
0.0352149
0.00947562
-0.0036927
0.0324359
-0.00119257
0.0410962
-0.00184149
-0.0389902
0.00563629
-0.0170888
0.0343736
0.000553741
0.0160972
0.000311754
0.0162007
0.0160703
0.00175283
-0.0215364
0.00214023
-0.0232154
-0.0226055
-0.0117293
-0.0128721
-0.00310709
0.00152751
-0.00726997
0.00178675
0.00181542
-0.00663954
0.00166387
0.000284393
-0.00581651
-0.0015908
-0.00325283
0.00142701
-0.00185786
-0.003498
-0.00168897
0.00487756
-0.00287431
-0.00751087
0.00211723
-0.00691979
0.000341855
-0.00540162
0.00109776
-0.0121899
0.000714852
0.00156263
-0.0142688
0.0016672
-0.000535852
-0.00640396
-0.00111254
-0.00599987
2.68659e-05
-0.00159799
-0.00670928
-0.00167432
0.00833277
-0.0053835
-0.0124076
0.000829618
-0.0148142
-0.000587779
-0.00779329
0.0016639
-0.0151999
0.00330357
0.00426628
-0.0296088
0.00147104
0.00138905
-0.00576888
-0.00160616
-0.00295951
0.000195247
-0.00442382
-0.00394035
-0.00147921
0.011553
-0.00787631
-0.0151892
0.00344964
-0.0306809
0.0013088
0.00209313
0.0104171
-0.0275995
-0.0121017
0.01082
-0.0260523
0.00846569
-0.0189326
0.00401962
-0.0101275
0.0137376
0.00212622
-0.0107099
0.0197308
-0.00833818
0.0308037
0.00263894
-0.0278064
-0.012199
-0.0264445
-0.0191484
-0.00390728
0.00710893
-0.0307061
-0.00451009
0.00642062
-0.0317704
0.00699538
-0.0303334
-0.00418831
-0.00701507
0.0320172
-0.0067803
-0.00630745
0.0350262
-0.00687761
0.0378592
-0.00384132
-0.0307905
-0.00456037
-0.0318476
-0.0304083
0.000139924
0.0188133
-0.000608915
0.0186694
0.0186748
-0.00311993
-0.0187522
-0.00379254
-0.0186092
-0.0186148
0.000132062
-0.000614807
)
;

boundaryField
{
    fuel
    {
        type            calculated;
        value           nonuniform List<scalar> 
36
(
0.000125298
0.000208419
0.000125298
0.000125298
0.000208419
0.000125298
0.000125298
0.000208418
0.000125298
-0.000125297
-0.000208434
-0.000125297
-0.000125297
-0.000208433
-0.000125297
-0.000125297
-0.000208433
-0.000125297
0
0
0
0
0
0
0
0
0
0
0
0
0
0
0
0
0
0
)
;
    }
    primary_air
    {
        type            calculated;
        value           nonuniform List<scalar> 9(-0.00321674 -0.00539325 -0.00320908 -0.00319605 -0.00532852 -0.00318533 -0.00318287 -0.00528463 -0.00317408);
    }
    Secondary_air_RHS
    {
        type            calculated;
        value           nonuniform List<scalar> 9(0.0059789 0.0104115 0.00599634 0.00596748 0.0103298 0.00599682 0.00600048 0.0103179 0.00603811);
    }
    Secondary_air_LHS
    {
        type            calculated;
        value           nonuniform List<scalar> 9(0.00615571 0.00959367 0.0061198 0.00614529 0.00954034 0.00609719 0.00617617 0.00960672 0.00611952);
    }
    outlet
    {
        type            calculated;
        value           nonuniform List<scalar> 
18
(
-0.0496377
0.0728642
-0.0496656
-0.0496718
0.0731347
-0.0497014
-0.0495997
0.0715248
-0.0496292
-0.050975
0.0712389
-0.0487725
-0.0510366
0.0716178
-0.0391233
-0.0510479
0.0820639
-0.00106156
)
;
    }
    stove_body
    {
        type            calculated;
        value           uniform 0;
    }
    frontAndBack
    {
        type            empty;
        value           nonuniform 0();
    }
}


// ************************************************************************* //
