/*--------------------------------*- C++ -*----------------------------------*\
  =========                 |
  \\      /  F ield         | OpenFOAM: The Open Source CFD Toolbox
   \\    /   O peration     | Website:  https://openfoam.org
    \\  /    A nd           | Version:  6
     \\/     M anipulation  |
\*---------------------------------------------------------------------------*/
FoamFile
{
    version     2.0;
    format      ascii;
    class       volScalarField;
    location    "2.5";
    object      O2;
}
// * * * * * * * * * * * * * * * * * * * * * * * * * * * * * * * * * * * * * //

dimensions      [0 0 0 0 0 0 0];

internalField   nonuniform List<scalar> 
297
(
0
0
0
0
0
0
0
0
0
0
0
0
0
0
0
0
0
0
0
0
0
0
0
0
0
0
0
0.0808987
0.117229
0.207443
0.145669
0.195121
0.223359
0.0827246
0.118776
0.208402
0
0.0573995
0.0836041
0.00212377
0.0621538
0.195475
0
0.0608518
0.0896054
0
0.0393725
0
0.00453654
0.00902307
0.115217
0
0.0420132
0
0.00765224
0.0199325
0.0055992
0
0.00591122
0
0.00847544
0.0217635
0.00621282
1.03073e-06
7.51475e-07
2.82312e-07
1.43104e-06
2.75721e-07
1.37567e-08
1.04186e-06
8.21699e-07
3.0758e-07
1.02267e-10
7.62266e-11
3.62616e-10
9.22082e-10
6.82737e-10
8.14112e-10
3.40315e-11
6.61573e-11
3.49226e-10
0
0.0379523
0
0
0.00603629
0.059852
0
0.042075
0
0
0.0378866
0
0
0.00602592
0.0222017
0
0.04199
0
0
0.0376372
0
0
0.00599882
0
0
0.0416085
0
5.38499e-15
2.47887e-13
6.80866e-13
2.8613e-14
9.95866e-14
2.81925e-12
1.40714e-14
9.06556e-13
9.24112e-13
1.06828e-14
1.81829e-13
3.033e-13
1.65821e-14
7.77394e-14
4.43064e-13
5.24688e-14
2.21528e-13
5.0231e-13
4.54448e-14
1.48172e-13
1.80119e-13
4.52443e-14
1.091e-13
1.98695e-13
1.59847e-13
1.02653e-13
1.31484e-13
2.68458e-13
1.3147e-14
1.11738e-14
6.2789e-12
5.08818e-13
4.17772e-15
3.11027e-13
2.51227e-14
3.32155e-15
3.05262e-13
3.7326e-14
3.03527e-14
4.57654e-12
2.25639e-12
5.80746e-14
5.32927e-13
2.15804e-13
7.46373e-15
3.30084e-13
3.96034e-13
6.31399e-14
2.19468e-12
2.03715e-12
1.27233e-12
6.57155e-13
8.00266e-13
6.59369e-13
4.62672e-22
2.49164e-19
2.00492e-18
1.74483e-20
1.61131e-17
9.87388e-17
2.56852e-19
2.77807e-16
1.41948e-15
2.78615e-21
1.17135e-17
1.82141e-17
1.00284e-19
6.61993e-16
1.20019e-15
1.18898e-18
6.46585e-15
1.71319e-14
1.03645e-20
6.178e-17
9.25109e-17
6.03627e-20
5.16273e-16
1.04649e-14
2.25118e-18
3.06884e-14
3.16745e-13
1.60179e-31
8.79386e-30
9.57369e-26
1.74571e-26
1.96884e-26
9.82277e-24
3.25248e-26
2.53034e-26
1.0056e-22
5.03151e-32
1.6698e-29
1.74602e-25
8.23031e-27
6.78841e-27
9.51929e-24
7.00783e-27
6.71323e-27
9.10936e-23
2.37163e-32
6.99419e-30
2.30259e-25
2.76863e-27
2.39435e-27
1.29152e-23
2.22584e-27
1.39304e-27
5.56645e-23
1.22637e-32
4.88195e-32
1.46023e-30
7.09633e-28
8.45341e-29
7.52813e-28
7.68785e-29
4.44597e-29
7.05924e-28
4.38391e-33
1.01666e-33
5.29648e-33
3.59438e-28
7.90221e-29
4.3698e-28
3.58428e-33
1.49094e-33
5.15149e-33
5.5781e-34
1.29355e-34
6.5123e-34
1.61007e-28
3.70874e-29
1.88192e-28
1.00321e-33
2.42245e-34
1.17045e-33
3.5438e-18
7.31726e-19
6.31622e-19
1.26125e-15
1.27347e-15
1.45466e-15
3.17619e-15
3.09224e-15
2.69307e-15
3.89297e-18
8.39923e-19
6.78748e-19
1.41009e-15
1.36113e-15
1.44124e-15
4.03756e-15
4.02303e-15
2.61837e-15
3.81582e-18
8.7482e-19
9.5839e-19
5.09805e-13
1.55871e-13
2.26256e-14
3.79138e-13
4.91444e-15
2.60978e-15
1.55397e-18
4.16752e-19
2.86532e-19
1.49503e-13
5.37779e-14
1.55175e-14
1.32413e-13
1.37346e-14
2.6091e-15
4.08624e-19
2.00743e-19
6.0227e-20
6.31189e-14
2.18252e-14
7.91243e-15
6.62725e-14
1.03721e-14
2.10843e-15
1.91643e-19
6.01962e-20
2.2462e-20
3.81031e-14
1.11872e-14
3.93221e-15
4.90588e-14
1.1044e-14
1.92101e-15
)
;

boundaryField
{
    fuel
    {
        type            fixedValue;
        value           uniform 0;
    }
    primary_air
    {
        type            fixedValue;
        value           uniform 0.23;
    }
    Secondary_air_RHS
    {
        type            fixedValue;
        value           uniform 0.23;
    }
    Secondary_air_LHS
    {
        type            fixedValue;
        value           uniform 0.23;
    }
    outlet
    {
        type            inletOutlet;
        inletValue      uniform 0;
        value           nonuniform List<scalar> 
18
(
0
3.81031e-14
0
0
1.11872e-14
0
0
3.93221e-15
0
0
1.61007e-28
0
0
3.70874e-29
0
0
1.88192e-28
0
)
;
    }
    stove_body
    {
        type            fixedValue;
        value           uniform 0;
    }
    frontAndBack
    {
        type            empty;
    }
}


// ************************************************************************* //
