/*--------------------------------*- C++ -*----------------------------------*\
  =========                 |
  \\      /  F ield         | OpenFOAM: The Open Source CFD Toolbox
   \\    /   O peration     | Website:  https://openfoam.org
    \\  /    A nd           | Version:  6
     \\/     M anipulation  |
\*---------------------------------------------------------------------------*/
FoamFile
{
    version     2.0;
    format      ascii;
    class       volScalarField;
    location    "2.5";
    object      p;
}
// * * * * * * * * * * * * * * * * * * * * * * * * * * * * * * * * * * * * * //

dimensions      [1 -1 -2 0 0 0 0];

internalField   nonuniform List<scalar> 
297
(
116914
116914
116914
194919
194918
194919
116914
116914
116915
116914
116913
116914
194921
194921
194920
116914
116913
116914
116914
116912
116914
194922
194925
194922
116914
116913
116914
97754.6
97379.1
97285.1
162157
161954
162101
97710.7
97339.9
97254.9
98401.2
97020.7
97068.2
162192
161461
161257
98309
96972
97004.6
96505.1
94970.5
95708.6
155863
158198
156449
96201.4
94844.6
95614.5
93583
95387.1
94103.8
159327
156900
158049
93749.8
95495.4
94202.7
97280.4
97112
96932.2
162256
161401
161473
97318.1
97098.7
96927.5
97113.9
97307.9
97238.7
161862
162096
162150
97150.4
97271.6
97196.7
78758.7
92089
88109.8
127728
151697
145444
79646.7
92454.9
88516.8
78487
92066
87895.1
125368
151261
144339
79439.7
92381.4
88291.9
80494.2
92399.6
88553.8
127741
151657
144692
81389.2
92673.3
88886.8
97326.3
97322.4
97218.5
162046
162029
162037
97319.6
97296.3
97204.1
97374.5
97305.8
97196.9
162137
162034
162007
97343.2
97289.8
97212.7
97366.8
97298.2
97195.7
162178
162040
161999
97342.9
97285.3
97221
97328.2
97510.8
97983.2
162136
162146
162050
97239.7
97189.6
97103.5
97209.8
97272
97566.8
162083
162044
161838
97176
97080.2
96894.5
97182.9
97187.4
97142
162047
161984
161729
97172.3
97055
96814.1
97760
97550.7
97447.4
162529
162356
162229
97937.7
97637
97471.7
97568.2
97435.3
97405.9
162383
162290
162224
97670.3
97474.8
97389.7
97246.3
97299.6
97349.3
162276
162268
162264
97333.9
97354.7
97367.5
98190
98102.2
97958.1
162847
162811
162708
98151.3
98211.7
98172.8
98097
97986.4
97802.6
162710
162675
162547
98094.8
98124
97966.7
97991.4
97877.9
97635.9
162504
162499
162366
98016.9
98074.6
97821.5
97231.2
97186.1
97093.1
161437
161445
161360
97171.2
97111.9
97054.6
92743.1
92747.6
92781.1
153962
153968
153969
92855.5
92817.7
92831.6
85873.8
85874.7
85876.9
138626
138627
138618
85863.4
85858.9
85861.8
98423.8
98504.9
98322.1
161994
161988
161993
97419.3
98174
98746.3
97998.4
98141.1
98031.7
161597
161524
161580
96905.2
97358.8
98116.2
97530.9
97756.3
97706.9
161132
161021
161022
96508.9
96812.6
97452.7
95738.9
95769.7
95820.5
157680
157792
157790
94201.6
94274.4
94319.3
90678.5
90692.1
90743.6
150061
150108
150128
90090.7
90197.9
90227.6
84267.4
84271.4
84278.4
137539
137599
137638
86561
86385.4
86249.2
)
;

boundaryField
{
    fuel
    {
        type            zeroGradient;
    }
    primary_air
    {
        type            zeroGradient;
    }
    Secondary_air_RHS
    {
        type            zeroGradient;
    }
    Secondary_air_LHS
    {
        type            zeroGradient;
    }
    outlet
    {
        type            totalPressure;
        rho             rho;
        psi             none;
        gamma           1;
        p0              uniform 100000;
        value           nonuniform List<scalar> 
18
(
87536.6
100000
99927.6
87543.1
100000
92479.6
87576.6
100000
88833.9
89382.6
100000
89434.6
89382.2
100000
89409.1
89404.1
100000
89422.9
)
;
    }
    stove_body
    {
        type            zeroGradient;
    }
    frontAndBack
    {
        type            empty;
    }
}


// ************************************************************************* //
