/*--------------------------------*- C++ -*----------------------------------*\
  =========                 |
  \\      /  F ield         | OpenFOAM: The Open Source CFD Toolbox
   \\    /   O peration     | Website:  https://openfoam.org
    \\  /    A nd           | Version:  6
     \\/     M anipulation  |
\*---------------------------------------------------------------------------*/
FoamFile
{
    version     2.0;
    format      ascii;
    class       surfaceScalarField;
    location    "2.5";
    object      phi;
}
// * * * * * * * * * * * * * * * * * * * * * * * * * * * * * * * * * * * * * //

dimensions      [1 0 -1 0 0 0 0];

internalField   nonuniform List<scalar> 
675
(
-9.07705e-06
-6.1471e-06
0.000142639
9.18599e-06
-3.98716e-05
0.000150468
-5.74349e-06
0.000142209
1.47602e-05
5.43416e-06
0.000176333
-1.5317e-05
4.0259e-05
0.000150121
3.91947e-06
0.000177743
-9.17362e-06
0.000142365
9.87488e-06
0.000149737
0.000141618
-6.13985e-06
-7.92778e-06
0.000160569
6.07366e-06
-6.2684e-05
0.000206223
-7.15776e-06
0.000159237
2.12741e-05
7.90409e-06
0.000131773
-2.2823e-05
6.25285e-05
5.83147e-05
5.99604e-06
0.000134384
-6.46053e-06
0.000160818
6.97769e-06
0.00020352
0.000158672
-4.54565e-06
4.52054e-05
4.94299e-06
7.87706e-05
4.4232e-05
5.96386e-06
-4.62451e-05
-6.61979e-06
-7.30948e-05
-4.51374e-05
-5.14711e-06
6.30276e-06
0.00533044
0.00344103
-0.00570905
0.00538509
0.00100861
0.00182313
0.0027197
0.00499615
0.0114758
-0.00317446
0.000357855
0.00737477
-0.000757232
0.0104302
-0.00236782
0.0182372
0.00534535
-0.00545695
0.00534588
0.00211507
0.00524008
0.00497228
0.00716718
-0.0179639
-0.006883
-0.00256477
0.0162291
0.00396697
-0.00593478
0.00521324
-0.00683442
0.00922847
0.00663292
0.00295974
0.00368412
-0.00375129
0.0338084
0.00488941
-0.0172814
-0.00690169
0.0168627
-0.00545932
-0.000562311
0.0138222
-0.0313816
-0.00527374
-0.00414371
0.0250466
0.0131154
-0.0249114
-0.0348875
-0.013367
0.0713774
0.013751
0.00377184
-0.0525728
-0.0129001
0.0736964
5.54537e-05
-0.03077
-0.00546455
0.0258386
-0.0242199
-0.0174851
-0.0187873
-0.00953226
0.0459144
0.0117739
0.00896063
-0.0187947
-0.0197055
-0.0119863
-0.0197281
0.0431645
-0.00117293
0.0183946
0.0139604
-0.0499132
-0.00843216
-0.0092786
-0.0399435
0.0652221
0.01161
0.0123665
-0.0446692
-0.0174456
-0.0094562
0.0453982
0.0117603
-0.0186829
-0.0197407
-0.0195159
0.0424904
0.00709462
-0.00877826
-0.00696835
0.00396762
0.0058828
-0.020318
-0.00397963
-0.0154796
0.00212422
0.00838352
-0.00462631
-0.0154468
-0.00581522
-0.0120028
0.00410476
-0.0130675
0.00764105
-0.00772226
0.0036667
-0.0192831
-0.015541
0.00764767
-0.000199922
-0.014453
-0.00370013
0.00299578
-0.0119251
-0.00718802
-0.0120019
0.0186111
-0.00393247
-0.0199547
0.0269245
-0.00216528
-0.0156931
0.0127049
-0.00641363
0.00399132
-0.0156203
-0.00663305
-0.0107899
-0.00951298
-0.000940243
-0.000281157
-0.0361893
0.000552983
-0.00029373
0.0237919
-0.000493394
-0.0306632
-0.0030236
0.000223984
0.0641035
0.00109861
2.94049e-05
-0.0570103
0.000449365
0.0626698
-0.00115039
-0.0355059
0.000750682
0.0239495
-0.0298336
-0.00107255
6.72473e-05
-0.041196
0.000904634
-0.000258975
0.0220202
0.000283822
-0.0368045
-0.0020846
-0.000120162
0.0567624
0.00175478
0.000181077
-0.0612836
-0.000351734
0.0539587
-0.00117478
-0.0405425
0.000952195
0.0219865
-0.0360271
-0.00186659
0.000422278
0.000769548
-0.000370213
0.000322123
-0.0020425
-0.000479253
0.00118035
0.000349209
-0.000339224
-0.00186288
0.00071544
0.00629656
-9.60075e-05
-0.0084296
-0.0122316
-0.00432769
0.000410173
-0.00170829
-0.00143234
-0.00152896
-0.0133652
0.0120374
-3.6489e-05
-0.0154067
-0.0166942
0.00942279
-0.000830925
-0.0118974
0.00156639
-0.00381047
0.00375159
0.00215771
-0.00569512
-0.0121131
-0.00810946
-0.00135723
-0.00166273
-0.0144065
0.000357677
0.00131337
-0.00139738
-0.00871453
-0.00561617
0.00152851
0.00273177
-7.44872e-06
0.00155548
-0.00868698
0.00723815
-0.00141003
-0.00701033
-0.0129582
0.00360233
-0.00157477
-0.00520888
-8.03916e-05
-0.00304007
0.00284592
-0.000201351
0.000999029
-0.00790439
-0.00601194
0.00286728
0.00154362
-0.00931836
-0.000323627
0.00166573
-0.00275412
0.000384531
0.00201695
0.00115921
0.000785724
0.00406839
-0.00176672
-0.00769477
0.00259864
-0.0017658
-0.00120192
0.00186493
-0.00108976
0.000322678
2.92517e-06
0.000323578
-0.0127767
-0.000476694
-0.000108068
-0.013408
0.0011731
-0.000538233
0.00238615
-0.00580882
-0.00998421
-0.00147234
0.00081072
0.00391702
-0.00515008
0.000829062
0.00400088
0.000363219
0.0034843
-0.0066331
-0.0146694
0.00107329
-0.0145945
0.000754714
0.000414731
-0.0146462
-0.00823076
-0.000446468
-0.000112904
-0.00868532
0.00017035
-0.00024833
0.000909141
-0.00799581
-0.00740326
0.0022181
0.000724016
0.00335063
-0.000238628
0.00117106
0.00543594
0.000825217
0.00651573
-0.00320779
-0.00893856
0.00141193
-0.00846562
0.00145145
0.00196679
-0.00919304
0.000943581
-0.000267347
0.000935748
-0.000236817
-0.000217599
-0.00683828
0.0040866
0.000835486
0.00753344
0.00172771
0.000975168
0.0128349
0.00256337
0.00573673
0.00867416
0.0116732
0.00171706
-0.0044439
-0.0089566
0.011192
0.00139368
-0.000921567
4.28486e-05
-0.00108976
0.0132878
-0.00207464
0.00110556
-0.0106326
0.0153387
-0.00167195
0.000988093
-0.000136564
-0.0011989
0.0115845
-0.00565446
-0.00801168
0.011385
-0.00147665
-0.000865625
0.00951262
0.000391428
-0.00506666
-0.00929028
0.00918803
0.000925759
-0.00153053
7.59291e-05
-0.000698523
0.0108947
-0.00063466
0.00187278
-0.0106669
0.0133675
-0.00113078
0.000544516
-0.00013706
-0.000599811
0.0088101
-0.00667882
-0.00842574
0.00882171
-0.00262187
-8.57645e-05
0.00480424
-0.000969231
-0.00891131
0.00354714
-0.000281416
8.71858e-05
0.00772878
0.000775477
-0.00763247
0.00792877
3.52007e-05
-0.000302915
0.00266043
-0.00856978
6.89692e-05
0.00373818
0.00149281
-0.00524089
0.00596527
0.00140239
-0.00363926
0.00142066
-0.00442065
0.00192305
-0.00184548
0.00138914
0.00608747
-0.00200627
-0.000780694
-0.00156036
-0.00158833
-0.00171686
-0.000137557
0.0023272
-0.00605802
-0.00725234
0.00314143
0.00140339
-0.00979463
0.00633783
0.00122268
-0.00806705
0.000909637
-0.00829051
0.00235488
-0.00159444
0.00200754
0.00714511
-0.00173199
-0.0026397
-0.00111338
-0.0031104
-0.000521928
-0.00121896
0.00502347
-0.0133422
-0.0117734
0.00424683
0.0026888
-0.0167382
0.0050756
0.00142229
-0.0103267
0.000712828
-0.0128479
0.00258777
-0.00145652
0.00354392
0.00683133
-0.00404744
-0.0014346
-0.00145636
-0.00176369
-0.00317177
0.000489376
0.00741729
-0.0279885
-0.0143887
-0.0046903
0.0111717
-0.0232082
-0.00130311
0.0098326
-0.0235339
0.00933365
-0.0234724
0.000466127
-0.00816673
0.0223524
-0.000630626
-0.00990768
0.0193503
-0.00915438
0.0160249
0.0108123
-0.0184807
-0.00219963
-0.0248722
-0.0257268
0.000420847
0.00648974
-0.0300616
0.000679312
0.00637459
-0.0301096
0.00689359
-0.0296306
0.00248942
-0.00719698
0.0335388
0.00150775
-0.0065234
0.0332147
-0.00707465
0.0314912
0.00382979
-0.0294498
0.00326337
-0.0307719
-0.0294836
-7.38546e-05
0.0193908
-0.00020229
0.0193983
0.0195031
0.0011767
-0.0194164
0.00114492
-0.019308
-0.0194705
0.000408042
-0.00034539
-0.00293066
0.00241109
-0.00946638
0.00402243
0.00305352
-0.0100105
0.00292513
0.00109382
-0.0054262
-0.00105702
0.00224367
-0.00284887
-0.00138046
0.00183684
-0.00254737
0.00260315
-0.0150911
-0.000615268
-0.00976499
-0.00671486
-0.0123225
-0.00369595
0.00166882
-0.0148423
0.001813
0.00222149
-0.0177419
0.00237385
0.000531473
-0.00482053
-0.000636442
0.00614619
-0.0037315
-0.00081598
0.00376873
-0.00201364
0.00324129
-0.0105751
0.00012853
-0.00802902
-0.0100825
-0.0223715
-0.0062696
0.00135412
-0.0167651
0.00305442
0.00374456
-0.0308114
0.00193695
0.00164843
0.00626876
0.000210352
0.0138427
0.00175871
-0.000426409
0.0124368
-0.00388897
0.010812
-0.00124256
0.0102528
-0.00890665
-0.0028492
-0.0351702
0.00116678
0.0158791
-0.0337894
-0.0135398
0.016116
-0.0321961
0.0140531
-0.0259207
0.00524112
0.00360429
0.0208398
0.0073601
0.00374319
0.0226635
0.00116031
0.0310578
-0.0155327
0.0293865
-0.00529743
-0.00937171
-0.0392406
-0.00292197
0.00696543
-0.0377706
-0.00410338
0.00669382
-0.0376528
0.00710841
-0.0370751
-0.0100147
-0.00237847
0.0401891
-0.00778796
-0.00421585
0.0313402
-0.00298541
0.0333553
-0.0058667
0.0329457
0.00210946
-0.0214812
-0.0401487
-0.000269683
0.0154233
-0.000501297
0.0154894
0.0152729
-0.00176465
-0.0235498
-0.00128323
-0.0234206
-0.0216477
0.013933
0.0113388
)
;

boundaryField
{
    fuel
    {
        type            calculated;
        value           nonuniform List<scalar> 
36
(
0.000123805
0.000206412
0.000123805
0.000123804
0.000206414
0.000123804
0.000123805
0.000206411
0.000123806
-0.000123806
-0.000206408
-0.000123806
-0.000123806
-0.000206407
-0.000123805
-0.000123806
-0.000206408
-0.000123806
0
0
0
0
0
0
0
0
0
0
0
0
0
0
0
0
0
0
)
;
    }
    primary_air
    {
        type            calculated;
        value           nonuniform List<scalar> 9(-0.00321456 -0.00533234 -0.00321311 -0.00320221 -0.00532569 -0.00320092 -0.00319912 -0.00533052 -0.00319812);
    }
    Secondary_air_RHS
    {
        type            calculated;
        value           nonuniform List<scalar> 9(0.00676059 0.0111598 0.00679182 0.00674411 0.011075 0.00677457 0.00679466 0.0111021 0.00682021);
    }
    Secondary_air_LHS
    {
        type            calculated;
        value           nonuniform List<scalar> 9(0.00604309 0.00980046 0.00611122 0.00602224 0.00961937 0.00609534 0.00617625 0.00980149 0.00624493);
    }
    outlet
    {
        type            calculated;
        value           nonuniform List<scalar> 
18
(
-0.052875
0.0809455
-0.00449811
-0.0528634
0.069786
-0.0422514
-0.0528032
0.0690006
-0.0503982
-0.0493249
0.071198
-0.0492199
-0.0493258
0.0719804
-0.0492718
-0.0492814
0.0716452
-0.0492437
)
;
    }
    stove_body
    {
        type            calculated;
        value           uniform 0;
    }
    frontAndBack
    {
        type            empty;
        value           nonuniform 0();
    }
}


// ************************************************************************* //
