/*--------------------------------*- C++ -*----------------------------------*\
  =========                 |
  \\      /  F ield         | OpenFOAM: The Open Source CFD Toolbox
   \\    /   O peration     | Website:  https://openfoam.org
    \\  /    A nd           | Version:  6
     \\/     M anipulation  |
\*---------------------------------------------------------------------------*/
FoamFile
{
    version     2.0;
    format      ascii;
    class       volScalarField;
    location    "2.5";
    object      Qdot;
}
// * * * * * * * * * * * * * * * * * * * * * * * * * * * * * * * * * * * * * //

dimensions      [1 -1 -3 0 0 0 0];

internalField   nonuniform List<scalar> 
297
(
0
-0.00027334
-0.000180251
0
-0.00054668
-0.00054668
-0.00027334
-0.000453591
-0.00027334
-0.000453591
0
-0.000453591
-0.00054668
-0.000907182
0
-0.000180251
0
-0.000453591
-0.000453591
-0.00013667
-0.00027334
-0.000363466
0
-0.00027334
0
0
-0.000180251
0
-2.41796e-11
-9.67185e-11
-9.67185e-11
-1.93437e-10
4.49e-09
3.16894e-10
3.04804e-10
5.6125e-10
0
3.16894e-10
0
-3.77806e-13
-2.41796e-11
1.31594e-09
3.28984e-10
-1.20898e-11
3.28984e-10
3.28984e-10
-6.0449e-12
3.28984e-10
0
-6.0449e-12
1.26758e-09
0
3.28984e-10
3.28984e-10
-1.51123e-12
6.57968e-10
-1.51123e-12
0
0
6.57968e-10
-1.51123e-12
6.57968e-10
0
0
-7.37903e-16
0
-3.68952e-16
0
-5.76487e-18
0
1.31594e-09
0
-1.80152e-19
0
5.26375e-09
-2.88243e-18
0
1.05275e-08
5.26375e-09
5.26375e-09
5.26375e-09
1.64492e-10
3.22939e-10
0
3.28984e-10
-3.02245e-12
0
0
0
0
0
0
0
0
1.31594e-09
-6.0449e-12
3.28984e-10
3.28984e-10
0
0
3.22939e-10
0
0
1.31291e-09
0
3.28984e-10
-6.0449e-12
0
5.26375e-09
0
5.26375e-09
0
0
1.05275e-08
-4.39825e-23
5.26375e-09
0
0
5.26375e-09
-7.03719e-22
1.05275e-08
0
0
0
5.26375e-09
0
5.26375e-09
0
5.26375e-09
0
-3.5186e-22
1.05275e-08
-3.5186e-22
-1.7593e-22
0
-7.03719e-22
5.26375e-09
5.26375e-09
0
0
0
0
0
0
0
5.26375e-09
5.26375e-09
1.05275e-08
0
-1.7593e-22
0
0
0
5.26375e-09
0
0
1.05275e-08
0
0
5.26375e-09
-1.40744e-21
5.26375e-09
-1.31078e-30
-6.71119e-28
5.26375e-09
1.05275e-08
-8.59032e-26
0
0
-6.87226e-25
0
-5.24312e-30
5.26375e-09
5.26375e-09
-3.3556e-28
0
0
0
5.26375e-09
-4.39825e-23
0
-1.71806e-25
5.26375e-09
-3.3556e-28
0
0
-5.36895e-27
-8.79649e-23
5.26375e-09
-3.0519e-40
0
5.26375e-09
0
1.05275e-08
-4.09619e-32
5.26375e-09
0
0
5.26375e-09
0
5.26375e-09
1.05275e-08
0
0
0
-2.00009e-35
-1.63847e-31
5.26375e-09
5.26375e-09
0
1.05275e-08
1.05275e-08
1.05275e-08
5.26375e-09
5.26375e-09
5.26375e-09
0
5.26375e-09
-4.88303e-39
-2.50011e-36
1.05275e-08
-2.50011e-36
5.26375e-09
5.26375e-09
-1.25006e-36
5.26375e-09
0
-9.53718e-42
0
5.26375e-09
-1.25006e-36
5.26375e-09
-4.76859e-42
-9.53718e-42
-1.19215e-42
-2.98037e-43
-1.19215e-42
0
5.26375e-09
5.26375e-09
5.26375e-09
5.26375e-09
-2.38429e-42
0
5.26375e-09
5.26375e-09
0
-5.49781e-24
1.05275e-08
-5.49781e-24
0
-5.49781e-24
0
5.26375e-09
-1.34224e-27
1.05275e-08
-5.49781e-24
1.05275e-08
5.26375e-09
5.26375e-09
-5.49781e-24
0
0
5.26375e-09
0
-7.03719e-22
-8.79649e-23
0
0
5.26375e-09
5.26375e-09
0
5.26375e-09
1.05275e-08
1.05275e-08
1.05275e-08
5.26375e-09
-4.39825e-23
-5.49781e-24
-6.71119e-28
-3.3556e-28
0
5.26375e-09
5.26375e-09
5.26375e-09
5.26375e-09
0
5.26375e-09
5.26375e-09
0
0
-1.7593e-22
5.26375e-09
5.26375e-09
-8.79649e-23
-2.19912e-23
0
)
;

boundaryField
{
    fuel
    {
        type            calculated;
        value           uniform 0;
    }
    primary_air
    {
        type            calculated;
        value           uniform 0;
    }
    Secondary_air_RHS
    {
        type            calculated;
        value           uniform 0;
    }
    Secondary_air_LHS
    {
        type            calculated;
        value           uniform 0;
    }
    outlet
    {
        type            calculated;
        value           uniform 0;
    }
    stove_body
    {
        type            calculated;
        value           uniform 0;
    }
    frontAndBack
    {
        type            empty;
    }
}


// ************************************************************************* //
