/*--------------------------------*- C++ -*----------------------------------*\
  =========                 |
  \\      /  F ield         | OpenFOAM: The Open Source CFD Toolbox
   \\    /   O peration     | Website:  https://openfoam.org
    \\  /    A nd           | Version:  6
     \\/     M anipulation  |
\*---------------------------------------------------------------------------*/
FoamFile
{
    version     2.0;
    format      ascii;
    class       volScalarField;
    location    "2.5";
    object      T;
}
// * * * * * * * * * * * * * * * * * * * * * * * * * * * * * * * * * * * * * //

dimensions      [0 0 0 1 0 0 0];

internalField   nonuniform List<scalar> 
297
(
292.945
292.945
292.945
293.004
293.003
293.004
292.945
292.945
292.945
292.946
292.949
292.946
293.14
293.053
293.157
292.946
292.949
292.946
292.89
291.495
292.892
307
294.797
308.753
292.89
292.139
292.891
3877.36
2952.59
1267.41
2389.98
1293.09
482.29
3817.68
2899.29
1229.49
5000
4041.94
3028.08
5000
4116.03
1591.42
5000
3988.37
2965.14
5000
3792.58
3991.01
4009.83
2259.63
2134.34
5000
3764.79
4044.09
3755.3
2366.91
2293.95
5000
2185.81
4285.92
3721.93
2383.2
2297.33
2474.06
870.637
959.995
4316
1635.43
2548.26
2328.69
877.353
977.25
300.613
301.224
302.075
302.849
302.426
301.969
300.36
300.705
300.847
5000
3704.41
3865.4
4415.16
2193.46
2978
5000
3764.19
3950.29
4749.05
3696.56
2895.11
4693.58
2190.54
3239.22
4744.17
3758.15
2924.81
4187.91
3687.36
2644.07
5000
2190.09
4201.22
4166.91
3746.08
2662.73
299.894
301.205
301.902
300.086
300.688
300.747
299.918
300.44
300.262
300.419
302.21
302.169
300.289
301.009
301.084
300.644
300.985
300.692
300.682
302.155
302.249
300.532
301.201
301.478
301.11
301.155
301.099
301.828
301.923
302.303
300.851
302.228
302.229
300.097
300.08
299.911
302.136
302.181
302.359
300.838
301.627
302.23
300.665
300.744
300.595
302.083
301.85
302.285
301.104
301.286
301.47
301.005
300.969
300.925
299.947
299.836
299.792
300.129
300.055
300.015
300.016
299.887
299.797
300.04
299.976
300.037
300.188
300.152
300.163
300.135
300.09
300.058
300.073
300.127
300.229
300.253
300.293
300.357
300.17
300.171
300.967
300.319
300.264
300.074
300.363
300.283
300.219
300.174
300.098
300.086
300.352
300.241
300.059
300.357
300.313
300.246
300.177
300.127
300.114
300.347
300.17
300.074
300.361
300.293
300.318
300.15
300.127
300.099
300.147
300.045
300
299.537
300.059
300.342
299.976
300.06
300.017
297.884
297.812
297.899
298.617
298.985
299.516
297.803
297.688
297.982
291.712
291.646
291.654
287.002
286.797
287.037
291.695
291.643
291.649
302.267
302.666
302.887
302.089
302.149
301.941
299.996
300.474
300.4
302.127
302.47
303.125
302.094
302.175
302.032
300.57
300.572
300.099
301.817
302.311
303.165
301.649
302.206
301.947
300.824
300.695
299.713
301.229
301.855
302.018
302.255
302.151
300.71
299.545
299.616
299.232
297.243
298.68
298.593
300.721
300.634
299.505
295.524
294.202
294.627
291.717
292.389
292.427
282.724
287.694
288.63
298.867
290.578
291.311
)
;

boundaryField
{
    fuel
    {
        type            fixedValue;
        value           uniform 293;
    }
    primary_air
    {
        type            fixedValue;
        value           uniform 293;
    }
    Secondary_air_RHS
    {
        type            fixedValue;
        value           uniform 293;
    }
    Secondary_air_LHS
    {
        type            fixedValue;
        value           uniform 293;
    }
    outlet
    {
        type            inletOutlet;
        inletValue      uniform 293;
        value           nonuniform List<scalar> 
18
(
293
282.723
293
293
287.693
293
293
288.629
293
293
287.001
293
293
286.797
293
293
287.036
293
)
;
    }
    stove_body
    {
        type            fixedValue;
        value           uniform 293;
    }
    frontAndBack
    {
        type            empty;
    }
}


// ************************************************************************* //
