/*--------------------------------*- C++ -*----------------------------------*\
  =========                 |
  \\      /  F ield         | OpenFOAM: The Open Source CFD Toolbox
   \\    /   O peration     | Website:  https://openfoam.org
    \\  /    A nd           | Version:  6
     \\/     M anipulation  |
\*---------------------------------------------------------------------------*/
FoamFile
{
    version     2.0;
    format      ascii;
    class       volVectorField;
    location    "2.5";
    object      U;
}
// * * * * * * * * * * * * * * * * * * * * * * * * * * * * * * * * * * * * * //

dimensions      [0 1 -1 0 0 0 0];

internalField   nonuniform List<vector> 
297
(
(9.93488 -0.0215962 0.252853)
(9.93484 0.000135068 0.270542)
(9.93488 0.0217724 0.252144)
(-1.54645e-06 0.0260167 0.250922)
(-4.93193e-06 -0.000878919 0.2479)
(3.66412e-06 -0.0263097 0.251326)
(-9.93488 -0.0218146 0.253162)
(-9.93485 0.00164018 0.270469)
(-9.93487 0.0232203 0.25217)
(9.93495 -0.0230929 0.266903)
(9.93492 -0.000386589 0.29836)
(9.93497 0.0231931 0.26619)
(-2.24636e-06 0.0349326 0.2083)
(2.73989e-06 -0.00293549 0.075451)
(3.77097e-06 -0.0353145 0.214348)
(-9.93495 -0.024274 0.267203)
(-9.9349 0.00105087 0.300316)
(-9.93494 0.0258976 0.265449)
(9.93334 -0.0744881 0.409663)
(8.33327 -0.000500584 0.417628)
(9.93339 0.0804627 0.406769)
(-2.1117e-06 0.178707 0.137915)
(6.41458e-06 -0.0115632 0.169326)
(3.87294e-06 -0.159235 0.136127)
(-9.93335 -0.0801956 0.409468)
(-8.96716 0.00121685 0.431403)
(-9.93335 0.0887109 0.405373)
(85.8045 -22.4491 -25.8337)
(65.2229 27.1094 0.306832)
(27.739 29.2983 13.856)
(-0.00534809 3.49719 -11.3087)
(-0.0025757 13.7369 4.18073)
(-0.000737412 10.1224 11.5014)
(-84.4902 -21.0062 -22.9131)
(-64.0518 26.2352 1.84911)
(-26.9119 28.5685 13.9258)
(111.236 -118.848 37.25)
(89.976 32.8197 134.605)
(67.156 -13.0383 123.032)
(-0.0238655 -55.3851 247.606)
(-0.0103432 40.2405 223.402)
(-0.00515859 16.6955 156.49)
(-111.302 -115.04 41.9554)
(-88.7666 29.8541 137.015)
(-65.7401 -11.3889 123.103)
(108.937 -225.6 -53.8753)
(84.2963 53.7309 252.84)
(87.8594 -20.051 -24.0289)
(-0.0654509 -107.722 350.998)
(-0.0150224 -38.3855 -34.6636)
(-0.0106428 16.5509 208.077)
(-109.186 -226.807 -58.98)
(-84.1379 56.8808 237.319)
(-89.0806 -18.8045 -24.811)
(85.1272 -86.2786 -303.085)
(52.1495 -12.7031 -33.2427)
(51.6675 19.688 -164.03)
(0.0434764 -236.376 -85.0052)
(0.0127068 30.9012 -205.29)
(0.0223662 -20.1684 81.3129)
(-84.2772 -84.8977 -289.331)
(-52.4466 -13.4976 -29.2009)
(-51.7032 20.9679 -162.227)
(55.475 15.1427 -191.826)
(19.4947 19.0961 -96.0166)
(21.5603 -19.3142 -110.728)
(0.00841223 -60.5378 -173.238)
(-0.00113924 -13.6236 -114.506)
(-0.000628739 -0.268731 -113.217)
(-52.2058 22.3681 -183.033)
(-19.6479 15.6605 -97.6357)
(-21.9494 -15.0575 -111.045)
(6.75555 19.6 -16.0816)
(6.76526 1.93608 -13.5474)
(6.78978 -15.0938 -16.6499)
(0.000575744 16.1288 -10.0856)
(-0.000570949 7.46466 -16.1811)
(-0.000659066 6.59662 -19.4924)
(-6.74806 23.1302 -16.1347)
(-6.75611 -8.47848 -11.8106)
(-6.76338 -7.43497 -17.4433)
(96.9347 -237.249 -644.803)
(73.3283 30.8304 256.743)
(80.7576 6.30479 -351.833)
(0.254019 -164.394 526.495)
(0.0415155 -34.5875 -221.252)
(0.0697974 9.83759 306.161)
(-96.6927 -233.368 -625.599)
(-80.772 20.9807 255.976)
(-82.4231 8.18172 -346.393)
(97.5449 -157.542 -577.474)
(76.2159 17.6903 249.61)
(63.5701 13.5658 -286.886)
(0.264995 -190.865 610.514)
(0.0368983 -7.36226 -228.813)
(0.0735322 9.57379 336.516)
(-97.04 -155.575 -558.243)
(-78.5867 7.71117 252.1)
(-64.1065 15.151 -283.295)
(92.9215 -163.744 -494.706)
(75.9204 -17.1359 231.9)
(58.9987 11.9292 -254.729)
(0.246533 -256.7 604.732)
(0.032877 4.44004 -225.54)
(0.074466 2.20409 406.141)
(-91.9387 -161.611 -477.625)
(-76.8722 -23.3319 235.366)
(-59.2045 13.883 -251.624)
(6.72164 31.8002 -8.99301)
(6.75586 6.27393 -8.18584)
(6.77188 -35.0114 -8.49288)
(-0.000103346 26.2318 -9.33668)
(-0.000407599 15.6259 -8.04701)
(-0.000225026 12.7309 -4.04273)
(-6.72348 31.864 -9.85083)
(-6.7451 -16.1677 -7.86266)
(-6.74201 -33.2147 -7.35929)
(6.74489 16.8383 -3.2834)
(6.78644 -13.5253 3.55826)
(6.79071 -23.8713 3.90371)
(-0.000488787 18.6145 -3.49404)
(-0.000249517 4.94082 -2.37176)
(0.000246192 4.24609 -0.458597)
(-6.75218 15.1591 -0.0315698)
(-6.76083 -14.8028 4.13994)
(-6.75761 -20.8269 5.82915)
(6.75536 1.25215 -3.85276)
(6.78715 -3.98014 2.64929)
(6.79465 -1.66506 2.49899)
(-0.000373338 7.84307 -4.04357)
(-0.000201176 3.19146 -1.45728)
(0.000396681 3.51572 -0.685466)
(-6.76653 0.323527 -0.573476)
(-6.7651 -6.4561 2.539)
(-6.76751 5.70377 -0.464266)
(6.76552 -39.2881 -9.24166)
(6.77678 -37.5894 -13.6507)
(6.7589 -24.4892 -17.2123)
(-0.00138439 7.91278 2.37514)
(-0.0050428 -9.87722 -1.28547)
(-0.0138109 -10.9218 -5.74031)
(-6.73728 -38.598 -7.12359)
(-6.73045 -43.1183 -10.2032)
(-6.72713 -45.6017 -11.179)
(6.78887 -26.1786 1.57509)
(6.79129 -28.8129 -6.03156)
(6.76119 -17.9885 -18.766)
(-0.000527433 8.07216 4.48761)
(-0.00300706 1.65615 6.16057)
(-0.010572 -4.9661 7.16025)
(-6.75519 -23.4318 6.31628)
(-6.76382 -24.9019 6.56588)
(-6.76122 -33.1972 3.18031)
(6.79267 2.51859 3.87859)
(6.78418 6.0809 11.9369)
(6.77162 -14.216 -24.7961)
(-0.000167067 7.97978 2.99107)
(-0.00207639 10.8536 6.08053)
(-0.00514219 19.6671 8.81284)
(-6.76734 6.81332 4.00646)
(-6.77048 12.008 5.07016)
(-6.76232 18.6738 7.5226)
(6.72929 26.6017 -8.00692)
(6.73341 30.7592 -5.29661)
(6.71935 34.1002 -3.72953)
(0.00276566 20.0101 -5.39283)
(0.0013441 24.1679 -4.99035)
(0.000377174 27.4033 -4.87587)
(-6.72265 24.2669 -14.3865)
(-6.73048 30.5368 -10.3445)
(-6.71846 34.5821 -6.81533)
(6.7266 25.17 -13.1135)
(6.74044 28.5582 -6.33665)
(6.73222 27.2388 -1.58908)
(0.0015907 17.8379 1.56354)
(0.000616515 22.0394 1.70401)
(-0.000252737 22.7251 0.675961)
(-6.72266 24.2135 -16.0122)
(-6.74101 25.8903 -7.23184)
(-6.73355 26.3107 -1.29493)
(6.73092 22.2245 -18.6696)
(6.74888 17.3115 -10.669)
(6.74871 7.04006 -5.80414)
(0.0013654 14.6242 0.513303)
(0.000859594 14.0101 1.31125)
(0.000282784 13.389 0.570543)
(-6.72552 20.6273 -20.6844)
(-6.74539 6.91981 -9.61778)
(-6.76523 -4.26698 3.29036)
(6.72165 7.43625 -13.3861)
(6.72302 11.6632 -9.82523)
(6.72649 19.339 -11.1915)
(-0.000601475 1.42075 -2.86244)
(0.00170112 6.87657 -5.20379)
(0.00333725 12.2424 -6.80429)
(-6.72626 -3.68492 -5.94619)
(-6.71985 2.81835 -17.6966)
(-6.71334 13.3317 -22.4438)
(6.72401 3.03879 -19.0181)
(6.72625 11.5185 -15.6348)
(6.72477 21.3707 -19.4081)
(-3.48243e-05 3.01213 4.89001)
(0.00213845 6.80627 -0.634327)
(0.00255335 13.8307 -3.23675)
(-6.72392 0.958146 3.12468)
(-6.72072 6.46095 -22.3538)
(-6.71474 16.1486 -25.9325)
(6.73992 2.78344 -23.0616)
(6.73237 13.1929 -21.7133)
(6.73082 14.9641 -27.1035)
(0.000397317 2.27512 3.48776)
(0.00305705 8.75072 -5.60188)
(0.00288971 9.9626 -3.86222)
(-6.71957 1.68706 -2.15616)
(-6.74784 7.06532 -25.2168)
(-6.72743 11.3304 -31.588)
(6.73229 0.849041 -38.4183)
(6.73077 -3.09603 -39.6563)
(6.73185 -8.42181 -40.8482)
(-0.000938027 1.60219 30.8995)
(-0.00116236 3.45048 24.0352)
(-0.000604423 -11.0161 18.7495)
(-6.72623 4.44217 -5.56075)
(-6.73631 1.43078 -34.528)
(-6.73404 -9.75145 -47.3869)
(6.66911 -0.385885 -105.52)
(6.66729 -0.353165 -105.669)
(6.66772 3.6879 -103.943)
(0.0018374 0.649413 64.068)
(0.00114588 1.49672 61.7629)
(0.000828107 -1.03649 57.1828)
(-6.6612 0.414906 -103.131)
(-6.65977 0.0139921 -108.943)
(-6.66648 5.71098 -103.267)
(6.40836 -0.0205512 -143.736)
(6.40689 -0.06379 -143.739)
(6.40685 -0.0482638 -143.573)
(-0.000180554 0.253972 181.312)
(-0.000275393 0.67707 183.181)
(-0.000262055 -0.229808 182.477)
(-6.40868 0.081115 -143.341)
(-6.4074 0.0174076 -143.535)
(-6.40748 -0.0697489 -143.43)
(6.73614 -16.6769 -28.9474)
(6.74051 -1.71548 -28.9309)
(6.75166 9.3415 -9.73972)
(-0.0157544 -11.792 -7.43076)
(-0.00519746 -5.55535 -8.62792)
(0.0066563 -3.48743 -5.71457)
(-6.72691 -43.3372 -17.2365)
(-6.67987 -26.2705 -23.895)
(-6.66561 -20.1189 -30.7653)
(6.73204 -13.2506 -34.3444)
(6.73289 -6.61738 -36.798)
(6.75776 5.80878 6.36461)
(-0.0171986 -9.87015 8.79409)
(-0.0123186 -6.51853 5.90465)
(0.00132775 -2.02459 8.3551)
(-6.75639 -33.3571 -5.47253)
(-6.71124 -20.4774 -28.1935)
(-6.67867 -5.90454 -48.1928)
(6.75006 -8.47309 -46.1248)
(6.76578 -3.3836 -46.3908)
(6.75613 0.286521 3.96263)
(-0.0160357 16.024 17.5866)
(-0.0148806 7.81627 13.4773)
(-0.00400579 -0.446384 7.00834)
(-6.74302 15.9024 16.7097)
(-6.72967 -18.152 -18.4165)
(-6.72269 -2.13325 -59.0099)
(6.72031 4.39823 -74.0708)
(6.73799 -4.5212 -64.1122)
(6.7317 -3.02817 -30.4983)
(-0.0248188 9.54542 27.3477)
(-0.0241117 0.603695 30.3172)
(-0.0241004 -0.320889 50.1977)
(-6.75046 3.97617 61.2002)
(-6.7496 -12.5027 20.335)
(-6.74677 10.3243 -88.2222)
(6.63764 -3.11931 -129.802)
(6.66946 -0.505695 -129.256)
(6.66506 -0.935276 -125.916)
(-0.00991981 -0.0601636 66.1569)
(-0.00833474 -3.28381 65.1727)
(-0.00867172 -1.90559 76.1044)
(-6.62938 -1.16465 95.786)
(-6.59854 2.42928 -80.4822)
(-6.60093 -2.2454 -128.342)
(6.45024 -0.0646365 -157.364)
(6.46662 -0.188801 -157.317)
(6.46858 -0.116276 -157.076)
(0.0395814 0.299091 203.136)
(0.0371232 -0.285292 178.12)
(0.0347126 -0.329509 176.68)
(-6.50139 3.3256 -11.2272)
(-6.33088 6.54377 -118.927)
(-6.35035 2.94921 -147.857)
)
;

boundaryField
{
    fuel
    {
        type            fixedValue;
        value           uniform (0 0 0.25);
    }
    primary_air
    {
        type            fixedValue;
        value           uniform (0 0 2.5);
    }
    Secondary_air_RHS
    {
        type            fixedValue;
        value           uniform (0 58.3333 0);
    }
    Secondary_air_LHS
    {
        type            fixedValue;
        value           uniform (0 -58.3333 0);
    }
    outlet
    {
        type            pressureInletOutletVelocity;
        value           nonuniform List<vector> 
18
(
(0 0 -157.364)
(0.0395814 0.299091 203.136)
(0 0 -11.2272)
(0 0 -157.317)
(0.0371232 -0.285292 178.12)
(0 0 -118.927)
(0 0 -157.076)
(0.0347126 -0.329509 176.68)
(0 0 -147.857)
(0 0 -143.736)
(-0.000180554 0.253972 181.312)
(0 0 -143.341)
(0 0 -143.739)
(-0.000275393 0.67707 183.181)
(0 0 -143.535)
(0 0 -143.573)
(-0.000262055 -0.229808 182.477)
(0 0 -143.43)
)
;
    }
    stove_body
    {
        type            noSlip;
    }
    frontAndBack
    {
        type            empty;
    }
}


// ************************************************************************* //
