/*--------------------------------*- C++ -*----------------------------------*\
  =========                 |
  \\      /  F ield         | OpenFOAM: The Open Source CFD Toolbox
   \\    /   O peration     | Website:  https://openfoam.org
    \\  /    A nd           | Version:  6
     \\/     M anipulation  |
\*---------------------------------------------------------------------------*/
FoamFile
{
    version     2.0;
    format      ascii;
    class       volScalarField;
    location    "2.5";
    object      O2;
}
// * * * * * * * * * * * * * * * * * * * * * * * * * * * * * * * * * * * * * //

dimensions      [0 0 0 0 0 0 0];

internalField   nonuniform List<scalar> 
297
(
0
0
0
0
0
0
0
0
0
0
0
0
0
0
0
0
0
0
0
0
0
0
0
0
0
0
0
0.0425676
0.0537262
0.10375
0.0173801
0.0264404
0.0795289
0.0422381
0.0536722
0.105627
0
0.00583828
0.0584437
0
0.000321933
0.0466233
0
0.00525448
0.0554504
0
0.000676676
0.0413812
0
0.000245647
0.0417531
0
0.000914529
0.0381003
0
0
0
1.3547e-05
3.62239e-05
0
2.57914e-05
0
0
0
0
0
0
0
0
0
0
0
0
0
0
0
0
0
0
0
0
0
0.000257637
0.00699609
0
0.000245756
0.0235047
0
5.10804e-06
0.00405662
0
2.32516e-06
0
0
0.000245391
0.00286931
0
2.37703e-06
0
0
1.33064e-06
0
0
0.000244557
0
0
9.74542e-07
0
0
0
0
0
0
0
0
0
0
0
0
0
0
0
0
0
0
0
0
0
0
0
0
0
0
0
0
0
0
2.25554e-28
1.12425e-19
1.07162e-23
3.81501e-28
1.06375e-17
1.7215e-22
2.874e-27
3.12261e-20
1.05686e-24
1.94633e-29
1.53715e-21
4.42144e-25
3.91257e-29
1.86734e-19
1.75383e-24
2.75146e-29
3.83966e-21
3.72274e-25
1.50376e-29
3.37364e-22
2.59841e-26
7.64554e-30
0
2.32712e-27
1.12193e-30
1.04229e-28
3.83494e-28
8.49729e-26
6.27621e-28
9.97864e-28
5.26117e-27
1.86186e-27
1.94897e-27
2.28267e-27
4.31399e-28
4.4987e-27
4.26998e-27
2.33267e-27
2.19053e-27
7.15256e-28
4.14462e-27
4.58791e-27
6.24954e-27
1.20259e-28
5.39561e-27
6.15496e-27
2.57633e-27
2.64153e-27
9.01257e-28
5.51676e-27
4.54967e-27
3.26878e-27
8.95652e-32
3.33774e-32
7.57447e-32
3.09898e-29
4.0905e-28
5.62988e-28
1.26864e-28
1.49347e-27
1.70592e-27
9.21764e-32
2.10437e-32
5.22035e-32
8.87327e-29
4.86909e-28
1.40763e-27
4.7247e-28
2.82666e-27
3.4679e-27
8.18117e-32
1.84764e-32
4.12697e-32
7.03324e-28
1.29393e-27
2.23008e-27
7.24678e-28
3.69604e-27
6.18793e-27
1.42951e-32
2.28823e-32
3.67921e-32
7.36297e-28
1.0884e-27
1.46762e-27
1.05178e-27
8.72839e-27
7.21863e-27
1.28752e-32
2.69075e-32
5.18404e-32
7.45802e-28
2.27801e-27
1.79769e-27
1.19469e-27
9.04616e-27
1.16527e-26
2.68777e-33
1.25306e-32
2.45747e-32
6.6655e-28
3.11481e-27
6.10584e-27
5.99615e-28
4.77769e-27
1.44603e-26
1.93244e-32
2.01203e-36
7.04864e-37
2.19903e-32
1.42649e-35
2.76195e-35
1.5105e-31
1.8056e-35
4.538e-35
6.88834e-34
2.83221e-38
1.08912e-37
1.1486e-33
1.90571e-37
2.2815e-35
5.00299e-34
2.00488e-38
1.08973e-35
3.80571e-34
5.94907e-39
4.38299e-39
4.01835e-34
2.9762e-38
1.4546e-35
2.39946e-35
6.87538e-40
4.0163e-39
1.96328e-39
1.34811e-40
4.13801e-40
7.99271e-39
1.99056e-39
4.50547e-36
2.15179e-40
1.97761e-40
5.2654e-40
4.59413e-43
5.20655e-42
1.75454e-41
2.70355e-38
3.8562e-37
2.6855e-36
4.59258e-43
4.15624e-42
2.08051e-41
6.25701e-44
7.04182e-43
3.8115e-42
1.89331e-38
2.0923e-37
1.16681e-36
1.06327e-43
1.20128e-42
6.35563e-42
)
;

boundaryField
{
    fuel
    {
        type            fixedValue;
        value           uniform 0;
    }
    primary_air
    {
        type            fixedValue;
        value           uniform 0.23;
    }
    Secondary_air_RHS
    {
        type            fixedValue;
        value           uniform 0.23;
    }
    Secondary_air_LHS
    {
        type            fixedValue;
        value           uniform 0.23;
    }
    outlet
    {
        type            inletOutlet;
        inletValue      uniform 0;
        value           nonuniform List<scalar> 
18
(
0
1.89331e-38
0
0
2.0923e-37
0
0
1.16681e-36
0
0
6.6655e-28
0
0
3.11481e-27
0
0
6.10584e-27
0
)
;
    }
    stove_body
    {
        type            fixedValue;
        value           uniform 0;
    }
    frontAndBack
    {
        type            empty;
    }
}


// ************************************************************************* //
