/*--------------------------------*- C++ -*----------------------------------*\
  =========                 |
  \\      /  F ield         | OpenFOAM: The Open Source CFD Toolbox
   \\    /   O peration     | Website:  https://openfoam.org
    \\  /    A nd           | Version:  6
     \\/     M anipulation  |
\*---------------------------------------------------------------------------*/
FoamFile
{
    version     2.0;
    format      ascii;
    class       surfaceScalarField;
    location    "2.5";
    object      phi;
}
// * * * * * * * * * * * * * * * * * * * * * * * * * * * * * * * * * * * * * //

dimensions      [1 0 -1 0 0 0 0];

internalField   nonuniform List<scalar> 
675
(
-1.06493e-06
-7.59217e-06
0.000153538
1.66352e-06
-1.08815e-05
0.000153488
-5.95864e-06
0.000152541
1.14442e-06
7.59267e-06
0.000156572
-1.21447e-06
1.08813e-05
0.000154224
5.95858e-06
0.000159751
-1.06527e-06
0.000153539
1.66299e-06
0.000153488
0.000152541
-7.20885e-07
-1.71434e-05
0.000190339
7.6945e-07
-2.1945e-05
0.000193224
-1.39308e-05
0.000186205
3.83433e-06
1.71445e-05
8.36663e-05
-9.22778e-06
2.19444e-05
8.87268e-05
1.39306e-05
8.77759e-05
-7.21242e-07
0.000190341
7.69182e-07
0.000193223
0.000186204
-2.42287e-06
8.58541e-05
4.53154e-06
7.95813e-05
8.3841e-05
2.21301e-06
-8.58535e-05
-2.18931e-06
-7.95818e-05
-8.38412e-05
-2.42013e-06
4.53297e-06
0.0259367
-0.017142
-0.00366196
0.0274843
-0.00797657
0.00912936
0.00179307
0.0264507
0.0364719
0.0183727
-0.066997
0.0401764
0.00914641
-0.0176587
-0.000972633
0.0486338
0.0264367
-0.00546344
0.0271772
0.00763163
0.0251862
0.0261706
-0.0125122
-0.0163568
0.0203057
0.000292496
0.0165209
0.00978472
0.0397125
0.0382868
0.0104878
-0.127592
0.0286233
-0.00260055
-0.000297658
-0.0101661
0.0984904
0.0290265
-0.0199563
0.0243563
0.0149808
0.0365722
0.0164158
0.00609989
-0.0392425
0.0334814
0.0106917
-0.0129614
0.0122104
0.0592976
0.0353466
-0.00734627
-0.148558
0.0203347
-0.0118713
0.0401088
-0.0139113
0.149039
0.0185124
-0.0458347
0.0349021
-0.0119562
0.0583957
-0.0157296
0.0254434
-0.0682746
0.0658216
-0.0187331
-0.0102084
-0.00970957
0.0237244
-0.00444682
0.0443907
-0.06132
-0.0379248
-0.0216159
-0.0605952
0.142565
-0.0320017
0.00933009
-0.00922091
-0.0202298
0.00281654
0.0536835
-0.0919841
-0.0167438
-0.0727246
0.0732457
-0.0227163
-0.0157972
0.023203
0.0430375
-0.0627344
-0.0246697
-0.0215455
-0.032884
-0.0225197
-0.00932319
-0.00702242
0.000487106
0.0192708
-0.043134
0.0216792
-0.0528902
-0.0414121
0.00616615
-0.0234539
-0.00230615
0.0175652
-0.0228845
-0.0352409
-0.0239544
-0.00976341
0.0180484
-0.0144991
0.000424687
-0.0166518
-0.0141357
-0.00262449
-0.00382692
0.00357429
0.00245277
-0.0242238
6.71899e-05
-0.0271863
-0.0328244
-0.000886898
-0.0150681
-0.00402912
-0.00649043
-0.00940729
-0.0187865
-0.0131896
-0.00624888
0.00115105
-0.00195013
0.000486632
-0.043889
0.00291627
0.000205897
-0.0180037
-0.0137144
0.069644
-0.0012675
-0.00020897
-0.156632
0.00460479
2.5953e-05
0.0339738
0.0151477
0.114856
-0.00197911
-0.0508677
0.00259951
-0.0169763
0.0704187
-0.00208202
0.000722207
-0.0486819
0.000548066
0.000138793
-0.0207514
-0.00213438
0.0660942
-0.00175632
-0.00039159
-0.164118
0.00225947
8.79604e-05
0.0296457
0.00226992
0.10286
-0.00218481
-0.0565776
0.000381273
-0.0199423
0.0673475
-0.00256905
0.0135008
0.000337498
7.2406e-05
-0.00112021
-0.00783955
-0.0110067
0.00128454
2.92129e-05
0.00111101
-0.00273484
7.20674e-05
-0.00395341
-0.00056502
-0.00401033
-0.00739636
-0.00744183
0.00030755
2.82807e-06
0.000290722
0.00494907
-0.0104577
-0.0126416
0.000360366
-0.0121301
-0.00399668
-0.017001
-0.00113587
-0.0094932
-0.000203643
-0.00610127
-0.0171053
-0.00150908
-0.00399382
-0.013474
-0.0103672
0.00152092
0.00323077
-0.0117656
-0.00926084
0.00143114
-0.00227864
0.00636095
-0.00982583
0.000705127
0.00034311
0.000592351
0.00462545
-0.00905236
-0.0079725
-0.00204539
-0.0053651
0.00406087
-0.0111907
-0.00166939
-0.00426514
-0.000204331
-0.0038771
-0.0130676
-0.00473406
0.00498526
-0.00764049
-0.0102292
0.00482415
0.00288564
-0.00969702
-0.00398066
0.00247559
-0.000821719
-0.00535319
0.00198029
0.00127012
-0.00205368
-0.00411162
-0.00299983
0.00369146
-0.00353294
-0.00299343
-0.00195245
-0.00428125
-0.00348764
0.003681
-0.00236488
-0.00115855
-0.0111243
0.000505847
0.000465751
-0.01189
0.00178598
-0.000919175
0.00165261
-0.00510124
-0.00839238
-0.0159099
-0.000306072
-0.00076817
-0.0136325
-0.00167651
0.000721229
-0.00161814
0.00144455
-0.0121669
-0.0119356
-0.000268498
-0.0125425
-0.00118874
-0.00524892
-0.00886213
-0.00933447
0.000423279
0.000328296
-0.0092219
0.00114278
-0.00216951
0.000212427
-0.00576409
-0.00876629
-0.0131959
-0.000231716
-0.000322869
-0.0107964
-0.00104403
8.29929e-05
-0.000122034
0.00194761
-0.0113285
-0.00992458
-0.000417588
-0.00979184
-0.00249674
-0.00602049
-0.00912453
-0.00210813
0.000359003
-0.00420838
-0.000115933
-0.00128818
-0.00873333
-0.00420749
-0.000302703
-0.00492351
0.000266416
0.00135791
-0.00599856
-0.00203964
-0.00440121
-0.00907245
0.00764373
0.00168496
-0.00233053
-0.00706396
0.00767107
0.000764313
-0.000840816
0.000224602
5.9871e-05
0.00488063
0.000787473
0.00133684
-0.00548962
0.0043533
0.000708388
0.000243994
0.000309865
-0.000104962
0.015006
0.000841896
-0.0150438
0.0144422
0.00104269
0.00090369
-0.000714199
0.00163744
0.000972965
-0.00430383
-0.00461032
0.000867823
0.00210037
0.00121496
0.00052061
-0.00395677
0.000660696
0.00584931
0.00026172
-0.00541447
-0.000129019
0.00244988
3.27312e-05
-0.000564931
0.00961842
0.00173518
-0.00983379
0.0091187
0.00118075
0.00198611
0.000321918
0.00144319
-0.000926382
0.00135914
0.000959133
0.000958108
-0.0065263
0.000932385
0.0127809
-0.00368661
0.000342702
0.000134849
-0.00664814
0.00932969
-0.0053427
-0.00283825
0.00233767
0.000429273
0.00276214
0.00206468
-0.00772845
0.00178507
-0.00613841
0.00364873
-0.00227552
0.00129377
0.00474284
-0.000978009
0.00217855
-0.00101648
0.00211886
0.00980201
-0.0117255
0.0153218
-0.00621343
-0.000569139
-0.00230183
0.00220735
0.000453183
0.00185548
0.00194592
-0.0138996
0.00158361
-0.0102385
0.00336029
-0.00197449
0.00241694
0.00270158
-0.000555162
0.0055475
-0.000551453
0.00724351
0.00783631
-0.0212013
0.0109902
-0.00965242
0.000197415
-0.00254579
0.00164675
0.00129019
0.00373763
0.0030505
-0.0232979
0.001314
-0.0088195
-0.0022509
-0.00395325
0.0105108
-0.00734902
-0.000296669
0.0141467
0.000444619
0.0135822
0.00895541
-0.0337638
0.00064439
-0.00142613
0.0107361
0.00767109
0.0148857
-0.0212202
-0.00379874
0.0169072
-0.0287313
0.0165012
-0.0291604
-0.00803614
0.0016003
0.031878
-0.00459018
0.0049662
0.0226635
0.0038279
0.0216605
0.00679989
-0.0393429
0.0158432
-0.00589245
0.0299889
0.00450553
0.00862543
-0.0343148
0.00240416
0.00847977
-0.035076
0.00855925
-0.0352833
0.00692984
-0.00127036
0.0353473
0.00956043
-0.00359332
0.0325461
-0.00105474
0.0412591
-0.00173958
-0.0388862
0.00558928
-0.0168123
0.034543
0.000553141
0.0160206
0.000306731
0.0161187
0.015981
0.00181668
-0.0215165
0.00217964
-0.0231855
-0.0225252
-0.0117588
-0.0128365
-0.00270601
0.00154789
-0.00720865
0.00204567
0.00185406
-0.0065873
0.00165443
0.000406678
-0.00591575
-0.00156581
-0.0032018
0.00131297
-0.0018956
-0.0033467
-0.00170489
0.00493215
-0.00295421
-0.00733676
0.00200992
-0.00670587
0.00045833
-0.00516708
0.00111287
-0.0119154
0.00084399
0.00159793
-0.0141856
0.00166288
-0.000402476
-0.00654309
-0.00110946
-0.0058407
-6.7888e-05
-0.00163685
-0.00646659
-0.00169949
0.00846383
-0.00543441
-0.0120375
0.00075405
-0.0143992
-0.000362428
-0.00762468
0.00169424
-0.0147284
0.00340779
0.00429656
-0.0294899
0.00147683
0.00153322
-0.00589071
-0.00168665
-0.00264828
0.000109959
-0.00439333
-0.0036732
-0.00150377
0.0117479
-0.0079425
-0.0147748
0.00335403
-0.0299555
0.0015726
0.00240868
0.0103342
-0.0276615
-0.0118986
0.010762
-0.0260672
0.00845926
-0.0188841
0.00411355
-0.0102254
0.0137604
0.00218085
-0.010733
0.0198167
-0.00839702
0.0309179
0.00260016
-0.0278234
-0.0119677
-0.0263477
-0.0190372
-0.00396887
0.00691112
-0.0306379
-0.00456008
0.00621201
-0.0317229
0.00679278
-0.0302733
-0.00423269
-0.00680476
0.032194
-0.00683552
-0.0060947
0.0352243
-0.00667115
0.0380613
-0.00393205
-0.0307253
-0.00461025
-0.031791
-0.0303418
0.000146779
0.0187341
-0.000611368
0.0185869
0.018593
-0.0031321
-0.0186885
-0.00379386
-0.0185436
-0.0185496
0.000133921
-0.00061797
)
;

boundaryField
{
    fuel
    {
        type            calculated;
        value           nonuniform List<scalar> 
36
(
0.000125611
0.000209197
0.000125611
0.000125611
0.000209196
0.000125611
0.000125611
0.000209197
0.000125611
-0.00012561
-0.000209195
-0.00012561
-0.00012561
-0.000209195
-0.00012561
-0.00012561
-0.000209195
-0.00012561
0
0
0
0
0
0
0
0
0
0
0
0
0
0
0
0
0
0
)
;
    }
    primary_air
    {
        type            calculated;
        value           nonuniform List<scalar> 9(-0.00322507 -0.00535829 -0.00321598 -0.00322089 -0.00534834 -0.00322258 -0.00321302 -0.00533465 -0.00321679);
    }
    Secondary_air_RHS
    {
        type            calculated;
        value           nonuniform List<scalar> 9(0.00599956 0.010348 0.00594005 0.00599362 0.0102553 0.00592843 0.00603188 0.0102378 0.00596462);
    }
    Secondary_air_LHS
    {
        type            calculated;
        value           nonuniform List<scalar> 9(0.00627124 0.00957414 0.00645241 0.00626792 0.009521 0.00646654 0.0063065 0.00959642 0.0065067);
    }
    outlet
    {
        type            calculated;
        value           nonuniform List<scalar> 
18
(
-0.0496194
0.0729098
-0.0496467
-0.0496547
0.073172
-0.0496827
-0.049583
0.0715559
-0.0496102
-0.0509577
0.0712679
-0.0487239
-0.0510193
0.0717003
-0.0389797
-0.0510302
0.082178
-0.000859969
)
;
    }
    stove_body
    {
        type            calculated;
        value           uniform 0;
    }
    frontAndBack
    {
        type            empty;
        value           nonuniform 0();
    }
}


// ************************************************************************* //
