/*--------------------------------*- C++ -*----------------------------------*\
  =========                 |
  \\      /  F ield         | OpenFOAM: The Open Source CFD Toolbox
   \\    /   O peration     | Website:  https://openfoam.org
    \\  /    A nd           | Version:  6
     \\/     M anipulation  |
\*---------------------------------------------------------------------------*/
FoamFile
{
    version     2.0;
    format      ascii;
    class       volScalarField;
    location    "2.5";
    object      T;
}
// * * * * * * * * * * * * * * * * * * * * * * * * * * * * * * * * * * * * * //

dimensions      [0 0 0 1 0 0 0];

internalField   nonuniform List<scalar> 
297
(
292.894
292.893
292.894
292.993
292.993
292.993
292.894
292.893
292.894
292.911
292.907
292.912
293.124
293.095
293.144
292.911
292.907
292.912
292.949
292.943
292.977
305.647
302.186
308.122
292.949
292.943
292.977
970.847
913.999
761.172
1032.39
1004.76
853.98
956.294
915.802
758.145
1206.91
1154.07
881.74
1084.6
1095.08
922.604
1108.72
1074.73
891.557
1299.19
1263.87
1046.68
1076.76
1134.21
964.956
1105.17
1143.66
986.096
989.608
1276.23
1316.16
902.547
1170.79
1196.23
878.367
1229.5
1255.57
914.085
1286.93
1320.34
767.298
1122.49
1208.34
771.989
1208.7
1262.27
550.417
1216.44
1321.5
468.261
829.584
1041.13
482.588
1055.07
1262.13
1304.57
1278.09
1136.35
1049.67
1138.88
1028.62
1134.51
1223.99
1083.72
1174.18
1279.06
1215.15
1003.95
1141.15
1062.74
1040.32
1224.87
1158.79
1065.7
1277.83
1296.15
963.5
1141.15
1178.34
951.513
1226.08
1235.22
374.226
550.879
554.958
312.525
309.016
303.045
303.615
355.168
384.367
365.579
370.281
367.105
318.614
308.814
303.125
306.711
314.313
311.637
342.95
337.989
334.437
319.74
316.842
305.989
308.098
310.757
306.559
300.561
300.671
300.655
301.177
300.932
300.688
300.837
300.698
300.539
300.929
300.857
300.749
301.497
301.202
300.926
301.325
300.99
300.745
301.142
301.018
300.785
301.877
301.6
301.224
301.609
301.252
300.833
302.572
310.098
310.315
298.96
299.992
301.828
298.659
298.935
299.301
308.038
367.571
366.607
321.924
332.057
328.044
301.36
301.647
301.87
303.787
356.603
358.117
327.912
332.663
325.834
307.069
305.742
305.846
302.084
302.083
301.75
300.38
300.812
300.766
298.375
299.073
298.671
302.214
301.982
301.383
300.553
300.922
301.985
298.208
299.921
299.942
302.309
301.821
301.206
301.612
308.133
317.836
298.143
300.654
307.254
301.107
300.561
300.457
301.234
305.233
308.359
298.631
301.042
303.147
298.504
298.298
297.557
298.054
303.355
305.398
295.139
295.148
298.578
292.244
292.209
291.485
288.006
288.331
285.694
291.203
291.436
303.232
300.514
300.518
300.439
300.573
300.491
300.306
300.378
300.345
300.367
300.463
300.517
300.558
300.813
300.651
300.305
300.426
300.363
300.462
300.363
300.543
300.795
301.101
300.721
300.367
300.467
300.494
300.607
300.252
300.741
300.655
301.95
300.935
298.983
300.736
300.922
300.782
298.159
298.003
298.152
299.958
298.831
298.312
298.12
297.962
298.142
291.805
291.802
291.924
287.631
287.364
287.612
291.817
291.815
291.937
)
;

boundaryField
{
    fuel
    {
        type            fixedValue;
        value           uniform 293;
    }
    primary_air
    {
        type            fixedValue;
        value           uniform 293;
    }
    Secondary_air_RHS
    {
        type            fixedValue;
        value           uniform 293;
    }
    Secondary_air_LHS
    {
        type            fixedValue;
        value           uniform 293;
    }
    outlet
    {
        type            inletOutlet;
        inletValue      uniform 293;
        value           nonuniform List<scalar> 
18
(
293
287.635
293
293
287.369
293
293
287.616
293
293
288.011
293
293
288.336
293
293
285.699
293
)
;
    }
    stove_body
    {
        type            fixedValue;
        value           uniform 293;
    }
    frontAndBack
    {
        type            empty;
    }
}


// ************************************************************************* //
