/*--------------------------------*- C++ -*----------------------------------*\
  =========                 |
  \\      /  F ield         | OpenFOAM: The Open Source CFD Toolbox
   \\    /   O peration     | Website:  https://openfoam.org
    \\  /    A nd           | Version:  6
     \\/     M anipulation  |
\*---------------------------------------------------------------------------*/
FoamFile
{
    version     2.0;
    format      ascii;
    class       volVectorField;
    location    "2.5";
    object      U;
}
// * * * * * * * * * * * * * * * * * * * * * * * * * * * * * * * * * * * * * //

dimensions      [0 1 -1 0 0 0 0];

internalField   nonuniform List<vector> 
297
(
(20.7086 -0.00672083 0.259401)
(20.7085 0.00095547 0.26162)
(20.7086 0.00783104 0.255954)
(-2.95536e-09 0.012512 0.259501)
(-2.3728e-09 -0.000650471 0.258577)
(-2.04194e-09 -0.0121064 0.258515)
(-20.7086 -0.00672403 0.259403)
(-20.7085 0.000952695 0.261619)
(-20.7086 0.00783052 0.255954)
(20.7094 -0.00626042 0.275946)
(20.7091 -0.000798572 0.277194)
(20.7096 0.00776205 0.27353)
(-3.02661e-09 0.0377413 0.0841568)
(-2.49348e-09 -0.0109154 0.0938017)
(-2.2361e-09 -0.0453546 0.105519)
(-20.7094 -0.00626068 0.275948)
(-20.7091 -0.000800306 0.277194)
(-20.7096 0.0077613 0.273529)
(20.7126 -0.0380351 0.468261)
(20.7122 0.00660356 0.477546)
(20.7147 0.0474729 0.463395)
(-2.36598e-09 0.0246681 0.231276)
(-2.03124e-09 0.00556675 0.216256)
(-1.88098e-09 -0.0299778 0.210583)
(-20.7126 -0.0380185 0.468266)
(-20.7122 0.00661648 0.477546)
(-20.7147 0.0474737 0.463395)
(44.9638 24.5029 -30.7717)
(42.2929 38.5733 -15.3275)
(35.1088 49.1604 23.3068)
(-0.0305914 5.92175 -88.0721)
(0.00561286 37.8982 -54.4916)
(0.0104716 51.6696 21.9722)
(-44.37 24.9323 -32.0446)
(-42.3773 38.8501 -16.1784)
(-34.9537 48.5025 22.2273)
(56.5263 12.3044 -4.95098)
(53.6661 59.6073 69.1206)
(40.8253 29.4736 98.5103)
(0.200768 -27.4803 -148.911)
(0.112877 55.5516 -22.7867)
(-0.00805779 35.065 91.7933)
(-51.3427 14.3096 -9.34503)
(-49.6825 62.7306 59.2105)
(-41.3825 33.012 94.8595)
(59.5106 -32.1633 -29.7386)
(57.9225 43.8798 38.9633)
(49.3197 93.2826 214.87)
(-0.309004 -45.0841 -182.709)
(-0.236577 65.7318 35.2129)
(0.22524 64.3104 129.593)
(-51.5127 -20.6072 -32.2828)
(-53.0203 41.6552 26.4889)
(-45.793 84.4842 204.657)
(45.9533 -53.0686 -135.364)
(59.2741 -79.9983 -53.5759)
(60.365 60.2147 126.015)
(0.21232 -20.1307 -283.241)
(-0.0270728 -71.1589 -38.4201)
(-0.189901 41.0496 114.052)
(-40.3304 -47.9041 -135.82)
(-57.3535 -83.5366 -57.9588)
(-58.084 56.5746 116.987)
(42.3917 -39.9628 -115.234)
(59.9134 -66.704 -26.4255)
(61.7926 16.8205 59.8099)
(-0.170418 -51.189 -96.5934)
(-0.0478835 -52.427 -68.7839)
(0.0878676 -5.08486 20.1375)
(-36.2352 -20.1023 -115.253)
(-56.4773 -66.9575 -41.6605)
(-58.7711 15.4008 50.5611)
(25.7997 -10.6656 -36.4351)
(56.7623 -39.156 -34.5021)
(61.8039 -7.40856 39.1112)
(0.0216706 -4.95089 -41.3576)
(-0.000901649 -33.3346 -31.9768)
(0.0101261 -23.6028 3.60169)
(-22.5634 9.10055 -34.5284)
(-49.335 -36.679 -37.0192)
(-59.0113 -7.60829 33.3809)
(53.2689 -79.4051 -174.925)
(56.799 -58.3776 -69.5163)
(55.9488 71.7753 239.083)
(0.298485 -64.1391 -319.645)
(-0.191676 30.598 64.7728)
(-0.1066 59.6892 175.734)
(-42.4077 -59.5062 -161.413)
(-54.7799 -69.2703 -59.3384)
(-54.8931 68.4226 236.159)
(48.1527 -76.3314 -149.624)
(55.8603 -64.543 -74.1491)
(54.1738 72.0088 248.615)
(0.331329 -57.3777 -312.51)
(-0.17457 17.6095 59.681)
(-0.115939 60.9139 190.875)
(-39.8135 -59.7735 -160.249)
(-53.773 -77.5899 -70.1368)
(-53.7662 68.6921 245.767)
(47.6881 -73.09 -138.357)
(57.1884 -68.3631 -76.0544)
(53.731 80.403 265.282)
(0.365211 -57.5183 -300.527)
(-0.160633 -9.06123 72.7798)
(-0.123343 57.6402 221.529)
(-43.9279 -59.4199 -151.84)
(-56.5508 -83.1941 -72.6842)
(-51.8379 77.4775 261.27)
(17.444 -0.1522 -12.0259)
(25.8034 -36.7575 -4.92766)
(25.991 -34.2891 2.01901)
(0.0226725 -13.02 -9.73136)
(0.0258203 -27.7124 -7.7089)
(0.0103029 -28.9401 -6.22859)
(-14.1163 24.0518 -12.5693)
(-16.571 -36.3197 -3.60146)
(-17.9723 -35.6665 -0.980251)
(17.1052 -25.8722 -2.33417)
(17.3593 -32.8518 1.52096)
(17.1932 -31.2149 5.43313)
(0.0251288 -8.3807 -5.67968)
(0.0364643 -17.0808 -2.42137)
(0.0107709 -19.3918 1.42575)
(-14.2937 0.959458 4.14209)
(-14.6461 -30.6353 2.708)
(-14.5705 -29.8808 3.45452)
(16.0659 -3.00188 -0.203166)
(15.8743 -15.8664 1.04306)
(15.6926 -15.1488 4.7322)
(0.0245931 -8.54832 -1.75617)
(0.0452733 -7.17173 -2.46521)
(0.0204712 -3.76232 -2.70665)
(-14.3695 -12.8644 0.736152)
(-14.4858 -13.7264 3.61981)
(-14.3443 -4.14923 3.65968)
(14.0281 -34.836 -6.82502)
(14.0355 -31.36 -9.70423)
(13.9658 -25.0213 -14.3359)
(-0.00113403 -28.5016 -6.1211)
(-0.00931359 -26.1776 -7.1274)
(-0.0150084 -21.0716 -7.51557)
(-14.0541 -36.7858 -7.90806)
(-14.064 -33.1 -10.1588)
(-14.0004 -26.3366 -14.9854)
(14.0782 -27.586 1.03407)
(14.0618 -28.173 -4.82164)
(13.9514 -24.5803 -13.4948)
(0.00238651 -22.404 1.94522)
(-0.00523585 -22.5604 1.89621)
(-0.0122953 -18.132 1.69169)
(-14.0918 -28.1517 -0.234636)
(-14.0847 -30.7688 -5.93799)
(-13.9831 -25.2641 -13.934)
(14.1129 -1.4486 -0.922478)
(14.083 -14.4049 -14.3107)
(13.9623 -21.0613 -19.8062)
(0.00775413 -5.95428 0.379763)
(-0.00163793 -9.3682 2.07817)
(-0.00941278 -12.1193 0.782984)
(-14.119 0.42068 -2.67402)
(-14.099 -15.0707 -14.0894)
(-13.9857 -22.075 -20.3224)
(14.0505 23.0548 -12.1178)
(14.4162 22.2483 -9.39262)
(14.4376 26.2446 -6.7117)
(-0.038848 9.45214 -3.6347)
(-0.0250711 7.52229 -2.73561)
(-0.00862747 9.96272 -0.578768)
(-13.9102 46.107 -10.5735)
(-13.9309 42.6585 -9.62653)
(-13.9624 39.4114 -7.10207)
(14.3326 13.1235 -3.99486)
(17.1178 -11.9945 4.76582)
(17.1275 -20.7165 1.59919)
(-0.0452519 -4.71737 5.56099)
(-0.0306874 -11.5635 2.29601)
(-0.0086515 -9.31521 -2.75419)
(-14.1302 35.1938 4.09493)
(-14.1461 28.5867 6.63009)
(-14.0993 26.4712 7.59921)
(14.1485 10.4832 1.96404)
(16.6111 -2.65362 5.31908)
(16.724 5.35489 5.45078)
(-0.0442614 -20.3911 5.5125)
(-0.030828 -9.80398 2.49881)
(-0.00876133 -6.96659 1.13692)
(-14.3792 -20.5026 4.48808)
(-14.319 -15.6886 2.62497)
(-14.2753 -11.7373 2.31752)
(13.9949 -5.24363 -6.90561)
(13.9772 1.8149 -19.9681)
(13.9813 7.38963 -17.5855)
(0.00495015 6.12313 -6.80992)
(-0.0179112 6.15156 -4.58093)
(-0.0389445 9.47995 -4.26229)
(-13.7543 20.0247 -29.4149)
(-13.79 26.3878 -22.4055)
(-13.9435 44.1571 -17.12)
(14.0101 -4.67407 2.14786)
(13.9803 1.72055 -29.8265)
(13.9759 3.3488 -22.749)
(-0.00459301 0.964125 7.08128)
(-0.0321549 5.55383 6.94687)
(-0.0463701 6.60628 11.2152)
(-13.7941 5.5694 -45.2537)
(-13.9055 20 -26.2413)
(-14.0548 34.6313 -5.09385)
(14.0129 -2.15682 4.48899)
(14.0783 1.52264 -37.4099)
(14.0143 0.663542 -27.3122)
(-0.0136601 -0.708093 5.70599)
(-0.0373775 -9.86838 16.9294)
(-0.0487699 -17.6292 17.422)
(-13.9753 2.34785 -56.1647)
(-13.9855 18.0505 -17.9223)
(-14.2995 -19.7142 17.3448)
(13.9461 1.84704 -16.6704)
(13.9427 1.33689 -56.1172)
(13.917 -0.392681 -58.0709)
(-0.056417 0.0800419 51.8305)
(-0.0586455 -2.46161 33.3294)
(-0.0627132 -7.3091 33.2006)
(-14.0242 -10.084 -85.2724)
(-14.1193 14.9368 34.3701)
(-14.2219 -6.83545 64.6261)
(13.817 0.841455 -115.462)
(13.815 1.65768 -120.168)
(13.7791 1.06909 -120.595)
(-0.0338539 1.82104 78.3571)
(-0.0340204 2.74976 64.424)
(-0.0374274 0.326883 66.4308)
(-13.7524 2.64139 -123.228)
(-13.7893 -1.63893 -66.0215)
(-13.9358 -0.476434 102.257)
(13.3932 0.125334 -149.616)
(13.3886 0.199898 -149.855)
(13.3522 0.0748649 -149.898)
(0.0660213 0.428186 181.371)
(0.0712204 0.442799 182.687)
(0.0755827 -0.214387 207.674)
(-13.1617 -2.94148 -141.46)
(-13.1729 -6.1995 -107.967)
(-13.6792 -3.98843 -1.2511)
(13.9577 -14.6978 -23.4918)
(13.9778 -3.16674 -20.5912)
(13.9784 4.80101 -8.05321)
(-0.0145887 -13.3529 -10.3876)
(-0.012437 -4.34881 -9.23228)
(-0.0107138 3.69662 0.616672)
(-13.991 -15.9845 -24.0791)
(-14.0023 -3.30954 -21.0571)
(-14.0023 4.54082 -8.3914)
(13.951 -17.0996 -25.9688)
(13.9762 -5.34396 -23.8144)
(13.9757 -0.55541 6.74392)
(-0.0117457 -13.3034 -6.75534)
(-0.00983717 -5.67938 -7.0142)
(-0.00853339 1.77478 11.827)
(-13.9822 -18.0601 -26.3615)
(-13.995 -5.84965 -24.2153)
(-13.9935 -0.97369 7.20439)
(13.9958 -12.0133 -32.8201)
(14.1028 -4.43174 -27.5377)
(13.9711 -2.54204 -0.881315)
(-0.00797134 -7.95514 -7.97339)
(-0.00609158 -6.22252 -11.7483)
(-0.00529528 1.91218 16.0712)
(-14.0138 -12.5137 -33.1891)
(-14.1186 -5.36873 -27.9059)
(-13.9763 -2.69462 -1.01178)
(14.0139 9.85598 -54.4666)
(14.0411 -1.7078 -37.7485)
(14.0074 -4.93206 -4.93424)
(0.00384513 11.7493 14.975)
(0.00403572 -1.82802 25.1002)
(0.00418794 -2.02119 48.9719)
(-14.0248 9.876 -54.6917)
(-14.0387 -1.4446 -38.3529)
(-14.002 -5.07673 -5.1074)
(13.8533 -6.13255 -106.861)
(13.8436 -0.539769 -111.47)
(13.8511 -0.353564 -105.202)
(-0.00153426 -0.558233 55.6329)
(-0.00167606 -1.95572 63.7854)
(-0.00175568 -1.67974 74.7722)
(-13.8557 -6.17793 -107.287)
(-13.8463 -0.564547 -111.763)
(-13.8553 -0.308872 -105.47)
(13.3004 0.0490794 -144.528)
(13.3004 -0.116974 -144.661)
(13.3078 -0.129082 -144.39)
(-0.000241942 -0.476184 185.418)
(-0.000225071 -1.29718 185.917)
(-0.00021051 -1.00043 181.938)
(-13.3015 0.0470152 -144.631)
(-13.3015 -0.121568 -144.768)
(-13.3088 -0.131151 -144.493)
)
;

boundaryField
{
    fuel
    {
        type            fixedValue;
        value           uniform (0 0 0.25);
    }
    primary_air
    {
        type            fixedValue;
        value           uniform (0 0 2.5);
    }
    Secondary_air_RHS
    {
        type            fixedValue;
        value           uniform (0 52.7778 0);
    }
    Secondary_air_LHS
    {
        type            fixedValue;
        value           uniform (0 -52.7778 0);
    }
    outlet
    {
        type            pressureInletOutletVelocity;
        value           nonuniform List<vector> 
18
(
(0 0 -144.528)
(-0.000241942 -0.476184 185.418)
(0 0 -144.631)
(0 0 -144.661)
(-0.000225071 -1.29718 185.917)
(0 0 -144.768)
(0 0 -144.39)
(-0.00021051 -1.00043 181.938)
(0 0 -144.493)
(0 0 -149.616)
(0.0660213 0.428186 181.371)
(0 0 -141.46)
(0 0 -149.855)
(0.0712204 0.442799 182.687)
(0 0 -107.967)
(0 0 -149.898)
(0.0755827 -0.214387 207.674)
(0 0 -1.2511)
)
;
    }
    stove_body
    {
        type            noSlip;
    }
    frontAndBack
    {
        type            empty;
    }
}


// ************************************************************************* //
