/*--------------------------------*- C++ -*----------------------------------*\
  =========                 |
  \\      /  F ield         | OpenFOAM: The Open Source CFD Toolbox
   \\    /   O peration     | Website:  https://openfoam.org
    \\  /    A nd           | Version:  6
     \\/     M anipulation  |
\*---------------------------------------------------------------------------*/
FoamFile
{
    version     2.0;
    format      ascii;
    class       surfaceScalarField;
    location    "4.5";
    object      phi;
}
// * * * * * * * * * * * * * * * * * * * * * * * * * * * * * * * * * * * * * //

dimensions      [1 0 -1 0 0 0 0];

internalField   nonuniform List<scalar> 
675
(
-2.11097e-06
-3.94211e-05
0.000168595
2.26616e-06
-3.93978e-05
0.000162084
-3.94363e-05
0.000168765
5.98778e-07
3.95877e-05
0.000130987
-2.0186e-06
3.95215e-05
0.000134293
3.96025e-05
0.000129537
-1.84781e-06
0.000168498
2.01766e-06
0.000162719
0.000168682
-9.90793e-07
-6.18608e-05
0.000231448
1.59024e-06
-6.9462e-05
0.000228965
-6.3757e-05
0.000234122
1.39628e-05
6.21757e-05
-7.07496e-06
-1.63427e-05
6.84809e-05
2.65668e-05
6.39929e-05
-1.46205e-05
-7.31827e-07
0.000231406
1.37643e-06
0.000229092
0.00023406
-6.74511e-06
0.00011114
9.99539e-06
8.51959e-05
0.00011706
4.38425e-06
-0.000110831
-8.20041e-06
-8.58005e-05
-0.000116788
-6.47745e-06
9.78346e-06
0.00756022
0.00556827
-0.00992663
0.00884373
0.00578922
-0.00387134
0.00883741
0.00320564
0.00145294
-0.00557638
0.0149902
-0.00424669
-0.00570038
0.022485
-0.00874679
0.0186284
0.00763174
-0.00999878
0.00893349
-0.00379437
0.00338708
0.015593
0.00679602
-0.0323112
0.0121022
0.00287562
-0.00325648
0.008641
0.00666744
0.00583119
-0.00668455
0.0226453
0.00889231
-0.00266168
0.0249787
-0.00839409
0.044562
0.0158565
-0.0325617
0.0122451
-0.00283998
0.00725136
-0.00673195
0.0237375
-0.0493048
-0.00537762
0.0110925
-0.015693
0.0173122
-0.0160141
-0.047289
-0.0235844
0.11714
0.0415462
-0.0107232
-0.0420615
-0.0169596
0.120415
-0.00672204
-0.0492242
-0.00526472
-0.0150837
-0.0149729
-0.0169745
-0.014042
-0.0298636
0.0608556
0.00625747
-0.000180088
-0.0419295
0.0188528
-0.00961792
-0.0163482
0.032219
0.0180821
0.0136992
0.0406791
-0.0863544
-0.00452143
-0.000216541
-0.0299592
0.0525935
0.0098804
0.063516
-0.08756
-0.0173302
-0.0298737
0.0607779
0.00564342
-0.0413585
0.0181813
-0.015828
0.0313371
0.00414312
-0.0101664
-0.0238689
-0.000156791
-0.00855971
-0.0290809
-0.00648812
-0.0100329
0.0154631
0.0101332
0.00490856
-0.0120476
0.00776298
-0.0188093
0.00719435
0.0377795
0.00504846
-0.0247281
-0.000205484
-0.0283821
-0.00885274
-0.00506269
-0.00121109
-0.0176115
-0.0152214
-0.0003443
-0.0185875
-0.00921734
-0.0160874
0.00971381
0.000986428
-0.00702571
9.25478e-05
-7.87887e-05
-0.00945389
0.00900276
0.0196511
-0.00564425
-0.018121
-0.0148248
-0.0193015
-0.0146824
-0.000901363
-0.00251107
-0.0521603
-0.00132418
-0.000611706
-0.0146592
-0.00201618
-0.0216383
-0.00320181
0.00251152
0.105278
0.00265043
0.000635423
-0.0491563
0.0019704
0.108857
-0.000929149
-0.052103
-0.00135657
-0.0140069
-0.0206736
-0.00115256
-0.00069968
-0.0565588
-0.000293058
-3.00562e-05
-0.0154895
-0.00101966
-0.0272169
-0.00149241
0.000696836
0.0953689
0.00230231
5.24624e-05
-0.0530284
0.000980052
0.098973
-0.00118431
-0.0565192
-0.000315139
-0.0148053
-0.0263116
-0.00192087
-3.23469e-05
-5.60581e-05
0.00149746
-0.0013514
-0.00111724
5.55526e-05
0.0014586
-0.00150894
0.00132942
-0.00194582
-5.94419e-05
0.00540901
-0.00300789
-0.00448936
-0.0155214
-0.00618988
-0.000923012
-0.00604016
-0.00303415
-0.00271167
-0.0163944
-0.00248616
0.00221646
-0.00796555
-0.00179419
-0.00291971
0.00159876
-0.0115483
0.00345744
0.0117387
-0.00150297
0.00557332
-0.00484238
-0.0166373
-0.00584329
-0.00628762
-0.00227616
-0.0147868
0.00378049
0.00122725
0.00207609
-0.0115703
-0.00601717
0.0015724
0.00217903
0.000300201
0.00269248
-0.0117237
-0.00142862
-0.00210949
-0.00579383
0.00259576
-0.00374785
-0.00130701
-0.00635825
0.000391169
0.0047121
0.00319567
0.00241408
0.00267795
-0.0120405
-0.00703659
0.00185559
0.00195573
-0.0108901
0.000434868
0.0035654
-0.00192192
-0.000926966
0.00353792
0.00243582
-0.000672684
-0.00376888
-0.00319299
0.00473637
-0.00390483
-0.00269029
-0.00184983
0.00506839
-0.00185837
0.0013462
-0.00269136
-0.00258255
-0.01716
-0.00104402
0.00181036
-0.0170576
-0.00182095
0.0017204
-0.00161101
0.00184784
-0.0172922
-0.00621197
0.00250017
0.00116543
-0.00831228
0.000103262
0.000175454
-0.00171924
0.00228636
-0.0104895
-0.014132
0.00184531
-0.015114
0.00108623
-0.00214666
-0.0146866
-0.0118897
-0.000872738
0.00286549
-0.011847
-0.000941791
0.00261927
-0.00132208
0.00284031
-0.0115176
0.00366734
0.00159273
-0.00177953
0.000776141
-0.000178914
0.00230831
-0.001313
0.00743581
-0.00439594
-0.0102843
0.00283456
-0.0101921
0.00081565
-0.00360076
-0.0100511
0.00172567
0.000464481
0.00411033
0.000230956
-0.0013206
0.00826736
0.00426849
-0.000521857
0.00765195
-0.000846272
-0.000897264
0.0146593
-0.00027036
-0.000300148
-0.00479865
0.0156507
0.00168995
-0.00223685
-0.0151033
0.0146614
-0.000140672
0.00113152
-0.00259828
0.00174047
0.00830669
0.00165155
0.00236538
-0.0106328
0.00669472
0.00188671
-0.000413614
0.000982292
0.00132273
0.0171128
0.00184149
-0.0173026
0.0172912
0.0017087
0.00163295
0.0107446
0.00130539
-0.00383456
-0.0104518
0.0108424
0.000118318
0.000917094
-0.00173031
0.00274505
-0.000712801
0.00119788
0.00778094
-0.00459304
-0.0035182
0.000703661
0.00180559
0.000532474
-0.00185792
0.0118771
0.00262214
-0.0114595
0.0121859
0.00210268
0.00231677
0.000126381
0.000995855
-0.00495625
3.03842e-05
0.00101475
0.000855087
-0.00710677
0.0012682
0.0146163
-0.00410511
-0.000185316
-0.000363417
-0.00521843
0.00910944
-0.0033003
0.00655277
0.00311465
-0.0096687
0.0116778
0.00287433
-0.0080004
0.00184361
-0.00526962
0.00923147
-0.00169773
-0.00442045
0.0110991
-0.000121739
0.00112743
-0.000820411
0.00313016
0.0116516
-0.0133491
0.0181017
-0.00657159
-2.10664e-05
0.00505242
0.00206496
-0.0167872
0.00802638
0.00196814
-0.0129434
0.00170833
-0.00940373
0.00788543
-0.0013857
-0.00885654
0.00680249
1.41465e-05
0.00416346
-0.000732787
0.00778055
0.00862142
-0.0233559
0.0129547
-0.0108904
0.000741604
0.00630459
0.00469378
-0.0277865
0.00632011
0.00284603
-0.0158056
0.00202637
-0.0100665
0.00215411
-0.00432702
-0.00199102
-0.00674364
0.000286093
0.0156205
0.00115537
0.0165243
0.00944361
-0.0371261
0.00233361
-0.00349399
0.0133403
-0.0103115
0.0170576
-0.0345338
-0.00694939
0.014004
-0.0331731
0.0154981
-0.0325154
-0.0032968
-0.00280546
0.0211656
-0.00509334
0.00272841
0.0286895
0.00115281
0.025774
0.00630626
-0.0462392
0.0170175
-0.0114775
0.0315098
-0.0010693
0.00758417
-0.0410509
-0.000467988
0.00708957
-0.0408664
0.0076676
-0.0406533
0.00450111
-0.00194452
0.0261915
0.0094276
-0.00272957
0.0335805
0.000882513
0.0419854
-0.00293846
-0.0452467
0.00255498
-0.0197017
0.0349464
-0.000161468
0.0147452
-0.000155755
0.0146984
0.0147052
-9.11743e-05
-0.0228986
0.00161829
-0.0221468
-0.0212147
-0.015331
-0.0163425
-0.0180954
0.000789639
2.12926e-05
-0.0116112
8.89089e-05
-0.00656973
0.00166808
-0.0132741
-0.0109684
-0.00181971
0.00308446
-0.00914589
-0.00282424
0.00109274
-0.00306145
-0.00441369
-0.0113773
-0.00512952
-0.00637705
-0.00782537
-0.00943956
-0.0130436
0.000677628
0.000871336
-0.00865539
-6.77508e-05
-0.0108857
0.00135043
-0.0232759
-0.00659982
-0.00169203
0.00765902
-0.0078715
-0.00193195
0.00423046
-0.00203432
-0.00889768
-0.0077526
-0.00912086
-0.00491621
-0.0125945
-0.016391
-0.00282356
-0.0012057
0.0131676
-0.00949011
-0.000391118
-0.0038257
0.00429475
-0.0370675
0.00739406
-0.0018912
0.0156093
-0.00183545
-0.00274711
0.0158168
-0.00461951
-0.00181637
-0.00598843
-0.00982302
-0.00604588
-0.0152847
-0.0270571
-0.0168081
-0.00115983
0.0311288
-0.00617575
-0.00296368
-0.0114989
0.00282402
-0.0460366
0.00472947
-0.0154517
0.0251683
0.00302629
-0.0139694
0.0285233
-0.0171035
0.0211366
0.00704438
-0.0323158
0.0103729
-0.0325777
-0.0337821
-0.00248685
-0.000828388
0.034445
0.00302264
0.00273021
-0.0197339
0.00195953
-0.0449613
-0.0099586
-0.00756907
0.041867
-0.00479368
-0.00733963
0.0334286
-0.00786282
0.0261817
0.000478959
-0.0403581
0.00101226
-0.040448
-0.0406296
0.0161898
0.020992
0.0152139
0.0220813
0.0228891
-0.00180784
-0.0145746
7.80887e-05
-0.0148005
-0.0148965
0.000153417
0.000182195
)
;

boundaryField
{
    fuel
    {
        type            calculated;
        value           nonuniform List<scalar> 
36
(
0.000127064
0.000210603
0.000127064
0.000127064
0.000210603
0.000127064
0.000127064
0.000210603
0.000127064
-0.000127064
-0.000210603
-0.000127064
-0.000127064
-0.000210603
-0.000127064
-0.000127064
-0.000210603
-0.000127064
0
0
0
0
0
0
0
0
0
0
0
0
0
0
0
0
0
0
)
;
    }
    primary_air
    {
        type            calculated;
        value           nonuniform List<scalar> 9(-0.00320315 -0.00529678 -0.00320302 -0.00320368 -0.00529797 -0.00320357 -0.00320342 -0.00530001 -0.00320334);
    }
    Secondary_air_RHS
    {
        type            calculated;
        value           nonuniform List<scalar> 9(0.00631585 0.0102203 0.00631625 0.00630486 0.010186 0.00630543 0.00629706 0.01019 0.00629781);
    }
    Secondary_air_LHS
    {
        type            calculated;
        value           nonuniform List<scalar> 9(0.00626663 0.0100509 0.00626181 0.00624979 0.0100135 0.00624507 0.00624951 0.0100503 0.00624533);
    }
    outlet
    {
        type            calculated;
        value           nonuniform List<scalar> 
18
(
-0.00273621
0.0792349
-0.0550887
-0.0408421
0.0684177
-0.0552798
-0.0526387
0.0640472
-0.055346
-0.0556367
0.0639235
-0.0528162
-0.0555727
0.0687134
-0.0408387
-0.0555165
0.0795209
-0.00261131
)
;
    }
    stove_body
    {
        type            calculated;
        value           uniform 0;
    }
    frontAndBack
    {
        type            empty;
        value           nonuniform 0();
    }
}


// ************************************************************************* //
