/*--------------------------------*- C++ -*----------------------------------*\
  =========                 |
  \\      /  F ield         | OpenFOAM: The Open Source CFD Toolbox
   \\    /   O peration     | Website:  https://openfoam.org
    \\  /    A nd           | Version:  6
     \\/     M anipulation  |
\*---------------------------------------------------------------------------*/
FoamFile
{
    version     2.0;
    format      ascii;
    class       volScalarField;
    location    "4.5";
    object      T;
}
// * * * * * * * * * * * * * * * * * * * * * * * * * * * * * * * * * * * * * //

dimensions      [0 0 0 1 0 0 0];

internalField   nonuniform List<scalar> 
297
(
291.806
291.8
291.808
293.016
293.016
293.021
291.806
291.8
291.808
291.849
291.859
291.962
293.333
293.406
294.186
291.849
291.857
291.964
292.074
292.068
292.512
295.226
300.096
303.328
292.075
292.068
292.514
410.03
400.345
358.299
354.249
352.986
336.441
409.991
400.649
358.359
446.839
448.398
411.658
397.991
369.957
356.027
446.442
450.066
411.264
446.884
455.633
587.921
428.117
450.598
435.175
446.578
469.58
599.819
401.158
383.524
456.471
495.258
483.568
522.414
399.366
386.767
464.91
370.071
381.875
438.767
495.14
461.136
522.498
366.331
386.388
458.751
319.372
360.822
400.024
398.676
411.274
522.397
315.264
352.952
409.155
445.193
404.346
638.616
451.585
479.626
476.565
444.069
418.185
664.745
426.98
381.56
526.157
471.121
479.534
486.523
425.514
389.146
540.175
412.489
379.966
497.534
492.058
479.614
519.044
410.796
387.224
508.847
308.213
322.403
329.469
339.598
418.615
508.507
304.922
329.322
336.151
305.263
313.766
318.162
322.689
375.658
503.024
303.286
321.131
326.777
300.146
313.201
318.701
325.908
355.743
415.223
312.566
321.72
322.172
301.166
301.17
300.766
301.688
304.677
304.567
301.759
302.946
302.996
317.937
306.849
302.08
445.011
427.371
314.459
319.723
302.963
303.102
318.42
311.667
317.659
403.225
394.311
370.326
318.494
303.089
302.8
303.085
303.033
303.341
304.337
305.083
305.122
300.207
300.623
300.859
303.107
302.984
304.929
304.972
318.144
318.719
301.696
302.496
303.275
302.911
303.184
304.309
313.67
317.946
322.618
304.495
303.953
304.795
303.969
303.859
303.378
304.07
304.318
304.188
299.739
300.819
300.067
303.815
303.643
303.238
304.399
304.551
304.344
299.848
301.706
301.545
303.362
303.248
302.784
304.428
305.682
308.297
299.364
301.969
304.141
303.003
302.689
302.045
305.479
304.86
305.499
298.999
299.66
299.955
298.902
298.988
298.32
304.172
303.198
302.707
295.202
294.67
295.733
292.069
292.05
291.442
293.137
290.319
286.92
291.137
290.725
299.261
300.678
301.51
301.374
304.478
304.533
304.426
303.263
303.607
303.79
301.566
301.752
300.883
304.498
304.733
304.649
303.222
303.594
303.629
315.151
301.994
300.272
335.426
313.829
304.737
302.655
303.139
303.226
303.746
300.862
297.589
319.116
312.294
305.646
302.065
302.656
302.87
301.446
296.151
295.524
311.165
305.395
304.125
296.331
298.846
298.855
304.469
292.226
291.463
292.377
292.502
293.149
291.333
292.016
292.072
)
;

boundaryField
{
    fuel
    {
        type            fixedValue;
        value           uniform 293;
    }
    primary_air
    {
        type            fixedValue;
        value           uniform 293;
    }
    Secondary_air_RHS
    {
        type            fixedValue;
        value           uniform 293;
    }
    Secondary_air_LHS
    {
        type            fixedValue;
        value           uniform 293;
    }
    outlet
    {
        type            inletOutlet;
        inletValue      uniform 293;
        value           nonuniform List<scalar> 
18
(
293
292.378
293
293
292.503
293
293
293.149
293
293
293.137
293
293
290.319
293
293
286.92
293
)
;
    }
    stove_body
    {
        type            fixedValue;
        value           uniform 293;
    }
    frontAndBack
    {
        type            empty;
    }
}


// ************************************************************************* //
