/*--------------------------------*- C++ -*----------------------------------*\
  =========                 |
  \\      /  F ield         | OpenFOAM: The Open Source CFD Toolbox
   \\    /   O peration     | Website:  https://openfoam.org
    \\  /    A nd           | Version:  6
     \\/     M anipulation  |
\*---------------------------------------------------------------------------*/
FoamFile
{
    version     2.0;
    format      ascii;
    class       volVectorField;
    location    "4.5";
    object      U;
}
// * * * * * * * * * * * * * * * * * * * * * * * * * * * * * * * * * * * * * //

dimensions      [0 1 -1 0 0 0 0];

internalField   nonuniform List<vector> 
297
(
(69.0677 -0.0268102 0.256921)
(69.0663 -0.00196846 0.262818)
(69.0682 0.03069 0.259717)
(-1.23703e-05 0.0414551 0.333035)
(-1.21384e-05 -0.00280896 0.345136)
(-1.23104e-05 -0.0431593 0.332045)
(-69.0677 -0.0264134 0.257024)
(-69.0663 -0.00196459 0.262415)
(-69.0682 0.0303374 0.259827)
(69.0691 -0.0151295 0.283596)
(69.0686 0.00167852 0.271958)
(69.0965 0.0163296 0.283686)
(-1.23777e-05 0.120482 -0.185637)
(-1.21966e-05 -0.00128424 -0.140996)
(-1.23424e-05 -0.13097 -0.196002)
(-69.0691 -0.0140274 0.283346)
(-69.0688 0.00183639 0.273376)
(-69.0969 0.0152873 0.283394)
(69.1243 -0.0773942 0.556851)
(69.1235 0.0124613 0.556763)
(69.2274 0.0802749 0.557885)
(-1.06614e-05 -0.228721 0.479043)
(-1.07031e-05 0.0117719 0.441512)
(-1.05123e-05 0.188174 0.478555)
(-69.1244 -0.0758145 0.556625)
(-69.1237 0.0126283 0.555817)
(-69.2278 0.0788306 0.557675)
(63.6069 7.13307 -7.65694)
(62.0023 6.52872 -3.84561)
(55.1044 3.41331 3.0376)
(-0.000511169 1.90981 4.27714)
(-0.000426492 -0.333335 4.0767)
(-0.000308336 0.351206 6.26483)
(-63.6076 7.08196 -7.63827)
(-62.0512 6.64129 -3.69167)
(-55.1107 3.43776 3.36814)
(69.6307 11.5527 -14.5059)
(69.8893 10.1152 -10.3615)
(64.1295 11.0282 11.29)
(-0.00166492 11.2727 38.1583)
(-0.00191744 1.45321 29.1031)
(-0.00127454 0.321521 35.8924)
(-69.577 11.4768 -14.9179)
(-70.1566 10.4243 -10.6101)
(-64.0632 11.2129 11.1022)
(68.7202 8.96177 -19.451)
(70.768 -11.5035 -3.16259)
(90.7208 -16.1897 34.4461)
(-0.000112032 -8.32027 53.9884)
(-0.00230932 -4.56115 12.7414)
(-0.00281805 10.4472 56.8935)
(-68.6742 8.76082 -20.0208)
(-72.9451 -11.8775 -3.41129)
(-92.566 -15.9176 36.4605)
(62.5788 -0.684658 -53.616)
(59.5146 -5.94283 -30.6432)
(70.9244 -0.225507 -38.2423)
(0.00483325 0.759655 -1.50302)
(0.00538235 8.45407 -37.516)
(0.00747414 -5.29122 32.0425)
(-62.287 -0.797842 -53.4794)
(-60.006 -6.449 -30.565)
(-72.1702 -0.0979334 -37.6441)
(57.9838 20.7554 -38.7634)
(59.421 -4.85546 -38.6199)
(68.8495 -9.39684 -22.2822)
(0.00303055 -1.61944 -11.1484)
(0.00185942 3.46239 -17.2374)
(0.00803461 -8.13953 23.4615)
(-57.3823 20.9362 -38.4781)
(-60.1449 -4.99201 -38.5707)
(-71.9054 -7.09797 -21.8022)
(50.0216 22.4356 -30.8904)
(56.2616 -15.3391 -30.1778)
(62.4571 -24.4732 -24.3116)
(0.00141217 0.884678 -3.97187)
(7.01669e-05 2.90377 -21.8361)
(0.00273322 -4.87511 22.2003)
(-49.372 22.4089 -30.6177)
(-55.0401 -16.7792 -29.1774)
(-63.876 -21.6168 -24.2133)
(58.0223 11.6569 -64.4332)
(59.2279 -19.002 -16.3884)
(91.2356 -41.4 -30.7379)
(-0.0126768 -6.14477 74.7648)
(0.000180615 -3.30893 -39.5919)
(0.0011077 1.20479 76.1367)
(-57.9296 11.4667 -64.1975)
(-61.1693 -20.1404 -16.1682)
(-95.0455 -43.5025 -29.9885)
(58.1601 6.72412 -67.6269)
(57.0728 -13.3821 -15.3561)
(74.6435 -15.2203 -41.4839)
(-0.0107734 -4.46162 83.5451)
(0.000468155 0.717629 -41.2712)
(0.00152608 1.54351 83.085)
(-57.9682 6.51925 -67.4055)
(-58.1513 -14.2153 -15.0137)
(-76.7498 -15.6866 -41.3658)
(59.7585 3.17396 -64.1612)
(58.4744 -10.6707 -20.2981)
(67.2286 -8.78016 -40.1221)
(-0.00935609 -2.72289 82.8317)
(0.000872092 2.86783 -39.9608)
(0.00196746 -5.35163 89.7552)
(-59.5567 2.96008 -63.9152)
(-59.5984 -11.266 -19.881)
(-68.8835 -8.88108 -39.6895)
(47.2544 38.1172 -8.19963)
(49.6648 -0.839938 -9.66832)
(50.5972 -40.667 -9.11318)
(-0.00334226 -3.60988 -4.83935)
(0.00103141 -8.41945 -5.78438)
(0.00668471 -2.5346 15.8039)
(-46.9024 40.297 -9.87106)
(-50.611 -5.6944 -10.7001)
(-51.5154 -37.1977 -7.10574)
(47.3327 29.7737 -0.551467)
(48.6535 -5.21309 -1.79957)
(49.4195 -30.5135 3.19626)
(0.00090082 0.210193 -3.35025)
(-0.000733915 -7.75679 -5.19803)
(-0.000399016 -0.66343 7.5789)
(-47.1325 28.1306 3.74007)
(-49.7754 -15.5646 -2.48347)
(-50.6718 -30.0645 -0.288457)
(46.8047 1.84796 2.25933)
(48.8424 -2.08665 0.299733)
(49.7477 2.52047 -1.74575)
(0.00188235 -8.08758 -1.66771)
(-0.000311048 -6.48562 -0.797063)
(0.000255363 2.63517 0.0218182)
(-48.6917 -7.49619 -2.53223)
(-50.0731 -9.20952 1.7332)
(-50.2135 -4.85617 3.51371)
(46.2009 -45.5334 -4.72273)
(46.1281 -50.4135 -8.49503)
(45.9498 -53.7893 -9.61917)
(0.0295089 -2.84893 -1.57238)
(0.0345347 -13.3547 -2.93506)
(0.0739946 -18.4712 -3.36045)
(-45.4016 -39.855 -3.06387)
(-46.651 -45.5266 -7.72587)
(-47.0335 -41.4864 -14.2727)
(48.9861 -33.074 7.64942)
(47.5524 -35.229 7.10472)
(46.7531 -41.4196 5.03147)
(0.0206182 7.07752 1.61317)
(0.0367825 17.7262 4.23632)
(0.0795779 -7.0656 10.2779)
(-48.8131 -31.1861 4.00555)
(-47.1191 -34.9427 -1.68668)
(-47.203 -26.6434 -10.081)
(49.6583 1.92254 8.60102)
(48.7312 7.71523 9.4479)
(49.1877 18.6852 11.8215)
(0.0113096 9.59502 -1.88746)
(0.0318282 18.1806 1.36876)
(0.073695 25.8272 5.34519)
(-49.6182 -9.10677 12.6101)
(-47.3796 1.15245 13.4075)
(-47.2787 -15.2462 -16.1759)
(47.0419 42.6567 -14.4981)
(46.6601 47.0756 -7.81276)
(45.5935 41.5279 -2.87141)
(-0.074458 18.8123 -3.06811)
(-0.034216 12.5351 -4.06769)
(-0.0316479 4.92611 0.307069)
(-45.7821 53.6445 -9.60173)
(-45.9561 50.2331 -8.58641)
(-46.2164 45.7588 -5.07236)
(47.2051 27.6195 -11.0953)
(47.0576 36.0408 -1.94656)
(46.492 31.9306 3.23264)
(-0.0746277 8.13434 9.73347)
(-0.0236532 -14.9814 1.83311)
(-0.012083 -4.53855 -1.64033)
(-46.7227 41.3454 5.40599)
(-46.9128 35.1807 7.61345)
(-46.8172 33.0694 8.13154)
(47.3018 15.2002 -16.3479)
(47.4068 -1.68656 14.7055)
(47.4455 8.27286 12.2448)
(-0.0593019 -22.2598 5.38615)
(-0.022738 -12.9739 1.39869)
(-0.00603568 -8.29249 -0.208225)
(-47.1833 -19.933 9.3571)
(-47.4533 -11.0477 5.43748)
(-47.4015 -6.4259 3.81883)
(46.7616 7.8129 -24.7223)
(46.8375 20.5965 -22.8367)
(46.8088 32.454 -17.6664)
(0.0152517 13.0432 -9.56174)
(-0.0311349 14.7838 -6.41581)
(-0.0874391 20.588 -2.97508)
(-45.2389 24.2443 -31.7914)
(-44.968 31.1307 -23.51)
(-46.3465 51.4014 -17.7885)
(46.4288 5.45366 -36.9983)
(46.4805 13.7005 -32.3027)
(46.9112 22.4791 -24.5411)
(-0.0449917 7.29172 -8.47331)
(-0.104131 10.9351 2.85194)
(-0.122441 15.4808 12.1453)
(-45.696 6.00316 -55.0166)
(-45.7811 21.9204 -30.1234)
(-47.0207 39.4775 -4.80928)
(47.7226 -0.569953 -48.9994)
(47.202 7.90447 -44.5309)
(47.5086 9.40537 -33.3104)
(-0.107395 4.54249 -18.2255)
(-0.137656 -5.88721 16.3002)
(-0.131584 -17.8419 19.3322)
(-47.5268 3.46378 -71.5028)
(-46.0938 20.6338 -21.6841)
(-46.1763 -15.2477 22.2725)
(46.7619 -4.07342 -78.029)
(46.4792 -6.45572 -71.5961)
(46.4484 -3.89132 -72.5298)
(-0.322604 -2.56695 34.3814)
(-0.326758 -0.330964 48.2854)
(-0.335544 -10.832 44.1542)
(-47.2383 -8.73349 -103.728)
(-47.0076 11.2786 14.6303)
(-47.1442 -2.90637 69.0201)
(45.9448 1.00406 -137.91)
(45.902 0.440165 -137.132)
(45.7923 0.812387 -136.713)
(-0.141165 1.11934 71.9977)
(-0.151441 3.55071 78.181)
(-0.167239 -1.68976 75.9668)
(-45.8967 2.69752 -138.309)
(-45.9104 -5.49705 -76.2583)
(-45.8292 1.68076 111.935)
(44.0251 -0.156835 -167.224)
(44.0046 -0.0508367 -166.934)
(43.8981 -0.119946 -166.683)
(0.301572 -1.16936 162.63)
(0.31779 0.584787 173.468)
(0.338906 -0.880221 199.071)
(-43.2124 -5.54641 -156.617)
(-42.9687 -7.58352 -112.472)
(-43.9978 -3.62022 -3.44787)
(46.4388 -51.3935 -17.757)
(45.0734 -31.2094 -23.5739)
(45.4926 -24.3991 -31.8542)
(0.083492 -20.3389 -2.90013)
(0.0245814 -14.6071 -6.24731)
(-0.0221321 -12.9458 -9.49983)
(-46.8112 -31.5374 -17.2516)
(-46.824 -20.157 -22.3827)
(-46.7632 -7.2553 -24.0637)
(47.0297 -39.8139 -4.92619)
(45.7907 -21.8863 -30.21)
(45.8589 -6.24161 -54.9351)
(0.122907 -15.2176 12.4508)
(0.101474 -10.8885 2.62347)
(0.0401146 -7.28711 -8.55999)
(-46.9221 -21.4775 -23.5196)
(-46.5021 -13.4211 -31.2657)
(-46.4342 -5.14855 -35.9619)
(47.8083 12.9838 23.4083)
(46.0733 -20.6871 -21.9305)
(47.6762 -3.52906 -71.2198)
(0.147404 20.6728 19.7435)
(0.142718 7.21214 17.279)
(0.104503 -4.65066 -18.0289)
(-47.4678 -8.60608 -31.682)
(-47.1752 -7.64444 -42.8909)
(-47.701 0.813723 -47.5086)
(47.741 1.6655 69.1518)
(47.1916 -10.2076 14.3235)
(47.0198 8.84 -103.009)
(0.355911 11.7039 44.5667)
(0.339311 0.256702 48.9248)
(0.326055 1.97536 34.5879)
(-46.4383 3.64106 -72.0914)
(-46.4644 6.37923 -70.2075)
(-46.7281 3.89143 -76.0537)
(46.7102 -2.41724 112.201)
(46.1443 5.8581 -76.5083)
(45.9497 -2.67969 -137.542)
(0.174917 1.77755 76.7737)
(0.156499 -3.74333 77.9216)
(0.145621 -1.38026 71.2303)
(-45.4597 -0.690238 -135.248)
(-45.8799 -0.493462 -135.649)
(-45.9324 -0.905436 -136.411)
(44.7606 3.19097 -3.74896)
(43.1979 7.62449 -112.506)
(43.2652 5.55073 -155.92)
(-0.33981 0.783634 202.092)
(-0.313773 -0.603952 173.982)
(-0.295112 1.09674 162.939)
(-43.8485 0.0906322 -164.876)
(-43.9879 0.0707314 -165.71)
(-44.0127 0.143538 -166.007)
)
;

boundaryField
{
    fuel
    {
        type            fixedValue;
        value           uniform (0 0 0.25);
    }
    primary_air
    {
        type            fixedValue;
        value           uniform (0 0 2.5);
    }
    Secondary_air_RHS
    {
        type            fixedValue;
        value           uniform (0 50 0);
    }
    Secondary_air_LHS
    {
        type            fixedValue;
        value           uniform (0 -50 0);
    }
    outlet
    {
        type            pressureInletOutletVelocity;
        value           nonuniform List<vector> 
18
(
(0 0 -3.74896)
(-0.33981 0.783634 202.092)
(0 0 -164.876)
(0 0 -112.506)
(-0.313773 -0.603952 173.982)
(0 0 -165.71)
(0 0 -155.92)
(-0.295112 1.09674 162.939)
(0 0 -166.007)
(0 0 -167.224)
(0.301572 -1.16936 162.63)
(0 0 -156.617)
(0 0 -166.934)
(0.31779 0.584787 173.468)
(0 0 -112.472)
(0 0 -166.683)
(0.338906 -0.880221 199.071)
(0 0 -3.44787)
)
;
    }
    stove_body
    {
        type            noSlip;
    }
    frontAndBack
    {
        type            empty;
    }
}


// ************************************************************************* //
