/*--------------------------------*- C++ -*----------------------------------*\
  =========                 |
  \\      /  F ield         | OpenFOAM: The Open Source CFD Toolbox
   \\    /   O peration     | Website:  https://openfoam.org
    \\  /    A nd           | Version:  6
     \\/     M anipulation  |
\*---------------------------------------------------------------------------*/
FoamFile
{
    version     2.0;
    format      ascii;
    class       volScalarField;
    location    "1";
    object      p;
}
// * * * * * * * * * * * * * * * * * * * * * * * * * * * * * * * * * * * * * //

dimensions      [1 -1 -2 0 0 0 0];

internalField   nonuniform List<scalar> 
297
(
122348
122347
122348
203785
203782
203785
122348
122347
122348
122348
122347
122348
203785
203782
203785
122348
122347
122348
122348
122347
122348
203785
203782
203785
122348
122347
122348
97088
97096.1
97104.8
161313
161355
161377
97086
97095.2
97104.7
97264
96809.2
97311.6
160791
161094
160833
97276.6
96811.2
97304.9
94486.6
94542.9
94753.7
152677
157768
153080
94490.9
94546.3
94760.6
92534
94744
92208.8
157133
156634
156938
92528.7
94742.8
92211.2
96188
96421.5
96124.3
160381
159765
160524
96188.6
96421.1
96124.8
96245.8
96599
96168.2
160109
160699
160261
96245.5
96597.7
96168.6
78822.6
93592.5
78901.6
124354
154767
123109
78771
93592.5
78926.4
78369.3
93561.4
78333.6
122121
154903
120402
78314.4
93560.9
78357.5
79770.8
93747.2
79644.1
124986
155621
122920
79723.9
93746.2
79664.3
96848.5
96977.5
96837.3
161021
161275
161033
96847.4
96976.1
96836.6
96949.9
96976.1
96938.4
161279
161376
161273
96948.9
96975.1
96937.7
96953.7
96969.9
96944.4
161400
161417
161383
96952.6
96969
96943.7
97076.5
97271.7
97722.8
161218
161338
161574
97075.3
97270
97719.4
96975.3
97039.3
97339.1
161250
161266
161357
96974.6
97038.5
97337.3
96882.5
96773.3
96681.9
161349
161275
161214
96882.1
96773.3
96682.3
97727.6
97279.5
97085.1
161589
161355
161232
97722.1
97276.2
97082.9
97346.7
97048.5
96984.6
161374
161285
161267
97342.8
97045.9
96982.8
96694
96784.5
96892.4
161233
161294
161367
96692.8
96782.8
96890.8
98691.8
98515.1
98194
162388
162241
161952
98680.1
98505.2
98186.2
98444.7
98228.4
97873
162086
161950
161671
98435.1
98220.5
97866.6
98137.7
97907.6
97479.3
161699
161540
161334
98130.3
97901.6
97475
96557
96477.3
96327.9
159858
159773
159672
96558.4
96478.9
96329.7
90873.4
90903.3
90952.2
150490
150490
150490
90877.1
90906.7
90955.7
83430.4
83431
83433.4
134145
134146
134137
83432.9
83433.4
83435.8
98193.9
98519.3
98698.7
161941
162234
162383
98187.7
98510
98686.9
97869.7
98229.4
98448.8
161657
161939
162077
97865.6
98222.6
98439.4
97472.6
97905.1
98138.1
161316
161525
161686
97470.2
97900.2
98131.1
96310.9
96461.3
96541.8
159642
159743
159829
96313
96463.1
96543.3
90922.6
90873.2
90842.6
150439
150440
150440
90925.7
90876.4
90846.3
83397.7
83395.3
83394.7
134081
134090
134089
83399.9
83397.5
83396.9
)
;

boundaryField
{
    fuel
    {
        type            zeroGradient;
    }
    primary_air
    {
        type            zeroGradient;
    }
    Secondary_air_RHS
    {
        type            zeroGradient;
    }
    Secondary_air_LHS
    {
        type            zeroGradient;
    }
    outlet
    {
        type            totalPressure;
        rho             rho;
        psi             none;
        gamma           1;
        p0              uniform 100000;
        value           nonuniform List<scalar> 
18
(
87107.5
100000
87110.1
87071.4
100000
87074.2
87061.6
100000
87064.6
87095.1
100000
87098.3
87104.6
100000
87107.6
87140.4
100000
87143.4
)
;
    }
    stove_body
    {
        type            zeroGradient;
    }
    frontAndBack
    {
        type            empty;
    }
}


// ************************************************************************* //
