/*--------------------------------*- C++ -*----------------------------------*\
  =========                 |
  \\      /  F ield         | OpenFOAM: The Open Source CFD Toolbox
   \\    /   O peration     | Website:  https://openfoam.org
    \\  /    A nd           | Version:  6
     \\/     M anipulation  |
\*---------------------------------------------------------------------------*/
FoamFile
{
    version     2.0;
    format      ascii;
    class       volScalarField;
    location    "1";
    object      Qdot;
}
// * * * * * * * * * * * * * * * * * * * * * * * * * * * * * * * * * * * * * //

dimensions      [1 -1 -3 0 0 0 0];

internalField   nonuniform List<scalar> 
297
(
7.98005e-05
0
7.98005e-05
0
0.000401627
0.000159601
7.98005e-05
7.98005e-05
0.000200813
0.000121013
0
0
0
0
0.000242026
0
0
0
3.99003e-05
-7.28237e-11
0
-2.33036e-09
0
0
0.000121013
-7.28237e-11
0.000121012
-5.8259e-10
0
0
1.71276e-10
0
0
0
0
4.28191e-11
0
0
0
-1.16518e-09
8.56382e-11
2.14095e-11
0
0
0
-5.8259e-10
5.35239e-12
0
-1.16518e-09
0
-1.15447e-09
-5.8259e-10
0
0
6.69048e-13
2.67619e-12
0
-1.16518e-09
3.34524e-13
0
0
0
6.69048e-13
0
0
-1.16518e-09
-1.16518e-09
0
-1.16518e-09
-1.16518e-09
-1.16518e-09
-1.16518e-09
0
6.231e-22
0
0
0
0
-2.33036e-09
-2.33036e-09
0
0
0
0
0
0
0
-5.8259e-10
0
0
-5.8259e-10
-5.8259e-10
0
0
0
0
0
5.35239e-12
0
0
-5.8259e-10
-5.8259e-10
0
0
-5.8259e-10
0
5.35239e-12
-5.8259e-10
-2.33036e-09
0
2.37694e-27
0
0
0
0
0
1.18847e-27
0
4.64245e-30
-2.33036e-09
0
0
2.90153e-31
0
0
-2.33036e-09
-2.33036e-09
0
-2.33036e-09
0
0
7.25383e-32
1.45077e-31
0
-2.33036e-09
3.62692e-32
0
8.44458e-42
0
0
0
1.81346e-32
-2.33036e-09
0
-2.33036e-09
-2.33036e-09
0
0
0
0
0
0
3.29866e-44
-2.33036e-09
2.16181e-39
6.59732e-44
0
1.08091e-39
0
0
0
-2.33036e-09
0
0
3.62692e-32
0
0
0
-2.33036e-09
0
0
0
0
0
0
0
0
0
-2.33036e-09
0
0
0
0
0
1.35113e-40
0
0
-2.33036e-09
-2.33036e-09
0
0
0
0
0
0
-2.33036e-09
0
0
3.75014e-57
-2.33036e-09
0
0
0
4.02669e-48
0
0
-2.33036e-09
0
-2.33036e-09
0
0
0
0
0
1.53606e-53
-2.33036e-09
0
0
0
1.50006e-56
9.60037e-55
0
-2.33036e-09
0
0
2.28891e-61
0
0
6.00023e-56
0
7.6803e-54
2.28891e-61
-2.33036e-09
0
5.72227e-62
0
0
0
-2.33036e-09
-2.33036e-09
0
0
0
-2.33036e-09
-2.33036e-09
0
0
0
9.60037e-55
0
0
-2.33036e-09
0
6.14424e-53
0
0
4.91539e-52
0
0
0
0
-2.33036e-09
0
-2.33036e-09
0
1.22885e-52
0
-2.33036e-09
3.07212e-53
-2.33036e-09
3.84015e-54
0
0
6.14424e-53
3.84015e-54
0
0
-2.33036e-09
0
1.17192e-58
0
0
0
0
0
0
0
1.83113e-60
0
3.66225e-60
0
-2.33036e-09
0
-2.33036e-09
0
7.3245e-60
0
)
;

boundaryField
{
    fuel
    {
        type            calculated;
        value           uniform 0;
    }
    primary_air
    {
        type            calculated;
        value           uniform 0;
    }
    Secondary_air_RHS
    {
        type            calculated;
        value           uniform 0;
    }
    Secondary_air_LHS
    {
        type            calculated;
        value           uniform 0;
    }
    outlet
    {
        type            calculated;
        value           uniform 0;
    }
    stove_body
    {
        type            calculated;
        value           uniform 0;
    }
    frontAndBack
    {
        type            empty;
    }
}


// ************************************************************************* //
