/*--------------------------------*- C++ -*----------------------------------*\
  =========                 |
  \\      /  F ield         | OpenFOAM: The Open Source CFD Toolbox
   \\    /   O peration     | Website:  https://openfoam.org
    \\  /    A nd           | Version:  6
     \\/     M anipulation  |
\*---------------------------------------------------------------------------*/
FoamFile
{
    version     2.0;
    format      ascii;
    class       volScalarField;
    location    "1";
    object      O2;
}
// * * * * * * * * * * * * * * * * * * * * * * * * * * * * * * * * * * * * * //

dimensions      [0 0 0 0 0 0 0];

internalField   nonuniform List<scalar> 
297
(
0
0
0
0
0
0
0
0
0
0
0
0
0
0
0
0
0
0
0
0
0
0
0
0
0
0
0
0.141304
0.0802287
0.0685657
0.207213
0.16527
0.171798
0.162596
0.0920447
0.0795371
0.00279528
6.55886e-06
0
0.106232
0.127608
0.0781688
0.0187483
1.28368e-05
0
0
0
0
0.0727482
0.0284567
0.0517146
0
0
0
0
0
0
0
0
0
4.40784e-07
6.18832e-10
0
0
0
0
0
0
0
0
0
0
0
0
0
0
0
0
0
0
0
0
0
0
0.0282019
4.14623e-07
0.00995955
0
0
0
0
0
0
0.00725304
0
0
0
2.09021e-07
0
0
0
0
0
0
0
0
0
0
0
0
0
0
0
0
0
0
0
0
8.66604e-21
4.09668e-20
0
0
0
0
6.10889e-18
2.99557e-18
8.31409e-20
1.71724e-19
8.57066e-20
0
0
0
3.80381e-19
1.9238e-18
0
0
0
8.26747e-22
0
0
2.09772e-20
0
0
3.39844e-23
0
0
0
0
0
0
0
0
0
3.47818e-20
1.79755e-20
1.15348e-20
0
0
0
0
1.86647e-22
0
0
0
0
2.46751e-23
0
0
4.10864e-24
0
0
0
0
0
0
0
0
1.20094e-24
0
0
0
6.80525e-23
2.59998e-23
0
0
0
0
0
0
1.03825e-30
5.11203e-31
4.73333e-29
2.75584e-26
3.02302e-26
5.45844e-26
1.67509e-26
1.27725e-25
1.40423e-25
3.06405e-30
5.57429e-31
2.80343e-30
5.05238e-26
4.74339e-26
8.35151e-26
4.38561e-26
2.36907e-25
2.65299e-25
1.30279e-30
5.25453e-31
9.41027e-31
6.08508e-26
2.83431e-26
3.13854e-26
7.69305e-26
2.9523e-25
1.42245e-25
8.00874e-31
7.95275e-31
1.14348e-30
4.82846e-26
2.01032e-26
2.41911e-26
9.93421e-26
5.84994e-25
2.68085e-25
6.23998e-31
9.65755e-31
1.65105e-30
5.69581e-26
7.68123e-26
3.50707e-26
1.12125e-25
5.67225e-25
6.1254e-25
2.77897e-31
6.19569e-31
1.14018e-30
4.42742e-26
1.59227e-25
2.8608e-25
4.77034e-26
3.07685e-25
7.7683e-25
3.04603e-22
3.01141e-22
2.98956e-22
7.8603e-23
6.60814e-23
1.26947e-22
7.35298e-27
3.31458e-27
4.89078e-27
2.99639e-22
2.94483e-22
2.93008e-22
8.14173e-23
6.76677e-23
1.26567e-22
4.42575e-27
2.77431e-27
6.07385e-27
8.01496e-21
2.93495e-22
2.91559e-22
0
7.15941e-24
1.52986e-22
4.71048e-27
2.62718e-27
5.36502e-27
3.99284e-21
4.98592e-22
2.85759e-22
0
1.98758e-24
7.12893e-23
5.44581e-27
2.59987e-27
2.74917e-27
3.71733e-21
1.08333e-21
2.81338e-22
9.13436e-24
6.55585e-23
7.37477e-23
5.28781e-27
2.16207e-27
1.03967e-27
3.55572e-21
1.0362e-21
2.43412e-22
9.91258e-22
3.59565e-22
1.18303e-22
5.52207e-27
1.99251e-27
6.6797e-28
)
;

boundaryField
{
    fuel
    {
        type            fixedValue;
        value           uniform 0;
    }
    primary_air
    {
        type            fixedValue;
        value           uniform 0.23;
    }
    Secondary_air_RHS
    {
        type            fixedValue;
        value           uniform 0.23;
    }
    Secondary_air_LHS
    {
        type            fixedValue;
        value           uniform 0.23;
    }
    outlet
    {
        type            inletOutlet;
        inletValue      uniform 0;
        value           nonuniform List<scalar> 
18
(
0
9.91258e-22
0
0
3.59565e-22
0
0
1.18303e-22
0
0
4.42742e-26
0
0
1.59227e-25
0
0
2.8608e-25
0
)
;
    }
    stove_body
    {
        type            fixedValue;
        value           uniform 0;
    }
    frontAndBack
    {
        type            empty;
    }
}


// ************************************************************************* //
