/*--------------------------------*- C++ -*----------------------------------*\
  =========                 |
  \\      /  F ield         | OpenFOAM: The Open Source CFD Toolbox
   \\    /   O peration     | Website:  https://openfoam.org
    \\  /    A nd           | Version:  6
     \\/     M anipulation  |
\*---------------------------------------------------------------------------*/
FoamFile
{
    version     2.0;
    format      ascii;
    class       surfaceScalarField;
    location    "1";
    object      phi;
}
// * * * * * * * * * * * * * * * * * * * * * * * * * * * * * * * * * * * * * //

dimensions      [1 0 -1 0 0 0 0];

internalField   nonuniform List<scalar> 
675
(
1.81392e-06
-4.74368e-06
0.000132802
-1.92591e-06
-5.2816e-06
0.00013899
-4.77658e-06
0.000132726
-5.74887e-06
4.7337e-06
0.000211299
5.71847e-06
5.27007e-06
0.000193006
4.76612e-06
0.000211207
1.81107e-06
0.000132795
-1.92133e-06
0.000138971
0.00013272
-8.53745e-07
-9.61118e-06
0.000143179
5.63145e-07
-1.16333e-05
0.000149267
-9.46493e-06
0.00014267
-1.65002e-06
9.5926e-06
0.000193733
1.88679e-06
1.16306e-05
0.000166225
9.45446e-06
0.000194169
-8.56e-07
0.000143156
5.7162e-07
0.000149236
0.000142663
-2.12535e-05
3.52673e-05
2.0556e-05
-2.14217e-05
3.40411e-05
4.69673e-05
-3.52861e-05
-4.50228e-05
2.14976e-05
-3.40507e-05
-2.12909e-05
2.05753e-05
-0.00606725
0.00906028
0.00024162
-0.00472428
0.0061587
-0.0042661
0.00579833
-0.0072777
0.00392639
-0.00732993
0.0177488
0.000362031
-0.00468587
0.0197461
-0.0047335
0.0162314
-0.00606095
0.00197791
-0.00421544
-0.00328505
-0.00571343
-0.00888811
0.00977632
-0.000473953
-0.0124026
0.00472079
-0.00545296
0.00711956
-0.0267664
-0.0048625
-0.00915058
0.0417261
-0.00372446
-0.00512121
0.0284553
-0.00715903
0.0268117
-0.0035026
-0.00363984
-0.00805386
-0.00384462
-0.0209033
0.00454664
0.0217581
-0.0269136
0.00404806
0.0134154
-0.0184363
0.0233418
-0.0460684
-0.0408355
-0.0206523
0.124969
0.0477659
-0.0126141
-0.0342297
-0.0243399
0.122147
0.00976916
-0.0341133
0.00676692
-0.0135311
-0.0385209
-0.0112272
-0.0106681
-0.0178353
0.0397371
0.00615064
0.000760763
-0.0397014
0.0215869
-0.0193848
-0.0315677
0.0571384
0.00622801
0.0143162
0.0612599
-0.0924548
-0.0136687
-0.00244159
-0.0226962
0.0459121
0.00976005
0.0500875
-0.0929124
-0.00347346
-0.0286808
0.0465336
0.0199886
-0.0426792
0.0167891
-0.0208298
0.050564
-0.00127808
-0.00707059
-0.00948677
-0.00424243
-0.00838788
-0.0283976
-0.00903628
-0.0267865
0.0144986
0.00877157
0.0308997
-0.0148006
0.00613381
-0.00795473
0.00989228
0.0163681
0.00721811
-0.027219
5.04025e-05
-0.0293537
-0.0108649
0.0176154
-0.0112441
-0.0159806
0.00881063
-0.000826706
-0.0188855
-0.000713878
-0.0173735
0.00264731
0.00138117
0.0155711
0.0045619
0.000296457
-0.0113217
0.0119054
0.00829171
-0.00679418
-0.0191879
-0.0153127
-0.0205317
-0.0142916
0.000406442
-0.00208091
-0.0311856
0.000482449
-0.000415013
-0.0181006
-0.00234371
-0.0491521
-0.00286794
0.00249815
0.113681
0.0038572
0.000812535
-0.0421785
0.00256877
0.111583
0.000530928
-0.0380746
0.000219351
-0.0124182
-0.0416708
-0.000293361
-0.00130744
-0.0355171
0.000688966
0.000208246
-0.0192911
-0.00106124
-0.0532948
-0.0019279
0.00149256
0.103263
0.00177274
0.000404706
-0.0460715
0.000677156
0.102146
-3.94255e-05
-0.0424584
0.000635624
-0.0126772
-0.0462826
-0.000382568
-0.0013246
0.000524194
0.00138922
-0.00151818
-0.00189296
0.00181127
0.00165138
-0.00231087
-0.000131255
-2.38392e-05
0.00177222
0.00745011
-0.00437474
-0.00323661
-0.0158248
-0.00435601
-0.000585997
-0.0065266
-0.00144843
-0.004292
-0.0160092
0.000963988
0.00174068
0.00675944
0.00172543
0.00155853
0.00107831
-0.0136101
0.00407742
-0.00185105
0.00619222
0.00302942
-0.00392562
-0.0165084
-0.00864061
-0.00779209
-0.00356905
-0.0152717
0.00852718
-0.000464552
0.00117551
-0.0125032
-0.00195092
0.00150028
0.00243123
0.00278338
0.00373194
-0.0127837
0.00104795
-0.00193974
0.0027071
0.0044716
-0.0021056
-0.00226007
-0.00672287
-0.00086908
-0.00304795
0.00275472
0.000480168
0.00527586
-0.0116307
-0.010475
0.00090229
-0.00066818
-0.0142227
0.00172817
0.00242926
-0.00299132
0.00104025
0.00310187
0.00372555
0.0010276
0.00216152
-0.00331315
0.00627278
0.00236268
-0.0038404
-0.00306612
0.0061186
0.000834787
0.00112019
-0.00210654
-0.00582358
-0.0173676
-0.000444846
0.00182047
-0.0177186
-0.00190142
0.00226088
-0.00160286
0.00219805
-0.0183056
0.00193148
0.00316698
0.000658782
-0.00245691
0.000152492
0.00235295
-0.00292368
0.00427905
-0.00540611
-0.0149585
0.00287064
-0.0162786
0.00148923
-0.00729802
-0.0118995
-0.0134246
-0.000298468
0.00275725
-0.0130071
-5.23169e-05
0.00190306
-0.000448026
0.00202154
-0.0123711
0.0014447
0.00190269
-0.000219594
0.0018594
-0.00115681
0.00306861
-5.17164e-05
0.00769012
-0.00194235
-0.0129501
0.00351459
-0.0135434
0.000935952
-0.0100055
-0.0108836
0.00345306
0.00032853
0.00543169
-7.05955e-05
-0.00135815
0.00882051
0.00632049
-8.3239e-05
0.0101975
-0.000876063
0.00170661
0.0148321
-0.0023813
-0.00231234
-0.0106072
0.0165705
0.00292642
-0.00756561
-0.0119251
0.0153152
0.0010882
0.000173904
-0.00229727
0.00179306
0.00470359
0.00167791
0.00289938
-0.00634644
0.00314566
0.00190737
0.000747171
0.000417503
0.00214485
0.0175966
0.0019362
-0.017853
0.0176961
0.00180952
0.0016107
0.0133836
-3.36108e-05
-0.0104368
-0.0104702
0.0119722
0.0011985
0.00039436
-0.00149531
0.00274972
-0.00332255
0.000724628
0.00740764
-0.00193885
-0.00413633
0.000381732
0.00237631
0.000472233
0.000522544
0.012389
0.00224308
-0.0119661
0.0125466
0.0020441
0.00301808
0.0011357
-0.00175626
-0.0098089
0.000664585
0.000869571
0.000425511
-0.0112432
0.00128978
0.015613
-0.00770305
-0.000295689
-0.000488893
-0.00539795
0.00893527
-0.00364838
-0.00416253
0.00306101
0.00110252
0.00405806
0.00306216
-0.0112866
0.00252098
-0.0103895
0.00270156
-0.00187109
0.00223428
0.00419805
-6.69103e-05
0.00164234
-0.00090522
0.00128485
0.0120312
-0.0138989
0.0186823
-0.00671482
-7.37522e-05
-0.00244825
0.00236784
0.00118345
0.00533791
0.00249313
-0.0215721
0.00170428
-0.017229
0.00312687
-0.00148341
0.00296452
0.00403979
0.00024519
0.00298314
-0.000785983
0.00588151
0.00889195
-0.0242723
0.0133052
-0.0108814
0.000480828
-0.00448577
0.00151425
0.00415248
0.00887044
0.0059462
-0.04088
0.00192567
-0.0200949
-0.00355112
-0.0042349
0.0122687
-0.0076918
0.000586343
0.0124755
0.00133358
0.0143984
0.00979167
-0.038297
0.00223408
-0.00273739
0.0129861
0.0179558
0.0112313
-0.0250698
-0.00235253
0.0160931
-0.0366673
0.0152433
-0.0377109
-0.00926849
-0.00128953
0.0340566
-0.00719095
0.00394542
0.0225226
0.00288496
0.0195634
0.00714837
-0.0467308
0.0155135
-0.00715806
0.0313831
0.00784311
0.00663298
-0.0395402
0.004928
0.0069379
-0.0406813
0.00736988
-0.0401438
0.011971
-0.00267966
0.0314076
0.0134954
-0.00327817
0.0312151
0.00118156
0.0392524
-0.00441058
-0.0449923
0.00207539
-0.0169176
0.0346414
0.000817113
0.0144903
-7.50291e-06
0.0153188
0.0147933
0.00549194
-0.0232994
0.00526607
-0.0222478
-0.0208602
-0.0160829
-0.0156543
-0.0191662
0.00100382
-0.000133967
-0.0122616
0.000172516
-0.00706534
0.00195509
-0.0142038
-0.00359971
-0.00256505
0.00176596
-0.00242573
-0.00290788
0.00190821
-0.00285672
0.00238839
-0.00419809
-0.0102638
0.00447593
-0.0115815
0.00161748
-0.0137277
0.000837849
0.0003946
-0.00917221
-0.000167184
-0.0114434
0.00154754
-0.0249152
-0.00379434
-0.00162955
0.0060913
-0.00290651
-0.00236141
0.00321361
-0.00225579
0.0032862
-0.00563307
-0.0171498
0.00218328
-0.0217699
0.00153785
-0.00259893
-0.00132952
0.0131505
-0.00995438
-0.00055264
-0.00352631
0.00438832
-0.0392516
0.00658872
-0.00215064
0.0151587
0.00235819
-0.00559067
0.0124746
-0.00154443
0.0115795
-0.0080377
-0.0218798
0.00391599
-0.039326
0.00389991
-0.0157487
-0.00281333
0.0317574
-0.00624283
-0.00374237
-0.0092467
0.00173332
-0.0472062
0.00755629
-0.0157669
0.0205825
0.00931653
-0.0162576
0.0232581
-0.0116092
0.034262
0.00104273
-0.0386827
-0.0174352
-0.0370609
-0.0251124
-0.00214685
-0.00111367
0.0350709
0.00391077
0.00318571
-0.0184344
0.00229685
-0.0455469
-0.0125601
-0.00759865
0.0397419
-0.0112742
-0.00667366
0.0319462
-0.00666519
0.0320706
-0.00570481
-0.0404962
-0.00823276
-0.0411411
-0.0399308
0.0162705
0.0210479
0.0158865
0.0222513
0.0228978
-0.00471683
-0.014829
-0.00496805
-0.0150294
-0.0143899
-1.86206e-05
-0.000831131
)
;

boundaryField
{
    fuel
    {
        type            calculated;
        value           nonuniform List<scalar> 
36
(
0.000129894
0.000215018
0.000129894
0.000129894
0.000215018
0.000129894
0.000129894
0.000215018
0.000129894
-0.000129894
-0.000215018
-0.000129894
-0.000129894
-0.000215018
-0.000129894
-0.000129894
-0.000215018
-0.000129894
0
0
0
0
0
0
0
0
0
0
0
0
0
0
0
0
0
0
)
;
    }
    primary_air
    {
        type            calculated;
        value           nonuniform List<scalar> 9(-0.00319526 -0.00528218 -0.00319218 -0.00319517 -0.00528072 -0.0031923 -0.0031942 -0.00527983 -0.00319204);
    }
    Secondary_air_RHS
    {
        type            calculated;
        value           nonuniform List<scalar> 9(0.0059112 0.00950424 0.00593515 0.00589372 0.0094676 0.00592186 0.00588669 0.00949576 0.00592005);
    }
    Secondary_air_LHS
    {
        type            calculated;
        value           nonuniform List<scalar> 9(0.00593776 0.00958538 0.0059286 0.0059272 0.00955669 0.00591687 0.00592355 0.00957258 0.00591247);
    }
    outlet
    {
        type            calculated;
        value           nonuniform List<scalar> 
18
(
-0.00226195
0.0802987
-0.0553238
-0.0403303
0.069445
-0.0553743
-0.0525914
0.0643438
-0.055167
-0.0548276
0.0637157
-0.052195
-0.0551543
0.0690216
-0.0395795
-0.0549237
0.0801738
-0.00186609
)
;
    }
    stove_body
    {
        type            calculated;
        value           uniform 0;
    }
    frontAndBack
    {
        type            empty;
        value           nonuniform 0();
    }
}


// ************************************************************************* //
