/*--------------------------------*- C++ -*----------------------------------*\
  =========                 |
  \\      /  F ield         | OpenFOAM: The Open Source CFD Toolbox
   \\    /   O peration     | Website:  https://openfoam.org
    \\  /    A nd           | Version:  6
     \\/     M anipulation  |
\*---------------------------------------------------------------------------*/
FoamFile
{
    version     2.0;
    format      ascii;
    class       volScalarField;
    location    "1";
    object      T;
}
// * * * * * * * * * * * * * * * * * * * * * * * * * * * * * * * * * * * * * //

dimensions      [0 0 0 1 0 0 0];

internalField   nonuniform List<scalar> 
297
(
291.542
291.534
291.542
293.02
293.024
293.02
291.542
291.534
291.542
291.972
291.959
291.973
293.237
294.185
293.241
291.971
291.958
291.974
316.195
319.252
316.377
310.581
446.767
310.993
316.142
319.185
316.397
338.193
369.315
378.696
313.542
328.957
325.954
329.084
368.316
378.871
402.894
406.618
415.807
348.549
351.38
378.036
410.014
414.187
425.425
480
386.73
417.317
383.587
395.675
391.624
430.723
392.148
427.247
403.183
361.128
381.481
441.245
425.038
437.921
378.418
355.006
388.532
408.468
360.941
340.588
441.358
425.24
437.641
352.28
354.739
400.694
373.395
346.524
326.165
441.331
346.335
422.899
323.269
328.116
371.186
477.423
361.323
419.27
413.189
420.524
409.475
429.748
363.662
432.937
446.566
358.889
399.14
419.166
420.56
422.179
409.614
356.978
407.121
422.922
359.149
393.192
438.481
421.081
435.291
393.422
355.03
399.56
328.323
321.268
307.522
441.347
330.894
382.017
310.014
312.326
321.002
320.253
317.45
303.843
419.101
322.908
308.238
307.782
307.02
306.842
316.283
317.192
307.302
340.296
321.012
310.192
308.204
306.754
306.079
305.43
304.245
300.553
381.969
338.378
304.942
315.468
303.318
303.459
303.335
301.911
301.455
319.674
330.784
311.067
307.112
303.445
303.909
305.753
304.092
304.555
310.047
313.851
312.503
306.014
304.333
304.124
304.032
303.465
305.464
304.678
302.701
337.518
299.662
299.905
300.178
305.568
305.152
316.14
328.5
385.32
407.577
302.902
304.559
307.462
308
307.718
314.702
339.777
347.731
341.312
310.724
307.471
308.234
303.816
303.458
303.013
303.067
304.246
304.112
298.393
300.15
299.346
304.019
303.13
302.548
303.356
304.175
304.255
298.466
302.209
301.984
304.166
302.693
302.008
306.951
315.844
327.93
298.309
303.409
310.754
302.24
301.788
301.181
304.2
310.393
315.88
298.252
302.308
305.393
298.846
298.654
297.649
301.225
307.598
309.84
294.923
295.755
300.859
291.863
291.794
291.093
292.842
291.601
290.52
291.129
292.093
304.068
300.348
301.255
301.051
304.838
305.112
304.499
303.424
303.934
304.213
301.405
301.689
300.598
304.963
305.214
304.587
303.001
303.529
304.354
304.372
302.123
299.87
309.737
307.603
305.029
302.127
303.107
304.638
299.952
298.898
296.789
307.297
306.15
302.443
301.364
302.807
302.769
295.969
294.738
293.073
303.861
303.817
300.698
297.725
297.125
298.409
299.243
290.655
290.957
286.973
290.033
292.45
291.248
291.87
291.911
)
;

boundaryField
{
    fuel
    {
        type            fixedValue;
        value           uniform 293;
    }
    primary_air
    {
        type            fixedValue;
        value           uniform 293;
    }
    Secondary_air_RHS
    {
        type            fixedValue;
        value           uniform 293;
    }
    Secondary_air_LHS
    {
        type            fixedValue;
        value           uniform 293;
    }
    outlet
    {
        type            inletOutlet;
        inletValue      uniform 293;
        value           nonuniform List<scalar> 
18
(
293
286.972
293
293
290.032
293
293
292.451
293
293
292.843
293
293
291.601
293
293
290.522
293
)
;
    }
    stove_body
    {
        type            fixedValue;
        value           uniform 293;
    }
    frontAndBack
    {
        type            empty;
    }
}


// ************************************************************************* //
