/*--------------------------------*- C++ -*----------------------------------*\
  =========                 |
  \\      /  F ield         | OpenFOAM: The Open Source CFD Toolbox
   \\    /   O peration     | Website:  https://openfoam.org
    \\  /    A nd           | Version:  6
     \\/     M anipulation  |
\*---------------------------------------------------------------------------*/
FoamFile
{
    version     2.0;
    format      ascii;
    class       volScalarField;
    location    "1.5";
    object      Qdot;
}
// * * * * * * * * * * * * * * * * * * * * * * * * * * * * * * * * * * * * * //

dimensions      [1 -1 -3 0 0 0 0];

internalField   nonuniform List<scalar> 
297
(
2.59321e-05
3.93245e-05
0
7.8649e-05
0
0
0
3.93245e-05
2.59321e-05
0
6.52565e-05
3.93245e-05
0.000130513
7.8649e-05
7.8649e-05
2.59321e-05
6.52565e-05
6.52565e-05
1.2966e-05
-9.46595e-11
3.93244e-05
7.8649e-05
-7.57276e-10
-5.91622e-12
3.93245e-05
-4.73298e-11
6.52565e-05
0
0
0
-7.57276e-10
-7.01618e-10
1.11316e-10
-3.78638e-10
1.39145e-11
0
0
-3.78636e-10
-3.7516e-10
2.78291e-11
-7.57276e-10
0
-3.78638e-10
0
0
-3.78638e-10
0
-3.78638e-10
-7.43362e-10
0
-7.57276e-10
0
-3.78638e-10
-3.78638e-10
-3.78638e-10
-3.78638e-10
0
0
-7.57276e-10
-7.57276e-10
0
-3.78638e-10
0
0
-3.78638e-10
-3.78638e-10
0
0
0
-7.57276e-10
0
0
0
-7.57276e-10
0
-7.57276e-10
-7.57276e-10
0
-7.57276e-10
0
-3.78638e-10
0
0
0
-7.56407e-10
-7.57276e-10
-7.57276e-10
0
-3.78638e-10
0
0
-3.78638e-10
-3.78638e-10
-7.57276e-10
0
0
0
-3.78638e-10
0
-3.78638e-10
-3.78638e-10
-3.78638e-10
-7.57276e-10
0
0
-3.78638e-10
-3.78638e-10
0
-7.57276e-10
0
-7.57276e-10
5.06208e-23
0
-7.57276e-10
-7.57276e-10
-7.57276e-10
0
3.08965e-27
-7.57276e-10
2.47172e-26
-7.57276e-10
-7.57276e-10
0
3.08965e-27
0
0
0
-7.57276e-10
1.23586e-26
0
-7.57276e-10
-7.57276e-10
-7.57276e-10
0
-7.57276e-10
0
2.35721e-32
7.3663e-34
0
-1.51455e-09
4.71443e-32
0
-7.57276e-10
-7.57276e-10
0
-7.57276e-10
0
0
0
0
0
-7.57276e-10
0
7.54309e-31
-7.57276e-10
-7.57276e-10
-7.57276e-10
0
-7.57276e-10
0
0
-7.57276e-10
7.3663e-34
-7.57276e-10
-7.57276e-10
-1.51455e-09
-1.51455e-09
0
0
-7.57276e-10
-7.57276e-10
-7.57276e-10
-7.57276e-10
1.93103e-28
-1.51455e-09
-7.57276e-10
-7.57276e-10
-7.57276e-10
9.65515e-29
0
2.35721e-32
9.42886e-32
0
-7.57276e-10
-7.57276e-10
-7.57276e-10
0
-7.57276e-10
0
1.84157e-34
-7.57276e-10
0
-1.51455e-09
0
-1.51455e-09
-7.57276e-10
2.41379e-29
2.41379e-29
1.84157e-34
-7.57276e-10
0
1.20689e-29
1.20689e-29
0
-7.57276e-10
0
4.82758e-29
3.68315e-34
1.47326e-33
0
2.41379e-29
-1.51455e-09
-1.51455e-09
0
-7.57276e-10
-7.57276e-10
-7.57276e-10
1.47326e-33
2.94652e-33
-7.57276e-10
0
-7.57276e-10
-7.57276e-10
-7.57276e-10
0
-7.57276e-10
0
-7.57276e-10
-7.57276e-10
-7.57276e-10
-7.57276e-10
-7.57276e-10
-7.57276e-10
3.86206e-28
9.20787e-35
3.68315e-34
-7.57276e-10
0
-7.57276e-10
3.86206e-28
-7.57276e-10
0
0
1.43873e-36
-7.57276e-10
0
0
0
-1.51455e-09
2.19533e-41
0
-7.57276e-10
3.59682e-37
-7.57276e-10
-7.57276e-10
0
1.43873e-36
1.43873e-36
-7.57276e-10
-7.57276e-10
-7.57276e-10
0
0
0
0
-7.57276e-10
1.43873e-36
-7.57276e-10
0
5.48832e-42
4.60393e-35
2.87746e-36
-7.57276e-10
-7.57276e-10
-7.57276e-10
-7.57276e-10
0
-7.57276e-10
-7.57276e-10
2.30197e-35
1.15098e-35
0
-7.57276e-10
-7.57276e-10
-7.57276e-10
2.19533e-41
-7.57276e-10
0
0
0
0
-7.57276e-10
2.87746e-36
-7.57276e-10
-7.57276e-10
-7.57276e-10
-7.57276e-10
)
;

boundaryField
{
    fuel
    {
        type            calculated;
        value           uniform 0;
    }
    primary_air
    {
        type            calculated;
        value           uniform 0;
    }
    Secondary_air_RHS
    {
        type            calculated;
        value           uniform 0;
    }
    Secondary_air_LHS
    {
        type            calculated;
        value           uniform 0;
    }
    outlet
    {
        type            calculated;
        value           uniform 0;
    }
    stove_body
    {
        type            calculated;
        value           uniform 0;
    }
    frontAndBack
    {
        type            empty;
    }
}


// ************************************************************************* //
