/*--------------------------------*- C++ -*----------------------------------*\
  =========                 |
  \\      /  F ield         | OpenFOAM: The Open Source CFD Toolbox
   \\    /   O peration     | Website:  https://openfoam.org
    \\  /    A nd           | Version:  6
     \\/     M anipulation  |
\*---------------------------------------------------------------------------*/
FoamFile
{
    version     2.0;
    format      ascii;
    class       volScalarField;
    location    "1.5";
    object      T;
}
// * * * * * * * * * * * * * * * * * * * * * * * * * * * * * * * * * * * * * //

dimensions      [0 0 0 1 0 0 0];

internalField   nonuniform List<scalar> 
297
(
291.772
291.763
291.772
292.949
292.959
292.949
291.768
291.762
291.768
292.222
291.953
292.219
292.973
294.041
292.976
291.884
291.915
291.889
320.26
293.872
320.073
295.084
443.136
295.191
300.791
294.822
301.169
414.284
403.925
360.161
355.956
354.76
337.619
414.125
404.327
360.375
453.449
454.699
416.405
401.321
372.413
358.14
452.416
455.933
415.91
453.656
461.571
600.423
432.942
456.034
440.641
452.443
474.678
611.603
405.918
385.934
462.676
502.926
490.638
531.376
403.747
389.027
470.455
374.49
384.017
443.483
502.728
467.025
531.419
369.837
388.576
463.322
320.255
361.595
403.642
404.146
414.639
531.368
315.74
352.9
412.68
452.149
407.596
651.208
457.519
486.465
483.552
449.637
421.138
675.382
433.009
383.943
534.924
477.897
486.378
493.951
430.709
391.586
547.882
417.77
382.249
505.261
499.724
486.473
527.977
415.598
389.547
515.703
308.344
322.618
330.072
339.569
418.536
518.235
304.936
329.741
337.59
305.285
314.098
319.536
322.47
373.674
511.867
303.265
321.724
328.357
300.333
312.769
319.736
325.875
353.585
413.671
313.763
322.964
323.849
301.438
301.43
301.055
301.684
304.588
304.509
301.639
302.894
302.936
319.295
307.337
302.153
455.1
424.307
311.005
321.289
302.875
302.987
319.648
312.155
317.124
400.32
390.736
366.872
320.091
303.038
302.647
303.093
303.042
303.364
304.338
305.159
305.198
300.241
300.671
300.903
303.116
302.992
304.947
305.112
318.331
318.606
301.71
302.459
303.226
302.92
303.191
304.732
313.772
318.196
323.078
304.654
304.137
305.079
303.988
303.876
303.389
304.094
304.332
304.196
299.828
300.866
300.108
303.833
303.658
303.257
304.433
304.577
304.36
299.918
301.714
301.554
303.38
303.268
302.801
304.47
305.706
308.348
299.418
301.956
304.264
303.021
302.706
302.061
305.524
305.032
305.534
299.042
299.645
299.986
298.916
299.004
298.336
303.065
303.183
302.876
295.229
294.699
295.777
292.08
292.064
291.457
293.212
290.255
286.859
291.153
290.745
299.301
300.913
301.65
301.501
304.416
304.548
304.459
303.201
303.564
303.749
301.784
301.946
301.019
304.495
304.759
304.697
303.118
303.55
303.591
314.76
302.131
300.359
333.896
313.387
304.733
302.524
303.091
303.192
303.603
300.937
297.848
318.168
311.802
305.742
301.917
302.607
302.843
301.23
296.076
295.507
310.514
305.111
304.392
297.006
298.858
298.852
304.418
292.175
291.448
292.002
292.27
293.192
291.344
292.015
292.083
)
;

boundaryField
{
    fuel
    {
        type            fixedValue;
        value           uniform 293;
    }
    primary_air
    {
        type            fixedValue;
        value           uniform 293;
    }
    Secondary_air_RHS
    {
        type            fixedValue;
        value           uniform 293;
    }
    Secondary_air_LHS
    {
        type            fixedValue;
        value           uniform 293;
    }
    outlet
    {
        type            inletOutlet;
        inletValue      uniform 293;
        value           nonuniform List<scalar> 
18
(
293
292.002
293
293
292.27
293
293
293.191
293
293
293.212
293
293
290.256
293
293
286.916
293
)
;
    }
    stove_body
    {
        type            fixedValue;
        value           uniform 293;
    }
    frontAndBack
    {
        type            empty;
    }
}


// ************************************************************************* //
