/*--------------------------------*- C++ -*----------------------------------*\
  =========                 |
  \\      /  F ield         | OpenFOAM: The Open Source CFD Toolbox
   \\    /   O peration     | Website:  https://openfoam.org
    \\  /    A nd           | Version:  6
     \\/     M anipulation  |
\*---------------------------------------------------------------------------*/
FoamFile
{
    version     2.0;
    format      ascii;
    class       volScalarField;
    location    "4";
    object      Qdot;
}
// * * * * * * * * * * * * * * * * * * * * * * * * * * * * * * * * * * * * * //

dimensions      [1 -1 -3 0 0 0 0];

internalField   nonuniform List<scalar> 
297
(
0
0.000137016
0.000137016
0
0.000274033
0
0.00022737
0.000137016
0.000137016
9.03539e-05
0.00022737
0.00022737
0.000180708
0.000180708
0.000274033
9.03539e-05
0.000137016
0.000137016
9.03539e-05
0.00022737
0.000137016
0.000182193
0.000137014
0
0.00022737
0.000137016
0.000137016
-6.47515e-10
-6.35395e-10
-6.11154e-10
-1.31927e-09
-1.30715e-09
-1.31927e-09
-6.47515e-10
0
-6.11154e-10
-6.59636e-10
-6.5812e-10
0
0
0
2.42409e-11
-6.59636e-10
1.51506e-12
0
-6.59636e-10
1.89382e-13
0
-1.31927e-09
9.4691e-14
0
-6.59636e-10
-6.59636e-10
1.21204e-11
0
0
-6.59636e-10
5.91819e-15
-1.31927e-09
-1.31927e-09
-6.5963e-10
-6.59636e-10
0
-6.59636e-10
0
0
-1.31927e-09
0
0
0
-6.59636e-10
0
0
-6.59636e-10
-6.59636e-10
-2.63854e-09
-1.31927e-09
0
0
-6.59636e-10
0
-6.59636e-10
4.73455e-14
1.51506e-12
0
0
-1.30715e-09
-6.59636e-10
-6.59636e-10
-6.59636e-10
-6.59636e-10
3.69887e-16
0
0
9.4691e-14
-1.31776e-09
0
-6.59636e-10
0
0
1.84943e-16
0
0
-6.59541e-10
-6.59636e-10
-6.59636e-10
-6.59635e-10
-6.59636e-10
-2.63854e-09
0
0
0
0
-5.27708e-09
-2.63854e-09
0
0
0
0
-2.63854e-09
-2.63854e-09
0
-5.27708e-09
0
-2.63854e-09
0
0
0
-2.63854e-09
-2.63854e-09
-5.27708e-09
-5.27708e-09
-2.63854e-09
0
-2.63854e-09
-2.63854e-09
-2.63854e-09
-2.63854e-09
-5.27708e-09
0
-5.27708e-09
-2.63854e-09
-2.63854e-09
-2.63854e-09
0
-2.63854e-09
0
5.2564e-30
2.5666e-33
3.13306e-37
-2.63854e-09
-2.63854e-09
-2.63854e-09
0
1.2833e-33
-2.63854e-09
-5.27708e-09
8.02064e-35
-5.27708e-09
-2.63854e-09
2.50645e-36
-2.63854e-09
0
-2.63854e-09
8.02064e-35
-5.27708e-09
2.50645e-36
1.02664e-32
2.50645e-36
-2.63854e-09
-2.63854e-09
1.25322e-36
-2.63854e-09
-2.63854e-09
-2.63854e-09
-2.63854e-09
-2.63854e-09
1.00258e-35
1.00258e-35
0
3.13306e-37
-2.63854e-09
-2.63854e-09
-2.63854e-09
-2.63854e-09
-2.63854e-09
0
-2.63854e-09
6.41651e-34
0
7.64908e-41
0
7.83265e-38
-5.27708e-09
-5.27708e-09
-2.63854e-09
-2.63854e-09
2.50645e-36
-2.63854e-09
0
1.52982e-40
-5.27708e-09
-5.27708e-09
-5.27708e-09
6.26612e-37
0
-2.63854e-09
0
-2.63854e-09
-2.63854e-09
2.50645e-36
2.00516e-35
-2.63854e-09
-2.63854e-09
0
-2.63854e-09
-2.63854e-09
-2.63854e-09
0
0
-5.27708e-09
0
0
2.00516e-35
0
0
3.82454e-41
1.52982e-40
-2.63854e-09
-2.63854e-09
1.00258e-35
-2.63854e-09
-2.63854e-09
8.02064e-35
4.78067e-42
-2.63854e-09
7.64908e-41
-2.63854e-09
-2.63854e-09
-2.63854e-09
1.25322e-36
1.00258e-35
-2.63854e-09
-2.63854e-09
0
-2.63854e-09
1.52982e-40
3.7349e-44
3.7349e-44
0
0
0
0
0
1.45895e-46
9.56134e-42
5.83578e-46
-5.27708e-09
1.19517e-42
3.64736e-47
0
0
-2.63854e-09
9.11841e-48
1.19517e-42
7.29473e-47
0
0
5.699e-49
-2.63854e-09
-2.63854e-09
0
-2.63854e-09
9.11841e-48
2.2796e-48
-5.27708e-09
2.8495e-49
0
0
5.56543e-52
0
1.78094e-50
-2.63854e-09
-2.63854e-09
0
-2.63854e-09
-2.63854e-09
-2.63854e-09
6.95679e-53
0
-2.63854e-09
-2.63854e-09
-2.63854e-09
-2.63854e-09
-2.63854e-09
-2.63854e-09
-2.63854e-09
)
;

boundaryField
{
    fuel
    {
        type            calculated;
        value           uniform 0;
    }
    primary_air
    {
        type            calculated;
        value           uniform 0;
    }
    Secondary_air_RHS
    {
        type            calculated;
        value           uniform 0;
    }
    Secondary_air_LHS
    {
        type            calculated;
        value           uniform 0;
    }
    outlet
    {
        type            calculated;
        value           uniform 0;
    }
    stove_body
    {
        type            calculated;
        value           uniform 0;
    }
    frontAndBack
    {
        type            empty;
    }
}


// ************************************************************************* //
