/*--------------------------------*- C++ -*----------------------------------*\
  =========                 |
  \\      /  F ield         | OpenFOAM: The Open Source CFD Toolbox
   \\    /   O peration     | Website:  https://openfoam.org
    \\  /    A nd           | Version:  6
     \\/     M anipulation  |
\*---------------------------------------------------------------------------*/
FoamFile
{
    version     2.0;
    format      ascii;
    class       volScalarField;
    location    "0.0075";
    object      p;
}
// * * * * * * * * * * * * * * * * * * * * * * * * * * * * * * * * * * * * * //

dimensions      [1 -1 -2 0 0 0 0];

internalField   nonuniform List<scalar> 
3773
(
41520.1
41519.9
41519.7
41519.7
41519.6
41519.8
41520.2
100568
100567
100567
100567
100567
100568
100567
135936
135937
135937
135937
135937
135937
135937
147681
147681
147681
147681
147681
147681
147681
135936
135936
135937
135937
135937
135937
135936
100565
100565
100564
100564
100564
100565
100565
41518.7
41518.6
41518.6
41518.5
41518.5
41518.5
41518.7
41517.6
41517.3
41517.1
41517.2
41517.1
41517.3
41517.7
100569
100569
100569
100569
100568
100569
100568
135936
135937
135937
135937
135937
135937
135937
147681
147681
147681
147681
147681
147681
147681
135936
135936
135937
135937
135937
135937
135936
100566
100566
100566
100566
100566
100566
100566
41516.3
41516
41516.1
41516
41516
41516
41516.2
41514
41513.6
41513.4
41513.5
41513.5
41513.6
41514
100570
100570
100570
100570
100570
100570
100570
135936
135936
135936
135936
135936
135936
135936
147681
147681
147681
147681
147681
147681
147681
135935
135935
135936
135936
135936
135936
135936
100567
100567
100567
100567
100567
100567
100568
41512.6
41512.3
41512.4
41512.3
41512.2
41512.3
41512.5
41509.5
41509.1
41509
41509.1
41509
41509.1
41509.6
100571
100571
100572
100572
100571
100571
100571
135935
135935
135935
135935
135935
135935
135935
147681
147681
147681
147682
147682
147682
147682
135935
135934
135935
135935
135934
135935
135935
100568
100569
100569
100569
100569
100569
100569
41508.1
41507.8
41507.9
41507.7
41507.8
41507.8
41508
41506.7
41506.3
41506.3
41506.5
41506.4
41506.4
41506.7
100572
100572
100573
100573
100572
100572
100572
135934
135934
135934
135934
135934
135934
135935
147682
147682
147682
147682
147682
147682
147682
135934
135934
135934
135934
135933
135934
135934
100569
100570
100570
100570
100570
100570
100569
41505.3
41505
41505.2
41505
41505.1
41505
41505.2
41507.2
41507
41507.1
41507.3
41507.2
41507
41507.2
100572
100572
100573
100573
100573
100572
100572
135933
135933
135933
135932
135933
135933
135933
147682
147682
147682
147682
147682
147683
147683
135932
135932
135932
135932
135932
135932
135933
100569
100570
100570
100570
100571
100570
100570
41505.8
41505.7
41505.9
41505.7
41505.9
41505.7
41505.7
41508.8
41508.8
41509
41509.2
41509
41508.7
41508.9
100572
100572
100573
100573
100572
100572
100572
135932
135932
135932
135931
135932
135932
135933
147682
147683
147682
147682
147683
147683
147683
135931
135931
135931
135931
135931
135931
135932
100569
100570
100570
100570
100571
100570
100570
41507.4
41507.4
41507.7
41507.5
41507.7
41507.4
41507.3
61623.9
61669.7
61759.8
61764.6
61678.4
61497.3
61398.7
146180
146073
146172
146265
146160
146011
146089
195419
195339
195323
195318
195307
195321
195411
211576
211532
211498
211474
211477
211511
211560
195314
195259
195265
195257
195238
195246
195333
146001
145958
146124
146197
146097
145986
146132
61421.3
61529.6
61711
61794.3
61784.1
61672.8
61606.7
61034
61069.2
61149.6
61113.5
60955.4
60679.6
60591.4
145509
145370
145415
145414
145339
145213
145271
195241
195156
195106
195067
195074
195115
195193
211559
211515
211477
211462
211476
211517
211564
195055
194987
194952
194933
194951
194999
195107
145108
145063
145212
145278
145202
145100
145301
60547.3
60656.9
60916.2
61040.8
61058.1
60946.2
60916.5
60694.1
60712.8
60765.9
60682.5
60495.2
60309.6
60362.3
145272
145150
145069
145008
144925
144925
145021
195184
195126
195048
195031
195036
195066
195095
211554
211539
211525
211519
211543
211565
211572
194947
194901
194885
194854
194882
194964
195026
144819
144745
144796
144870
144812
144855
145004
60246.9
60209
60393.7
60569.2
60622.5
60520.5
60509.8
60513.8
60528
60548.5
60512.9
60423.6
60437.1
60649.3
145285
145178
144991
144779
144769
144915
145134
195231
195170
195089
195031
195039
195052
195078
211589
211591
211595
211596
211611
211587
211576
194958
194920
194918
194921
194980
195040
195074
144871
144681
144585
144636
144787
144966
145084
60382.2
60215.8
60202.2
60295.5
60400.2
60405.7
60406.1
60390.9
60394.7
60327.9
60309.2
60364.5
60503.9
60679.9
145229
145153
144942
144734
144859
145083
145215
195217
195148
195083
195037
195072
195129
195163
211595
211596
211627
211651
211640
211616
211618
194996
194986
194992
195005
195053
195111
195162
144900
144734
144628
144605
144813
145069
145194
60411
60226.4
60107.1
60112
60246.1
60410.4
60453
60292.2
60252
60119.3
60074.2
60235.6
60396.1
60425.3
145121
144970
144767
144777
144910
145110
145146
195122
195055
195013
195051
195116
195171
195227
211566
211591
211663
211709
211714
211697
211703
195008
195040
195075
195071
195071
195155
195252
144901
144872
144791
144731
144767
145051
145274
60374
60227.7
60109.5
60026
60117.4
60345.3
60461.5
60136.6
60012
59821.6
59876.6
60248.8
60582.7
60663.7
144962
144715
144498
144519
144736
145049
145394
195064
194967
194931
195048
195057
195139
195277
211629
211673
211728
211795
211818
211754
211724
195116
195135
195181
195162
195184
195227
195314
144959
145004
144954
144770
144808
145040
145353
60438.5
60455.6
60358.4
60083
59981.8
60178.4
60366.6
59853.5
59772.5
59706.2
59759
60137.6
60823
61289.1
144840
144649
144517
144435
144601
145251
145670
195342
195306
195361
195405
195411
195625
195878
212355
212303
212294
212347
212366
212355
212432
196237
196086
195792
195654
195670
195696
195745
146177
145971
145395
144966
144946
145102
145317
61118
61149
60797.4
60196.6
59924.1
59948.5
60060.6
59868.8
59810
59770.2
59762.7
59887.8
60355.8
60991.3
144816
144692
144652
144632
144578
144791
145514
195506
195490
195558
195671
195676
195692
195917
212561
212544
212538
212588
212608
212551
212573
196359
196205
195969
195843
195822
195831
195854
146227
145749
145124
144882
144920
145060
145214
61205.7
60869.5
60270
59888.3
59839.1
59903.7
59972.2
60050.5
59988.6
60000.5
60028
60189.4
60579.1
61226.2
144968
144950
144976
145033
145045
145148
145823
195598
195660
195763
195885
195962
196018
196187
212561
212581
212630
212697
212745
212752
212767
196402
196131
195981
195984
195967
195959
195971
146409
145626
145175
145131
145166
145197
145253
61383.5
60977.8
60441.8
60146.4
60082.7
60041.7
60092.2
60199.7
60220.4
60264.6
60360.8
60613.4
61092.4
61648.1
145143
145170
145206
145301
145413
145657
146353
195737
195774
195883
195997
196041
196148
196480
212498
212491
212580
212688
212733
212803
212873
196379
195878
195834
195986
196042
196071
196088
146753
145727
145216
145236
145385
145386
145377
61628.8
61230.8
60819.4
60523.8
60364.6
60305.5
60264.1
60109.3
60351
60574.7
60651
60793.4
61254.3
61691.4
145130
145149
145284
145490
145684
146105
146985
195895
195871
195930
196013
195971
196030
196623
212492
212402
212516
212641
212691
212717
212810
196453
195772
195815
196079
196199
196176
196179
147464
146142
145582
145732
145645
145444
145332
61863.2
61410.8
61020.7
60943.5
60767.8
60508.1
60175.2
60077.4
60444.6
60715.8
60534.3
60571.1
61044
61577.7
144843
144898
145068
145332
145755
146627
147748
195746
195775
195910
196002
195910
196073
196699
212137
212216
212545
212708
212661
212505
212470
196368
195859
195990
196235
196209
195914
195775
148127
146611
145847
145886
145492
145026
144858
61955.1
61276.3
60741
60965.1
61190.7
60587.6
60076.8
59629.4
61553.8
60113.1
59180.2
59854.3
60786.2
61571.9
144277
145641
145165
144316
144630
145963
147714
195028
195665
195902
195742
195646
195919
196354
211359
211985
212385
212517
212449
212114
211681
195625
195867
195788
195879
196067
195812
195293
147383
145805
144759
144636
145766
146068
144482
61614.9
60950.8
60276.7
59641.5
60735.7
61925.7
59661.2
60081.1
59971.6
59801
59997.8
60739.2
61238.7
61515.4
144946
144777
144657
144559
144776
145261
145773
194977
195015
195228
195068
195183
195293
195554
211787
211800
211874
211822
211911
211873
211852
195617
195381
195331
195290
195328
195330
195369
145585
145361
145409
145046
145047
145180
145396
61111.9
61304.6
61056.5
60486.5
60093.3
60133.5
60284.5
60074.1
59964.9
59798.2
59996.3
60766.7
61273.4
61633.7
144945
144784
144672
144578
144788
145285
145788
194980
195004
195180
195069
195194
195315
195571
211805
211811
211867
211837
211919
211886
211874
195666
195417
195352
195300
195349
195337
195397
145673
145388
145437
145082
145079
145198
145398
61179.4
61387.8
61107.1
60514.3
60100.5
60122.5
60274.5
60068.5
59959
59792.9
59991.4
60750.9
61303.8
61794.6
144945
144791
144678
144601
144804
145311
145766
195004
194998
195130
195087
195210
195336
195581
211839
211830
211878
211866
211941
211910
211906
195709
195453
195380
195321
195377
195363
195433
145769
145427
145444
145111
145103
145215
145395
61229.3
61462.5
61159.9
60555.5
60117.9
60114.1
60267.1
60064.8
59951.6
59785.1
59989.2
60698.4
61381.6
61960.7
144943
144801
144686
144629
144829
145331
145721
195035
195024
195133
195118
195228
195352
195594
211883
211861
211908
211905
211974
211944
211945
195756
195491
195411
195350
195406
195393
195465
145863
145476
145444
145140
145123
145230
145391
61252.4
61552.8
61258.2
60620.2
60134.5
60108.2
60262.3
60059.5
59940.1
59778.2
59981.7
60605.4
61527.3
61986.4
144940
144812
144691
144656
144854
145335
145675
195062
195057
195156
195154
195247
195366
195610
211929
211899
211945
211947
212009
211984
211989
195805
195538
195444
195383
195434
195419
195491
145938
145527
145446
145161
145137
145246
145386
61251.4
61689.3
61406.5
60705.4
60136.8
60099.1
60256.8
60050.1
59925.2
59773.6
59973.9
60465.7
61629.7
61862.7
144935
144819
144691
144668
144867
145344
145645
195088
195090
195179
195188
195267
195385
195636
211973
211939
211985
211990
212047
212025
212035
195854
195592
195478
195416
195458
195449
195513
145984
145590
145463
145173
145142
145258
145380
61239.6
61785
61497.9
60749.2
60117.7
60083.8
60248.2
60035.7
59907.7
59766.7
59959.5
60307.4
61559.7
61723.7
144926
144809
144680
144656
144864
145353
145609
195112
195117
195201
195219
195285
195415
195680
212016
211983
212022
212034
212086
212067
212084
195904
195652
195514
195444
195479
195480
195537
146005
145652
145481
145167
145138
145253
145374
61213.4
61722.8
61425.9
60685.4
60082.6
60065.4
60234.1
70040.1
67714.7
62279.4
59854.1
59728.9
60958
61245.2
152509
151114
146637
144627
144442
144630
145156
196856
197264
196286
195435
195026
194907
193685
210303
212031
212131
212132
212243
212115
210385
193338
194915
195137
195638
196524
197610
197445
144083
144266
144275
145196
148326
152536
152833
60290.5
60457.9
59935.7
60307.8
62985.6
68064.7
69717.2
71618.3
68481.9
63085
60388.7
59750.4
60095.8
59941.7
154392
152304
147210
144948
144376
143995
143654
197280
197618
196348
195391
194852
194554
193205
210485
212041
212175
212218
212310
212117
210512
192976
194579
195025
195642
196624
198114
198051
142779
143723
144288
145543
148769
153956
154781
59221.8
59679.5
59842.9
60760.4
63636
68817.7
71211.1
71138.8
68350.8
63697.9
61197.2
59737.5
59116.9
58797.6
154486
152390
147915
145658
144454
143303
142322
197528
197798
196524
195538
194840
194253
193092
210920
212144
212360
212480
212544
212268
210950
193065
194434
195036
195802
196825
198430
198269
141822
143257
144647
146019
148973
154185
154733
58412.6
58954.1
59659.7
61153.6
63947.5
68644.9
70644.7
70074.4
67657.5
64063.8
61771.9
59798
58785.3
58479.2
153791
151884
148494
146590
144525
142881
141814
197763
197916
196807
195833
194969
194127
193121
211331
212356
212634
212790
212864
212591
211430
193288
194417
195127
196023
197092
198584
198371
141610
143062
144830
146476
148870
153117
153999
58213.4
58721.1
59653.3
61313.5
63830.8
67742.7
69612.7
69620
67012.8
64307.9
62126.1
60055.7
58843.8
58537.4
153490
151437
148984
147179
144826
142947
141988
197964
197998
197094
196194
195205
194182
193188
211660
212577
212892
213074
213177
212950
211855
193480
194430
195268
196239
197342
198693
198586
141956
143310
145042
146715
148767
152182
153761
58297.7
58874
59835.3
61428.1
63697.3
66954.4
69314.3
69487.7
66666.2
64381.4
62294.7
60334.8
58956.7
58651.8
153465
151165
149256
147524
145234
143180
142208
198175
198070
197301
196467
195441
194287
193196
211959
212686
213042
213267
213385
213158
212207
193586
194474
195377
196401
197534
198796
198850
142238
143662
145218
146740
148705
151971
154144
58385.2
59060
60015.6
61514.8
63613.1
66653.5
69542.3
69639.5
66651.1
64436.7
62403.6
60521.4
59065.4
58743.7
153755
151236
149338
147667
145477
143300
142357
198421
198173
197409
196565
195539
194320
193158
212167
212699
213119
213360
213481
213203
212451
193637
194512
195445
196502
197657
198912
199069
142415
143865
145349
146840
148802
152269
154728
58455.6
59245.7
60195.9
61637
63656.4
66764.5
70017
61743.2
61323
61038.6
61831
64826.7
70927.1
79915.3
143846
143007
143086
143409
144024
146225
150488
189625
189791
190131
189998
188855
186631
184208
206064
206396
205925
204689
202489
199528
196141
196857
196248
195224
193915
192401
190801
189248
152675
152271
152537
153455
154845
156934
160030
69979.5
68725
68665.6
70465.4
74324.2
80238.3
87717.2
60325.8
60285.6
60285.3
60841.4
62701.3
67520.5
75326.5
142662
142396
142551
142766
143110
144610
148092
190657
190072
190182
190131
189024
186773
184106
207594
206680
205839
204524
202453
199579
196115
196862
196009
194833
193455
192082
190619
189070
151617
150797
151240
152557
154223
156103
158518
68662
66864.4
67100.2
69244
72910.3
77873.3
85123.6
59174.7
59413.6
59620.2
59895.8
60686.6
63062.1
68568.1
141662
141773
141908
141989
141970
142378
144226
191236
190438
190181
190107
189174
186957
183982
208510
207107
205873
204400
202416
199663
196225
196824
195932
194649
193086
191804
190408
188933
150699
149646
150115
151862
154018
155544
157037
67156.8
65460.9
66066.7
68538.3
72226
75725.5
81286.3
58896.1
59187.3
59475.9
59690
59975.4
60554.4
63239.3
141625
141673
141713
141619
141294
140959
141389
191589
190782
190261
189887
189073
187052
183957
209175
207602
206058
204338
202318
199643
196234
196766
195717
194441
192968
191646
190162
188765
150698
149587
150037
151920
154384
155698
155788
67053.8
65835.4
66427.3
68876.8
72424.6
75288.7
78648.5
58920.3
59214.7
59524.2
59759.5
59963.7
60063.4
60882.3
141825
141869
141871
141677
141224
140777
140864
191913
191105
190363
189717
188698
186838
183943
209766
208139
206414
204492
202164
199205
195510
196901
195759
194410
192883
191329
189670
188063
151602
150693
150993
152476
154412
155532
154885
68052.2
67290
68011.5
70172.9
73095.9
75422.6
77533.6
58989
59236.5
59531
59798.5
60046.1
60164.7
60313.9
142039
142025
141973
141808
141408
141039
141002
192097
191375
190555
189606
188350
186295
183141
210294
208773
206919
204777
202125
198491
193442
197174
195894
194463
192779
190766
188458
185889
152920
152179
152178
152983
154081
154707
153643
69371.5
69116.2
69757.8
71400.6
73379
74993.1
76469.6
59026.7
59272.7
59553.1
59850.5
60117.4
60246.6
60107.7
142289
142199
142058
141838
141520
141091
140488
192125
191544
190725
189645
188227
186038
181717
210603
209196
207313
205049
202150
197989
190546
197556
196242
194645
192780
190507
187634
183068
154035
153414
153144
153461
154022
153991
152561
70431.7
70537.1
71058.1
72263.6
73497.3
74169.7
72827.8
90487
83028.8
76479.6
72353.2
70345
70045
70937.1
162365
159699
157468
155590
154210
153600
153656
191394
192734
193937
194992
195855
196479
196778
196264
199406
202363
204690
206119
206621
206243
183243
185397
187636
189047
189410
189002
188776
149965
145517
143203
142337
141883
141837
142604
78680.9
70055.5
64435.7
61393.5
60225.2
60228.1
60636.8
87344.6
79946.9
75048.2
71361.9
68773.5
68151.7
69643.2
161356
159036
157027
154961
153090
152214
152656
191226
192539
193729
194846
195686
196158
196444
196317
199451
202388
204622
206062
206850
207744
182897
185238
187559
189190
189822
189837
190251
147124
143789
142088
141454
141237
141280
141589
74736
67098.3
62555.3
60291.8
59453.1
59335.8
59435.8
82843.8
77204.4
74258.7
70936.8
67970.6
66896.7
68308.1
160336
158660
156948
154590
152397
151322
152110
191189
192359
193484
194734
195788
196225
196543
196523
199611
202497
204763
206318
207413
208755
182607
185116
187545
189364
190159
190424
191188
143471
141589
140879
140759
140851
140912
140945
68785.4
63383.8
60697.4
59435.4
58872
58586.1
58466.7
79790.1
76283.2
74222.7
71287.1
68678.8
67646.2
68343.1
159269
158708
156970
154578
152626
151769
152291
190854
191963
193118
194381
195412
196091
196733
196517
199675
202579
204924
206652
208044
209475
182590
185117
187574
189431
190351
190938
191786
140764
140143
140183
140451
140750
140941
141097
63643
60886.8
59884.6
59189.8
58743.1
58426.4
58258.6
78022.2
75847.2
74093.5
71969.7
70163.6
69253.9
69446.1
157525
157625
156365
154830
153596
152971
153131
189580
191107
192676
194134
195267
196153
196927
195824
199410
202627
205154
207072
208681
210001
182701
185235
187600
189417
190541
191342
192202
140123
139849
140090
140582
140962
141172
141432
61011.2
60141
59792.9
59304.7
58875.6
58545.7
58363.4
76017.9
74904.1
73643.1
72514.1
71595.3
70945.6
70665.5
155465
155877
155250
154878
154528
154211
154040
187064
189832
192172
193931
195260
196314
197159
193843
198748
202718
205516
207576
209180
210404
182278
185141
187721
189557
190782
191664
192466
140076
140036
140360
140858
141241
141453
141700
60200.6
60123.6
59830.3
59420.6
59003.8
58682.2
58475.8
72081.1
74121.9
73251.7
72672
72449.4
72103.3
71398.4
154459
154715
154536
154820
155139
155175
154882
184264
189013
191878
193846
195379
196582
197479
191066
198368
202860
205827
207918
209489
210643
180819
185082
187909
189802
190994
191855
192574
139389
140004
140586
141074
141428
141687
141869
60017.3
60119.6
59896.3
59543.6
59148.5
58814.3
58546.7
99534.1
101760
100979
99061.6
96984.2
95109.4
93917.6
173975
174912
174613
172735
170195
167415
164981
190901
190494
189932
189443
189419
189784
190395
195711
194967
193491
192078
191494
192135
193810
185714
184960
183901
182637
181697
181506
182038
171598
172512
172296
169972
165942
160930
155616
102047
105344
105858
103718
99367.7
93234
86554.7
97012.9
97877.1
97855.8
96610.9
94543.7
93318.1
92255.1
172040
171719
171218
169714
167476
165354
163513
189851
189123
188591
188421
188759
189407
190118
195645
194608
192978
191483
190987
191858
193731
184493
183445
182406
181343
180594
180581
181358
169251
168346
167399
165003
161163
156586
151871
98960.7
99936
100673
98770.3
94010.5
88105.7
81953.1
95838
95358.5
94443.1
93107.5
91285.4
90753.6
89169.9
171502
169538
167483
165528
163775
162727
161795
188481
187658
187110
187262
188076
189182
190109
195883
194157
192050
190519
190253
191452
193724
182825
181666
180488
179509
179134
179586
180734
167675
164751
161651
158212
154393
150483
146757
96874.4
95374
93799.3
91162.1
86365.4
81103.6
75552.7
93785.7
92377.2
90704
89170.5
87912.8
87423.8
84865.9
169304
166079
163031
161001
159958
160136
159998
186715
186022
185701
186259
187661
189165
190055
195334
193243
190728
189172
189012
190611
193464
180329
179326
178178
177409
177654
178875
180483
163637
159684
155646
151932
148288
145081
142496
93112.1
90295
87148.4
83468.8
78996.6
74361.8
69160.9
89879.3
88501.8
86830
85321
84333.9
83460.1
81223.7
164365
161290
158351
156639
156290
157121
157402
183948
183595
183869
184942
186349
187538
188517
193805
191461
188705
187037
187049
189244
192441
177076
176314
175408
175191
176340
178283
180369
157444
154043
150521
147381
144274
142097
140784
87898
85612.4
82164.8
78355.2
74022.8
69638.1
64990.2
84685
84140.8
82855
81582.4
80263.9
79393.4
78626.4
157922
155726
153640
152555
152468
153442
154330
180371
180042
180724
181962
183057
183836
184864
191092
188887
185932
184308
184490
186265
189336
173616
172677
172226
172827
174865
177453
179810
150922
148754
146215
144231
142445
141285
140328
82434
81794.2
79253.1
76044.2
71845.3
67785.1
63386.6
78438
78888.9
78088.2
77204.1
75496.8
74899.1
75819.9
150830
149791
148173
147967
147461
148613
151558
176337
175926
176776
177892
177728
176744
177610
187929
185628
182434
180281
179236
179155
181664
170002
168900
168967
170391
172681
173709
174794
144469
143750
141591
140802
140091
139667
138237
76274.8
77714.3
75929.8
73566.9
69562.2
66199.3
62011.3
58692.6
58445.8
58442.9
58199.7
58349.2
58213.3
57620.2
129725
128405
127592
127382
126921
126700
126810
160807
160194
159277
157691
154355
149895
145881
170002
168163
165325
161891
157668
152562
146584
156702
156215
155575
154711
153049
150099
146207
125282
124900
124246
123592
123088
122493
121827
54676.5
54838.1
55014.5
54447.3
54102.1
53490
53373
50439
50294.9
50299.1
50458
50712.6
50725.5
50663.1
115202
114947
115063
115447
115272
114662
114734
143377
143177
143101
143082
142720
142220
141963
149876
149466
148882
148348
147912
147545
146859
137121
137035
137017
137062
137154
137165
136929
105010
105140
105378
105657
105985
106360
106545
44809.6
44659.4
44763.1
45082.4
45631.9
46150
46554.3
45712.4
45833.4
45971.6
46035.1
45984.6
45894.9
45812.6
105045
105415
105854
106166
106165
105751
105458
132131
132159
132470
133271
134056
134493
134739
137700
137650
137780
138201
138905
139699
139900
124443
124558
124827
125327
125960
126609
126875
92628.2
92848.2
93095.4
93410.2
93795.7
94141.6
94378.1
39439.8
39537
39654.2
39718.2
39764.6
39820.1
39861.1
41049
41067.3
41112.8
41170.4
41171.6
41092.7
41035.8
93805.5
93987
94275
94536.7
94601.4
94477.6
94395.9
122382
122359
122435
122731
123088
123256
123332
130003
129935
129912
129988
130162
130382
130383
118166
118148
118185
118295
118440
118577
118551
87978.3
87987.8
88070
88155.4
88215.8
88281
88338
38124.7
38101.8
38092.5
38091.9
38055.5
38018.4
38037.8
39135.3
39147.8
39151.8
39147.1
39144.9
39176.1
39195.6
88289.1
88278.4
88240.8
88186.9
88156.7
88160.9
88142.8
115575
115499
115396
115322
115229
115160
115083
124455
124284
124055
123835
123651
123526
123340
115067
114936
114805
114697
114569
114523
114376
86958
86945.6
86922.2
86892.6
86859.7
86825.1
86822.8
37644.7
37660.2
37682.3
37707.1
37744.1
37793.3
37775.1
39880.5
39887.3
39900.1
39913.6
39920.7
39919.8
39918.8
87302.9
87314.5
87332.3
87358.4
87394.3
87393.4
87356.5
111409
111366
111312
111296
111241
111219
111127
119450
119246
119032
118879
118790
118803
118562
112351
112256
112209
112208
112167
112221
112073
87862.8
87857.1
87848.9
87841
87847.6
87847.2
87846.8
39125.5
39145.2
39189.2
39258.2
39354.2
39429.6
39386.2
48808.2
48802.3
48793.1
48779.2
48766.6
48765.5
48776.4
86683.9
86707.3
86745.7
86785.6
86816.2
86828.4
86826.9
106587
106598
106621
106715
106722
106784
106743
113161
113032
112979
112984
112985
113176
112902
107146
107147
107222
107344
107439
107571
107472
87149.1
87171.6
87216.8
87283
87359
87391.8
87387.6
49216.6
49211.8
49201.9
49181.3
49150
49118.2
49127.3
87602.7
92712.4
96803.2
99966
102171
103982
106132
155389
159571
163215
166414
169229
172236
174329
182596
181682
181275
181574
182620
183952
184767
193221
191137
190328
190895
192419
194254
195531
188127
187539
187351
187624
188346
189134
189747
163547
167068
170834
173924
176136
176600
175584
93006
96712.4
100509
103221
104580
104744
102656
83372.4
89157.4
93445.9
97016.8
99806.4
101172
102235
152553
156579
160349
163846
166837
169147
170768
182181
181121
180673
180947
181911
183074
183839
193123
190927
189885
190278
191820
193892
195437
187885
187135
186691
186613
186899
187661
188686
161363
164144
167451
170416
172351
172976
173265
91157.9
93646.3
96882.1
100050
101142
100472
99253.5
76717.6
83437.6
88331.8
92067.4
95240.4
96491.7
96628.6
147699
151633
155651
159396
162784
165029
165904
181620
180216
179557
179716
180542
181506
182194
192994
190356
189165
189512
191020
193314
195185
187905
187102
186228
185528
185460
186266
187307
159125
160868
163044
165557
168071
170456
172279
87669.8
89762
92120.8
95145.8
96757.6
97162.5
97293.3
69935
76889.7
82546.4
86485.7
89333
90619.9
90783.8
143578
146863
150933
154596
157789
159976
160737
181275
179358
178119
177814
178286
179079
179640
192678
189598
187944
188154
189875
192447
194329
188131
187389
185936
184585
184184
184808
185645
157291
157974
158704
160516
163185
166758
169995
83506.2
85884.3
87457.4
89890.6
92054.4
93654.1
95000.9
65500.5
71743.1
77319.7
81232.5
83777.3
85286.7
85972.6
141707
143904
147488
150538
152945
154730
155332
180885
178347
176350
175192
175181
175859
176331
191478
187740
185441
185816
188017
190940
192985
187114
186126
184878
183427
182533
182549
183069
154994
155040
154751
155919
158360
161858
165202
80103.4
82098.6
83357
85304.3
87553.5
89561.5
91099.6
63719.1
68795.8
72616.7
75534.4
78447.3
80721.4
82761.2
141291
143300
145180
146776
148076
149311
149949
179703
176837
174163
172238
171528
171920
172223
188218
184705
182878
182974
185112
188342
190487
183914
182877
182047
180711
179458
179102
179731
152279
151575
151059
152147
153770
156301
158660
78282.7
78718.8
79453.6
81578.5
83481.3
85037.6
85711.8
63020.6
66991
68158.3
69761
72862.9
75582.4
79377
139465
141418
141491
141898
142708
143519
144672
174499
172714
171369
169295
167899
168013
168066
180226
177432
177545
178755
181289
184871
187363
176496
176302
177556
177048
175608
175036
175732
148683
146389
146568
148079
148368
150119
151127
75660.7
74541.8
74903.2
77402.1
78598.4
79392.3
78938.8
55963.8
55214.3
54977.8
54445.7
54176.9
54028.5
53776.2
121791
122369
122738
123086
123529
124010
124372
143350
147644
150811
152729
153767
154540
155014
143843
150176
155369
159670
163357
166451
168400
143361
147882
152584
155861
157649
158913
159633
123185
123663
124929
125603
126316
127490
128694
55617.9
56151.6
56381.3
56504.8
56938.4
56959.7
57193.7
45252.6
44928
44673.8
44583.8
44479.5
44355.7
44106.4
104518
104192
103997
103936
103910
103872
103886
134520
134823
134875
134953
135097
135306
135513
143987
144747
145154
145661
146307
146981
147473
139322
139785
140097
140159
139942
139988
140217
112648
112990
112806
112108
111962
112240
112674
49534.7
49667.2
49590.1
49212.1
49222.5
49395.7
49640.9
39528.6
39450.4
39337.1
39257.8
39285.3
39303.2
39367.8
92905.9
92754.4
92501.5
92234.4
91999.5
91852
91726.4
124495
124376
123940
123508
123154
122955
122878
137007
136789
135995
135356
134993
134862
134888
131630
131359
130498
129459
128559
128096
127997
103510
103809
103527
102827
102044
101412
101011
45078.7
45078.3
44913.5
44724.2
44539.6
44340.3
44163
37871
37855.2
37854.3
37852.9
37820.4
37806.6
37805.7
87668.9
87621.5
87566.3
87486.3
87428.4
87372
87334.5
117154
117237
117122
116953
116796
116715
116687
127970
127968
127736
127572
127491
127486
127526
120035
120042
119760
119479
119238
119174
119260
92320.3
92296.2
92121.5
91789.9
91457.2
91209.5
91075.2
40490
40480
40460.5
40370
40223.4
40139
40143.6
37455.8
37454.3
37447.7
37438.9
37438.7
37439.5
37436.9
86491.1
86492.6
86486.3
86468
86447.3
86431.1
86424.8
113716
113884
113892
113934
113964
114024
114092
122089
122279
122355
122505
122694
122891
123041
113537
113787
113877
114031
114151
114281
114393
87514.3
87547.5
87595
87647.6
87682.3
87695
87689.2
39255.4
39256.8
39254.4
39249.1
39235.7
39218.7
39201.8
39006.4
39003.2
39001.4
38999.5
38998.2
38996.4
38996.3
87517.9
87520.9
87520.1
87514.8
87508.9
87505.8
87506.1
111794
111951
111884
111922
111927
111960
112013
118373
118628
118586
118698
118878
119105
119323
111310
111471
111487
111657
111735
111828
111907
87897.7
87914.7
87936.8
87960.3
87976.8
87982.9
87983.7
40217.2
40209.8
40200.7
40181.3
40160.2
40148.6
40136.2
49225.8
49227.2
49226.1
49221.6
49217
49212.5
49208.9
87053
87045.8
87033.5
87017.9
86999.5
86984
86975.5
107315
107398
107294
107297
107251
107230
107240
113400
113672
113468
113511
113555
113643
113808
107580
107637
107557
107588
107523
107497
107494
87462.4
87458.9
87448.6
87428.5
87396.7
87363.4
87342.4
48825.5
48828.9
48830.2
48835.6
48839.3
48833.8
48832.2
)
;

boundaryField
{
    fuel
    {
        type            zeroGradient;
    }
    primary_air
    {
        type            zeroGradient;
    }
    Secondary_air_RHS
    {
        type            zeroGradient;
    }
    Secondary_air_LHS
    {
        type            zeroGradient;
    }
    outlet
    {
        type            totalPressure;
        rho             rho;
        psi             none;
        gamma           1;
        p0              uniform 100000;
        value           nonuniform List<scalar> 
98
(
44804.6
75720
100000
100000
100000
75954.6
45054.1
44768.1
75707.1
100000
100000
100000
75928.4
45022.9
44765.9
75682
100000
100000
100000
75949.3
45035.3
44778.4
75655
100000
100000
100000
75939.6
45010.3
44776
75594.4
100000
100000
100000
75809.4
45020.8
44773.7
75555.8
100000
100000
100000
75699.4
45068.5
44796.5
75533.8
100000
100000
100000
75616.2
45082.6
44869
75155.3
100000
100000
100000
75676.8
44881.5
44844.7
75231.1
100000
100000
100000
75693.9
44876.8
44843.8
75366
100000
100000
100000
75813.8
44866.7
44857.1
75430.8
100000
100000
100000
75900.3
44890.9
44825
75454.8
100000
100000
100000
75874.3
44896.6
44851.2
75407.5
100000
100000
100000
75789
44777.9
44845.2
75447.1
100000
100000
100000
76006.9
44974.4
)
;
    }
    stove_body
    {
        type            zeroGradient;
    }
    frontAndBack
    {
        type            empty;
    }
}


// ************************************************************************* //
