/*--------------------------------*- C++ -*----------------------------------*\
  =========                 |
  \\      /  F ield         | OpenFOAM: The Open Source CFD Toolbox
   \\    /   O peration     | Website:  https://openfoam.org
    \\  /    A nd           | Version:  6
     \\/     M anipulation  |
\*---------------------------------------------------------------------------*/
FoamFile
{
    version     2.0;
    format      ascii;
    class       surfaceScalarField;
    location    "0.0075";
    object      phi;
}
// * * * * * * * * * * * * * * * * * * * * * * * * * * * * * * * * * * * * * //

dimensions      [1 0 -1 0 0 0 0];

internalField   nonuniform List<scalar> 
10143
(
5.01169e-07
-3.04927e-05
4.38211e-05
3.04631e-08
-2.89968e-05
4.37372e-05
5.47124e-08
-2.88506e-05
4.3181e-05
3.13943e-08
-2.89022e-05
4.31693e-05
-2.15392e-07
-2.87868e-05
4.31042e-05
-4.56355e-07
-2.89616e-05
4.31444e-05
-3.05219e-05
4.36322e-05
-4.69974e-08
-4.8838e-06
-9.99056e-06
4.14551e-07
-4.3252e-06
-9.44982e-06
-7.66795e-07
-4.27291e-06
-7.46049e-06
-1.37272e-06
-4.3212e-06
-8.11843e-06
-6.93806e-07
-4.54631e-06
-9.2482e-06
-6.37664e-07
-4.69359e-06
-8.6069e-06
-5.00423e-06
-1.06472e-05
-3.34265e-08
-1.6905e-06
7.28084e-06
4.86461e-07
-1.71553e-06
6.90672e-06
1.29152e-07
-2.14359e-06
8.22782e-06
3.50505e-07
-2.06543e-06
7.50914e-06
6.97719e-07
-2.10843e-06
7.31048e-06
-1.4205e-07
-2.41216e-06
8.67349e-06
-1.7407e-06
7.08475e-06
8.96698e-08
1.74885e-06
5.01899e-06
5.28971e-07
1.80099e-06
4.49423e-06
2.20417e-07
2.12935e-06
4.44358e-06
-4.25464e-07
2.09634e-06
4.90272e-06
-8.54373e-07
1.98616e-06
4.73905e-06
-5.70407e-07
2.13356e-06
3.56066e-06
1.64181e-06
4.52118e-06
-1.43417e-07
5.10015e-06
7.24574e-06
-5.12596e-08
5.06481e-06
6.96542e-06
-2.48834e-07
4.59645e-06
7.77125e-06
-1.60611e-08
4.1918e-06
7.63965e-06
5.19185e-07
4.37369e-06
7.08436e-06
2.39927e-08
4.51635e-06
8.17571e-06
5.06988e-06
6.93598e-06
2.42188e-07
3.12008e-05
-1.0793e-05
7.31593e-07
3.04264e-05
-1.02668e-05
-3.68982e-08
2.9746e-05
-8.57562e-06
-5.38034e-07
2.9316e-05
-8.78592e-06
1.34886e-07
2.93106e-05
-9.875e-06
-1.92323e-07
2.95112e-05
-8.84332e-06
3.1378e-05
-1.09021e-05
3.32379e-07
4.4405e-05
2.71362e-07
4.44807e-05
1.66914e-07
4.3854e-05
1.17942e-08
4.34001e-05
-2.33497e-07
4.35588e-05
-4.268e-07
4.36944e-05
4.44667e-05
1.7795e-07
5.2122e-07
5.49448e-05
2.45563e-07
5.92748e-07
5.46667e-05
3.71786e-07
8.97467e-07
5.37861e-05
5.70614e-07
6.69322e-07
5.39715e-05
2.40748e-07
4.93576e-07
5.44656e-05
-1.62194e-07
4.70415e-07
5.44768e-05
8.07146e-08
5.52775e-05
-2.38765e-07
9.6641e-06
-1.42381e-05
-5.01472e-08
9.8462e-06
-1.44287e-05
-6.75495e-07
1.01321e-05
-1.16221e-05
-7.28683e-07
9.75961e-06
-1.27691e-05
-3.81945e-08
9.15054e-06
-1.43008e-05
-1.85959e-07
9.475e-06
-1.30659e-05
9.25332e-06
-1.54385e-05
1.70741e-07
3.70199e-06
6.98142e-06
3.15732e-07
4.35163e-06
6.49783e-06
1.70799e-07
2.75488e-06
9.98628e-06
8.66692e-07
2.30827e-06
8.4577e-06
1.09469e-06
2.58427e-06
7.94918e-06
1.53643e-07
3.62372e-06
1.00178e-05
3.68703e-06
6.80738e-06
1.15681e-07
-3.93525e-06
4.88387e-06
9.80839e-07
-4.10132e-06
4.2427e-06
2.84728e-07
-3.31651e-06
3.42595e-06
-8.15148e-07
-3.07332e-06
3.63442e-06
-1.41252e-06
-2.73201e-06
2.89029e-06
-7.57893e-07
-3.38392e-06
2.0725e-06
-4.01256e-06
3.73698e-06
-1.52606e-07
-9.18915e-06
6.65772e-06
-3.72205e-07
-9.22502e-06
6.14285e-06
-2.46165e-07
-9.5475e-06
8.21939e-06
4.02971e-07
-9.6114e-06
7.73427e-06
8.59415e-07
-9.14431e-06
7.29937e-06
3.6942e-07
-9.12366e-06
8.84028e-06
-9.13811e-06
6.32352e-06
-2.74752e-08
6.34649e-07
-1.58354e-05
2.42135e-07
-5.40664e-07
-1.4554e-05
-8.75247e-08
3.07774e-07
-1.35029e-05
-1.29222e-07
2.81473e-07
-1.41985e-05
6.34164e-07
1.45129e-07
-1.543e-05
1.83656e-07
3.59792e-07
-1.33026e-05
7.30521e-07
-1.57942e-05
3.44706e-07
5.66892e-05
-3.13109e-08
5.61037e-05
8.25583e-08
5.58149e-05
-1.50884e-07
5.56454e-05
-2.7359e-07
5.55508e-05
-3.63637e-07
5.57189e-05
5.69085e-05
-4.97458e-07
1.61425e-05
4.66135e-05
3.83894e-08
1.42059e-05
4.6076e-05
5.78534e-07
1.42603e-05
4.51711e-05
1.23581e-06
1.44481e-05
4.51374e-05
8.66475e-07
1.55762e-05
4.59403e-05
3.10879e-07
1.53671e-05
4.64443e-05
1.62673e-05
4.67801e-05
-5.6869e-08
1.09454e-05
-7.30062e-06
6.83804e-09
1.05243e-05
-8.42579e-06
-4.12853e-07
1.13042e-05
-5.94507e-06
-6.31894e-07
1.06938e-05
-6.39028e-06
-2.89761e-07
1.07959e-05
-7.57686e-06
-2.80364e-07
1.07128e-05
-7.07241e-06
1.09805e-05
-8.78254e-06
2.88498e-07
4.23288e-06
7.07056e-06
3.17104e-07
5.0749e-06
4.96593e-06
1.99458e-07
4.09001e-06
1.01947e-05
9.12394e-07
2.7269e-06
8.53941e-06
9.49587e-07
3.95616e-06
7.59288e-06
1.56075e-07
6.4864e-06
8.79089e-06
5.45348e-06
6.15669e-06
-2.78992e-08
-5.14544e-06
6.51153e-06
9.35173e-07
-6.43232e-06
6.74179e-06
2.25053e-07
-4.26348e-06
4.42553e-06
-9.67798e-07
-4.00405e-06
3.57282e-06
-1.4685e-06
-3.75995e-06
3.08756e-06
-6.13754e-07
-5.02813e-06
4.56541e-06
-5.75278e-06
6.49329e-06
-1.24983e-07
-1.09552e-05
6.32325e-06
-4.0975e-07
-1.11234e-05
4.76395e-06
-1.43892e-07
-1.11433e-05
7.74822e-06
4.75094e-07
-1.09074e-05
6.7977e-06
6.32658e-07
-1.04532e-05
6.78009e-06
4.22662e-07
-1.08841e-05
7.92383e-06
-1.10003e-05
5.60596e-06
-6.89454e-08
-1.59104e-05
-9.05786e-06
1.43001e-07
-1.56932e-05
-8.78016e-06
-1.22617e-07
-1.5378e-05
-6.78648e-06
8.89598e-08
-1.60982e-05
-6.82267e-06
1.88483e-07
-1.51821e-05
-8.56446e-06
-3.39803e-08
-1.52287e-05
-6.40407e-06
-1.58714e-05
-9.17022e-06
1.04925e-08
4.84888e-05
-6.28193e-07
4.80337e-05
-3.09112e-07
4.71373e-05
-2.74483e-07
4.68327e-05
-6.35586e-08
4.70194e-05
-7.52367e-09
4.72428e-05
4.87199e-05
-6.63193e-07
1.81902e-05
3.36722e-05
1.32975e-07
1.44032e-05
3.48823e-05
5.67912e-07
1.4335e-05
3.43419e-05
1.19194e-06
1.47863e-05
3.36907e-05
9.31604e-07
1.73662e-05
3.29029e-05
6.47926e-07
1.73119e-05
3.36188e-05
1.85667e-05
3.34827e-05
6.19874e-07
1.25137e-05
-1.65247e-06
-9.76449e-08
1.15616e-05
-3.97069e-06
-3.64856e-07
1.20897e-05
-1.69207e-06
-1.07801e-06
1.21678e-05
-2.28404e-06
-8.9989e-07
1.19511e-05
-1.90391e-06
-5.34073e-07
1.15522e-05
-1.14617e-06
1.2382e-05
-2.58862e-06
3.54518e-07
4.43532e-06
8.28177e-06
4.62506e-07
3.63339e-06
6.37051e-06
2.13675e-07
5.27391e-06
1.01076e-05
8.86936e-07
4.3723e-06
9.20233e-06
7.86413e-07
4.07695e-06
8.97222e-06
4.64925e-08
5.91342e-06
8.57614e-06
4.73426e-06
7.32713e-06
8.67169e-08
-4.73245e-06
7.98754e-06
6.99049e-07
-4.75848e-06
6.76841e-06
6.21848e-08
-2.09976e-06
4.6074e-06
-1.04174e-06
-2.17021e-06
3.47585e-06
-1.18328e-06
-4.72133e-06
4.30528e-06
-4.45399e-07
-5.59102e-06
7.53347e-06
-5.19479e-06
8.32439e-06
-5.07918e-08
-1.2498e-05
7.6884e-06
-4.145e-07
-1.26415e-05
6.4782e-06
-9.85424e-08
-1.13677e-05
1.02404e-05
6.41828e-07
-1.17759e-05
9.10338e-06
4.58311e-07
-1.19837e-05
7.68878e-06
3.81873e-07
-1.23949e-05
8.31315e-06
-1.24857e-05
6.733e-06
2.35371e-07
-1.84208e-05
-2.82967e-06
2.00436e-07
-1.74686e-05
-3.55242e-06
3.86565e-08
-1.70682e-05
-4.26619e-07
3.05522e-07
-1.68982e-05
-1.50577e-06
-2.52804e-07
-1.661e-05
-2.94397e-06
-3.96894e-07
-1.69583e-05
-1.28065e-06
-1.83841e-05
-3.08269e-06
-2.83354e-07
3.50908e-05
-6.10051e-07
3.51291e-05
-5.09022e-07
3.4111e-05
-1.94521e-07
3.39442e-05
-4.61809e-08
3.42851e-05
1.87207e-07
3.42187e-05
3.52314e-05
-6.48713e-07
1.84652e-05
2.10111e-05
2.65457e-07
1.59118e-05
2.30458e-05
3.91658e-07
1.58205e-05
2.32934e-05
1.09667e-06
1.62762e-05
2.1582e-05
1.04373e-06
1.74464e-05
2.03795e-05
8.35167e-07
1.77429e-05
2.09581e-05
1.88205e-05
2.06372e-05
9.63565e-07
1.20564e-05
3.63965e-06
-2.86456e-07
1.24625e-05
6.65946e-07
-1.96073e-07
1.22296e-05
1.79151e-06
-1.13593e-06
1.24884e-05
2.2434e-06
-1.28176e-06
1.22739e-05
3.04029e-06
-7.21421e-07
1.17401e-05
3.94612e-06
1.22326e-05
3.02556e-06
5.34379e-07
3.75152e-06
9.45106e-06
3.91317e-07
4.0119e-06
8.35852e-06
3.81843e-07
4.91689e-06
1.07856e-05
9.23849e-07
4.7781e-06
9.71631e-06
5.29915e-07
5.22705e-06
9.77991e-06
5.87186e-08
4.1448e-06
1.00881e-05
3.79292e-06
9.20149e-06
-8.02937e-08
-4.35875e-06
8.7409e-06
4.30536e-07
-4.29031e-06
6.94138e-06
-1.04887e-07
-3.56736e-06
5.99744e-06
-8.81226e-07
-3.79475e-06
5.22281e-06
-5.80598e-07
-4.79114e-06
6.38861e-06
-4.03631e-07
-4.29373e-06
8.02426e-06
-4.06176e-06
8.28949e-06
8.69596e-08
-1.22542e-05
8.93522e-06
-3.59032e-07
-1.25157e-05
8.48242e-06
-3.51482e-08
-1.17702e-05
1.1607e-05
5.49315e-07
-1.24857e-05
1.06898e-05
2.46359e-07
-1.20238e-05
8.58551e-06
3.02616e-07
-1.1959e-05
9.47447e-06
-1.2187e-05
8.56666e-06
4.35678e-07
-1.87053e-05
2.93495e-06
1.20762e-07
-1.74627e-05
1.40702e-06
3.42061e-07
-1.72961e-05
4.54925e-06
1.5595e-07
-1.63284e-05
2.17339e-06
-5.979e-07
-1.71341e-05
2.65273e-06
-5.17075e-07
-1.74151e-05
3.67675e-06
-1.87109e-05
2.67924e-06
-3.15707e-07
2.18802e-05
-7.75261e-07
2.30361e-05
-4.28415e-07
2.13947e-05
-1.99663e-07
2.22703e-05
5.93465e-08
2.17566e-05
2.70848e-07
2.15227e-05
2.19583e-05
-5.34832e-07
1.55706e-05
1.25051e-05
5.80218e-07
1.41359e-05
1.41133e-05
4.48139e-08
1.59477e-05
1.44506e-05
8.24218e-07
1.34614e-05
1.35481e-05
8.33852e-07
1.41163e-05
1.24522e-05
1.00891e-06
1.43787e-05
1.26732e-05
1.60686e-05
1.21228e-05
6.95846e-07
1.08525e-05
7.04716e-06
-6.22241e-07
1.13525e-05
5.00265e-06
1.66394e-07
1.05246e-05
5.39241e-06
-1.06847e-06
1.12873e-05
5.13656e-06
-1.66127e-06
1.17017e-05
5.41443e-06
-7.40261e-07
1.04669e-05
6.9808e-06
1.1191e-05
6.48308e-06
9.00005e-07
1.18865e-06
1.14958e-05
1.49664e-07
3.098e-06
9.88309e-06
4.54119e-07
2.60123e-06
1.17006e-05
9.02134e-07
2.8266e-06
1.1012e-05
4.32037e-07
4.34509e-06
1.08373e-05
4.60752e-08
2.41013e-06
1.12109e-05
2.559e-06
1.10982e-05
-4.48902e-07
-2.28655e-06
5.36349e-06
3.14995e-07
-4.14486e-06
5.87295e-06
-2.08161e-07
-3.81352e-06
5.26429e-06
-7.33579e-07
-4.25197e-06
5.13539e-06
-3.50248e-07
-3.32419e-06
5.95727e-06
-5.29982e-07
-1.95229e-06
5.02269e-06
-2.44379e-06
5.37721e-06
4.77657e-07
-1.14079e-05
1.08656e-05
-4.02322e-07
-1.12616e-05
9.00078e-06
3.01911e-08
-1.10125e-05
1.17229e-05
2.27535e-07
-1.14128e-05
1.10362e-05
1.47352e-07
-1.13336e-05
1.00011e-05
2.17564e-07
-1.05185e-05
1.13193e-05
-1.12009e-05
1.08324e-05
2.60679e-07
-1.58132e-05
6.3594e-06
1.74829e-07
-1.52016e-05
5.31397e-06
5.21719e-07
-1.39852e-05
6.47776e-06
2.14278e-07
-1.50543e-05
5.04385e-06
-6.97728e-07
-1.34203e-05
5.08495e-06
-3.25627e-07
-1.45228e-05
6.55435e-06
-1.59191e-05
6.31648e-06
-2.486e-07
1.29046e-05
-8.70926e-07
1.48833e-05
-2.49281e-07
1.31389e-05
-2.96495e-07
1.36667e-05
5.5918e-09
1.42277e-05
3.02384e-07
1.30147e-05
1.2916e-05
-6.37631e-07
1.67229e-05
7.97268e-07
1.65294e-05
-9.963e-08
1.88463e-05
8.69141e-07
1.61902e-05
8.56451e-07
1.60917e-05
1.24236e-06
1.5947e-05
1.69876e-05
6.48073e-07
1.38887e-05
-6.40608e-07
1.34831e-05
6.62222e-07
1.34491e-05
-8.04343e-07
1.37811e-05
-1.6544e-06
1.33836e-05
-5.87348e-07
1.27635e-05
1.36643e-05
1.19565e-06
6.1977e-06
5.60272e-08
6.50667e-06
6.62564e-07
6.27754e-06
1.02032e-06
6.25297e-06
5.48642e-07
6.41905e-06
5.487e-08
6.58589e-06
6.63663e-06
-4.53641e-07
-6.25272e-06
2.5436e-07
-6.48447e-06
-2.99408e-07
-6.12407e-06
-7.42668e-07
-6.36748e-06
-5.51059e-07
-5.93537e-06
-6.8567e-07
-6.55987e-06
-6.74252e-06
6.38925e-07
-1.39618e-05
-5.11777e-07
-1.36812e-05
2.07438e-07
-1.30764e-05
2.50257e-07
-1.35529e-05
4.42502e-07
-1.34085e-05
2.33843e-07
-1.28961e-05
-1.37661e-05
-4.30624e-08
-1.68351e-05
2.94272e-07
-1.95213e-05
6.49968e-07
-1.60896e-05
1.49359e-07
-1.74283e-05
-8.64215e-07
-1.79719e-05
-1.37581e-07
-1.6259e-05
-1.69406e-05
-2.38993e-07
-1.10696e-06
-3.20119e-07
-3.90695e-07
-9.36465e-08
3.58821e-07
-0.00395493
0.00302648
0.00121282
-0.00291401
0.00325605
-0.00417759
-0.00155739
0.00392667
-0.00518376
0.000446222
0.00358329
-0.0054919
0.00258864
0.00365563
-0.00571326
0.00407176
0.00307514
-0.00447848
0.00224546
0.00208873
-0.00693298
0.00578608
0.00517646
-0.0066295
0.00518279
-0.00164509
-0.00247232
0.00536109
-0.00509024
0.00307753
0.00568036
-0.00715542
0.00736026
0.00535069
-0.00548388
0.00798284
0.00498264
-0.00197619
0.00554928
0.00567722
-0.00241376
0.00249963
0.00571858
-0.00249408
0.00200689
0.00344406
-0.000863385
0.00147629
0.00240638
0.00180686
0.00105403
0.00210759
0.00328923
0.00132723
0.00267704
0.00291128
0.00198249
0.00357519
0.00261551
0.00593197
0.000864641
-0.00245254
0.00349647
0.00109509
-0.00166101
0.00312422
0.000439599
-0.00103047
0.00294852
-0.000730233
-0.000867017
0.00293322
-0.00130912
-0.0013056
0.00298349
-0.000941245
-0.00187808
0.0031809
-0.00240891
0.00350823
-0.00305139
-0.00574343
0.00657243
-0.00317348
-0.0050771
0.00376772
-0.00134834
-0.00558866
0.00291979
0.00123302
-0.00571315
0.00247564
0.00294581
-0.00545418
0.00267276
0.00276656
-0.00528885
0.00388906
-0.00595187
0.00652605
-0.00759149
-0.00258064
0.0053119
-0.00641866
-0.00329036
-0.00244948
-0.00225538
-0.00395008
-0.00528745
0.00300737
-0.00389586
-0.0065778
0.00758021
-0.00411625
-0.00536278
0.00772492
-0.00342687
-0.00135832
-0.00283887
0.00564395
-0.00408778
0.00174363
-0.00233648
-0.00494028
-0.000203375
-0.0059538
0.00190321
-0.00588198
0.00351995
-0.00559203
0.00430107
-0.00404776
0.00177392
-0.00237158
0.0026967
0.00123963
-0.00264712
0.00199168
-0.00582159
-0.00240484
0.0023814
-0.00775144
-0.00114856
0.00201706
-0.00873953
0.00027556
0.00198892
-0.00908292
0.00133981
0.00204358
-0.00756259
0.00143013
0.00234848
-0.00148145
0.00393319
0.00607204
-0.00230071
0.00337542
-0.00175702
-0.000179699
0.00303953
-0.00743346
0.00259486
0.00207937
-0.00964747
0.00382167
0.00215817
-0.00641922
0.00311695
0.00343
-0.00216871
0.00395523
0.00705374
0.000200895
0.00180759
0.00722058
0.000310632
0.00152114
0.00507954
0.00064491
0.00092743
0.00415033
0.000858512
0.000401595
0.00357371
0.000482477
0.000770639
0.00444923
0.000467078
0.00172258
0.00530337
0.00227707
0.00785197
0.00107344
-0.00228777
0.0059992
0.00147906
-0.00170975
0.00558612
0.000634561
-0.000814382
0.0053142
-0.000899602
-0.000475174
0.00523029
-0.00175202
-0.000923674
0.00534206
-0.00122079
-0.00161307
0.0056638
-0.00194177
0.00607176
-0.000511297
-0.00394232
0.00859614
-0.000641013
-0.00326932
0.00549719
-0.000862049
-0.00238988
0.00475514
-0.000393654
-0.00252909
0.00412022
-8.36154e-05
-0.00298878
0.00449433
-0.000202479
-0.00322629
0.00570634
-0.00396566
0.00823089
-0.00321834
-0.00169982
0.00722578
-0.003909
-0.00199975
-0.00252315
-0.00269637
-0.00239696
-0.00599357
0.000115795
-0.00238196
-0.00918167
0.0026939
-0.00228844
-0.00815061
0.00175343
-0.00213406
-0.000922166
-0.00263165
0.00712641
-0.00166497
0.00204133
-0.000669791
-0.00788574
0.000545916
-0.00947666
0.0016295
-0.00927461
0.00228588
-0.00844739
0.00231162
-0.00609084
0.00187404
-0.001441
0.00226645
0.000661943
-0.00264274
0.00153454
-0.006098
-0.00241452
0.000335294
-0.00825107
-0.00238488
0.000917784
-0.00965947
-0.00157702
0.00028575
-0.0101191
-0.000845757
0.000820918
-0.00907524
0.00158249
0.000128414
0.00103463
0.00342688
0.00420714
0.00182014
0.00306208
-0.00371916
0.00327702
0.00194496
-0.0101114
0.00367671
0.00122684
-0.010113
0.00274275
0.00132269
-0.00615371
0.000309697
0.00312367
-0.00158904
0.00357953
0.00574661
0.00127387
0.00137139
0.00744857
0.00195649
0.00129472
0.00585549
0.0017593
0.000747837
0.005451
0.000650018
0.000354032
0.00552175
-0.00059621
0.000823206
0.00617645
-0.000558538
0.00151135
0.00678188
0.00170614
0.00871621
0.000869458
-0.00171587
0.00782781
0.00136302
-0.0015564
0.00757846
0.000660124
-0.000910833
0.00743083
-0.000876937
-0.000389484
0.00737523
-0.00162378
-0.000756023
0.00747362
-0.00100549
-0.00139986
0.00767201
-0.00143693
0.00793066
0.000607829
-0.00349676
0.00932877
0.000518212
-0.00303259
0.00695742
-0.000552164
-0.00157127
0.00644288
-0.00161816
-0.00125018
0.00601259
-0.00207013
-0.00165185
0.0057957
-0.00151212
-0.00286073
0.00639763
-0.00331952
0.00819721
-0.000563621
-0.00173927
0.00646269
-0.00347205
-0.000337548
-0.00188453
-0.00423277
-0.000664344
-0.0057054
-0.00373496
-0.000860128
-0.00969206
-0.00207744
-0.000195365
-0.0109234
-0.00136062
-0.00140616
-0.0027628
-0.00223377
0.00515454
0.000196575
0.000297676
0.000989122
-0.00897393
0.00153378
-0.0106367
0.00173259
-0.0102775
0.00220503
-0.00906262
0.00127417
-0.00650007
0.00119774
-0.000532809
0.0015449
-0.000223767
-0.00268539
0.00133103
-0.00522973
-0.00325788
-9.16835e-06
-0.00762555
-0.00393086
0.000405403
-0.00936746
-0.00348762
-0.00026812
-0.0101718
-0.0030607
0.000575697
-0.00989118
0.00199458
-0.00453786
0.000925537
0.00362869
0.00136951
0.00254837
0.0031476
-0.00666864
0.00299592
0.000984567
-0.0114052
0.00162653
0.000291154
-0.00853896
-0.000736438
0.000748454
-0.00468006
-0.00275681
0.00236078
-0.00134126
0.0031526
0.00199158
0.00146932
0.00156555
0.00754842
0.00288573
0.00118531
0.0061086
0.0025295
0.000465713
0.00612208
0.000697294
0.000394175
0.00714065
-0.000932713
0.001061
0.0073996
-0.00112374
0.00137249
0.00773271
0.00122777
0.00906976
0.000731782
-0.00114295
0.00947079
0.00113801
-0.00130729
0.00931648
0.00058853
-0.00102915
0.00920435
-0.00071203
-0.000285834
0.00914412
-0.00129378
-0.00034012
0.00923096
-0.000804589
-0.00114256
0.00941152
-0.00152089
0.00956344
0.00112104
-0.00314437
0.00967707
0.000723122
-0.00229248
0.00808527
-0.000603818
-0.00120189
0.00783091
-0.00254864
-7.32695e-06
0.00753049
-0.00320083
-0.000623806
0.00659602
-0.00174016
-0.00309569
0.00656904
-0.00355276
0.00801532
0.00214132
-0.00186361
0.00322907
-0.00071485
-0.000202247
-0.00106608
-0.00311103
-0.00016372
-0.00417867
-0.0042609
-0.000682632
-0.00771287
-0.00360679
-2.03706e-05
-0.0120007
-0.00179011
-0.00090429
-0.00636541
-0.00157232
0.00154648
0.00199261
-0.00334858
0.002448
-0.009567
0.00238755
-0.0106939
0.00181254
-0.0103576
0.00162997
-0.00886794
0.000151004
-0.00587623
-0.000136998
1.73037e-05
0.000905617
-0.00103615
-0.00188253
0.000720452
-0.00400496
-0.00371434
0.000763824
-0.00657145
-0.00436375
0.000384185
-0.00903225
-0.00369131
-0.000430152
-0.0103515
-0.00288485
0.000281852
-0.0108347
0.00180389
-0.00887452
0.000313033
0.00385875
-0.00160765
-6.45891e-05
0.00283842
-0.00801803
-0.00330183
0.0016838
-0.00901698
-0.00500112
5.68851e-05
-0.00660069
-0.00558889
0.000700515
-0.00521414
-0.0045175
0.00226379
-0.00435796
0.00300467
-0.00348172
0.00157501
0.00161909
0.00779893
0.00304311
0.000892165
0.00641475
0.00310495
0.00028422
0.00723744
0.00113317
0.000391416
0.00859556
-0.000765658
0.00123076
0.00853253
-0.00116727
0.00142894
0.00858943
0.00131192
0.00908567
0.000764859
-0.00105968
0.0110225
0.000990672
-0.00130067
0.0109382
0.000501072
-0.00121641
0.0108786
-0.000576646
-0.000489736
0.0108084
-0.00100349
-0.000286253
0.0108801
-0.000806319
-0.000742056
0.0110403
-0.0014512
0.0111462
0.00131477
-0.00271342
0.00950345
0.000717278
-0.00165909
0.00869745
-0.00110478
-0.000522314
0.00873442
-0.0031775
0.000242667
0.00871196
-0.00340221
-0.00125231
0.00757156
-0.00194514
-0.00254284
0.00669889
-0.00376075
0.00793638
0.00461519
-0.00157748
-0.00234722
0.00440337
-0.000538699
-0.00201854
0.00289984
-0.000154495
-0.00307436
0.000223274
-0.000143342
-0.00459928
-0.00220124
-0.00109623
-0.00957292
-0.00153154
-0.000601505
-0.00863709
-0.00126248
-0.00223341
0.00187138
-0.00666405
0.00240478
-0.0105266
0.0025159
-0.0109185
0.00238863
-0.0103553
0.000839657
-0.00840126
-0.000388128
-0.00519069
-0.00168476
-6.11178e-05
0.000429867
-0.00129427
-0.00165759
0.000543991
-0.00289217
-0.00371947
0.000279793
-0.00478323
-0.00459326
-0.000336822
-0.00780774
-0.00320497
-0.00185709
-0.00983692
-0.00178711
-0.00135983
-0.0108047
-0.000407427
-0.00996066
-0.00123143
0.00328686
-0.00290876
-0.00448337
0.00215302
-0.00623478
-0.0084726
0.00123692
-0.00596825
-0.00843728
-3.46929e-06
-0.0069581
-0.00669724
0.000875444
-0.00943454
-0.00301818
0.00140327
-0.0103535
0.00198211
-0.0086412
0.00216236
0.000758708
0.00781339
0.00314026
0.000117966
0.00727235
0.00245829
3.40741e-05
0.00887261
0.000642372
8.95191e-05
0.0100921
-0.000739843
0.000618558
0.00991761
-0.00103262
0.000666787
0.00922343
0.000937047
0.00869053
0.000791978
-0.000601232
0.0112568
0.000744552
-0.000725862
0.0114864
0.000287441
-0.000583648
0.011654
-0.000356651
-0.000425595
0.0116763
-0.00051165
-0.000386417
0.0117132
-0.000735127
-0.000112356
0.0117143
-0.000525268
0.011519
0.000869947
-0.00129375
0.00894585
0.000619441
-0.00117276
0.00900935
-0.000889253
-5.22819e-06
0.00940322
-0.00280101
0.000325159
0.00963948
-0.00335828
-0.00110273
0.0085844
-0.00232725
-0.00204587
0.00736248
-0.00293576
0.00766396
0.00253965
-0.000169401
-0.00589189
0.00476997
0.00115668
-0.0063559
0.00662797
0.00166144
-0.00653535
0.00693687
0.000840377
-0.00536796
0.0028055
-0.000540497
-0.00595634
-5.749e-05
-0.000689907
-0.00700757
-0.000935751
-0.00401642
0.000491429
-0.00716396
0.00146003
-0.0102004
0.00297371
-0.0107148
0.00324864
-0.00974853
0.00168443
-0.00736102
0.000381425
-0.00454075
-0.00210978
-0.00141213
0.000221461
2.10699e-05
-0.00286252
-0.000163275
-0.00126257
-0.00428234
-0.000465727
-0.00292113
-0.00436317
-0.00125881
-0.00643326
-0.0033533
-0.00253257
-0.00819955
-0.00139276
-0.00210311
-0.0104607
-0.00139106
-0.00969365
-0.00386613
0.00288024
-0.00143616
-0.00782382
0.00155689
-0.00391282
-0.0102527
0.000728634
-0.00463202
-0.0106866
-0.00014871
-0.00746211
-0.00940363
-0.000192032
-0.0126322
-0.00533559
5.2008e-05
-0.0159712
0.00199343
-0.0160364
0.00221711
-0.000123055
0.0084209
0.00238595
-0.000737647
0.00922087
0.000574271
-0.00026813
0.0114777
-0.000246396
0.00019816
0.0102987
-0.00148072
0.000959808
0.00979906
-0.00143101
0.000890343
0.00805704
0.00223853
0.00671851
0.000703168
-0.0023414
0.0124368
0.000373529
-0.00155606
0.0123401
0.000255582
-0.000819788
0.0121324
0.000166739
-0.00057484
0.0122723
6.33579e-05
-0.000519708
0.0129503
-0.000727547
0.000179163
0.0129351
3.60184e-05
0.0126583
0.00075622
-0.00114264
0.00657966
0.000681327
-0.00138794
0.00867539
0.000136261
-0.000146037
0.00907898
-0.00103547
-6.59858e-05
0.0100751
-0.00237757
-0.000158248
0.00924378
-0.00223452
-0.00134569
0.00850831
-0.00247072
0.00774937
0.00032036
0.000146356
-0.00739329
0.00598962
0.00183395
-0.0146726
0.00978281
0.00237139
-0.0126583
0.0104875
0.00174684
-0.00775258
0.00795443
0.00117318
-0.00463648
0.00367279
0.000529064
-0.00456042
-0.000297531
-0.00226329
-0.000291355
-0.0064766
0.00126356
-0.00976842
0.00329728
-0.0102793
0.00429962
-0.00897625
0.00377453
-0.00564374
0.00208058
-0.00228435
-0.00025726
-0.000484478
-0.0011758
0.00339961
-0.0016311
-0.00103465
-0.00027811
0.00115345
-0.000300826
-0.000665627
-4.62107e-05
-0.001641
0.0013269
-7.26441e-05
0.000560182
-0.00633983
0.00522237
0.00213856
0.00178558
-0.0113907
0.00741553
0.0011506
0.00385922
-0.0143574
0.0115602
0.00397249
-0.0115481
0.008748
-0.00494264
0.00143637
0.0034608
-0.000923125
-0.00731894
0.000635855
-0.0015384
0.0031177
-0.0080839
-0.000595866
-0.00304399
0.0044877
-0.00795875
-0.00148439
-0.00518911
0.0072819
-0.00700294
-0.00200742
-0.00886916
0.0118351
-0.00419974
0.00055534
-0.0164311
0.0170969
0.0027963
-0.0198677
0.0172698
0.000184251
-0.000513928
0.00968684
-0.00812868
0.00063014
-0.000327845
0.00881055
-0.00855342
-0.000305602
-0.000242979
0.0100032
-0.00972286
-0.00242366
-5.40974e-05
0.0104026
-0.00986887
-0.00490288
-0.000113275
0.00952766
-0.0091059
-0.00407122
0.000168702
0.00675955
-0.00755745
0.000810316
0.00337436
-0.00535717
0.000853386
-0.00141596
0.0113529
-0.0116638
0.000959539
-0.000440506
0.0116538
-0.0119435
0.000433285
7.23495e-05
0.011936
-0.0120332
-5.06774e-05
0.000192215
0.0120396
-0.0120757
-0.000454539
0.000229319
0.0120428
-0.0121734
-0.00050844
1.39048e-05
0.0119588
-0.0119936
-8.97583e-07
0.0118435
-0.0117824
0.00340054
-0.00321339
0.00318238
-0.00493424
0.00474263
-0.000735299
0.00524105
-0.00659605
0.00310185
0.00129748
0.00885913
-0.00863662
0.000388674
0.0016636
0.0102634
-0.00928605
-0.000521951
0.000386731
0.00932438
-0.0088477
-0.00020979
-0.000712693
0.00808344
-0.00790031
-0.0017363
0.00873614
-0.00739386
0.00455705
-0.00230626
-0.0124123
0.00819525
0.00691555
-0.00318638
-0.0156434
0.0161461
0.00864828
-0.00224978
-0.011667
0.0136985
0.00917745
-0.001378
-0.00565167
0.00833083
0.00781999
-3.50871e-05
-0.00320353
0.00506765
0.00508404
0.000474548
-0.00206672
0.00368838
0.00134529
0.00231148
-8.32377e-05
-0.000652638
-0.00759115
0.00634284
-0.000139077
-0.0122138
0.00857301
0.00156656
-0.0129586
0.00898491
0.00167884
-0.00923855
0.00777021
0.000774638
-0.00306921
0.00399806
0.000466044
0.000281768
0.000506966
0.00328059
-0.00142718
-0.000176091
-9.96721e-05
0.0037906
0.000279142
9.71209e-06
0.0007103
0.00180965
-0.000490512
-0.00270251
0.00396788
-0.000276869
-0.00814088
0.00447585
0.000463178
-0.0122616
0.00171646
0.00159321
-0.0131928
0.00173184
-0.0115426
-0.00203068
0.0010565
0.0045271
-0.00307561
0.000214848
-0.000618249
-0.00338369
-0.00115803
-0.00199382
-0.00366075
-0.00199573
-0.00305608
-0.0029622
-0.00253726
-0.00639698
-0.00117069
-0.00106181
-0.0155418
0.00124804
-0.0204144
0.000281009
-0.000192323
0.0104054
0.000127964
-0.000370615
0.00938172
-0.00102944
-0.000456784
0.0102519
-0.00329586
3.54015e-05
0.0104304
-0.00575269
0.000360761
0.00896682
-0.00506578
5.55063e-05
0.00476323
0.000244279
-0.000712848
0.00107309
-0.00164003
0.0113504
0.000995219
-0.000612335
0.0116951
0.000561542
-0.000724745
0.0123711
5.29439e-05
-0.000328668
0.0126424
-0.000370578
0.000299307
0.012316
-0.000505345
0.000270444
0.0116962
1.72403e-05
0.0112834
0.00572629
-0.00249311
-0.0016767
0.00700238
-7.15994e-05
0.00316414
0.00455117
0.00180255
0.00856201
0.00124706
0.00230244
0.0107557
-0.000155365
0.00100307
0.00987672
-0.000388461
-0.000194259
0.00866936
-0.00109228
0.00932192
0.00295389
-0.000795513
-0.0165079
0.00515916
-0.001071
-0.0164806
0.00614543
-0.000935216
-0.00978167
0.0060829
0.000132451
-0.00330872
0.00460446
0.0012858
-0.00194141
0.00273534
0.000691562
-0.00102652
0.000683539
0.00346225
-8.9694e-05
-0.00818465
-0.00127214
-0.01204
-0.00269623
-0.0123435
-0.00194926
-0.00976967
-0.000427315
-0.00327789
-0.000123754
0.00065945
0.0038957
0.000163957
0.000198813
0.00352422
0.000548351
-0.000300742
0.000659765
0.00394845
-0.000495743
-0.0055474
0.00674559
-0.000456909
-0.0103865
0.00646179
0.000436012
-0.0122657
0.00373272
0.00204054
-0.0123749
0.00265506
-0.0103662
-0.00114934
0.00148504
0.00456859
-0.00202182
0.00019969
-0.00015437
-0.00124494
-0.00109237
-0.00206554
9.72491e-05
-0.0019835
-0.00278085
0.00175939
-0.00276322
-0.00477269
0.00231428
-0.00173278
-0.0122345
0.0014476
-0.0167508
-0.000145936
0.0013456
0.0104077
-0.00120325
0.000483581
0.0100146
-0.00277575
-6.51783e-05
0.0106788
-0.00519886
-0.000123931
0.0108102
-0.00779926
0.000441796
0.00823432
-0.00598008
0.000712923
0.000450273
0.000449268
-0.00557374
0.00185961
-0.00144407
0.0119188
0.00201188
-0.00107048
0.0127983
0.000846308
-0.000477353
0.0136761
-0.000386349
-0.000257284
0.0137514
-0.00123955
3.38785e-05
0.0133329
-0.00115243
-0.000245213
0.0123699
-0.00135449
0.0116875
0.00651147
-0.00236676
-0.00706696
0.0095036
1.73234e-05
-0.00106611
0.00687022
0.0021139
0.00833058
0.00323094
0.00225338
0.0117179
0.00155473
0.00120191
0.0102465
0.000612878
0.000171572
0.00905892
-0.00115788
0.00956796
-0.001157
-0.0015529
-0.0160516
-0.000799785
-0.00155141
-0.0152003
0.000150928
-0.00105074
-0.00753398
0.00162825
-0.000134044
-0.00233722
0.00245172
0.000558773
-0.0020839
0.00141416
0.000894311
-0.000643595
-7.599e-05
0.00397514
-0.00215449
-0.00754036
-0.00432149
-0.0113456
-0.00556499
-0.0120034
-0.00445351
-0.0108924
-0.00112736
-0.00598465
-0.000244242
0.000711525
0.00370405
-0.00033435
-0.000177812
0.00422263
0.00236771
-2.52211e-05
-0.0019516
0.00765722
-0.000268814
-0.0106114
0.00960442
0.000324264
-0.0125294
0.00884533
0.000266886
-0.0116676
0.0060162
0.00133522
-0.0107839
0.00312745
-0.00737305
-0.00210373
0.000694667
0.0060072
-0.00294978
-0.000543794
0.00133293
-0.00124594
-0.000932169
-0.00303012
0.00111916
-0.00120605
-0.00350556
0.00308487
-0.00199615
-0.00438643
0.00284195
-0.000384926
-0.0101782
0.00243582
-0.0131256
-0.00271377
0.00303731
0.0105453
-0.00385283
0.00153798
0.00892796
-0.00499357
0.000803361
0.00996934
-0.00644038
0.00036476
0.0106148
-0.00794484
0.000422984
0.00723048
-0.00541246
0.000280274
-0.00265768
0.000438756
-0.00878346
0.00239539
-0.000968924
0.013267
0.00177909
-9.92428e-06
0.0147789
0.000513871
0.000278739
0.0152656
-0.00067293
-0.000188274
0.0152564
-0.000955956
-0.000524712
0.0144295
-0.00128227
-0.00119477
0.0140443
-0.00266605
0.0132842
0.00515263
-0.00386191
-0.00903384
0.00801851
-0.00178707
-0.00201623
0.00673282
0.00151202
0.0083155
0.00476034
0.00230338
0.0110616
0.00432275
0.00181262
0.00812433
0.00350349
0.00142723
0.00705026
-0.0003847
0.0105926
-0.00389054
-0.00174395
-0.0141893
-0.00501587
-0.00202623
-0.0137739
-0.00285161
-0.00124992
-0.006775
0.000158674
-0.000761372
-0.00212507
0.00282141
0.000172477
-0.00298664
0.00262416
0.000213053
0.000896921
-2.91182e-05
0.00650618
-0.00319083
-0.00606539
-0.00619231
-0.0103618
-0.00771559
-0.0116842
-0.00685846
-0.0124209
-0.0020208
-0.0105728
0.000527197
-0.00158968
0.00443312
0.000149422
-0.000789913
0.00510236
0.00639386
0.00101488
-0.00893971
0.0101052
-0.000389859
-0.0139256
0.0114239
-0.00108228
-0.0126644
0.00988358
-5.20456e-07
-0.0100101
0.00588294
0.00130964
-0.00800598
0.00229455
-0.00369963
-0.00347525
-0.00121118
0.0101432
-0.00163579
-0.00198506
0.00256826
0.00238853
-0.00165282
-0.00570469
0.00615646
-0.000848183
-0.00733456
0.00846726
0.000254127
-0.00680143
0.0064752
0.00236777
-0.00917868
0.00546914
-0.00973458
-0.00603175
0.00343873
0.0117547
-0.00870614
0.00226976
0.00708246
-0.00868267
0.00115898
0.00694664
-0.00670282
0.000211744
0.00740111
-0.00384138
-0.000144443
0.00464101
-0.00233459
-0.00142329
-0.000310886
0.000493556
-0.0061784
0.00139238
-0.000446284
0.0155307
-0.000172781
0.00261723
0.0157923
-0.000569392
0.0011056
0.0156322
-6.794e-05
-0.00020521
0.0151103
0.000301157
-0.00128579
0.0150344
-0.00123147
-0.00184155
0.0158247
-0.00281562
0.0151414
0.00155667
-0.00565399
-0.00533681
0.00297217
-0.00283186
0.00208151
0.00574958
2.75454e-05
0.00650096