/*--------------------------------*- C++ -*----------------------------------*\
  =========                 |
  \\      /  F ield         | OpenFOAM: The Open Source CFD Toolbox
   \\    /   O peration     | Website:  https://openfoam.org
    \\  /    A nd           | Version:  6
     \\/     M anipulation  |
\*---------------------------------------------------------------------------*/
FoamFile
{
    version     2.0;
    format      ascii;
    class       volScalarField;
    location    "0.0075";
    object      T;
}
// * * * * * * * * * * * * * * * * * * * * * * * * * * * * * * * * * * * * * //

dimensions      [0 0 0 1 0 0 0];

internalField   nonuniform List<scalar> 
3773
(
268.299
265.18
265.122
265.534
265.722
266.173
269.468
287.219
286.705
286.863
286.654
286.473
286.666
287.1
308.995
310.13
310.19
310.153
310.132
310.164
309.008
315.681
315.878
315.901
315.885
315.882
315.927
315.702
309.054
309.186
310.254
310.209
310.185
310.217
309.068
287.336
287.629
287.001
286.674
286.621
286.877
287.283
269.979
267.767
267.071
266.87
266.528
266.608
270.283
234.868
231.614
231.213
231.722
232.535
233.424
235.658
271.808
276.043
276.363
276.266
276.046
276.427
272.982
313.828
311.668
311.966
312.1
312.201
311.727
313.861
324.814
324.937
325.073
325.105
325.105
324.897
325.312
314.124
313.998
312.344
312.291
312.298
312.094
314.191
272.626
272.602
276.386
276.21
276.181
276.76
272.777
236.75
233.864
234.156
234.473
233.262
233.7
236.567
219.625
218.598
217.79
217.778
218.592
219.353
219.838
264.438
270.789
270.895
269.148
267.902
268.88
264.522
314.402
311.789
312.815
314.008
313.464
311.236
313.959
325.761
324.869
325.387
325.93
326.009
324.818
325.665
314.181
312.423
312.309
312.937
313.806
312.392
314.014
264.774
267.75
269.593
266.22
269.309
269.616
264.796
220.268
219.387
218.92
218.335
218.447
219.447
220.147
215.553
217.868
217.256
217.122
216.191
215.928
215.559
264.189
273.203
273.162
272.031
268.005
268.04
264.056
314.317
312.102
312.168
312.84
313.485
311.234
314.037
325.785
325.185
325.349
325.79
325.553
325.062
325.68
314.173
311.15
313.682
315.006
313.755
311.683
314.007
264.197
268.469
268.944
266.262
269.907
270.023
264.265
215.563
216.012
216.46
214.328
216.658
216.732
215.632
214.858
217.106
216.911
216.72
215.631
215.26
214.801
264.333
271.892
271.388
271.217
268.99
269.042
264.426
314.438
311.83
311.6
312.508
312.011
310.366
314.405
325.829
325.103
325.376
325.358
325.144
325.085
325.821
314.314
311.222
312.722
313.734
313.246
311.245
314.339
264.536
269.433
269.031
268.961
269.277
269.858
264.538
214.845
215.45
215.752
214.659
216.373
215.61
214.825
215.043
216.586
215.096
216.786
216.293
215.693
214.956
266.603
272.124
272.963
272.863
271.783
271.71
266.282
315.134
311.575
311.78
311.139
310.965
310.654
314.82
326
325.114
324.944
325.153
324.748
325.484
325.968
314.905
311.774
311.422
311.596
311.417
312.038
314.869
266.764
272.381
271.926
273.017
273.024
271.146
266.538
215.069
214.994
215.89
214.631
217.237
215.846
214.985
213.249
211.134
212.526
213.338
213.229
213.267
213.325
268.216
270.26
268.242
268.782
268.897
269.377
268.237
312.88
313.136
311.801
312.291
311.5
312.436
311.949
329.052
330.081
329.827
329.84
330.315
328.971
330.354
312.842
316.715
312.566
311.75
317.669
312.812
312.007
268.597
261.716
269.355
268.93
263.87
269.373
268.447
213.528
212.155
213.306
212.748
211.09
213.372
213.428
308.098
323.523
325.017
322.98
318.822
313.87
304.826
286.529
308.052
312.798
316.915
311.681
306.979
287.274
288.949
303.521
309.128
311.841
309.419
304.674
290.56
333.339
336.887
342.404
345.132
341.535
336.338
333.365
291.61
305.941
310.171
312.576
310.487
305.449
290.398
292.712
309.265
313.546
319.198
316.454
313.03
293.224
309.519
316.156
320.748
326.456
328.608
326.994
313.88
296.733
324.655
325.752
321.931
316.442
307.577
292.892
275.028
299.239
312.128
321.524
312.514
300.17
277.231
290.144
303.318
312.064
317.485
313.555
304.33
290.944
338.334
339.874
345.379
347.789
344.99
339.47
338.498
290.348
304.895
313.586
317.288
312.289
303.797
289.438
281.189
302.518
314.005
321.871
314.801
302.759
279.054
299.004
311.378
320.308
325.759
329.296
326.869
302.808
291.903
324.942
325.546
320.091
314.434
303.825
273.069
274.582
293.572
318.865
324.729
317.055
299.543
272.948
294.529
303.648
314.987
320.765
316.454
305.457
294.296
342.475
343.102
346.518
348.55
346.46
342.906
341.682
291.81
305.538
315.74
319.741
314.788
302.578
292.716
274.402
302.261
318.573
325.446
319.698
292.126
275.054
278.196
308.249
319.627
325.122
328.868
326.422
292.748
295.422
324.94
325.485
319.957
315.895
307.694
287.142
280.125
303.651
325.165
326.308
319.051
298.386
276.825
298.077
307.176
317.61
323.836
319.63
308.521
297.868
343.324
344.04
347.507
349.799
347.74
344.205
343.991
296.235
308.591
319.568
322.927
317.502
304.926
295.973
276.945
302.599
323.38
328.285
325.377
300.876
279.573
286.086
308.854
320.353
325.449
328.687
326.104
293.43
301.099
325.038
325.616
321.327
319.043
317.477
308.601
292.035
319.5
327.071
322.992
312.006
297.947
290.37
302.245
312.379
320.2
325.868
322.043
310.431
302.166
343.089
344.811
348.518
351.731
348.833
344.913
343.501
300.806
310.58
322.024
325.008
319.412
311.196
301.361
288.37
297.599
317.704
327.563
328.197
319.096
293.481
297.608
315.035
322.162
326.045
328.678
326.373
302.383
306.191
326.85
326.542
323.857
323.488
323.813
318.384
307.276
329.715
325.829
320.52
312.366
309.514
298.955
309.495
317.335
322.716
327.421
324.598
316.336
311.196
345.8
348.331
351.576
354.077
351.362
348.132
345.698
310.534
316.496
325.317
326.695
321.886
316.771
308.849
297.947
303.698
312.866
324.985
329.153
329.732
306.972
299.879
320.19
324.148
325.958
328.673
329.61
311.298
315.943
328.754
326.771
324.206
325.239
328.345
326.483
319.551
330.552
327.943
323.479
321.405
320.246
312.094
313.747
320.979
325.914
331.358
326.606
319.335
314.148
345.693
348.509
352.472
355.325
351.861
348.803
345.328
313.794
319.927
328.714
330.369
324.334
320.042
313.449
298.465
317.868
321.915
326.965
330.171
332.27
320.012
303.654
331.341
326.831
326.527
327.867
329.505
320.99
317.332
327.747
327.036
323.781
325.874
333.993
338.822
327.147
333.801
332.795
331.979
331.604
335.192
337.129
323.501
328.813
332.725
336.814
331.035
324.008
320.553
347.615
349.914
353.695
355.847
354.348
351.089
347.02
314.961
325.113
331.746
336.641
332.807
328.121
322.57
309.909
329.609
331.854
333.714
334.268
335.168
327.615
321.702
337.064
329.121
326.009
326.771
328.5
318.807
311.17
326.916
327.006
324.463
325.843
332.21
338.658
322.512
336.117
336.758
336.421
334.75
338.694
343.897
324.669
330.545
335.992
337.954
330.02
323.064
319.826
347.477
350.426
354.222
356.69
355.147
352.389
348.994
316.87
323.104
330.311
337.641
334.828
329.495
324.144
341.433
341.686
337.718
338.073
337.89
337.243
325.329
336.229
336.162
328.069
326.054
327.494
329.654
313.978
307.65
323.425
323.881
326.122
328.983
335.811
340.068
315.197
333.638
337.294
337.575
333.777
338.897
344.297
323.003
329.452
335.556
336.223
323.687
319.891
321.254
345.37
349.116
354.219
356.933
354.982
351.227
347.646
320.776
320.126
323.977
335.167
333.921
328.469
323.52
347.296
345.56
337.959
338.479
338.512
336.034
319.824
338.599
337.453
331.961
329.014
327.56
328.143
311.146
298.178
312.304
324.2
329.166
333.09
338.893
341.654
309.521
334.937
339.647
337.861
336.218
342.328
345.86
323.6
329.811
332.51
329.265
322.747
325.709
335.999
341.96
345.186
352.959
356.447
352.6
346.649
343.679
336.427
327.898
324.322
329.341
333.22
330.73
325.395
348.441
346.118
339.803
338.285
341.695
338.1
315.809
341.154
340.115
335.666
333.347
328.773
322.005
305.626
288.017
318.131
325.868
339.581
343.71
345.372
345.084
313.132
336.97
343.348
343.341
344.015
346.531
348.077
328.136
332.758
332.353
327.035
324.992
337.273
344.509
338.313
342.148
348.594
354.007
348.544
343.575
342.391
344.421
337.562
326.613
329.339
336.652
339.564
330.149
350.411
348.224
344.858
342.876
345.54
340.791
316.96
346.002
342.354
340.34
338.774
331.359
317.209
294.802
282.01
327.827
340.083
346.702
347.517
347.006
346.056
315.938
342.203
346.431
347.13
347.909
348.512
349.454
331.834
344.671
343.068
338.422
338.086
342.67
346.037
337.141
342.786
347.729
350.016
348.12
343.176
339.014
346.361
339.732
334.95
341.327
350.509
348.698
332.012
351.31
348.444
347.13
347.205
346.98
341.283
318.893
347.664
344.955
343.657
343.347
339.047
319.001
287.017
331.597
344.76
349.587
349.847
351.031
343.546
344.332
337.116
341.916
347.577
348.705
349.397
350.04
350.141
343.065
347.877
349.876
351.148
352.77
354.825
351.924
338.929
344.595
348.598
350.526
348.916
344.72
339.057
346.683
349.391
354.449
352.442
350.159
347.52
341.044
351.954
349.992
348.491
347.851
344.868
343.165
336.078
345.822
339.752
344.93
348.017
348.237
343.288
330.933
324.86
329.45
327.486
324.251
327.969
333.659
336.285
327.062
331.759
331.388
330.295
329.529
331.288
331.039
316.354
323.446
327.12
331.812
327.655
322.715
317.153
345.567
348.271
351.495
354.572
352.384
349.54
345.171
317.631
321.3
329.033
331.374
326.801
321.789
316.267
297.58
324.015
328.725
332.044
332.945
333.055
327.004
311.941
333.993
329.212
327.069
327.962
329.493
325.901
324.478
329.235
327.504
324.033
327.763
333.688
337.005
327.244
332.254
331.731
330.595
330.068
332.03
332.501
316.717
323.686
327.236
332.063
327.868
322.924
317.361
345.844
348.413
351.6
354.656
352.569
349.694
345.274
318.087
321.759
329.3
331.59
327.105
322.428
316.752
297.907
324.722
329.305
332.364
333.362
333.582
327.29
313.384
334.766
329.217
326.878
327.684
329.223
325.461
323.963
329.129
327.541
324.024
327.678
333.66
337.238
327.183
332.388
331.955
331.014
330.47
332.697
333.641
317.847
324.2
327.396
332.365
328.37
323.06
317.721
346.055
348.487
351.684
354.805
352.775
349.759
345.373
318.543
322.008
329.505
332.058
327.838
322.897
317.242
299.003
325.43
329.891
332.764
333.597
333.708
327.32
315.074
335.001
329.234
326.843
327.639
329.151
325.272
323.716
329.514
327.606
324.106
327.442
333.666
338.036
327.398
332.485
332.178
331.494
330.867
333.218
334.537
318.565
324.443
327.937
332.678
328.517
323.222
318.586
346.071
348.529
351.717
354.891
352.939
349.873
345.438
319.032
322.406
329.573
332.252
328.324
323.069
317.731
300.643
326.192
330.138
332.914
333.708
333.778
327.504
316.438
335.677
329.323
326.878
327.68
329.416
324.778
323.687
329.708
327.633
324.138
327.211
333.896
338.288
327.344
332.573
332.268
331.678
331.041
333.653
335.574
318.919
324.61
328.15
333.303
328.963
323.555
319.175
346.133
348.558
351.74
354.9
353.157
349.941
345.516
319.264
323.16
329.747
332.721
328.948
323.558
318.261
302.793
327.04
330.919
333.174
333.9
333.795
327.617
318.44
335.908
329.565
327.009
327.575
329.532
324.765
323.754
329.925
327.664
324.116
327.144
334.145
338.367
327.808
333.121
332.469
331.813
331.278
334.049
335.897
319.77
325.093
328.458
333.655
329.388
323.691
319.939
346.199
348.61
351.777
354.863
353.291
350.074
345.741
319.539
324.014
329.869
333.167
329.898
324.106
318.793
305.315
327.9
331.332
333.385
333.99
334.39
327.865
319.107
336.806
329.654
326.984
327.208
329.511
324.807
324.112
329.45
327.526
323.987
326.791
334.144
338.354
327.707
333.357
332.61
331.873
331.385
334.543
336.66
320.056
325.184
328.748
334.432
329.732
323.919
320.502
346.321
348.78
351.906
354.814
353.467
350.23
345.916
320.488
324.615
330.21
333.451
330.325
324.304
319.114
308.083
328.789
331.545
333.533
334.123
334.68
327.795
320.996
337.026
329.504
326.677
326.947
329.17
324.99
340.887
358.126
343.203
336.982
334.368
327.933
319.941
345.253
354.963
358.402
357.878
355.901
351.779
347.159
354.323
355.006
353.922
353.259
353.176
353.571
352.271
339.248
346.057
348.498
350.567
348.891
344.802
339.107
347.133
352.238
355.451
355.01
355.624
355.99
355.345
346.863
350.276
353.246
352.541
358.719
355.173
343.435
317.919
322.973
331.949
333.824
340.287
356.475
338.873
364.454
344.846
337.629
334.206
330.646
327.812
327.964
356.909
357.849
353.374
352.853
350.87
347.134
344.908
357.774
356.199
353.373
353.288
352.784
352.751
352.263
339.78
346.512
348.432
350.639
348.875
344.969
339.308
347.528
353.267
355.017
354.861
354.983
356.508
357.877
342.998
347.308
349.882
350.345
351.736
357.914
355.76
324.453
325.41
327.713
333.036
336.293
343.149
361.887
363.033
345.152
340.672
336.598
333.011
332.495
336.954
362.183
354.588
353.51
352.184
349.456
347.641
346.919
355.619
353.439
353.118
353.194
352.337
351.635
351.837
340.762
346.842
348.429
350.81
348.895
345.421
339.766
348.954
352.823
353.14
353.497
353.624
354.794
358.034
344.905
347.943
349.891
351.073
352.327
354.957
361.428
335.99
331.319
332.607
337.087
340.59
344.147
362.255
352.077
346.759
345.117
340.683
339.313
339.389
345.314
356.89
354.169
353.563
351.976
350.561
349.805
350.831
353.89
353.415
353.145
353.52
352.548
350.911
351.66
341.63
347.214
348.538
351.049
348.965
345.993
340.126
350.151
352.233
352.57
353.246
353.035
353.722
355.524
349.321
349.61
350.28
352.393
353.3
354.581
361.962
344.16
340.675
337.004
338.341
344.009
345.068
353.031
350.358
348.78
346.902
343.986
342.046
345.994
347.307
356.302
354.893
354.043
352.671
351.452
351.381
352.236
352.65
353.6
353.209
353.753
353.208
351.35
350.789
342.962
348.603
349.54
351.822
349.506
347.308
340.56
350.022
351.938
352.621
353.359
353.196
353.915
352.832
349.775
351.067
352.225
353.285
353.88
355.116
358.124
346.228
344.914
342.396
342.691
344.485
348.052
350.037
351.683
350.157
349.067
347.885
348.27
347.635
347.295
356.485
355.576
354.931
354.309
353.752
352.945
351.398
352.077
353.57
353.215
353.813
353.491
352.592
349.745
344.703
350.173
350.691
353.028
351.326
350.138
342.118
349.897
351.477
352.549
353.145
353.167
353.827
352.348
349.858
351.274
352.519
352.651
352.939
355.02
356.843
346.69
346.938
347.19
347.551
347.578
349.159
351.119
356.62
353.358
351.741
350.755
349.447
348.202
348.257
357.823
355.273
353.141
353.698
353.587
352.889
350.968
353.954
354.129
353.273
353.573
353.407
353.125
350.96
348.215
352.161
352.009
353.748
352.77
352.33
346.349
351.331
352.27
352.465
353.257
353.475
354.061
352.707
350.196
350.57
351.876
352.409
353.459
355.31
356.711
346.638
346.913
347.389
350.242
351.284
353.899
355.156
320.641
319.817
319.446
320.297
322.653
328.172
341.38
342.159
341.747
341.491
341.446
341.754
345.316
347.964
351.481
351.932
358.396
358.833
358.695
358.646
358.804
342.431
354.938
357.985
358.226
357.915
357.463
356.685
355.22
355.508
355.617
355.842
355.859
356.111
357.225
342.358
342.021
342.696
344.856
345.88
348.537
351.695
331.548
329.424
328.491
331.201
333.269
338.363
347.995
329.717
328.292
328.635
328.254
331.497
336.54
339.568
343.724
343.389
343.502
342.729
342.792
343.658
346.768
351.697
351.403
351.636
357.874
358.299
358.292
358.396
342.216
349.45
353.724
356.484
356.826
356.671
356.114
357.342
357.121
356.75
356.235
356.194
356.275
356.592
352.127
350.501
350.883
350.144
350.206
350.867
352.839
346.728
344.562
344.229
344.512
345.114
346.47
350.339
340.177
340.585
340.633
340.336
338.991
341.22
341.838
346.977
346.486
346.598
345.812
345.475
345.949
346.859
351.702
351.36
351.438
355.196
357.492
357.177
356.851
341.716
345.67
349.186
352.856
354.819
354.791
354.588
357.926
359.224
360.502
359.824
359.156
358.757
358.08
361.329
361.911
361.723
360.454
359.228
357.104
356.857
358.773
362.081
361.786
361.708
359.171
355.767
350.704
346.33
346.707
346.775
346.704
346.195
343.667
342.905
350.036
349.879
349.836
349.462
348.825
348.523
348.487
351.599
351.516
351.501
352.079
356.231
356.042
355.482
341.542
344.181
346.459
347.261
348.956
350.005
350.663
355.797
356.262
357.723
358.464
358.565
358.878
359.07
362.445
362.802
363.027
363.513
363.969
363.369
362.12
359.059
360.991
362.045
361.996
362.437
362.83
356.857
347.379
347.266
347.407
347.446
347.481
347.474
344.826
351.7
351.736
351.884
351.824
351.651
351.243
349.591
351.095
351.261
351.222
351.232
351.975
354.763
355.4
340.881
341.493
342.696
343.342
343.578
344.238
345.828
352.535
352.792
353.139
353.796
354.504
355.294
357.252
360.148
360.121
360.043
360.728
362.602
364.058
364.245
351.036
352.696
354.152
357.468
360.714
363.638
359.224
347.693
348.074
348.315
348.453
348.498
347.808
347.347
351.098
350.882
350.512
350.157
349.914
349.414
349.057
349.94
350.314
350.505
350.501
350.583
350.863
350.465
341.374
341.312
341.442
341.379
341.315
340.849
340.174
351.033
351.17
351.598
351.49
351.349
350.82
351.488
357.225
357.364
357.454
358.341
359.001
359.419
360.507
351.296
351.655
352.847
355.97
358.948
361.746
359.544
348.443
348.671
348.908
349.072
349.047
348.108
348.317
350.713
350.376
350.131
349.341
348.803
348.047
347.108
349.903
349.766
349.477
349.092
347.805
346.99
345.637
345.743
344.61
344.254
343.426
342.557
340.943
336.915
353.031
352.854
352.492
351.548
350.776
348.475
346.352
356.736
356.706
356.735
357.238
357.456
357.406
356.427
354.744
354.76
355.906
358.294
358.643
359.054
356.194
348.738
343.749
337.24
335.588
333.102
333.814
334.678
352.494
350.467
348.807
348.015
346.003
345.607
345.185
357.51
356.38
355.845
354.651
354.034
353.693
353.727
356.379
356.899
357.24
357.198
356.491
353.779
341.281
358.233
358.097
358.229
358.337
354.725
346.359
345.259
345.813
342.879
341.536
341.547
342.155
342.238
342.834
340.27
328.969
320.136
318.548
318.124
317.558
318.076
353.3
351.267
348.435
349.297
348.467
348.697
350.286
353.929
353.39
353.285
353.55
353.774
352.984
353.986
357.045
356.685
356.768
356.978
357.156
357.232
357.32
355.929
356.66
356.861
356.764
354.653
347.357
341.641
357.114
357.212
357.691
357.811
355.76
345.925
345.508
344.83
341.962
340.912
340.376
340.262
340.485
341.447
339.63
335.015
327.855
325.275
325.076
324.503
325.874
354.744
357.303
362.671
365.131
364.189
363.672
359.678
359.525
360.014
362.096
364.114
364.152
363.969
361.897
358.93
359.415
360.419
361.627
361.52
357.936
356.901
354.9
355.164
355.295
353.609
348.737
343.752
341.74
356.551
356.719
357.49
357.799
352.266
345.436
345.639
346.14
344.063
343.483
343.399
343.95
344.002
344.48
342.116
338.914
336.917
336.889
337.048
337.295
337.222
357.081
364.631
364.594
362.164
359.416
358.386
357.908
363.981
364.843
363.369
361.241
359.599
358.986
358.884
360.174
359.467
359.223
358.452
356.575
354.957
354.468
350.804
350.579
349.495
346.997
344.436
343.387
342.244
355.33
355.385
356.226
355.188
346.508
345.4
346.716
348.353
348.08
347.975
347.984
348.35
348.379
348.66
343.834
344.682
346.831
346.744
346.319
345.888
345.425
360.435
365.481
363.09
358.734
355.236
353.913
352.64
364.816
362.527
361.408
359.019
357.974
357.755
356.9
357.107
355.092
354.32
353.608
352.228
351.349
350.972
346.083
344.498
343.825
343.419
343.288
342.889
342.716
354.737
354.554
351.739
346.974
345.686
346.166
348.345
346.313
347.422
348.395
348.67
348.713
348.707
349.37
344.217
348.116
348.237
347.62
347.119
346.779
346.595
360.968
364.463
360.539
358.686
355.007
353.649
353.219
362.086
359.775
358.984
358.473
357.594
357.399
356.901
352.535
352.11
352.435
352.509
352.514
351.867
351.692
340.208
340.819
342.205
342.704
343.308
343.545
344.236
347.278
346.229
345.616
345.6
346.162
347.724
348.622
346.388
346.732
346.862
347.637
348.397
349.039
349.268
347.377
348.171
348.534
348.22
347.616
347.327
346.934
359.324
361.224
361.697
358.454
358.11
357.666
357.26
359.534
359.934
359.282
357.855
357.779
357.973
358.041
349.191
351.443
352.507
353.375
353.722
354.323
354.524
336.919
342.237
344.168
345.303
346.718
347.237
348.148
341.314
344.648
345.875
347.758
349.384
350.477
351.048
347.175
348.37
348.907
349.409
349.768
349.888
349.916
347.508
348.348
348.554
348.48
347.816
347.341
347.008
365.123
363.19
363.655
361.369
356.635
355.038
352.832
363.755
359.718
359.916
358.792
357.195
355.837
354.382
362.479
360.358
360.177
359.791
359.022
358.867
358.618
358.616
357.81
357.015
356.361
355.736
355.555
356.034
364.102
361.665
361.402
360.734
359.329
358.696
358.488
366.324
361.303
361.397
358.74
356.426
352.829
349.529
367.45
365.81
365.555
361.793
357.042
354.174
345.54
364.269
359.363
360.18
356.236
356.28
355.822
353.497
363.168
356.894
355.994
355.347
355.194
354.711
354.221
361.998
359.622
358.73
358.076
357.84
357.599
357.284
357.757
357.441
355.998
355.362
355.038
354.99
355.568
363.39
359.633
358.216
357.708
357.409
356.971
357.155
365.135
354.753
352.662
352.448
350.908
349.911
348.035
364.843
360.652
362.497
358.177
355.151
353.609
346.479
358.221
356.949
358.177
354.339
355.845
355.062
350.915
352.487
350.875
352.42
354.219
356.793
357.389
358.123
358.818
357.34
357.567
357.26
357.543
357.851
358.438
357.742
356.765
355.246
354.195
353.698
353.66
354.326
359.931
357.519
356.468
355.413
355.091
355.466
356.488
353.713
349.495
349.105
348.508
349.116
348.645
347.326
359.237
353.018
353.642
349.035
347.91
346.622
342.322
357.348
352.62
351.913
348.722
355.249
352.524
344.884
349.807
348.761
352.043
356.417
357.867
361.241
364.095
357.309
356.507
355.688
356.159
356.98
360.363
360.754
357.63
356.183
353.927
352.866
351.912
351.477
351.341
357.024
356.28
355.136
354.566
354.017
354.161
355.07
350.318
346.33
345.567
347.114
349.083
350.047
349.739
354.178
348.125
349.102
342.24
340.656
337.957
338.424
353.906
347.131
348.978
346.736
354.545
349.397
340.251
343.679
345.315
352.628
360.411
361.25
362.595
365.83
354.196
354.02
354.607
357.395
358.698
359.104
358.235
356.705
353.928
352.408
351.156
349.47
348.076
347.296
355.44
353.34
352.553
352.117
353.726
354.418
354.491
346.66
340.674
343.35
343.774
350.982
351.603
350.222
348.818
337.661
342.032
333.147
335.348
332.643
333.108
347.239
343.315
346.547
343.176
349.905
345.407
334.969
339.949
343.613
356.212
362.485
362.354
363.565
362.573
352.642
352.779
352.516
356.091
356.09
351.905
351.705
354.581
352.971
350.653
346.632
341.189
339.257
339.079
352.75
351.724
351.053
350.505
351.02
351.262
349.777
340.621
336.462
339.861
340.741
354.466
349.403
346.738
343.74
334.538
336.095
328.66
329.951
329.133
331.726
342.561
336.496
341.995
339.659
346.068
339.672
333.457
335.444
340.257
357.686
362.355
359.602
360.39
361.213
348.665
348.95
350.272
350.696
348.938
348.862
348.677
352.536
345.79
341.206
337.299
335.67
334.978
334.882
351.388
347.827
347.163
346.767
345.903
341.651
339.833
337.503
333.959
336.39
339.209
354.917
350.201
346.869
337.738
333.216
335.066
328.565
329.056
328.584
330.413
334.114
329.492
334.748
336.213
337.119
333.657
330.316
330.905
337.471
342.914
354.371
335.882
343.908
337.518
342.638
342.882
340.252
343.407
342.279
338.566
332.296
333.744
335.665
337.06
335.537
334.236
329.866
323.819
338.009
338.914
338.244
336.664
335.314
331.089
325.674
323.556
329.247
327.608
330.802
331.442
332.965
335.123
330.966
330.548
331.547
327.043
325.027
327.155
327.328
308.974
308.48
308.919
305.811
318.853
308.267
308.037
320.852
326.44
341.049
345.28
341.286
335.272
318.92
335.681
335.262
331.954
330.874
330.724
331.472
332.629
328.647
328.868
328.015
328.818
328.323
326.925
323.337
331.651
331.324
330.023
330.726
330.866
328.826
324.437
314.452
318.73
318.681
318.886
318.953
320.48
320.251
301.03
297.82
298.663
301.431
299.718
301.565
301.314
296.087
296.463
296.394
297.013
296.57
296.699
296.581
314.8
313.953
313.836
314.891
314.777
314.333
314.247
329.971
332.643
330.074
329.63
329.631
328.13
330.04
319.255
320.496
320.104
321.299
322.615
322.443
319.54
326.289
328.599
326.568
323.662
323.482
323.257
321.119
308.951
307.64
309.157
310.122
311.696
311.77
310.248
285.837
285.591
285.559
285.701
286.755
286.663
287.404
287.598
287.561
287.41
288.716
287.632
288.651
288.054
310.051
309.261
307.741
310.553
307.439
309.396
307.094
327.662
325.364
324.944
325.163
326.28
324.655
327.301
316.118
315.718
315.742
317.23
318.489
317.795
314.449
320.731
320.725
320.633
318.045
317.866
318.45
313.362
305.058
304.399
303.541
305.726
306.69
306.939
306.111
277.89
278.676
277.59
279.205
277.683
278.883
279.126
280.705
280.669
281.083
281.337
281.033
280.828
280.762
303.963
304.236
303.898
305.341
304.3
304.296
303.853
321.275
320.271
319.125
319.071
320.197
320.827
321.02
310.122
309.49
309.862
311.114
312.436
312.247
308.932
318.861
318.719
318.556
316.323
315.512
316.116
312.424
301.931
301.7
301.886
301.894
303.197
304.139
301.663
276.635
276.698
276.551
276.7
276.606
276.804
276.703
280.023
279.997
280.027
280.292
279.981
280.294
279.994
303.07
303.18
302.858
302.945
303.119
303.037
302.835
320.42
320.174
318.834
318.48
320.133
321.685
320.613
307.605
306.679
306.989
308.187
309.727
309.971
307
318.746
318.427
318.218
316.332
315.022
315.69
313.341
302.297
302.341
302.501
302.472
303.031
303.641
302.405
277.579
277.786
277.612
277.933
278.078
278.844
278.046
292.529
292.529
292.529
291.9
292.528
291.898
292.53
305.145
305.168
305.07
305.067
305.191
305.087
305.07
313.753
314.538
313.333
312.737
315.302
316.918
314.638
291.979
291.179
291.48
292.614
294.46
295.153
293.55
311.653
311.002
310.556
309.264
307.694
308.538
306.537
305.493
305.385
305.489
305.399
305.448
305.536
305.399
292.548
291.938
292.547
291.932
291.925
291.918
291.918
345.885
351.8
357.121
360.096
361.419
363.102
362.543
349.861
353.275
354.854
356.476
356.988
357.713
356.765
358.894
358.788
358.64
358.967
359.014
359.126
358.796
356.132
355.7
355.779
356.367
357.183
358.232
359.06
357.629
358.324
359.172
360.078
360.545
360.94
362.737
353.725
355.653
358.574
359.542
361.187
360.871
364.263
351.413
355.4
360.187
362.249
364.951
365.179
366.299
345.861
350.484
355.631
359.342
361.307
363.928
360.704
349.345
351.148
353.408
354.17
354.717
353.681
354.414
358.056
357.623
357.478
357.567
357.73
357.713
358.117
355.448
354.82
354.602
354.916
355.738
357.636
359.262
357.067
357.286
357.537
357.84
358.205
359.613
362.615
353.821
355.126
355.884
356.099
355.95
356.478
364.626
352.516
355.612
356.769
359.261
363.344
363.389
367.03
341.289
344.034
350.455
354.088
356.497
358.139
357.945
348.851
349.511
350.237
350.961
351.428
349.652
347.614
356.908
356.55
356.631
356.867
356.865
356.466
355.595
354.033
353.668
353.845
354.416
355.158
356.601
358.707
357.945
357.647
357.649
357.563
357.757
358.612
359.964
356.931
356.768
356.487
355.408
353.604
353.175
352.752
348.895
354.064
354.587
355.123
358.322
357.984
358.078
337.654
337.758
344.555
350.128
348.309
352.931
353.26
349.195
349.092
348.216
348.526
350.273
345.926
344.049
355.04
354.375
354.24
354.501
355.329
354.286
352.865
350.698
350.902
351.641
353.401
354.703
356.411
358.403
359.898
359.063
357.983
356.81
356.415
357.426
357.696
361.459
359.474
359.608
357.407
352.681
348.871
350.36
344.857
351.63
348.619
348.501
355.702
352.509
357.606
333.277
329.844
337.199
341.93
342.744
347.959
345.462
350.865
350.53
347.411
341.912
347.366
340.638
339.765
354.608
354.028
353.027
352.619
353.511
350.96
350.696
346.966
347.416
348.456
350.64
352.347
354.586
356.569
357.951
358.663
358.761
357.773
355.403
354.908
354.568
362.694
360.675
360.952
361.188
354.65
347.137
345.364
339.196
351.041
345.593
339.694
348.079
347.919
354.998
333.35
327.569
333.891
336.651
337.682
343.866
341.653
348.981
350.782
347.79
339.981
341.306
338.738
337.577
350.628
351.312
350.366
348.657
351.484
349.492
349.49
338.817
338.922
340.702
346.224
350.725
353.647
355.219
350.628
351.422
355.906
355.561
353.331
353.701
352.903
361.837
361.505
361.307
362.584
356.522
344.648
340.345
335.874
347.967
341.142
334.952
344.848
338.088
347.766
334.677
326.959
327.998
331.311
328.768
337.354
336.371
347.561
349.584
345.072
337.125
336.225
332.343
333.425
343.264
344.156
346.575
346.059
347.111
345.572
346.63
333.923
334.117
335.097
336.89
341.173
346.149
353.21
345.971
345.517
348.06
350.253
350.646
349.656
349.241
356.977
356.199
357.324
361.998
357.235
337.912
335.511
333.002
345.176
337.461
332.377
339.493
333.877
342.364
330.077
325.374
323.678
324.418
324.191
328.588
332.617
334.334
330.298
330.757
329.956
328.239
322.622
326.589
326.013
333.863
336.705
336.095
336.756
336.932
335.251
322.786
332.161
333.879
334.856
336.462
337.579
334.751
329.339
337.464
340.078
339.645
337.67
341.86
343.011
337.875
332.77
341.439
344.908
332.425
328.791
330.297
330.617
342.714
334.34
329.743
333.568
329.499
334.561
300.388
300.087
299.645
293.448
300.721
293.582
304.138
317.152
318.139
317.142
318.246
314.927
315.987
314.474
326.013
330.169
330.824
330.973
330.556
327.976
329.399
323.419
327.472
328.042
327.687
326.959
326.977
326.544
330.981
330.123
327.896
329.136
330.621
333.205
333.112
325.663
342.494
342.824
339.199
324.209
321.029
319.977
304.993
307.729
305.976
299.978
304.526
306.335
308.544
286.697
286.229
285.539
285.675
285.338
285.079
285.145
311.025
311.335
309.121
310.504
310.064
308.482
308.787
323.43
327.565
326.952
323.435
322.834
324.683
326.583
320.963
322.347
320.225
318.393
317.824
318.494
322.002
328.531
329.804
327.125
327.027
327.501
330.181
330.602
314.253
314.982
314.45
313.539
312.539
312.347
313.562
294.368
294.453
293.991
292.968
293.146
293.458
294.398
278.777
277.474
278.362
277.829
278.55
277.596
278.583
306.154
306.888
306.412
305.662
305.196
303.737
303.496
317.894
320.951
317.716
318.519
318.003
318.955
319.11
315.155
317.809
316.43
314.088
313.383
313.626
313.499
326.276
326.836
322.544
320.151
322.221
322.939
324.89
305.884
306.425
309.113
309.074
308.572
307.223
305.679
285.915
285.854
285.649
285.756
284.987
284.604
283.679
276.607
276.349
276.336
276.494
276.486
276.469
276.544
301.78
302.146
301.985
301.813
301.56
301.442
301.466
315.026
316.96
316.4
317.154
316.734
317.408
318.031
311.919
313.498
312.809
310.355
309.524
309.086
311.761
323.795
323.492
320.16
318.209
321.121
321.887
322.562
303.732
303.888
303.884
303.545
303.505
303.604
303.415
280.538
280.37
280.446
280.145
280.084
279.909
280.052
277.657
277.351
277.347
277.583
277.577
277.57
277.619
302.506
302.69
302.625
302.553
302.462
302.123
302.108
315.066
316.939
317.049
317.29
317.071
317.521
318.312
310.582
311.55
310.787
308.309
307.531
306.772
305.691
324.594
323.771
321.013
319.322
321.93
322.247
322.194
302.78
302.744
302.783
302.993
303
303.157
303.073
280.468
280.33
280.474