/*--------------------------------*- C++ -*----------------------------------*\
  =========                 |
  \\      /  F ield         | OpenFOAM: The Open Source CFD Toolbox
   \\    /   O peration     | Website:  https://openfoam.org
    \\  /    A nd           | Version:  6
     \\/     M anipulation  |
\*---------------------------------------------------------------------------*/
FoamFile
{
    version     2.0;
    format      ascii;
    class       volVectorField;
    location    "0.0075";
    object      U;
}
// * * * * * * * * * * * * * * * * * * * * * * * * * * * * * * * * * * * * * //

dimensions      [0 1 -1 0 0 0 0];

internalField   nonuniform List<vector> 
3773
(
(35.1775 -0.0337064 0.383196)
(34.6189 0.020009 0.372543)
(34.6078 0.0166791 0.3622)
(34.6703 -0.00294031 0.36403)
(34.6996 -0.0143151 0.367962)
(34.7767 -0.0202049 0.375171)
(35.3631 0.0274973 0.39118)
(10.0363 0.0147849 -0.0469483)
(10.0015 -0.0473731 -0.0409477)
(10.0214 -0.0367287 -0.0250871)
(10.0065 -0.00784729 -0.0264473)
(9.98508 -0.00399522 -0.0270811)
(9.99459 0.0162862 -0.0102111)
(10.0233 -0.0130586 -0.00643877)
(4.02851 0.031727 0.0388068)
(4.01876 -0.00994155 0.0431815)
(4.01956 -0.0233748 0.0535294)
(4.01913 0.0161266 0.0507499)
(4.01889 0.0254204 0.0525618)
(4.01936 0.0144705 0.0658453)
(4.02844 -0.0125418 0.0569099)
(-2.23945e-05 0.00716528 0.0511237)
(-3.60425e-05 0.015843 0.0517304)
(-3.91895e-05 0.0185762 0.0509327)
(-7.35307e-06 -0.00435339 0.0509663)
(-6.06743e-06 -0.0215923 0.0482653)
(1.53397e-05 -0.0236046 0.0407716)
(-4.92247e-05 -0.0152497 0.0434989)
(-4.02979 0.0262877 0.0410508)
(-4.02353 -0.0155917 0.0430986)
(-4.02085 -0.0287692 0.0477499)
(-4.02022 0.00786395 0.0480646)
(-4.01988 0.0179821 0.0486055)
(-4.02031 0.0123497 0.0601435)
(-4.02943 -0.0101351 0.0514034)
(-10.0312 0.0136237 -0.058426)
(-10.0247 -0.0439673 -0.0470242)
(-10.0143 -0.0216284 -0.0298573)
(-9.99757 0.0101239 -0.0299551)
(-9.98932 0.0150552 -0.0301376)
(-10.0025 0.0365177 -0.0119049)
(-10.0288 -0.00426008 -0.0076821)
(-35.4252 -0.025617 0.393943)
(-34.9966 0.0196176 0.3856)
(-34.9093 0.0184416 0.380157)
(-34.8732 0.00516074 0.377216)
(-34.8135 -0.0101954 0.373647)
(-34.8356 -0.0217008 0.382383)
(-35.4794 0.0211268 0.405514)
(28.104 -0.055135 0.796875)
(27.498 0.0223266 0.795695)
(27.4257 0.0285875 0.782057)
(27.5033 0.015526 0.783096)
(27.6428 0.00813355 0.772761)
(27.7792 -0.00710292 0.759914)
(28.2341 0.047156 0.782697)
(8.51501 0.00457745 -0.144993)
(8.6305 -0.0541152 -0.136197)
(8.64748 -0.0431057 -0.106999)
(8.64023 -0.000452812 -0.113226)
(8.62712 0.0172526 -0.123703)
(8.64085 0.0365595 -0.100314)
(8.54893 0.0013147 -0.107273)
(3.6375 0.0379809 0.0257644)
(3.61827 -0.00786557 0.028491)
(3.62554 -0.0273781 0.0533307)
(3.62458 0.0168149 0.0462003)
(3.62486 0.0374693 0.0448696)
(3.62726 0.0233428 0.0656112)
(3.63701 -0.016106 0.0461758)
(-1.71984e-05 0.00808583 0.0394279)
(-3.40037e-05 0.0202189 0.037057)
(-2.30951e-05 0.0233526 0.0337352)
(-3.15041e-06 -0.00766451 0.0349719)
(-1.67922e-05 -0.03057 0.0299398)
(-6.25013e-06 -0.0290874 0.0185766)
(-4.63176e-05 -0.0163954 0.0259429)
(-3.64066 0.0309958 0.0238868)
(-3.6302 -0.018796 0.0252988)
(-3.62948 -0.0340102 0.0402375)
(-3.62731 0.00991116 0.0389254)
(-3.62521 0.0294001 0.0382384)
(-3.62772 0.0202028 0.0556212)
(-3.64086 -0.0134522 0.0382763)
(-8.53819 0.0110009 -0.162745)
(-8.51506 -0.0493617 -0.141667)
(-8.64325 -0.033752 -0.122565)
(-8.63334 0.0108534 -0.129414)
(-8.63042 0.0296301 -0.127347)
(-8.65106 0.0520025 -0.0994099)
(-8.54216 0.00651997 -0.10927)
(-28.394 -0.0376856 0.809034)
(-27.8703 0.018203 0.794234)
(-27.8759 0.00782408 0.793965)
(-27.9106 -0.00130833 0.778804)
(-27.7377 -0.011047 0.791769)
(-27.801 -0.0261613 0.782886)
(-28.3647 0.0312672 0.80698)
(25.3327 -0.0770536 0.884012)
(25.0258 0.000804749 0.845167)
(24.9185 0.0264104 0.819367)
(24.9251 0.0347717 0.822015)
(25.0596 0.0288806 0.848878)
(25.1794 0.013532 0.874503)
(25.3775 0.070758 0.89945)
(8.25971 -0.00483311 -0.0516553)
(8.43128 -0.0442053 -0.0628237)
(8.43463 -0.0346202 -0.0461851)
(8.38005 -0.00426632 -0.0505729)
(8.34216 0.0186749 -0.0582333)
(8.37347 0.0345569 -0.0493697)
(8.26251 0.00678994 -0.0665971)
(3.62236 0.0367274 0.0591789)
(3.58449 -0.00522681 0.0470916)
(3.59751 -0.0250415 0.0762907)
(3.61072 0.0130483 0.0649073)
(3.60432 0.0393668 0.0585984)
(3.57836 0.0251277 0.0689041)
(3.61771 -0.0198619 0.0479969)
(-1.76359e-05 0.00849684 0.0415756)
(-4.13252e-05 0.017566 0.0395657)
(-1.56076e-05 0.0208271 0.028625)
(-4.28885e-07 -0.00822618 0.0266748)
(-3.50779e-05 -0.0333823 0.0223828)
(-2.15767e-05 -0.0279221 0.0238305)
(-4.5546e-05 -0.0153951 0.0348057)
(-3.62062 0.0302291 0.0513646)
(-3.59144 -0.0177029 0.0433629)
(-3.5909 -0.0330999 0.0610656)
(-3.59849 0.00826858 0.0556808)
(-3.60826 0.0312301 0.0520353)
(-3.59276 0.0203911 0.0598392)
(-3.61859 -0.0167499 0.043672)
(-8.27056 0.00105969 -0.0572981)
(-8.33874 -0.0431968 -0.0578705)
(-8.39537 -0.0307038 -0.0489992)
(-8.29091 0.00323012 -0.04081)
(-8.38559 0.0298739 -0.0668382)
(-8.39638 0.0455785 -0.0477356)
(-8.27124 0.00801153 -0.0692627)
(-25.4419 -0.0580382 0.926581)
(-25.1959 -0.00275793 0.901376)
(-25.1092 -0.0083486 0.873575)
(-25.0578 -0.00994755 0.886792)
(-25.0341 -0.0131559 0.861525)
(-25.1761 -0.0126122 0.885836)
(-25.4263 0.0528852 0.933063)
(24.6155 -0.086266 0.615973)
(24.7728 -0.000551749 0.614305)
(24.6972 0.0252393 0.603911)
(24.6847 0.0340757 0.599319)
(24.5723 0.0314176 0.606592)
(24.5444 0.0189897 0.618271)
(24.6222 0.0809476 0.62883)
(8.24819 -0.00215812 -0.0279175)
(8.50434 -0.0334235 -0.0504934)
(8.50256 -0.0337298 -0.0310217)
(8.46738 -0.0138326 -0.0361464)
(8.34244 0.011378 -0.0339312)
(8.3436 0.027707 -0.0314922)
(8.24423 0.00460565 -0.0438886)
(3.62054 0.0336928 0.0601354)
(3.58612 -0.00163123 0.0450519)
(3.5871 -0.0213592 0.0767668)
(3.59478 0.00955934 0.0685525)
(3.6021 0.0401679 0.0634947)
(3.57619 0.0226462 0.0632414)
(3.61733 -0.0227847 0.0501953)
(-2.30256e-05 0.0107666 0.04833)
(-4.53565e-05 0.0162841 0.0451147)
(-1.99558e-05 0.0158805 0.0315311)
(-8.05774e-06 -0.00978853 0.0244474)
(-5.42819e-05 -0.0314422 0.0254372)
(-4.3097e-05 -0.0244343 0.0403886)
(-4.62318e-05 -0.0142299 0.0484232)
(-3.61914 0.0281085 0.0530048)
(-3.57538 -0.0146155 0.0436702)
(-3.60442 -0.029787 0.0666778)
(-3.61961 0.00674201 0.0590139)
(-3.60543 0.0333192 0.0541047)
(-3.58175 0.0200094 0.0586382)
(-3.61715 -0.019689 0.044779)
(-8.24888 -0.000648602 -0.0341322)
(-8.35739 -0.0348902 -0.0392747)
(-8.37204 -0.024761 -0.0237303)
(-8.28833 0.000857701 -0.0295882)
(-8.40182 0.0300701 -0.0423828)
(-8.40586 0.0382078 -0.0295923)
(-8.25103 0.00295024 -0.0451008)
(-24.626 -0.0721167 0.651555)
(-24.5567 -0.00892671 0.644074)
(-24.6078 -0.00750959 0.626615)
(-24.3554 -0.0148679 0.598069)
(-24.6317 -0.0146488 0.629805)
(-24.6373 -0.00686927 0.630459)
(-24.6349 0.066638 0.657458)
(24.4974 -0.0814228 0.403399)
(24.6441 -0.000156834 0.440599)
(24.62 0.0238739 0.427097)
(24.5986 0.0294649 0.41)
(24.4722 0.0328346 0.385937)
(24.429 0.0226261 0.398507)
(24.4925 0.0829786 0.401411)
(8.25219 0.00129536 0.0158869)
(8.46363 -0.0285857 -0.00478282)
(8.44723 -0.0308406 0.00784969)
(8.44191 -0.0172703 0.00920302)
(8.37264 0.00927524 0.0103881)
(8.3746 0.0241713 0.0142277)
(8.25528 2.75512e-05 0.00481522)
(3.62183 0.030559 0.0649826)
(3.583 0.00131249 0.0540865)
(3.58027 -0.0171412 0.078891)
(3.59073 0.00804471 0.0709814)
(3.58505 0.0399429 0.0701205)
(3.56606 0.0193754 0.0679359)
(3.62151 -0.0240062 0.060473)
(-3.06086e-05 0.0092161 0.0556799)
(-4.51447e-05 0.0123241 0.0451054)
(-2.37243e-05 0.0110309 0.035062)
(-2.03992e-05 -0.00984577 0.0285454)
(-6.9061e-05 -0.0245347 0.0351904)
(-6.19353e-05 -0.0191278 0.0502453)
(-5.28746e-05 -0.0120432 0.0532605)
(-3.62067 0.0258535 0.060518)
(-3.57618 -0.0112059 0.0548352)
(-3.59337 -0.026869 0.0793488)
(-3.60499 0.00383679 0.0722836)
(-3.59941 0.0322772 0.0591671)
(-3.57646 0.0172893 0.0634531)
(-3.62091 -0.0219964 0.0542604)
(-8.25895 0.00123598 0.0076908)
(-8.38698 -0.0280823 -0.00489505)
(-8.37419 -0.021203 0.0252796)
(-8.37208 -0.000566595 0.00539948)
(-8.38171 0.0270355 0.00826452)
(-8.40027 0.0338409 0.0166259)
(-8.25905 -0.00261477 0.00521914)
(-24.4994 -0.0727514 0.417954)
(-24.4515 -0.0118797 0.420805)
(-24.4871 -0.00908562 0.40761)
(-24.363 -0.0128185 0.413081)
(-24.5586 -0.0148386 0.410139)
(-24.4706 -0.00277333 0.410991)
(-24.497 0.0712385 0.424385)
(24.5123 -0.0720562 0.20221)
(24.5738 0.00884787 0.240283)
(24.4068 0.0198351 0.24852)
(24.5962 0.0200883 0.22483)
(24.5402 0.0243275 0.201068)
(24.4719 0.0230628 0.205051)
(24.5026 0.0831572 0.196891)
(8.32243 0.00129994 0.0529454)
(8.47033 -0.0295202 0.0471147)
(8.49586 -0.0249455 0.0633449)
(8.49278 -0.0155723 0.0679841)
(8.45923 0.00276791 0.0709203)
(8.45729 0.0202962 0.0775227)
(8.31258 -0.00436141 0.065789)
(3.62969 0.0286813 0.0850367)
(3.5801 0.00477043 0.0740873)
(3.58221 -0.0142546 0.0932868)
(3.57488 0.00614581 0.0881772)
(3.57299 0.0381603 0.0890391)
(3.56941 0.0175342 0.0882559)
(3.62619 -0.0256646 0.0837511)
(-3.34067e-05 0.00525324 0.0539919)
(-4.52935e-05 0.00676715 0.0485515)
(-2.92206e-05 0.00868823 0.0415903)
(-2.89225e-05 -0.00896041 0.0378827)
(-8.45983e-05 -0.021482 0.0433862)
(-8.78211e-05 -0.0176932 0.0457292)
(-6.81922e-05 -0.0105987 0.050787)
(-3.62736 0.0250382 0.0791487)
(-3.58257 -0.00653273 0.0687427)
(-3.57844 -0.0230354 0.0946318)
(-3.58042 -0.00141768 0.0912685)
(-3.57831 0.0284306 0.0808205)
(-3.58547 0.0150803 0.0857225)
(-3.62693 -0.0234601 0.0815722)
(-8.32792 -6.00719e-05 0.0476065)
(-8.47835 -0.0215877 0.0470433)
(-8.46389 -0.0158254 0.0757394)
(-8.49792 -0.00286176 0.0663122)
(-8.49804 0.0303747 0.0682938)
(-8.43991 0.0308508 0.0742545)
(-8.32082 -0.00675383 0.0600581)
(-24.5173 -0.070138 0.213096)
(-24.3932 -0.0115879 0.238089)
(-24.4945 -0.0102444 0.209722)
(-24.3519 -0.00901516 0.223342)
(-24.6474 -0.0165884 0.228871)
(-24.4897 -0.0056787 0.210852)
(-24.5076 0.073554 0.21083)
(24.1931 -0.0740208 0.200111)
(23.9535 0.0140883 0.219383)
(24.1131 0.0190029 0.222973)
(24.2031 0.0171697 0.216292)
(24.1907 0.0249962 0.202874)
(24.1949 0.0277754 0.211514)
(24.2015 0.0864968 0.20095)
(8.34827 0.000868712 0.013844)
(8.41186 -0.0259667 0.018749)
(8.3489 -0.0193392 0.0372357)
(8.36573 -0.0125039 0.0351387)
(8.36936 0.00792496 0.0360159)
(8.38441 0.0247574 0.0472138)
(8.34904 -0.00566302 0.0366267)
(3.59519 0.0296141 0.0357195)
(3.59814 0.00611115 0.02351)
(3.58275 -0.0122244 0.036272)
(3.58836 0.0067564 0.0364643)
(3.57932 0.0437292 0.0361548)
(3.59014 0.0197403 0.0365272)
(3.58454 -0.030697 0.034486)
(-3.24601e-05 0.00626634 0.000181174)
(-4.76935e-05 0.00582424 0.00110024)
(-3.6186e-05 0.00753603 -0.00361738)
(-3.12813e-05 -0.00994576 -0.00508982)
(-0.000100623 -0.0251618 -0.00270483)
(-0.000104863 -0.0195697 -0.00557027)
(-7.98791e-05 -0.0121393 -0.00163248)
(-3.595 0.0243417 0.0290388)
(-3.63948 -0.00671974 0.0142588)
(-3.59176 -0.0205529 0.0348547)
(-3.58235 -0.00221424 0.0332373)
(-3.65037 0.0349954 0.0315498)
(-3.59463 0.020448 0.0373975)
(-3.5854 -0.0279536 0.0357568)
(-8.36058 0.00122393 0.0114476)
(-8.14617 -0.020256 0.0308702)
(-8.38389 -0.0132336 0.0372044)
(-8.37063 -0.00465666 0.0358186)
(-8.2131 0.0311453 0.0372924)
(-8.38444 0.0302278 0.0385703)
(-8.35581 -0.00919198 0.0265584)
(-24.2248 -0.0697237 0.209649)
(-24.0691 -0.0164906 0.233273)
(-24.1995 -0.0161543 0.212285)
(-24.1366 -0.00838214 0.217246)
(-23.9479 -0.0224631 0.220933)
(-24.2073 -0.00871999 0.208308)
(-24.2135 0.0796559 0.205603)
(34.3173 -21.6724 -13.8045)
(36.0065 -14.5879 -40.0076)
(36.1941 -10.0939 -45.8166)
(35.989 -3.03142 -46.4753)
(35.5425 4.86512 -48.0836)
(35.0091 13.6409 -42.5589)
(34.0231 23.5988 -11.3744)
(8.66725 -16.8595 -1.59073)
(9.32502 -16.3597 -25.4535)
(9.45397 -6.18677 -31.1939)
(9.56766 1.31761 -33.0253)
(9.42429 6.61346 -30.463)
(9.30477 18.1207 -25.3618)
(8.70804 18.8954 -0.960223)
(3.20345 -4.23706 4.8087)
(3.36767 -5.05057 0.116181)
(3.42404 -2.54513 -3.19759)
(3.44829 0.866298 -4.34067)
(3.42693 3.6553 -2.65745)
(3.3828 6.13416 0.488109)
(3.22502 4.85713 5.04767)
(-0.00543114 0.272023 3.796)
(-0.00418877 1.23707 3.13998)
(-0.00312927 1.28992 2.85738)
(-0.00332711 -0.276647 2.85859)
(-0.00368221 -1.6239 2.85959)
(-0.00396806 -1.41661 3.20769)
(-0.00406145 -0.368573 3.83753)
(-3.24322 -5.88028 4.83065)
(-3.40174 -5.9178 -0.462047)
(-3.43883 -3.13936 -3.38192)
(-3.46087 -0.427858 -4.37784)
(-3.44328 3.37437 -3.64048)
(-3.39385 5.71161 -0.127718)
(-3.22238 5.07812 5.13567)
(-8.87045 -19.8698 -4.84811)
(-9.36953 -15.1874 -29.7605)
(-9.47832 -5.60046 -33.2415)
(-9.63491 -0.682897 -33.4803)
(-9.56024 8.40443 -32.9733)
(-9.47308 18.5851 -27.83)
(-8.86566 19.1069 -2.96943)
(-34.5198 -23.5489 -17.0696)
(-35.2337 -12.1585 -47.785)
(-35.7307 -4.67953 -52.7886)
(-36.3438 2.55629 -50.2568)
(-36.5604 12.9951 -48.8031)
(-36.364 17.3507 -40.5161)
(-34.9585 24.2683 -12.749)
(33.1943 -14.5487 10.6889)
(36.1746 -9.98263 -41.0846)
(36.294 -12.864 -55.9341)
(35.9626 -10.064 -62.5753)
(35.403 -3.84611 -63.9555)
(34.5413 -3.3493 -50.6987)
(32.9068 19.3562 13.1025)
(8.39365 -9.82538 17.2388)
(9.14272 -3.17103 -3.23233)
(9.51301 -1.99849 -17.7611)
(9.76847 3.42788 -27.5549)
(9.52378 5.78455 -18.6939)
(9.20475 5.75846 -5.41297)
(8.50039 13.0859 18.0616)
(3.25298 -1.03685 13.9164)
(3.40545 -0.249005 9.41653)
(3.50094 0.558881 7.43569)
(3.56134 1.25077 6.60249)
(3.52145 1.02229 8.08309)
(3.42565 1.51598 9.79244)
(3.27469 1.84648 14.8271)
(-0.00987591 0.717961 10.7162)
(-0.00902055 1.90041 9.92507)
(-0.00830961 1.76852 9.52966)
(-0.00727784 -0.249908 9.49104)
(-0.00667196 -2.16407 9.61326)
(-0.00616978 -2.19613 10.0525)
(-0.00459984 -0.845547 10.7783)
(-3.27781 -2.40918 16.4393)
(-3.44166 -1.56433 10.3558)
(-3.53062 -1.09565 8.73694)
(-3.56858 -1.18303 7.48224)
(-3.51728 -0.0965141 8.09238)
(-3.42715 0.456224 10.6004)
(-3.25764 1.40422 15.8823)
(-8.6238 -14.8156 18.3258)
(-9.27671 -5.12814 -6.03248)
(-9.57263 -5.97513 -17.4488)
(-9.79171 -3.83071 -26.1473)
(-9.5986 2.06405 -19.4907)
(-9.26388 3.56524 -1.92471)
(-8.52575 12.1583 19.5495)
(-33.5805 -19.7604 11.7872)
(-34.9255 1.39603 -53.9517)
(-35.8467 1.23785 -66.8617)
(-36.4184 5.8811 -67.8313)
(-36.6704 9.3192 -62.1835)
(-36.3944 8.43146 -42.7531)
(-33.88 17.2643 14.731)
(32.7822 -7.83651 9.56166)
(36.3603 -9.32063 -47.0769)
(36.2793 -13.0364 -62.8759)
(35.7658 -13.4001 -71.644)
(35.208 -12.753 -73.91)
(34.2477 -9.63338 -60.3701)
(30.7616 9.56013 19.2345)
(8.4167 -2.6511 16.9354)
(9.00746 0.682474 -5.26412)
(9.75977 8.7513 -26.7977)
(9.93988 6.46195 -32.2809)
(9.73382 7.3052 -19.3368)
(9.23175 2.84571 -4.73372)
(8.39763 4.91198 21.1103)
(3.31521 0.490546 16.0202)
(3.42438 2.07145 12.5344)
(3.55737 2.81999 11.547)
(3.62546 1.95768 10.441)
(3.58294 0.0908786 12.6968)
(3.45913 -0.484728 13.4714)
(3.32781 0.330083 17.935)
(-0.0127147 0.68414 15.6173)
(-0.0121224 1.75107 14.8616)
(-0.00882889 1.69669 14.5055)
(-0.00967547 -0.204189 14.3794)
(-0.00832353 -2.05108 14.5366)
(-0.00544362 -2.0368 15.0648)
(-0.00368883 -0.799932 15.8559)
(-3.31117 -0.49537 19.5322)
(-3.47093 0.512764 14.1704)
(-3.5838 0.00691438 13.7814)
(-3.62444 -1.85052 12.2364)
(-3.57234 -2.79083 12.5082)
(-3.43147 -2.30701 14.1053)
(-3.31136 -0.536872 18.0891)
(-8.44889 -5.75402 23.2361)
(-9.32357 -3.51922 -4.45084)
(-9.78422 -8.42771 -16.872)
(-9.94064 -8.31318 -30.2097)
(-9.79336 -9.77737 -30.3269)
(-8.98253 -1.06709 -1.54174)
(-8.44514 3.14425 20.7563)
(-31.3553 -10.3159 19.0695)
(-34.7624 6.89931 -62.026)
(-35.8902 8.9984 -77.9061)
(-36.4677 8.42216 -76.4073)
(-36.5915 10.921 -69.5314)
(-36.5363 7.24854 -50.3964)
(-32.9035 8.72995 14.9657)
(33.2742 -3.70905 0.354521)
(36.5811 -6.1848 -46.4576)
(36.4469 -15.3778 -63.5787)
(35.618 -22.2273 -72.3457)
(35.2562 -19.4311 -75.1552)
(34.5405 -17.468 -64.7818)
(32.2388 -1.75167 -7.30229)
(8.60246 -0.54819 7.7652)
(9.31693 1.62747 -14.3974)
(9.97297 8.64518 -36.3184)
(10.0332 2.68164 -33.0451)
(9.82291 2.34217 -19.5198)
(9.18288 -3.05824 -3.47385)
(8.48644 -0.47566 13.1513)
(3.35563 1.04362 16.737)
(3.46477 2.89367 14.1522)
(3.59348 4.25696 13.8921)
(3.67668 2.6407 15.683)
(3.63169 -0.0878182 15.8323)
(3.49577 -1.29969 16.5836)
(3.36306 -0.508724 19.6799)
(-0.0146625 0.601295 20.1864)
(-0.0134842 1.44974 19.7871)
(-0.00926852 1.31144 19.5777)
(-0.00601646 -0.102599 19.5313)
(-0.00319917 -1.5243 19.7789)
(-0.000645215 -1.63801 20.0334)
(-0.000224603 -0.651578 20.4416)
(-3.36058 0.403629 20.8199)
(-3.51145 1.15631 17.0549)
(-3.64238 -0.000258503 16.3493)
(-3.67627 -2.61389 16.2995)
(-3.60607 -4.50588 14.7914)
(-3.4523 -3.329 15.2622)
(-3.34393 -1.20567 18.0931)
(-8.51334 -0.450499 15.6661)
(-9.33341 1.37446 -4.18281)
(-9.98221 -5.08247 -18.5899)
(-10.0925 -7.53675 -32.4239)
(-9.99805 -10.4936 -37.6)
(-9.248 -3.58458 -11.1295)
(-8.59018 0.101274 10.3341)
(-32.1677 0.279976 -5.1057)
(-34.7287 11.331 -64.3343)
(-35.9274 14.6605 -81.0748)
(-36.5414 11.7496 -79.6862)
(-36.7878 10.9498 -70.9181)
(-36.6445 2.02237 -49.0392)
(-33.0571 3.19362 4.10323)
(33.9529 -1.31901 -4.69848)
(36.6605 -2.02861 -35.5918)
(36.6874 -17.692 -57.1675)
(36.0224 -25.052 -72.0202)
(35.6134 -20.1826 -80.2799)
(35.5464 -16.7162 -83.2765)
(34.5792 -2.95143 -57.7294)
(8.98498 -0.171866 -0.401127)
(9.81274 1.9034 -26.2021)
(10.065 -5.12925 -36.462)
(9.94057 -13.8199 -22.5397)
(9.60414 -8.49033 -11.0145)
(9.16306 -8.62984 -5.20788)
(8.91161 -3.3555 -2.83026)
(3.40451 1.11782 17.2068)
(3.52107 3.15083 14.3808)
(3.62584 4.73591 15.7101)
(3.70547 3.57248 18.4925)
(3.65466 0.659862 18.3608)
(3.50763 -1.25434 18.0383)
(3.40549 -0.862182 19.792)
(-0.0118641 0.55023 23.6322)
(-0.00875737 1.28833 23.4697)
(-0.00493017 1.22933 23.7003)
(-0.00180816 -0.0773405 23.8581)
(-0.00102469 -1.26777 23.6525)
(-0.000963566 -1.34021 23.7064)
(-6.45134e-05 -0.60714 23.9281)
(-3.4064 0.92051 20.7915)
(-3.52975 1.17349 18.4676)
(-3.668 -0.507581 19.0227)
(-3.70352 -3.62869 19.1687)
(-3.62504 -5.12293 16.6689)
(-3.51197 -3.8205 15.1063)
(-3.396 -1.51044 17.7713)
(-8.87639 3.54865 0.94821)
(-9.18316 7.49395 -4.63315)
(-9.81133 7.41716 -10.928)
(-10.1183 4.67341 -19.2818)
(-10.1185 0.329674 -39.8241)
(-9.80651 -5.37722 -27.2276)
(-9.02133 -1.07105 -1.65916)
(-33.4218 -1.32051 -42.3308)
(-35.3646 9.27908 -80.6606)
(-36.2165 15.0257 -85.8031)
(-36.6876 12.8036 -82.4595)
(-37.035 13.6846 -69.1854)
(-36.7035 0.328542 -41.8134)
(-34.0609 -0.447863 -6.76946)
(34.5585 -1.84776 -7.12658)
(36.8971 -4.28865 -25.9806)
(36.8698 -20.4142 -46.7426)
(36.5942 -25.1412 -70.8091)
(36.136 -18.8648 -81.4017)
(36.2046 -12.3203 -88.2347)
(35.6011 -4.62753 -82.8622)
(9.45322 0.00355242 -8.13739)
(10.1438 -6.35532 -26.16)
(10.0218 -19.0464 -24.1235)
(9.85532 -19.1735 -19.8577)
(9.61784 -14.8997 -21.4706)
(9.51477 -9.20186 -23.1127)
(9.20482 -1.13755 -21.3632)
(3.48796 1.75946 18.3855)
(3.58551 3.60487 15.4953)
(3.66818 4.31504 17.7815)
(3.72478 3.47314 22.5121)
(3.68195 -0.169733 22.5008)
(3.57139 -1.71402 21.3791)
(3.50953 -1.00455 20.5561)
(-0.00617707 0.521036 27.6088)
(-0.000846495 1.07733 27.4397)
(0.00341856 0.831708 27.2862)
(0.00111808 -0.0810507 27.3048)
(-0.00242974 -0.707576 27.4686)
(-0.000875481 -0.82885 27.709)
(0.00138152 -0.432938 27.9623)
(-3.50995 0.952456 21.1373)
(-3.58351 1.41924 21.3773)
(-3.69075 0.00352165 22.4243)
(-3.71884 -3.80435 22.2228)
(-3.66053 -5.04085 18.378)
(-3.57592 -4.06802 15.7856)
(-3.47315 -1.94643 18.1134)
(-9.16062 0.784086 -17.0212)
(-9.36333 6.0754 -9.29239)
(-9.65297 10.7242 -9.51769)
(-10.0201 15.2386 -12.2289)
(-10.1504 17.0769 -25.3642)
(-10.1455 2.33137 -29.9906)
(-9.43266 -0.988237 -11.4619)
(-33.6037 -3.61834 -55.4517)
(-35.8533 2.19537 -84.1078)
(-36.3526 13.698 -87.1279)
(-36.7832 15.0377 -82.8755)
(-37.0869 20.1606 -67.2876)
(-37.1361 9.5736 -38.3572)
(-35.0797 1.06338 -13.4194)
(35.7185 -7.70948 -5.70798)
(37.1574 -13.4157 -20.1328)
(36.9434 -28.8455 -36.4557)
(36.5629 -20.4553 -66.9375)
(36.2638 -19.1112 -82.1519)
(36.4443 -12.6737 -91.9859)
(36.3716 -5.19904 -88.1726)
(9.84376 -4.31434 -11.0143)
(10.1994 -17.2389 -19.4629)
(10.1543 -21.4356 -21.1685)
(9.99388 -22.516 -29.8417)
(9.84778 -21.1205 -43.7186)
(9.77764 -17.9324 -49.9719)
(9.54607 -3.62478 -42.7929)
(3.54804 1.35849 18.6472)
(3.65282 2.47548 17.6746)
(3.73184 3.18306 20.4472)
(3.78529 1.21444 24.3761)
(3.72673 -1.23767 22.3838)
(3.61792 -2.44008 19.3002)
(3.53626 -0.998143 16.035)
(0.00285406 0.628356 29.568)
(0.00922001 0.683807 29.841)
(0.0138042 0.229883 30.1058)
(0.00632566 0.362116 30.8415)
(0.0070472 0.326729 29.9546)
(0.00477925 -0.400347 30.1194)
(0.00198886 -0.49199 30.0003)
(-3.55322 0.952588 17.3703)
(-3.62086 1.09793 17.862)
(-3.72605 0.587972 22.1895)
(-3.76796 -1.66151 23.5554)
(-3.69601 -3.61635 20.1046)
(-3.6237 -2.84092 17.448)
(-3.51959 -1.57472 17.5823)
(-9.16642 -3.47923 -25.9296)
(-9.75742 6.57412 -38.7343)
(-9.8883 16.5574 -37.9584)
(-10.0788 22.8841 -26.6915)
(-10.1886 21.0723 -18.6032)
(-10.2132 17.7343 -20.7934)
(-9.83039 3.95012 -14.9599)
(-33.9692 -4.02964 -58.5)
(-36.9164 1.29972 -87.857)
(-36.372 13.2607 -91.1682)
(-36.647 16.3712 -82.0041)
(-36.9795 27.3443 -58.8171)
(-37.172 22.4773 -36.7165)
(-36.2548 9.0481 -12.9216)
(35.9222 -9.75508 23.8582)
(37.1504 -5.43798 5.77615)
(37.102 -13.4935 -13.7909)
(36.6916 7.03093 -42.9005)
(36.8702 22.6251 -79.6512)
(37.5728 13.803 -93.3426)
(37.8863 2.34263 -85.6626)
(10.1249 -12.6289 3.97544)
(10.3526 -17.6965 -12.0955)
(10.3393 -20.9261 -16.3778)
(10.3117 -19.4616 -25.5674)
(10.2412 -17.1572 -40.3786)
(10.291 -11.315 -60.1424)
(10.3418 -1.32879 -66.5562)
(3.69308 -0.48318 19.2196)
(3.76249 0.461052 18.2814)
(3.81766 1.06436 22.5328)
(3.87337 -1.93435 23.0362)
(3.79852 -6.77918 20.163)
(3.67518 -8.37064 11.8883)
(3.61576 -3.31292 3.13494)
(0.0484001 0.813098 24.6142)
(0.0424196 1.6633 25.8033)
(0.0237211 1.39079 27.4075)
(0.0137388 0.298421 27.8688)
(0.0142792 -0.582943 27.5828)
(0.0038809 -0.874385 26.5218)
(-0.00715323 -0.5786 25.0632)
(-3.51878 1.87242 5.89479)
(-3.63714 8.0591 9.0796)
(-3.75 7.21563 18.2618)
(-3.83629 2.27933 22.3474)
(-3.78782 -0.88992 20.6624)
(-3.72621 -0.27938 16.0346)
(-3.65432 0.856396 16.9351)
(-9.49215 4.2045 -31.764)
(-10.0803 14.2585 -54.8008)
(-10.1509 16.723 -46.3891)
(-10.3069 19.738 -29.1043)
(-10.3629 23.3822 -18.5447)
(-10.3785 19.5364 -13.8079)
(-10.1262 12.7657 0.782994)
(-36.1439 12.6234 -51.9223)
(-37.9089 7.05988 -81.7742)
(-37.0681 -6.50871 -87.2497)
(-36.8652 -7.04066 -70.8885)
(-37.0349 10.4578 -33.7153)
(-37.2481 10.9002 1.42589)
(-36.0861 11.4338 25.642)
(35.2678 -10.4625 28.4077)
(37.0424 -0.20679 6.8102)
(37.0611 -7.65683 -12.4813)
(36.7709 16.4312 -47.6741)
(36.8123 36.273 -87.8187)
(37.3288 26.7804 -104.189)
(37.8445 16.2853 -94.4162)
(10.0021 -9.04339 11.0409)
(10.445 -9.23394 -4.28911)
(10.4691 -7.87393 -7.27076)
(10.4681 -11.0794 -12.504)
(10.4054 -8.1071 -24.1542)
(10.4861 -1.43219 -58.6333)
(10.5618 8.63147 -74.7724)
(3.7221 -1.03841 22.5775)
(3.79431 0.378946 20.1627)
(3.86104 0.118358 23.6883)
(3.88907 -3.42771 24.5117)
(3.80282 -8.48407 21.5368)
(3.70024 -9.84777 14.3829)
(3.62679 -3.83977 3.40336)
(0.0461 0.985086 25.5337)
(0.0389725 1.80627 26.9188)
(0.0226105 1.63687 28.3931)
(0.00954029 0.571257 28.9422)
(0.00808077 -0.574668 28.5258)
(0.00759324 -0.822392 27.4375)
(-0.00345878 -0.497691 26.2457)
(-3.54796 4.24422 2.43786)
(-3.64123 11.1833 11.8216)
(-3.76649 10.8071 20.8457)
(-3.86892 4.34571 24.8461)
(-3.82629 -0.115959 22.2409)
(-3.75628 -0.442856 18.4391)
(-3.68872 1.20306 19.5704)
(-10.4292 2.38405 -55.9684)
(-10.4878 7.96048 -54.7105)
(-10.4455 8.94603 -37.2441)
(-10.5093 18.9028 -13.7529)
(-10.5031 13.3028 -6.83948)
(-10.4667 12.107 -5.61446)
(-10.0791 9.88053 6.43869)
(-37.6914 12.3874 -63.2518)
(-37.741 -7.2463 -95.9804)
(-37.0261 -24.4941 -93.4421)
(-36.9284 -24.2067 -65.2091)
(-37.0613 5.46303 -18.9058)
(-37.362 2.75054 2.59336)
(-35.598 8.80598 26.1874)
(34.7773 -9.6601 28.6507)
(36.592 0.25389 3.54846)
(36.6673 -0.0159688 -25.8841)
(36.8728 33.1673 -73.6926)
(37.1189 44.915 -97.3503)
(37.6813 39.8661 -100.649)
(37.9838 26.8635 -88.2832)
(9.76706 -8.52511 16.7222)
(10.3501 -5.29902 0.42315)
(10.4583 -4.8186 -3.81592)
(10.4706 -3.78252 -6.48896)
(10.329 -0.0162673 -17.436)
(10.4745 9.4718 -48.4461)
(10.5554 23.7508 -67.0592)
(3.70048 -0.0383671 25.9813)
(3.77323 -1.16993 25.4025)
(3.84146 -2.89055 27.2685)
(3.84827 -7.53609 27.2577)
(3.70402 -12.2209 22.008)
(3.64972 -11.4944 9.69118)
(3.62787 -3.31237 -6.30203)
(0.0433174 1.33561 27.9376)
(0.0256609 3.37918 28.9766)
(0.0120193 2.96456 31.067)
(0.00552511 0.396088 32.1071)
(0.000286453 -1.76185 31.0088)
(-0.00322457 -2.30907 29.3034)
(-0.011734 -1.05721 28.0451)
(-3.57324 3.75927 -10.9518)
(-3.61601 12.7193 4.52085)
(-3.69014 15.9826 21.0622)
(-3.82968 9.15043 28.8428)
(-3.81418 3.53251 26.9251)
(-3.75063 2.06242 24.31)
(-3.69376 0.406222 24.7907)
(-10.6081 -12.3884 -61.2037)
(-10.6216 -8.28214 -60.8471)
(-10.4479 -4.06372 -28.1772)
(-10.4947 6.96196 -6.98719)
(-10.4977 5.82236 -4.29952)
(-10.4217 7.15404 -1.27912)
(-9.91365 8.0904 13.3388)
(-37.9244 0.35244 -66.9564)
(-37.6913 -26.3091 -91.896)
(-37.3125 -38.1301 -90.8633)
(-37.1798 -36.9905 -77.2389)
(-37.0984 -6.5507 -27.6758)
(-37.1371 3.73706 4.19387)
(-35.2347 8.00191 28.4385)
(33.5994 -6.0689 29.3921)
(35.2736 -5.96736 8.75522)
(36.5284 25.9819 -62.6335)
(37.0425 52.9585 -93.5992)
(37.2899 56.1652 -94.0121)
(37.6903 50.5955 -91.3129)
(38.0541 33.7156 -70.4988)
(9.5798 -6.1693 19.8065)
(10.3663 -9.23248 7.11361)
(10.5073 -6.83449 -6.15698)
(10.4523 -1.01935 -10.4134)
(10.3621 -0.128784 -14.4786)
(10.5132 13.9903 -37.5817)
(10.5548 25.9685 -51.9407)
(3.68603 -1.89927 28.1961)
(3.75562 -6.28514 26.9445)
(3.7891 -7.53372 28.0492)
(3.75059 -10.0095 27.3232)
(3.67068 -15.3944 17.4565)
(3.69141 -11.3246 -7.99248)
(3.7651 2.03183 -21.4677)
(0.034274 1.81034 30.2421)
(0.00560924 3.16355 33.2402)
(-0.00272744 2.7386 34.9552)
(-0.000599611 0.0600298 34.1405)
(4.94267e-05 -2.25008 33.7582)
(-0.00415759 -1.55517 31.2442)
(-0.0209495 -0.827336 29.9099)
(-3.72396 -4.29528 -23.5799)
(-3.70083 10.7377 -10.9723)
(-3.68615 16.0099 17.5795)
(-3.74785 10.1566 28.5178)
(-3.78789 8.19806 26.1532)
(-3.76311 7.11548 23.841)
(-3.70999 3.29899 26.1443)
(-10.5909 -24.8009 -49.6031)
(-10.5968 -21.1772 -47.9749)
(-10.4628 -8.95108 -24.0449)
(-10.4481 1.10732 -7.81457)
(-10.5653 5.93367 -6.50226)
(-10.4625 9.78954 3.42081)
(-9.78106 9.14493 18.1938)
(-38.1795 -10.5524 -51.8548)
(-37.9014 -33.4923 -86.0711)
(-37.347 -47.1207 -94.8048)
(-37.2666 -47.4392 -95.2751)
(-37.0466 -27.5004 -67.9457)
(-36.3752 11.0298 7.38199)
(-34.4748 4.72334 32.0837)
(32.45 -8.08395 31.2809)
(35.8473 12.9158 -34.8002)
(36.3077 52.6918 -102.012)
(37.8013 63.5502 -99.2493)
(38.5322 65.9987 -87.2558)
(38.605 53.6425 -78.1463)
(38.6017 30.8544 -45.8622)
(9.69966 -7.89417 24.1879)
(10.4172 -11.5897 6.89695)
(10.5975 2.56465 -10.8991)
(10.5876 8.78805 -9.50203)
(10.5685 11.8753 -13.6765)
(10.5609 27.6781 -32.2523)
(10.587 29.5095 -37.7771)
(3.72756 -8.09521 26.2978)
(3.77401 -13.8281 19.5903)
(3.76366 -15.9501 22.5108)
(3.70477 -13.9884 24.0605)
(3.67977 -12.9444 14.5404)
(3.79535 -5.83305 -8.15556)
(3.82201 14.8962 -20.8908)
(0.0294204 -0.587625 32.93)
(-0.00527203 0.787139 33.913)
(-0.00626234 0.889343 35.2731)
(0.00361102 -0.570497 37.307)
(0.012366 -1.05783 34.0831)
(0.00778771 -0.460379 33.0181)
(-0.0236433 1.14167 34.2484)
(-3.77422 -17.0222 -18.6296)
(-3.78444 3.29618 -1.93864)
(-3.69482 11.8058 19.1104)
(-3.71223 12.8754 24.2933)
(-3.80444 13.0007 15.5003)
(-3.8523 13.117 12.1354)
(-3.74932 9.5419 26.3813)
(-10.561 -29.1088 -41.0895)
(-10.5628 -34.9417 -43.2227)
(-10.5608 -27.5132 -23.3749)
(-10.5046 -7.93052 -7.28946)
(-10.6343 -0.091132 -12.884)
(-10.5209 11.3402 4.92321)
(-9.83264 10.2088 26.1962)
(-38.8073 -13.1762 -30.5822)
(-38.2314 -36.7989 -70.4464)
(-37.9595 -60.2537 -85.3129)
(-37.5907 -59.8315 -98.0278)
(-36.9121 -49.2872 -101.054)
(-35.7432 -9.12329 -29.0709)
(-33.2225 7.5199 34.1709)
(31.7167 -14.6702 46.6832)
(36.1661 72.7616 -119.107)
(37.4205 63.2123 -112.694)
(38.5607 67.9711 -99.8574)
(39.2181 63.4913 -74.1823)
(39.1201 38.9799 -58.9181)
(38.9475 13.0736 -14.1415)
(9.75733 -8.13593 38.8087)
(10.58 -0.874403 -10.2119)
(10.6548 46.8767 -36.3225)
(10.6926 51.2618 -30.0341)
(10.6282 56.1808 -21.0026)
(10.5186 49.9298 -20.9325)
(10.5556 39.983 -11.5907)
(3.75994 -10.5244 30.4136)
(3.9139 -17.0019 9.17106)
(3.89881 -15.2522 8.24179)
(3.84591 -14.7606 15.0742)
(3.82401 -13.955 14.7774)
(3.81403 -3.9706 13.6799)
(3.76928 28.4031 -0.369268)
(0.0327514 -2.29673 40.5281)
(0.00449297 -2.81592 37.5517)
(0.00432632 -3.30061 37.9363)
(0.0126092 -0.903299 36.0816)
(0.0161712 1.20611 36.2905)
(-0.00852321 1.3481 39.497)
(-0.0488237 1.825 40.5172)
(-3.73593 -25.9222 0.47404)
(-3.76627 0.684615 16.5801)
(-3.77467 10.4579 18.7004)
(-3.84382 12.1569 11.0291)
(-3.96876 3.12764 -10.766)
(-3.9748 10.8428 -0.352911)
(-3.77735 9.17584 35.0025)
(-10.5027 -43.3432 -22.7102)
(-10.4474 -55.6917 -31.3533)
(-10.5534 -60.6092 -29.0854)
(-10.5594 -48.0601 -32.9518)
(-10.571 -45.9895 -41.7469)
(-10.5341 10.9779 -7.23561)
(-9.85993 8.61443 39.9752)
(-38.9883 -20.2326 -18.1948)
(-38.7346 -24.2099 -42.9596)
(-38.6284 -60.5452 -67.3295)
(-37.9128 -64.7309 -99.3065)
(-37.0953 -60.8471 -109.649)
(-35.1991 -73.4499 -112.617)
(-32.2737 16.0418 48.7341)
(36.7894 146.626 -137.043)
(37.5358 95.717 -154.323)
(39.1856 44.2817 -127.024)
(39.4744 61.2384 -107.395)
(39.5533 23.2218 -55.3676)
(38.6196 -29.5916 65.815)
(38.7066 11.3795 46.6208)
(10.4098 53.9165 -15.6669)
(10.2817 93.2236 -65.0943)
(10.5771 84.8079 -63.9807)
(10.8698 78.8512 -52.1753)
(10.8405 76.3081 -36.6943)
(10.6852 57.0501 -27.204)
(10.5427 38.5723 16.811)
(3.89298 23.6675 3.69147)
(3.89762 29.4821 -17.79)
(3.96879 37.2212 -17.7564)
(4.04664 38.6559 -12.2064)
(4.04511 38.6795 -0.661799)
(3.95934 23.6244 4.11492)
(3.78279 22.3145 37.8632)
(0.0316178 -2.89756 51.8034)
(0.0108816 -8.0076 39.9823)
(-0.00620584 -7.50968 36.4141)
(0.00743228 0.515287 35.2313)
(0.022821 7.66899 36.7208)
(-0.00577442 5.30286 39.6734)
(-0.0561219 -0.242779 55.4312)