# Probe 0 (0 -0.07 0.5)
# Probe 1 (0 -0.04 0.5)
# Probe 2 (0 -0.07 0.3)
# Probe 3 (0 -0.07 0.33)
# Probe 4 (0 -0.04 0.3)
# Probe 5 (0 -0.04 0.33)
# Probe 6 (0 0 0.33)
# Probe 7 (0 0 0.3)
# Probe 8 (0 0.1 0.33)
# Probe 9 (0 0.1 0.3)
# Probe 10 (0 0.14 0.3)
# Probe 11 (0 0.14 0.33)
# Probe 12 (0 0.17 0.3)
# Probe 13 (0 0.17 0.33)
# Probe 14 (0 0.14 0.5)
# Probe 15 (0 0.14 0.33)
#       Probe             0             1             2             3             4             5             6             7             8             9            10            11            12            13            14            15
#        Time
          0.5       292.032       291.398       303.885       303.259       303.018       302.817       304.457       313.433        316.01       385.729       301.054       314.791       301.793       300.644       302.785       314.791
            1       292.069       291.434       303.945       303.343       303.056       302.879       301.396       319.776       319.194       401.586       301.013       316.729       301.432        300.26       304.024       316.729
          1.5        292.08       291.457       303.988        303.38       303.093        302.92       300.333       320.255       319.736       403.642       301.055       317.124       301.501       300.359       304.418       317.124
            2        292.08       291.448       303.956       303.359       303.069       302.901       305.304       319.341       320.056       405.028        300.86        316.69       301.238       299.912       304.125        316.69
          2.5       292.076       291.442       303.937       303.338       303.054       302.886       305.229        319.19        319.92       405.641       300.889       317.414        301.16        299.58       304.421       317.414
            3       292.082       291.453       303.948       303.342       303.052       302.883       305.093       319.313       320.027       405.783       301.082       317.714       300.868       299.786       304.526       317.714
          3.5       292.073       291.446        303.96        303.36       303.078       302.908        305.19        319.32       318.747       401.618       300.797       317.849       301.408       300.235       304.556       317.849
            4       292.072        291.44       303.934       303.331        303.05       302.876       304.524        319.28       318.624       400.392       300.855       317.649       301.034       300.845       304.564       317.649
          4.5       292.069       291.442       303.969       303.362       303.085       302.911       300.146       319.372       318.701       400.024       300.766       317.659       301.374       300.272       304.469       317.659
            5       292.064       291.435       303.939       303.336       303.051       302.875        300.14       319.351       318.617       400.529       302.177       318.019        302.17       300.281       304.653       318.019
