/*--------------------------------*- C++ -*----------------------------------*\
  =========                 |
  \\      /  F ield         | OpenFOAM: The Open Source CFD Toolbox
   \\    /   O peration     | Website:  https://openfoam.org
    \\  /    A nd           | Version:  6
     \\/     M anipulation  |
\*---------------------------------------------------------------------------*/
FoamFile
{
    version     2.0;
    format      ascii;
    class       volScalarField;
    location    "2";
    object      p;
}
// * * * * * * * * * * * * * * * * * * * * * * * * * * * * * * * * * * * * * //

dimensions      [1 -1 -2 0 0 0 0];

internalField   nonuniform List<scalar> 
297
(
110955
110955
110955
182009
182009
182009
110955
110955
110955
110954
110954
110954
182010
182010
182010
110954
110954
110954
110954
110954
110954
182010
182010
182010
110954
110954
110954
97264.4
97285
97265.4
159757
159743
159757
97264.5
97285
97265
97217.8
97238.5
97219.1
159556
159589
159555
97218
97236.9
97218.2
97116.1
97254.3
97123.4
158209
158959
158212
97118.7
97252.1
97120.9
97021.7
97145.3
97019.4
159417
159168
159414
97021.8
97145.8
97020.9
96987.7
97099.2
96982.2
159431
159397
159430
96984.9
97099.2
96984.4
96891.3
97087
96885.5
159209
159288
159209
96888.7
97087.9
96889.5
96760.3
97359.5
96758.6
155513
158401
155509
96759.6
97359.1
96759.1
96695.9
97349.3
96693
155218
158481
155213
96695.3
97350.7
96693.8
96661.9
97322.8
96658.6
155489
158664
155484
96661.9
97327.4
96659.6
97336.7
97396.9
97336
159241
159291
159245
97336.5
97399.6
97340.5
97430.2
97462.6
97430.5
159327
159311
159331
97430.5
97465.7
97435.3
97472.4
97477.4
97473.8
159373
159346
159377
97473.2
97480.8
97478.6
97488
97391
97326.1
159025
159168
159354
97488.8
97388.8
97321.8
97402.8
97256
97137.2
159168
159212
159350
97404
97254.3
97133.1
97366.4
97216
97106.9
159227
159188
159182
97367.5
97214.6
97102.4
97317
97382.2
97481.6
159343
159157
159016
97317.5
97383
97482.8
97129.3
97248.1
97396.6
159340
159202
159159
97129
97247.9
97396.9
97098.9
97208.4
97360
159171
159179
159220
97098.9
97207.9
97360.1
98599.7
98229.4
97629.8
159379
159350
159384
98604
98233
97631.6
98186.7
97707.6
97289.3
159210
159117
159246
98191.4
97711
97290.6
97764.7
97317.6
97041.4
158981
158791
158874
97769.3
97320.5
97042.7
96321.1
96229.4
96209.9
157528
157430
157370
96322.6
96230.5
96211
94775.5
94835.8
94907.8
153352
153339
153339
94772.6
94833.1
94905.4
91448.3
91523.3
91593.1
141603
141626
141658
91443.4
91518.3
91588.2
97639.3
98240.4
98612.2
159395
159360
159387
97634.1
98234.8
98605.7
97298
97720
98204.2
159255
159125
159217
97292.1
97711.4
98191.7
97050.2
97332
97789.4
158880
158796
158986
97042.5
97319.3
97767.8
96217
96237.5
96332.3
157364
157424
157523
96201.9
96222.2
96314.7
94893.7
94819.2
94754
153340
153340
153352
94916.8
94843.5
94782
91587
91516.8
91441.5
141663
141632
141609
91591.7
91521.7
91446.6
)
;

boundaryField
{
    fuel
    {
        type            zeroGradient;
    }
    primary_air
    {
        type            zeroGradient;
    }
    Secondary_air_RHS
    {
        type            zeroGradient;
    }
    Secondary_air_LHS
    {
        type            zeroGradient;
    }
    outlet
    {
        type            totalPressure;
        rho             rho;
        psi             none;
        gamma           1;
        p0              uniform 100000;
        value           nonuniform List<scalar> 
18
(
93090.3
100000
93094.1
92747.7
100000
92753.3
91817.2
100000
91839.6
91824.2
100000
91814.3
92758.8
100000
92757.4
93099
100000
93095.5
)
;
    }
    stove_body
    {
        type            zeroGradient;
    }
    frontAndBack
    {
        type            empty;
    }
}


// ************************************************************************* //
