/*--------------------------------*- C++ -*----------------------------------*\
  =========                 |
  \\      /  F ield         | OpenFOAM: The Open Source CFD Toolbox
   \\    /   O peration     | Website:  https://openfoam.org
    \\  /    A nd           | Version:  6
     \\/     M anipulation  |
\*---------------------------------------------------------------------------*/
FoamFile
{
    version     2.0;
    format      ascii;
    class       volScalarField;
    location    "4";
    object      p;
}
// * * * * * * * * * * * * * * * * * * * * * * * * * * * * * * * * * * * * * //

dimensions      [1 -1 -2 0 0 0 0];

internalField   nonuniform List<scalar> 
297
(
120880
120880
120880
199726
199725
199726
120882
120884
120882
120880
120880
120880
199727
199725
199727
120882
120884
120882
120880
120880
120880
199727
199725
199727
120882
120883
120882
97147.1
97164.9
97154
160440
160449
160466
97035
97049.5
97050.3
97162.6
97181.2
97162.8
160138
160256
160212
97050.2
97087.6
97097.2
97005.6
97150.5
96984.6
158284
159409
158269
96914.2
97053.4
96939.1
96480.6
96671.1
96458.3
159358
159169
159344
96343.1
96493.5
96221.8
96703.1
96738.1
96711.9
160168
159946
160132
96611.8
96669.5
96489.3
96726.3
96888.4
96766.1
160142
160144
160094
96732
96857.7
96584.7
95800.3
97149
95829.5
153773
158576
154040
95702
96958.5
95898.2
95611.9
97115
95642.4
153240
158603
153513
95508.3
96924.5
95726.8
95533.6
97055.1
95557
153609
158731
153880
95422.2
96870.9
95670.3
97343.3
97377.3
97339.6
160094
160122
160074
97100.3
97207.3
97011.6
97469
97476.7
97429.3
160105
160147
160154
97193
97260.9
97113.4
97523.9
97504.4
97466.5
160110
160185
160217
97212.1
97241.7
97149.1
97661.9
97840.2
98427.7
159888
159891
159800
97005.7
96934.9
96814.3
97360
97355.7
97780.2
159933
159820
159637
96952.6
96731
96451.8
97247
97096.3
97097.3
159977
159786
159524
96958.4
96685.1
96342.8
98460.5
97910.4
97743.1
159929
159948
159926
96861.7
96947
97023.3
97835.9
97437.7
97442
159724
159898
159941
96565.4
96812.8
96998.8
97168.1
97203
97354.1
159590
159826
159942
96470.6
96778.3
97006.5
98837.8
99002.5
98902.2
159712
159710
159788
98648.3
98058.3
97204.5
98520.4
98597.7
98370.9
159399
159385
159492
97838.9
97135.1
96586.4
98158
98171.5
97804.1
158873
158956
159023
96885.4
96346.4
96071.8
95875.5
95809.1
95778.1
155339
155297
155113
93213.3
93127.7
93055.3
91166
91103.3
91105.9
148181
148148
148094
89694.6
89678.8
89629.1
85355.7
85338.9
85321.9
136408
136306
136217
87929.5
88093.9
88268.3
98949.5
99086.5
98914
159696
159646
159643
97196.5
98149.8
98809.8
98405.8
98701
98612
159412
159305
159313
96506.4
97133.6
97947.1
97786.4
98276.3
98237.7
158935
158876
158769
95951.4
96279.9
96909.1
95507
95556.5
95662.6
154487
154723
154783
92746.7
92827.4
92906.5
90668.8
90658.1
90723.3
147263
147327
147360
89146.2
89209.7
89236.9
84864.1
84880.1
84895.9
135494
135577
135668
87735
87527.2
87365.3
)
;

boundaryField
{
    fuel
    {
        type            zeroGradient;
    }
    primary_air
    {
        type            zeroGradient;
    }
    Secondary_air_RHS
    {
        type            zeroGradient;
    }
    Secondary_air_LHS
    {
        type            zeroGradient;
    }
    outlet
    {
        type            totalPressure;
        rho             rho;
        psi             none;
        gamma           1;
        p0              uniform 100000;
        value           nonuniform List<scalar> 
18
(
87127.2
100000
99992.9
86787.8
100000
93773.4
87138.4
100000
88209.8
87444.7
100000
88717.3
87209.4
100000
93879.9
87393.6
100000
99990.3
)
;
    }
    stove_body
    {
        type            zeroGradient;
    }
    frontAndBack
    {
        type            empty;
    }
}


// ************************************************************************* //
