/*--------------------------------*- C++ -*----------------------------------*\
  =========                 |
  \\      /  F ield         | OpenFOAM: The Open Source CFD Toolbox
   \\    /   O peration     | Website:  https://openfoam.org
    \\  /    A nd           | Version:  6
     \\/     M anipulation  |
\*---------------------------------------------------------------------------*/
FoamFile
{
    version     2.0;
    format      ascii;
    class       surfaceScalarField;
    location    "4";
    object      phi;
}
// * * * * * * * * * * * * * * * * * * * * * * * * * * * * * * * * * * * * * //

dimensions      [1 0 -1 0 0 0 0];

internalField   nonuniform List<scalar> 
675
(
-5.06703e-06
-3.39963e-05
0.000167157
1.27422e-06
-4.98259e-05
0.000171846
-3.37368e-05
0.000163141
1.56613e-05
3.48445e-05
0.000128089
-3.16107e-06
5.37489e-05
0.00012744
3.4685e-05
0.00014103
-5.73697e-06
0.000167332
1.68408e-06
0.000173246
0.000163057
-3.91562e-06
-5.53685e-05
0.000226541
-8.68726e-07
-6.60885e-05
0.000235277
-4.67033e-05
0.000209094
1.72814e-05
5.64747e-05
4.05899e-08
-2.25262e-05
6.94535e-05
3.25272e-05
4.85098e-05
2.43914e-05
-4.45983e-06
0.000226875
-6.31633e-07
0.00023759
0.000209602
-6.95826e-06
0.000105585
2.63433e-06
9.80438e-05
8.38181e-05
5.3327e-07
-0.000104688
1.86799e-05
-9.84317e-05
-8.28273e-05
-7.23939e-06
2.52026e-06
-9.51142e-05
0.00727265
-0.00392074
0.00534689
0.00668019
-0.00886248
0.00740592
0.00119824
-0.000806352
-0.00518594
0.0186409
-0.00098562
-0.00480027
0.0170439
-0.00674542
0.0185326
0.00195579
-0.0039089
0.00360948
-0.00321681
8.86399e-05
0.00666607
0.00939597
-0.0199816
0.00193645
0.00835603
-0.0125014
0.0103766
-0.00727151
0.00287553
-0.0073751
0.0325274
0.00181355
-0.00542851
0.0318832
-0.00905891
0.0397699
0.00922523
-0.0205069
0.0040897
-0.00351813
-0.00487474
-0.00306749
0.0240966
-0.0411209
-0.00433707
0.0129875
-0.024266
0.0241868
-0.0358462
-0.0469511
-0.0232258
0.126737
0.0424827
-0.0139525
-0.0306268
-0.0244963
0.131
-0.00255715
-0.0411903
-0.00320913
-0.0168782
-0.0325827
-0.00705369
-0.0148932
-0.0291808
0.0510614
0.00610054
0.00372401
-0.0439079
0.0271625
-0.014875
-0.025673
0.0466113
0.0112935
0.0167105
0.0554697
-0.0985394
-0.010309
-0.00105302
-0.0141741
0.0404256
0.00998136
0.0688141
-0.104264
-0.00375948
-0.030744
0.051316
0.0145497
-0.0402133
0.0207889
-0.0191455
0.043737
4.21187e-05
-0.00823953
-0.0206526
-0.00253361
-0.0082632
-0.0332143
-0.00942813
-0.0184353
0.016705
0.0102203
0.0200791
-0.0160234
0.00774764
0.00265898
0.00857798
0.0344627
0.00402142
-0.0245607
-0.000302487
-0.0282855
-0.0110496
0.00566299
-0.00643497
-0.0196129
-0.00551082
-0.000939107
-0.0210919
-0.00596506
-0.0177326
0.00312801
0.00261164
0.00768436
0.0090618
0.00258878
-0.00664434
0.00982448
0.0273966
-0.00577447
-0.0161084
-0.0137492
-0.0177876
-0.0149633
2.84699e-05
-0.00246018
-0.043944
-0.000227502
-0.000842648
-0.0231695
-0.00229766
-0.0390309
-0.00357081
0.00250673
0.11691
0.00326958
0.000308206
-0.0386191
0.00236428
0.121155
7.36556e-05
-0.0439993
-9.55736e-05
-0.0164073
-0.0355746
-0.000366562
-0.00110703
-0.047714
0.00027132
7.52893e-05
-0.0238723
-0.000965816
-0.0430386
-0.00181642
0.00112168
0.108096
0.00144976
-0.000205371
-0.0416156
0.00047534
0.112741
-0.00026335
-0.0478454
0.000547415
-0.0174277
-0.0398001
-0.000338646
-0.00155259
0.000229337
0.00272371
-0.00143844
-0.00198703
0.00156772
0.001679
-0.00213479
0.000277192
-0.000188371
0.00103232
0.00545818
-0.00377075
-0.00651183
-0.0147691
-0.00565846
-0.000558235
-0.00935235
-0.00377819
-0.00403477
-0.0155788
-0.00262811
0.00189518
-0.00257846
0.00718175
-0.000154009
0.00123279
-0.0109196
0.00306732
0.015426
0.00491427
0.00422037
-0.00475782
-0.013659
-0.00689454
-0.00545246
-0.00346393
-0.0153099
0.00600686
0.000685133
-0.000408769
-0.0127903
-0.00550407
0.00228632
-5.07108e-05
-0.00018191
0.00328512
-0.0126413
-0.000278962
-0.00192824
-0.00435032
0.00461548
-0.00144941
-0.000923801
-0.00657282
-0.000657444
0.0065988
0.00779982
0.00298151
0.00149594
-0.0111235
-0.00724392
0.00384086
0.0012676
-0.0125984
-0.0011731
0.0036375
-0.00287149
-0.00518243
0.00403957
0.0024986
-0.00440509
-0.0037776
-0.00312291
0.0061398
-0.00386369
-0.00247788
-0.00230595
0.00747622
-0.00148441
-9.80725e-05
-0.000130312
-0.00113226
-0.0150481
-0.00234415
0.00179605
-0.0161536
0.00100428
8.70926e-05
0.00276614
-0.00713328
-0.0117934
-0.00204803
0.00108372
0.00351592
-0.00343056
0.00232624
5.07487e-05
0.00209199
0.00205312
-0.00481771
-0.0162321
0.00201272
-0.016226
0.00232236
0.00249257
-0.0166336
-0.0122776
-0.00171759
0.0031399
-0.0134282
0.00110186
0.000118198
-0.000101979
-0.00947363
-0.010998
0.00759758
0.000983468
0.0010007
0.00645732
0.000106237
0.00216992
0.000481519
0.00732669
0.000584268
-0.0124476
0.00285896
-0.0120656
0.00204935
0.00236455
-0.0114626
-0.00155835
0.000283569
-0.00239332
0.000944332
-0.00174892
-0.0101329
0.00893382
-0.000182132
0.0120933
-5.07865e-05
0.00118711
0.0164736
0.00155561
0.00355755
0.00710274
0.0150054
0.00261101
-0.00679781
-0.0108123
0.0141412
9.09631e-05
0.000774353
-0.00265636
0.00203529
-0.00190656
0.00164256
0.00517616
-0.00229623
-0.00524076
0.00159372
0.00185732
0.000484023
-0.00120141
0.0149683
0.00231789
-0.0156436
0.0146423
0.00193901
0.00148933
0.0126444
-1.94336e-05
-0.00937088
-0.0100476
0.0118583
0.00142473
0.000135458
-0.00135499
0.00245711
-0.00354991
0.000911056
0.00742412
0.000378611
-0.00284791
0.000372249
0.00220581
0.000338918
-0.00112899
0.0112779
0.00266087
-0.0107084
0.0116619
0.00193875
0.00238168
0.00184852
-0.00147281
-0.0097445
0.00100619
0.000974869
0.000586657
-0.00965625
0.000963485
0.0146517
-0.00618462
-0.00028764
-0.000589537
-0.0033704
0.00699654
-0.00170915
-0.00392928
0.00249726
0.00143927
0.00386621
0.0026489
-0.0104344
0.00241624
-0.00935287
0.000159606
-0.00134061
0.00368169
0.000843813
0.000362268
0.00160876
-0.000625284
0.00159649
0.0105663
-0.0119176
0.0165742
-0.00565449
0.000298983
-0.00190273
0.00191466
0.0014296
0.00538995
0.00221642
-0.0199454
0.00159652
-0.0156029
0.0011533
-0.0010819
0.00552813
0.00171255
0.000384856
0.00288675
-0.000616858
0.00590824
0.00765376
-0.0206649
0.0120517
-0.00967802
0.00101905
-0.00375271
0.00122197
0.00395969
0.00825224
0.0055011
-0.0374532
0.00210168
-0.0191963
-0.00362998
-0.00349084
0.0138753
-0.00761822
0.000758983
0.0116219
0.00132363
0.0137251
0.00872229
-0.0328854
0.00311548
-0.00332036
0.0124513
0.0165788
0.01071
-0.0233209
-0.00184701
0.0155166
-0.0345809
0.0147774
-0.0358364
-0.00689951
-0.00137126
0.0328765
-0.00663544
0.00485947
0.022023
0.00296804
0.0189128
0.0100071
-0.0442551
0.0138802
-0.00233338
0.0293074
0.0079803
0.00642986
-0.0377536
0.0050983
0.00723391
-0.0389519
0.00742249
-0.0381801
0.0134774
-0.00440263
0.0302258
0.0143812
-0.00312104
0.0314657
0.00126695
0.0394412
-0.00414489
-0.0445061
0.00211353
-0.0117163
0.0326805
0.000912085
0.0147924
-0.000122215
0.0159402
0.015245
0.005562
-0.0244599
0.00559812
-0.0230188
-0.0216561
-0.0182157
-0.0139594
-0.00433746
0.00236815
-0.00983012
0.00390233
0.00287273
-0.0111203
0.002815
0.00108324
-0.00263535
-0.000593933
0.000772606
-0.00115836
0.000372048
0.00101546
-0.00144894
0.00309951
-0.0175331
0.000295791
-0.0111758
-0.00599717
-0.0126377
-0.00650216
0.00174317
-0.0160685
0.00179351
0.00251334
-0.0219274
0.00223887
0.000632161
-0.00252618
-0.000576691
0.00619285
-0.00166903
0.000462047
0.00220351
-0.00117209
0.00483543
-0.0127613
0.00100726
-0.00820029
-0.0101094
-0.0220229
-0.0104855
0.00179123
-0.0175009
0.00432285
0.00620977
-0.0429456
0.00132621
0.00361991
0.00887999
0.00134632
0.0142198
0.00468715
0.000822858
0.0117731
-0.00364458
0.0144824
-0.00338688
0.0128344
-0.00931444
-0.00337065
-0.0349921
0.00528433
0.0142123
-0.0370158
-0.0172449
0.0156959
-0.0361051
0.0108716
-0.0245109
0.00581827
0.00226133
0.0203536
0.00641445
0.00389617
0.0229625
-0.00179622
0.0335361
-0.0150794
0.0301617
-0.00896737
-0.00560603
-0.0457663
-0.0046021
0.00700307
-0.0394259
-0.00798468
0.00719251
-0.0399237
0.00627203
-0.0387746
-0.0144728
0.00139797
0.0404296
-0.0132076
-0.00300903
0.0318753
-0.00409537
0.0306718
-0.00174597
0.0332859
0.00469213
-0.0150711
-0.0451871
1.31476e-05
0.0146123
-0.000931543
0.0156315
0.0143227
-0.00547644
-0.0208215
-0.00539429
-0.0221536
-0.0239034
0.0152421
0.0173645
)
;

boundaryField
{
    fuel
    {
        type            calculated;
        value           nonuniform List<scalar> 
36
(
0.000128005
0.000211499
0.000128007
0.000128005
0.000211498
0.000128008
0.000128005
0.000211499
0.000128007
-0.000128005
-0.000211499
-0.000128007
-0.000128005
-0.000211497
-0.000128009
-0.000128005
-0.000211499
-0.000128007
0
0
0
0
0
0
0
0
0
0
0
0
0
0
0
0
0
0
)
;
    }
    primary_air
    {
        type            calculated;
        value           nonuniform List<scalar> 9(-0.00319458 -0.00527589 -0.00319089 -0.00319516 -0.00527618 -0.00319137 -0.00319481 -0.00527674 -0.00319139);
    }
    Secondary_air_RHS
    {
        type            calculated;
        value           nonuniform List<scalar> 9(0.00525208 0.00844239 0.00525585 0.00524183 0.0084135 0.00524645 0.00523715 0.00843365 0.00524336);
    }
    Secondary_air_LHS
    {
        type            calculated;
        value           nonuniform List<scalar> 9(0.00525048 0.00842777 0.0052451 0.00524016 0.00839856 0.00523448 0.00523587 0.00841878 0.00522976);
    }
    outlet
    {
        type            calculated;
        value           nonuniform List<scalar> 
18
(
-0.0540371
0.0813245
-0.00279476
-0.0545974
0.0695583
-0.0393464
-0.0540177
0.0634892
-0.0517234
-0.0534529
0.063927
-0.0507358
-0.0538511
0.0703959
-0.0389787
-0.0535408
0.0819513
-0.00293106
)
;
    }
    stove_body
    {
        type            calculated;
        value           uniform 0;
    }
    frontAndBack
    {
        type            empty;
        value           nonuniform 0();
    }
}


// ************************************************************************* //
