/*--------------------------------*- C++ -*----------------------------------*\
  =========                 |
  \\      /  F ield         | OpenFOAM: The Open Source CFD Toolbox
   \\    /   O peration     | Website:  https://openfoam.org
    \\  /    A nd           | Version:  6
     \\/     M anipulation  |
\*---------------------------------------------------------------------------*/
FoamFile
{
    version     2.0;
    format      ascii;
    class       volScalarField;
    location    "4";
    object      T;
}
// * * * * * * * * * * * * * * * * * * * * * * * * * * * * * * * * * * * * * //

dimensions      [0 0 0 1 0 0 0];

internalField   nonuniform List<scalar> 
297
(
291.138
291.132
291.141
293.003
293.002
293.001
291.139
291.134
291.141
291.184
291.165
291.184
293.289
293.228
293.32
291.186
291.166
291.185
291.557
291.508
291.607
295.602
300.059
313.439
291.56
291.509
291.61
325.151
325.11
309.779
302.341
309.306
297.288
324.132
320.702
306.465
350.894
336.849
353.601
330.633
319.297
325.788
348.77
344.054
352.612
350.978
329.222
361.283
335.534
336.619
334.602
349.296
332.046
360.747
334.336
322.776
339.134
353.836
351.891
356.899
332.48
325.695
337.886
329.293
322.416
330.728
353.83
355.457
356.968
323.931
325.344
339.052
320.142
314.081
324.128
353.718
337.805
353.105
313.002
316.526
326.379
352.272
323.336
361.108
342.582
349.284
345.77
349.997
326.603
360.632
345.597
322.139
349.32
347.075
349.253
347.873
343.507
325.835
347.642
340.075
321.998
345.892
351.789
349.463
354.705
338.116
325.733
343.913
307.898
309.187
313.512
337.636
320.931
353.082
304.87
306.016
307.812
302.731
304.97
310.167
307.752
319.811
351.516
301.873
304.446
305.06
302.652
303.854
306.467
309.256
317.434
334.357
303.118
304.843
305.404
305.358
302.574
302.934
335.703
304.832
304.556
301.163
300.039
299.424
309.599
304.431
305.03
349.465
346.223
334.997
304.97
301.677
301.373
307.575
305.068
306.812
334.677
334.623
334.496
305.193
303.455
308.255
301.929
301.493
305.755
310.006
331.84
334.004
299.003
301.66
302.288
302.431
301.887
302.871
313.695
316.262
307.794
300.644
301.116
301.705
302.724
302.48
302.791
310.733
308.876
308.443
302.305
301.596
301.969
302.484
302.583
302
302.597
304.522
303.566
297.911
298.902
298.207
302.896
302.551
301.703
302.733
304.209
304.012
297.461
300.054
299.836
303.418
302.18
301.117
302.962
306.501
308.677
297.116
301.07
302.404
301.357
300.513
300.193
301.086
305.489
306.102
296.841
301.963
301.096
298.18
297.981
297.028
300.179
302.984
304.396
293.902
294.931
297.017
291.544
291.364
290.639
291.216
288.715
285.75
290.433
290.132
298.798
302.082
302.353
303.165
304.291
304.517
303.853
299.264
300.037
299.676
301.771
302.068
303.313
305.301
304.451
303.935
300.495
300.794
299.224
301.483
301.866
303.643
327.317
314.667
305.804
307.963
301.349
298.404
300.822
301.692
302.656
315.385
311.651
303.363
304.083
301.677
297.808
294.27
297.851
296.208
311.918
307.064
302.218
300.051
295.85
294.382
290.675
291.449
291.531
289.567
290.358
292.437
302.063
291.382
290.719
)
;

boundaryField
{
    fuel
    {
        type            fixedValue;
        value           uniform 293;
    }
    primary_air
    {
        type            fixedValue;
        value           uniform 293;
    }
    Secondary_air_RHS
    {
        type            fixedValue;
        value           uniform 293;
    }
    Secondary_air_LHS
    {
        type            fixedValue;
        value           uniform 293;
    }
    outlet
    {
        type            inletOutlet;
        inletValue      uniform 293;
        value           nonuniform List<scalar> 
18
(
293
289.566
293
293
290.357
293
293
292.437
293
293
291.216
293
293
288.716
293
293
285.75
293
)
;
    }
    stove_body
    {
        type            fixedValue;
        value           uniform 293;
    }
    frontAndBack
    {
        type            empty;
    }
}


// ************************************************************************* //
