/*--------------------------------*- C++ -*----------------------------------*\
  =========                 |
  \\      /  F ield         | OpenFOAM: The Open Source CFD Toolbox
   \\    /   O peration     | Website:  https://openfoam.org
    \\  /    A nd           | Version:  6
     \\/     M anipulation  |
\*---------------------------------------------------------------------------*/
FoamFile
{
    version     2.0;
    format      ascii;
    class       volVectorField;
    location    "4";
    object      U;
}
// * * * * * * * * * * * * * * * * * * * * * * * * * * * * * * * * * * * * * //

dimensions      [0 1 -1 0 0 0 0];

internalField   nonuniform List<vector> 
297
(
(86.0869 -0.0363302 0.249727)
(86.0488 -0.0144359 0.248405)
(86.0874 0.0383368 0.224735)
(0.000290305 0.0643102 0.345719)
(0.000656404 0.0206622 0.341476)
(0.000248979 -0.0503243 0.328084)
(-86.0855 -0.0390394 0.250239)
(-86.0826 -0.0152055 0.24596)
(-86.087 0.0409293 0.225148)
(86.0876 -0.0350102 0.276493)
(86.0487 -0.00537835 0.288883)
(86.0927 0.01789 0.265116)
(0.000270767 0.0806748 -0.165969)
(0.000600851 0.0192604 -0.0855546)
(0.000234776 -0.162237 0.00350056)
(-86.0869 -0.0362592 0.276912)
(-86.0829 -0.00511877 0.292272)
(-86.0925 0.0168257 0.265519)
(86.2022 -0.104836 0.559447)
(86.1919 0.00991925 0.578997)
(86.2267 0.0831769 0.563876)
(0.000222128 -0.476451 0.463137)
(0.000440012 0.280982 0.373798)
(0.000201475 -0.047176 0.27078)
(-86.2026 -0.103076 0.558875)
(-86.1912 0.0101021 0.582698)
(-86.2273 0.0782519 0.563547)
(62.8199 2.67664 0.724682)
(63.1064 0.929185 -4.16961)
(59.5937 2.01349 -2.5369)
(-0.0152182 0.0116623 5.54052)
(-0.0160932 -0.430224 3.76366)
(-0.0138195 0.771207 4.16268)
(-62.6941 3.60748 0.951774)
(-61.9638 1.49279 -0.341297)
(-58.7955 0.79397 -1.82136)
(68.4997 8.94271 0.268525)
(65.7751 2.88802 -8.68674)
(69.0636 -4.3774 15.0911)
(-0.0169244 8.83482 35.1332)
(-0.0135232 0.28062 21.9636)
(-0.00970061 -4.29823 36.8241)
(-68.1445 11.4527 -0.587976)
(-67.1919 4.4728 -0.754119)
(-68.9572 -1.2023 14.3665)
(67.6166 10.1357 -9.29603)
(63.8267 -3.29577 -17.1224)
(69.6227 -13.5078 0.0761151)
(-0.0141647 -3.88687 46.6527)
(-0.0148636 -1.88227 12.4952)
(-0.00701883 3.75324 48.7984)
(-67.3544 13.6705 -8.75955)
(-64.53 -6.13618 -4.22736)
(-69.5816 -7.90033 3.61828)
(64.6294 3.26915 -44.5102)
(62.6813 -0.561575 -29.7326)
(65.6126 -3.80139 -40.7932)
(-0.0222812 -1.22841 6.02764)
(-0.0290087 1.04503 -8.52338)
(-0.0386611 -0.120631 14.5284)
(-64.3381 5.74648 -44.5504)
(-63.3664 -0.370599 -25.5262)
(-65.9118 4.31301 -32.837)
(64.4362 13.1379 -28.4671)
(62.4763 -0.928066 -34.1826)
(64.6514 -13.8878 -25.1998)
(-0.0148485 0.614007 2.06431)
(-0.0112119 0.452067 1.41799)
(-0.0364899 -2.22489 13.5105)
(-63.3974 14.1186 -30.0481)
(-63.4365 -3.50408 -31.5048)
(-66.5804 -7.46917 -18.8213)
(62.61 25.9856 -33.2951)
(61.0697 0.421021 -34.3311)
(63.3345 -26.2783 -31.0682)
(0.000920983 -1.83689 7.35997)
(-0.00477942 4.11205 -6.3391)
(-0.0294135 0.724252 14.5674)
(-61.3022 18.2193 -29.9065)
(-61.7801 -13.0666 -27.242)
(-63.8297 -19.2976 -22.1355)
(60.3643 14.0131 -41.8198)
(59.6928 -1.14773 -20.2899)
(62.6749 -16.5179 -37.6196)
(-0.0162002 -2.64528 61.865)
(-0.0279458 -1.70291 -22.1603)
(0.0114421 1.99707 64.3943)
(-60.0323 17.3971 -41.592)
(-61.5858 -3.447 -14.2445)
(-62.3016 -10.5916 -34.3278)
(57.9429 7.93724 -46.5033)
(61.1891 -0.724424 -21.5509)
(59.4033 -9.30317 -42.705)
(-0.0141786 -2.2124 68.0272)
(-0.028949 -1.3154 -22.7601)
(0.0114456 1.27681 70.8796)
(-57.666 10.9047 -46.4242)
(-62.3183 -2.6503 -15.5209)
(-61.1369 -3.73393 -39.5455)
(53.4895 6.22119 -46.1213)
(62.544 -0.910336 -23.6723)
(55.2982 -7.23784 -42.3659)
(-0.0144619 -1.72144 66.8757)
(-0.0307263 -0.660528 -19.372)
(0.0146269 0.579135 70.1112)
(-53.2347 8.97559 -46.1007)
(-63.1621 -2.21147 -18.6315)
(-61.6698 -0.0302788 -37.872)
(58.6905 38.7223 -8.80327)
(59.4952 0.429027 -10.1032)
(59.7055 -40.5867 -7.24503)
(-0.0375648 -8.27948 2.63016)
(-0.025114 -4.25442 -6.53282)
(-0.0528468 6.9088 13.1302)
(-58.7087 33.3953 -7.27604)
(-58.9805 -6.99114 -8.14696)
(-59.2034 -36.7965 -7.66422)
(58.4013 34.2853 -3.09854)
(59.1001 1.81269 -5.89023)
(59.8242 -35.6813 -1.74251)
(-0.0389884 0.0990168 -3.2813)
(-0.0317169 -5.17653 -3.14354)
(-0.0509303 6.85641 9.38062)
(-58.6933 25.6916 1.40361)
(-58.9699 -11.2369 -0.833325)
(-59.3188 -30.6824 2.6548)
(58.8328 -2.71331 1.25292)
(59.2025 -9.99189 1.9705)
(59.561 -12.7112 6.0544)
(-0.0443294 -9.33461 -1.5903)
(-0.0382701 -7.3876 -0.820767)
(-0.0489246 3.09766 1.95562)
(-59.1455 -9.08524 -3.1014)
(-59.41 -7.33321 1.55731)
(-59.6346 11.9238 -3.5599)
(56.9641 -43.5717 -3.85194)
(58.1105 -46.882 -12.39)
(58.3055 -28.7333 -22.0628)
(-0.100861 6.1342 7.43178)
(-0.127071 -6.18975 -8.45097)
(-0.224811 -7.65891 -11.8482)
(-57.7421 -42.6158 -3.38928)
(-57.0089 -47.4472 -7.65061)
(-56.7857 -51.0492 -8.32072)
(58.6253 -36.5039 3.12739)
(59.1846 -42.5772 -7.77608)
(58.0913 -26.1359 -23.2825)
(-0.0650154 16.535 4.80924)
(-0.098546 15.0026 5.50474)
(-0.20457 9.38089 11.3382)
(-58.7117 -33.3488 7.99111)
(-58.716 -39.0771 7.18426)
(-58.5735 -41.4431 4.53489)
(59.5698 -12.1475 12.7094)
(59.4909 -5.23455 4.12818)
(58.1621 -22.9476 -30.9909)
(-0.0447274 15.5529 1.10786)
(-0.063101 19.0793 0.859295)
(-0.11384 31.3748 7.52607)
(-59.3759 -1.68969 7.34496)
(-59.213 4.52196 8.60446)
(-59.612 17.2804 12.1579)
(58.1779 27.1985 -21.1119)
(57.3869 44.1599 -8.25574)
(56.5019 40.1428 -2.81709)
(-0.226172 1.53577 -2.73611)
(-0.146042 -10.786 3.3587)
(-0.109631 -12.2941 1.39352)
(-56.9702 48.4488 -7.10944)
(-57.5862 42.7795 -5.49804)
(-58.1605 38.9341 -2.82248)
(57.5082 24.3191 -22.4242)
(58.7228 39.7176 -7.42721)
(57.4892 35.925 3.06122)
(-0.182863 -5.65351 8.75951)
(-0.0904971 -5.22673 0.284073)
(-0.0623664 -9.24313 -3.52165)
(-58.1119 38.2562 4.91338)
(-58.3929 34.2744 6.32765)
(-58.2718 31.0903 6.72894)
(57.3782 21.6576 -30.4769)
(58.8625 2.64545 7.94308)
(58.5839 10.7651 11.1902)
(-0.0979876 -25.0181 8.82303)
(-0.0600303 -13.1504 2.01341)
(-0.0494365 -11.7722 -0.379818)
(-58.4658 -15.5649 10.5437)
(-58.8114 -6.2957 5.93585)
(-58.7725 -0.539868 5.64373)
(57.7458 -9.0413 -11.7423)
(57.7685 2.12021 -31.263)
(57.8084 19.6237 -28.0235)
(-0.0262646 2.08112 -3.68083)
(-0.132157 -4.86862 -9.32735)
(-0.235906 9.40304 -8.32264)
(-56.1741 22.494 -28.0033)
(-55.6466 28.3498 -20.1188)
(-57.4514 46.8977 -14.7125)
(57.7728 -4.82956 9.55086)
(57.8725 7.61306 -38.7675)
(57.6878 19.0212 -37.8651)
(-0.0939389 1.24316 13.0198)
(-0.203636 -0.98769 7.80064)
(-0.248278 7.71729 9.59868)
(-56.6913 6.10025 -50.3553)
(-56.8473 19.1164 -26.5891)
(-58.3936 36.6955 -3.48985)
(57.5797 0.955954 6.1785)
(60.7843 4.07574 -47.0269)
(58.9718 11.7479 -48.7325)
(-0.17355 -0.628088 10.5664)
(-0.250227 -10.8479 10.0183)
(-0.23467 -19.2943 16.4828)
(-59.2143 3.97164 -65.6349)
(-57.3466 19.1323 -20.2773)
(-57.2219 -8.80211 21.1111)
(57.8094 6.23311 -11.8019)
(58.3025 2.27481 -64.3167)
(58.0714 -7.28452 -81.8652)
(-0.378527 1.14023 59.4969)
(-0.386093 -1.34432 33.2351)
(-0.393757 -12.0153 31.8333)
(-58.6823 -7.99698 -96.3689)
(-59.2218 9.64657 16.8667)
(-59.1585 -0.800615 61.4419)
(56.9869 0.807311 -124.181)
(57.0814 2.04015 -130.915)
(56.8728 6.53314 -127.211)
(-0.21814 3.18023 79.6342)
(-0.213519 4.81249 70.1455)
(-0.222862 1.00889 66.8503)
(-57.4389 2.11129 -129.437)
(-57.5071 -4.35335 -26.7951)
(-57.4399 1.79481 105.182)
(54.6957 0.182574 -158.026)
(54.7583 0.221052 -159.715)
(54.5089 -0.994127 -158.394)
(0.393332 -0.106015 160.276)
(0.417768 2.05009 175.55)
(0.440389 0.586164 203.188)
(-53.8317 -7.02169 -148.724)
(-53.3136 -6.89473 -106.481)
(-54.5672 -2.89775 -4.10082)
(57.7376 -23.052 -30.3266)
(57.7015 -2.1886 -33.1542)
(57.9047 8.89261 -12.8101)
(-0.243151 -10.4498 -11.8835)
(-0.130908 1.34826 -11.6756)
(-0.0145169 -3.28888 -5.72454)
(-57.5931 -49.7914 -16.2423)
(-55.6646 -30.1483 -21.6499)
(-56.3497 -23.9258 -30.1535)
(57.7002 -21.8826 -38.0407)
(57.7276 -8.9492 -39.9806)
(57.9146 4.07721 9.5999)
(-0.265272 -8.63611 11.7857)
(-0.218364 -0.760282 8.40195)
(-0.0921067 -1.82594 12.9987)
(-58.5258 -39.3469 -3.80139)
(-56.8462 -20.4275 -27.8666)
(-56.8937 -6.4769 -52.4475)
(58.9676 -13.5116 -48.5713)
(61.1269 -6.84776 -48.6527)
(57.5888 -1.68027 2.80627)
(-0.26151 23.6844 17.0504)
(-0.280399 12.654 8.62452)
(-0.1829 1.85791 9.88118)
(-58.2104 8.45706 22.4791)
(-57.3098 -20.3053 -21.1817)
(-59.4898 -4.04445 -68.277)
(58.0069 8.36801 -81.538)
(58.4666 -1.77439 -66.568)
(57.972 -6.30103 -12.1765)
(-0.412919 14.153 37.346)
(-0.402332 0.397621 37.6086)
(-0.39608 -0.900961 61.7915)
(-59.7094 0.457928 64.4878)
(-59.1775 -9.48025 22.3892)
(-58.8616 8.26968 -99.2007)
(56.2285 -7.00489 -131.692)
(57.0026 -1.40589 -134.228)
(56.4944 -1.1409 -127.389)
(-0.236217 -0.474496 70.4967)
(-0.220741 -5.10487 71.7296)
(-0.223151 -3.46951 82.53)
(-57.9909 -2.81959 109.005)
(-57.6503 6.38582 -49.631)
(-57.4568 -2.71749 -132.917)
(54.4466 0.90345 -160.301)
(54.7551 -0.328911 -162.718)
(54.6242 -0.130784 -160.221)
(0.436934 -0.476948 204.379)
(0.405774 -2.10383 174.477)
(0.381146 0.106997 159.903)
(-55.1299 2.7039 -3.52525)
(-53.5228 7.21268 -107.464)
(-53.895 7.18693 -152.469)
)
;

boundaryField
{
    fuel
    {
        type            fixedValue;
        value           uniform (0 0 0.25);
    }
    primary_air
    {
        type            fixedValue;
        value           uniform (0 0 2.5);
    }
    Secondary_air_RHS
    {
        type            fixedValue;
        value           uniform (0 41.6667 0);
    }
    Secondary_air_LHS
    {
        type            fixedValue;
        value           uniform (0 -41.6667 0);
    }
    outlet
    {
        type            pressureInletOutletVelocity;
        value           nonuniform List<vector> 
18
(
(0 0 -160.301)
(0.436934 -0.476948 204.379)
(0 0 -3.52525)
(0 0 -162.718)
(0.405774 -2.10383 174.477)
(0 0 -107.464)
(0 0 -160.221)
(0.381146 0.106997 159.903)
(0 0 -152.469)
(0 0 -158.026)
(0.393332 -0.106015 160.276)
(0 0 -148.724)
(0 0 -159.715)
(0.417768 2.05009 175.55)
(0 0 -106.481)
(0 0 -158.394)
(0.440389 0.586164 203.188)
(0 0 -4.10082)
)
;
    }
    stove_body
    {
        type            noSlip;
    }
    frontAndBack
    {
        type            empty;
    }
}


// ************************************************************************* //
