/*--------------------------------*- C++ -*----------------------------------*\
  =========                 |
  \\      /  F ield         | OpenFOAM: The Open Source CFD Toolbox
   \\    /   O peration     | Website:  https://openfoam.org
    \\  /    A nd           | Version:  6
     \\/     M anipulation  |
\*---------------------------------------------------------------------------*/
FoamFile
{
    version     2.0;
    format      ascii;
    class       volScalarField;
    location    "4";
    object      p;
}
// * * * * * * * * * * * * * * * * * * * * * * * * * * * * * * * * * * * * * //

dimensions      [1 -1 -2 0 0 0 0];

internalField   nonuniform List<scalar> 
297
(
120468
120468
120468
199375
199375
199376
120454
120454
120454
120468
120468
120468
199375
199376
199376
120454
120454
120454
120468
120468
120468
199376
199376
199376
120454
120454
120454
97059.9
97065.5
97061.7
160448
160485
160538
97101
97127.8
97129.5
97056
97009.7
96995.5
160109
160219
160181
97077.6
97065.4
97067
97007
97011.4
96686.1
158166
159358
158209
96972.8
96994.7
96762.7
96080.7
96440.4
96169.9
159210
158911
158939
96198.7
96434.7
96189.9
96463
96643.6
96539.5
160007
159753
159775
96584.8
96561.7
96412.9
96513.5
96827.4
96755.4
160049
160019
160007
96848.8
96850.4
96571.8
95492.5
97113.6
95714.7
152618
157953
154811
95038.5
96997.6
95770.2
95278.3
97080
95559.9
152016
157895
154356
94767.3
96966.5
95623.8
95253.2
97003
95465.7
152490
157993
154484
94676.1
96907.1
95543.8
97045.1
97328.5
97235.6
160022
160118
160213
97191.1
97294.1
97123.5
97160.5
97399.5
97354.7
160046
160190
160301
97280.1
97348.5
97171.7
97247
97388.1
97382.8
160068
160234
160339
97309.2
97328.9
97195.9
97050
96920
96813.9
160102
160039
159908
97457.6
97643
98308.8
97000.4
96705.8
96401.3
160081
159952
159710
97117.6
97134.6
97633.4
96986.9
96637.5
96275.9
160097
159899
159598
97034.4
96921.9
96893.1
98456.5
97775.5
97554.7
159804
159891
159897
96714.4
96878.7
97018.3
97667.8
97191
97197.4
159551
159820
159889
96302
96647.7
96942.6
96789.7
96863.8
97071.4
159420
159752
159883
96185.3
96589.1
96934.6
98919.4
99102.5
98981
159590
159589
159644
99027.9
98234.3
97141.4
98541.5
98640.8
98349.7
159208
159181
159258
98035.9
97057.8
96347.6
98064.7
98135.6
97681.7
158569
158668
158731
96893.7
96137.8
95758.8
95218.7
95147.4
95132.1
154408
154388
154217
92547.8
92491.9
92413
90147
90067.7
90070.7
146723
146695
146642
88768.7
88739.3
88654.9
84166.2
84149
84130.3
134882
134785
134686
86648.4
86803.3
86995.2
97307.4
98459.8
99295.4
159821
159781
159793
98867.7
98991.9
98806.6
96518.3
97275.6
98287.7
159472
159381
159459
98251
98509.1
98437.1
95961.5
96390.1
97141.8
159003
158952
158899
97610.5
98014.4
98021.9
92664.4
92745.2
92792.6
154631
154845
154867
95434.8
95472
95536.9
88806.7
88902.6
88936.5
146924
146981
147003
90313.3
90309.2
90381.2
87041.8
86861.2
86708.7
134815
134911
135000
84261.5
84277.4
84292
)
;

boundaryField
{
    fuel
    {
        type            zeroGradient;
    }
    primary_air
    {
        type            zeroGradient;
    }
    Secondary_air_RHS
    {
        type            zeroGradient;
    }
    Secondary_air_LHS
    {
        type            zeroGradient;
    }
    outlet
    {
        type            totalPressure;
        rho             rho;
        psi             none;
        gamma           1;
        p0              uniform 100000;
        value           nonuniform List<scalar> 
18
(
99996.2
100000
86579.9
93525
100000
86501.2
87930.3
100000
86647.3
86474.6
100000
87824.9
86265
100000
93590.7
86402.2
100000
99998.3
)
;
    }
    stove_body
    {
        type            zeroGradient;
    }
    frontAndBack
    {
        type            empty;
    }
}


// ************************************************************************* //
