/*--------------------------------*- C++ -*----------------------------------*\
  =========                 |
  \\      /  F ield         | OpenFOAM: The Open Source CFD Toolbox
   \\    /   O peration     | Website:  https://openfoam.org
    \\  /    A nd           | Version:  6
     \\/     M anipulation  |
\*---------------------------------------------------------------------------*/
FoamFile
{
    version     2.0;
    format      ascii;
    class       volScalarField;
    location    "1";
    object      Qdot;
}
// * * * * * * * * * * * * * * * * * * * * * * * * * * * * * * * * * * * * * //

dimensions      [1 -1 -3 0 0 0 0];

internalField   nonuniform List<scalar> 
297
(
0
0
0
0.000161796
0.000268491
0.000161796
5.33473e-05
0
8.08981e-05
8.08981e-05
8.08981e-05
5.33473e-05
0
0
0
8.08981e-05
8.08981e-05
0
0
5.33473e-05
0
0
5.33473e-05
0
-1.94733e-10
0
-1.94733e-10
0
0
2.86249e-11
-1.55786e-09
-1.55786e-09
0
0
0
0
-1.55786e-09
0
0
-3.11573e-09
0
2.86249e-11
0
0
0
0
0
0
1.43124e-11
1.55786e-09
0
0
0
0
0
3.57811e-12
0
0
0
-1.55786e-09
1.78906e-12
0
0
-1.55786e-09
0
0
0
0
0
-1.55786e-09
0
0
0
0
0
0
0
0
0
1.04137e-22
0
-7.78932e-10
0
0
0
-1.55786e-09
0
0
7.15622e-12
-7.78932e-10
0
0
-7.78932e-10
0
-1.55786e-09
-1.55786e-09
-7.78932e-10
0
0
0
0
-7.78932e-10
0
0
0
-7.78932e-10
-1.55786e-09
0
0
3.178e-27
0
0
0
0
0
0
0
0
0
-1.55786e-09
1.21231e-32
1.55176e-30
0
2.42462e-32
0
0
0
7.75879e-31
0
0
0
0
4.84925e-32
7.75879e-31
4.84925e-32
-1.55786e-09
0
0
0
4.51621e-41
0
0
0
1.7228e-46
0
0
0
0
0
-3.11573e-09
0
0
0
0
0
2.75648e-45
0
2.25811e-41
0
0
9.03242e-41
-1.55786e-09
-1.55786e-09
9.2492e-38
0
0
0
0
0
0
0
0
0
0
0
0
0
0
0
0
2.75648e-45
9.03242e-41
0
5.51295e-45
0
0
0
0
0
0
1.31439e-51
0
0
0
0
8.0224e-56
1.31439e-51
0
0
0
-1.55786e-09
0
0
0
0
5.13434e-54
0
0
0
4.20605e-50
2.507e-57
2.56717e-54
-3.11573e-09
0
0
0
0
0
1.60448e-55
0
1.60448e-55
-1.55786e-09
0
0
0
0
0
0
2.0056e-56
0
-1.55786e-09
0
0
4.89649e-60
0
0
0
0
0
-1.55786e-09
0
3.0603e-61
0
0
0
-1.55786e-09
0
0
2.507e-57
0
0
1.2535e-57
0
0
0
0
0
0
8.4121e-50
0
1.2535e-57
0
-1.55786e-09
0
2.10303e-50
-3.11573e-09
-3.11573e-09
4.20605e-50
1.28358e-54
0
-1.55786e-09
0
0
-1.55786e-09
0
-1.55786e-09
0
0
0
0
-1.55786e-09
0
0
-1.55786e-09
-1.55786e-09
0
3.0603e-61
0
0
-1.55786e-09
0
1.60448e-55
-1.55786e-09
0
0
0
0
)
;

boundaryField
{
    fuel
    {
        type            calculated;
        value           uniform 0;
    }
    primary_air
    {
        type            calculated;
        value           uniform 0;
    }
    Secondary_air_RHS
    {
        type            calculated;
        value           uniform 0;
    }
    Secondary_air_LHS
    {
        type            calculated;
        value           uniform 0;
    }
    outlet
    {
        type            calculated;
        value           uniform 0;
    }
    stove_body
    {
        type            calculated;
        value           uniform 0;
    }
    frontAndBack
    {
        type            empty;
    }
}


// ************************************************************************* //
