/*--------------------------------*- C++ -*----------------------------------*\
  =========                 |
  \\      /  F ield         | OpenFOAM: The Open Source CFD Toolbox
   \\    /   O peration     | Website:  https://openfoam.org
    \\  /    A nd           | Version:  6
     \\/     M anipulation  |
\*---------------------------------------------------------------------------*/
FoamFile
{
    version     2.0;
    format      ascii;
    class       volScalarField;
    location    "1";
    object      T;
}
// * * * * * * * * * * * * * * * * * * * * * * * * * * * * * * * * * * * * * //

dimensions      [0 0 0 1 0 0 0];

internalField   nonuniform List<scalar> 
297
(
292.63
292.625
292.63
292.921
292.912
292.921
292.63
292.625
292.63
292.712
292.632
292.71
294.08
293.16
294.071
292.711
292.631
292.711
293.686
292.894
293.644
448.45
295.36
447.551
293.597
292.885
293.685
299.597
298.039
298.625
298.662
297.757
297.952
299.755
298.172
298.708
300.581
299.067
299.997
297.415
296.425
296.473
300.759
299.188
300.128
300.909
298.179
300.689
293.074
302.006
293.348
301.109
298.278
300.828
290.756
301.581
291.375
301.456
299.362
300.838
290.867
301.782
291.48
297.601
300.691
298.023
300.795
300.773
300.493
297.875
301.005
298.149
303.853
303.942
304.032
304.645
304.485
304.74
304.362
304.371
304.343
285.73
297.645
286.533
287.917
299.005
286.62
285.364
297.258
287.141
284.742
297.662
286.045
285.375
298.548
283.949
284.865
297.597
286.188
287.113
297.722
288.242
286.46
298.22
284.938
287.238
297.998
288.38
303.075
304.358
303.103
304.577
305.068
304.648
303.613
304.905
303.687
303.841
304.22
304.081
305.265
305.168
305.231
304.297
304.725
304.528
304.313
304.229
304.258
305.585
305.097
305.579
304.634
304.69
304.67
302.764
302.796
303.034
304.227
304.269
304.552
303.475
303.598
303.884
303.968
303.756
303.879
305.04
304.966
305.113
304.455
304.236
304.326
304.441
304.325
304.05
305.759
305.766
305.728
304.85
304.734
304.483
303.082
302.84
302.772
304.371
304.132
304.099
303.816
303.557
303.454
303.756
303.645
303.865
305.164
304.962
305.041
304.264
304.147
304.338
304.095
304.362
304.475
305.793
305.831
305.818
304.427
304.676
304.79
303.4
303.631
303.292
305.456
305.204
304.737
304.646
304.622
304.124
303.539
303.843
303.531
305.982
305.799
305.51
304.531
304.53
304.132
303.442
303.814
303.526
306.225
305.968
305.895
304.307
304.174
303.917
303.375
303.787
303.346
307.054
306.018
306.453
304.009
303.819
303.73
300.057
300.14
300.14
303.553
303.294
305.221
300.057
300.137
300.138
292.653
292.686
292.734
292.726
292.793
293.127
292.652
292.685
292.733
303.32
303.796
303.605
304.926
305.314
305.523
304.203
304.72
304.772
303.662
304.097
303.724
305.42
305.783
306.085
304.199
304.593
304.57
303.48
303.913
303.638
305.835
305.959
306.281
303.987
304.25
304.376
303.194
303.709
303.002
306.77
306.242
307.038
303.796
303.887
304.08
300.18
300.182
300.097
305.493
303.547
303.545
300.178
300.178
300.093
292.751
292.702
292.672
293.287
292.927
292.811
292.75
292.701
292.671
)
;

boundaryField
{
    fuel
    {
        type            fixedValue;
        value           uniform 293;
    }
    primary_air
    {
        type            fixedValue;
        value           uniform 293;
    }
    Secondary_air_RHS
    {
        type            fixedValue;
        value           uniform 293;
    }
    Secondary_air_LHS
    {
        type            fixedValue;
        value           uniform 293;
    }
    outlet
    {
        type            inletOutlet;
        inletValue      uniform 293;
        value           nonuniform List<scalar> 
18
(
293
293.287
293
293
292.927
293
293
292.811
293
293
292.726
293
293
292.794
293
293
293.127
293
)
;
    }
    stove_body
    {
        type            fixedValue;
        value           uniform 293;
    }
    frontAndBack
    {
        type            empty;
    }
}


// ************************************************************************* //
