/*--------------------------------*- C++ -*----------------------------------*\
  =========                 |
  \\      /  F ield         | OpenFOAM: The Open Source CFD Toolbox
   \\    /   O peration     | Website:  https://openfoam.org
    \\  /    A nd           | Version:  6
     \\/     M anipulation  |
\*---------------------------------------------------------------------------*/
FoamFile
{
    version     2.0;
    format      ascii;
    class       volVectorField;
    location    "1";
    object      U;
}
// * * * * * * * * * * * * * * * * * * * * * * * * * * * * * * * * * * * * * //

dimensions      [0 1 -1 0 0 0 0];

internalField   nonuniform List<vector> 
297
(
(33.494 -0.023573 0.218643)
(33.488 -5.74358e-05 0.268114)
(33.494 0.0235209 0.218608)
(3.61525e-05 0.0265958 0.277462)
(-4.77052e-05 9.06736e-05 0.258814)
(3.61956e-05 -0.0265014 0.277454)
(-33.494 -0.0241257 0.218664)
(-33.4931 -3.69983e-05 0.268244)
(-33.494 0.0240861 0.218633)
(33.5026 -0.0374784 0.263434)
(33.488 -5.42905e-05 0.291223)
(33.5024 0.0373785 0.263402)
(3.89069e-05 0.0977918 0.238521)
(-4.0445e-05 0.000284771 0.0863178)
(3.89855e-05 -0.0975663 0.238792)
(-33.5023 -0.0381964 0.263408)
(-33.4932 -1.87339e-05 0.291463)
(-33.5023 0.0381375 0.263404)
(31.278 -0.0696507 0.397463)
(33.5245 -0.000265282 0.508259)
(31.3933 0.0699444 0.398355)
(4.23022e-05 0.0322601 -0.0448037)
(-2.35745e-05 0.000194059 0.247427)
(4.22848e-05 -0.033047 -0.0444795)
(-31.2852 -0.0707199 0.397425)
(-33.5235 -0.000166299 0.508599)
(-31.3955 0.0708397 0.398422)
(22.5596 9.50989 1.51853)
(22.3276 5.5492 7.1389)
(22.4617 -9.48645 9.0423)
(-0.000119864 5.48146 2.33529)
(5.55145e-05 2.69635 2.03387)
(1.58029e-05 -5.99607 4.94216)
(-22.5718 9.51395 1.42939)
(-22.3378 5.7245 7.15816)
(-22.4669 -9.36127 9.23421)
(22.6592 11.5236 9.74859)
(22.6547 2.35157 40.238)
(22.6719 -12.6733 17.2101)
(0.000577716 24.3143 76.2045)
(-5.49386e-05 0.160834 71.3427)
(-0.000326113 -27.3436 80.6983)
(-22.6709 11.5758 10.0023)
(-22.6637 1.70606 40.003)
(-22.6829 -12.469 17.1867)
(22.0877 -0.989699 -18.4261)
(22.7016 4.04614 61.3976)
(22.0683 -0.932071 -0.868812)
(0.00141323 -21.2875 116.556)
(-0.00103049 0.913574 -11.0784)
(0.000921378 18.8742 121.677)
(-22.0982 -1.29699 -18.2675)
(-22.7117 4.63414 61.7196)
(-22.0766 -1.22827 -1.08512)
(22.3013 -17.4271 -124.819)
(22.346 -4.06393 -7.73622)
(22.3749 20.316 -116.295)
(-0.000189687 -3.84617 1.94735)
(-0.000904733 3.33091 -80.575)
(0.000224984 2.40635 15.4641)
(-22.3109 -17.4631 -124.965)
(-22.3645 -4.17563 -7.87795)
(-22.3824 20.2501 -116.288)
(22.5334 37.7033 -84.1284)
(22.5939 -13.7174 -73.923)
(22.5947 -29.5001 -76.2773)
(0.000478842 17.5844 -48.0223)
(-0.000287358 1.70202 -60.9348)
(0.000299534 -11.2285 -32.8843)
(-22.5526 37.6891 -84.1663)
(-22.6181 -13.5599 -73.9715)
(-22.6033 -29.541 -76.243)
(22.9732 27.7236 -26.6941)
(22.9453 -16.9939 -22.571)
(23.0175 -32.5941 -26.4146)
(7.57466e-05 28.5208 -27.6015)
(-0.000355648 12.3997 -28.3134)
(0.000294657 -17.4212 -30.2945)
(-23.0116 27.6988 -26.6778)
(-22.9786 -16.918 -22.589)
(-23.0403 -32.535 -26.4129)
(16.3454 2.76836 -184.274)
(21.8534 -0.874636 83.4275)
(16.5409 -2.07878 -174.014)
(-0.00605707 -12.7165 164.313)
(-0.00269941 3.40548 -99.5536)
(0.0040799 10.2192 169.339)
(-16.3359 2.63521 -184.453)
(-21.8382 -0.991715 83.6131)
(-16.5713 -2.36722 -173.802)
(17.1891 -2.76719 -187.525)
(19.5742 -1.2813 82.836)
(17.3422 4.21805 -177.528)
(-0.00482836 -6.88885 183.43)
(-0.00306454 3.43102 -102.521)
(0.00314468 4.41701 188.61)
(-17.2048 -2.84276 -187.754)
(-19.5893 -1.45238 83.0024)
(-17.3478 3.99097 -177.301)
(21.2199 -8.80136 -169.362)
(19.7526 -1.62187 80.1942)
(21.1636 11.067 -159.989)
(-0.00347228 -1.17561 179.874)
(-0.00383731 3.46271 -102.958)
(0.00199909 -1.12677 185.274)
(-21.2527 -8.82237 -169.574)
(-19.7946 -1.86773 80.264)
(-21.1605 10.9187 -159.832)
(22.6354 55.6505 -14.2983)
(22.8024 1.27712 -15.6071)
(22.6415 -56.0134 -14.5661)
(-0.000175026 39.7103 -16.3168)
(-0.000551361 -4.12227 -16.5247)
(-5.58531e-05 -40.5734 -14.0207)
(-22.6763 55.5494 -14.3087)
(-22.8449 1.33175 -15.6193)
(-22.6858 -55.8855 -14.557)
(22.9185 34.9916 -4.56069)
(23.0041 -3.02134 -1.31316)
(22.9378 -35.3172 -4.61503)
(-0.000214507 21.5288 -8.28107)
(-0.000593037 0.872682 -7.23375)
(-0.000124566 -22.7013 -7.86115)
(-22.9531 34.933 -4.58735)
(-23.044 -2.97137 -1.35016)
(-22.972 -35.2366 -4.6434)
(23.0478 -3.90612 -5.00498)
(23.0486 -0.667014 3.33297)
(23.0436 4.3952 -5.20302)
(-0.000242369 6.58247 -5.5829)
(-0.000587998 -1.76282 -2.05575)
(-0.000155814 -6.8141 -4.59065)
(-23.0728 -3.80933 -5.02997)
(-23.0853 -0.652815 3.2903)
(-23.0751 4.34113 -5.19463)
(22.6066 -58.7534 -6.02392)
(22.8675 -53.2412 -9.36989)
(22.785 -45.5487 -12.6969)
(-0.000111775 -45.7267 -5.49902)
(-0.000156252 -43.6686 -5.0818)
(-0.000333005 -36.555 -5.23576)
(-22.6606 -58.6222 -5.99073)
(-22.9284 -53.1019 -9.32599)
(-22.8499 -45.4167 -12.6514)
(22.8138 -43.6067 -2.82121)
(22.9884 -45.2641 -10.9601)
(22.6987 -38.2838 -20.4042)
(-7.94243e-05 -37.1717 -0.328067)
(-7.03483e-05 -37.4915 1.56328)
(-0.0001725 -31.4763 3.62116)
(-22.851 -43.5391 -2.84091)
(-23.025 -45.1706 -10.9611)
(-22.733 -38.2063 -20.3945)
(23.078 -8.02018 -5.05974)
(23.0739 -23.6885 -18.3272)
(22.7265 -32.8657 -29.0761)
(-5.94142e-05 -19.7108 2.05305)
(1.83938e-05 -20.9122 4.35255)
(5.08012e-05 -22.8799 4.27488)
(-23.1092 -8.03421 -5.02176)
(-23.1054 -23.6525 -18.2719)
(-22.7595 -32.8089 -29.0328)
(22.7908 45.1702 -12.5992)
(22.8709 52.7647 -9.29686)
(22.6083 58.2896 -6.0066)
(-0.000254858 36.4158 -5.24174)
(-0.000135984 43.1725 -5.01997)
(-0.000129574 45.7927 -5.55528)
(-22.8468 45.0613 -12.5742)
(-22.9255 52.6554 -9.26457)
(-22.6601 58.1932 -5.98018)
(22.6926 37.96 -20.2307)
(22.9796 44.9287 -10.9096)
(22.8111 43.1969 -2.88126)
(-0.000149192 31.2596 3.5261)
(-8.59072e-05 37.2313 1.63946)
(-0.000104055 37.0605 -0.538844)
(-22.731 37.9018 -20.2384)
(-23.0178 44.8726 -10.9106)
(-22.8459 43.1579 -2.89307)
(22.7321 32.5992 -28.8344)
(23.077 23.6195 -18.3526)
(23.0793 7.45805 -5.12736)
(3.32317e-06 22.7065 4.22824)
(-3.21559e-05 20.8247 4.27036)
(-0.000102218 19.6254 1.98879)
(-22.7575 32.5615 -28.8087)
(-23.1014 23.5961 -18.3009)
(-23.1036 7.5311 -5.07477)
(22.6219 14.1409 -22.1802)
(22.6346 21.0304 -15.263)
(22.7181 32.7458 -17.8166)
(-0.00090753 13.491 -11.1251)
(-0.000720496 18.2629 -6.10115)
(-0.000477771 27.7357 -6.47431)
(-22.7178 14.0987 -22.0768)
(-22.7109 20.9759 -15.1856)
(-22.7815 32.6424 -17.7652)
(22.6843 5.5519 -34.0292)
(22.7154 18.207 -24.1596)
(22.64 31.5519 -30.4668)
(-0.00073188 9.24691 -10.2403)
(-0.000540486 14.3974 -4.90519)
(-0.000339402 25.3105 -3.08775)
(-22.7608 5.56798 -33.8876)
(-22.7686 18.183 -24.1127)
(-22.6853 31.501 -30.4392)
(22.9945 4.66804 -42.5163)
(22.7737 20.1585 -37.7044)
(22.6846 18.3679 -46.9012)
(-0.000578602 7.42416 -16.3296)
(-0.000412063 15.1496 -11.1949)
(-0.00022137 20.5483 -0.793178)
(-23.061 4.68063 -42.3655)
(-22.8031 20.1354 -37.6661)
(-22.7153 18.3412 -46.8432)
(22.9098 -5.68953 -67.8558)
(22.9108 -4.40801 -63.0878)
(22.919 -10.2202 -67.4065)
(7.76208e-05 -6.32373 4.48867)
(9.93455e-05 1.67912 17.6305)
(0.000125446 -7.84453 14.7177)
(-22.9573 -5.62225 -67.7053)
(-22.9133 -4.37626 -63.0839)
(-22.9478 -10.2223 -67.2996)
(22.5234 2.4678 -132.632)
(22.5133 -1.15764 -133.006)
(22.5057 4.6018 -131.743)
(0.000322847 -2.03592 64.4905)
(0.000287991 0.195529 66.7855)
(0.000283731 -1.89326 61.1297)
(-22.5224 2.43325 -132.531)
(-22.5123 -1.14507 -132.957)
(-22.5048 4.59883 -131.684)
(21.4272 -0.0923309 -165.933)
(21.4294 -0.0287332 -165.834)
(21.4318 -0.165203 -165.499)
(0.000207911 -0.596343 172.119)
(0.00020439 0.333144 170.774)
(0.000202394 -0.518679 168.609)
(-21.4266 -0.0900057 -165.898)
(-21.4288 -0.0275612 -165.803)
(-21.4312 -0.164238 -165.469)
(22.7169 -33.0446 -17.9584)
(22.6424 -21.2218 -15.3762)
(22.6323 -14.258 -22.3787)
(-0.00057184 -28.1104 -6.51882)
(-0.000830355 -18.4425 -6.15893)
(-0.00102571 -13.6607 -11.2253)
(-22.7846 -32.9221 -17.8863)
(-22.7141 -21.1529 -15.284)
(-22.7228 -14.2072 -22.2529)
(22.6442 -31.7707 -30.7127)
(22.7304 -18.3932 -24.3256)
(22.694 -5.5848 -34.3538)
(-0.000409779 -25.5512 -3.1282)
(-0.000621495 -14.5156 -4.96735)
(-0.000815753 -9.32596 -10.3756)
(-22.6858 -31.6986 -30.6691)
(-22.7698 -18.3483 -24.2728)
(-22.7599 -5.59457 -34.1876)
(22.6758 -18.4903 -47.3074)
(22.7782 -20.297 -38.0395)
(23.0084 -4.70424 -42.9401)
(-0.000257828 -20.7841 -0.806547)
(-0.000460742 -15.2439 -11.363)
(-0.000635386 -7.50808 -16.524)
(-22.7157 -18.4592 -47.2239)
(-22.8061 -20.2582 -37.9964)
(-23.0653 -4.70976 -42.766)
(22.9063 10.2299 -67.94)
(22.9034 4.45296 -63.5986)
(22.8807 5.76445 -68.5346)
(0.000125416 7.77874 14.6728)
(9.11953e-05 -1.63991 17.4981)
(6.21501e-05 6.37614 3.84204)
(-22.9515 10.2354 -67.8152)
(-22.9169 4.4259 -63.6007)
(-22.9618 5.69722 -68.3542)
(22.5077 -4.58983 -132.299)
(22.5154 1.16636 -133.557)
(22.5258 -2.50379 -133.235)
(0.000353242 1.89666 61.1784)
(0.000356269 -0.135825 66.8401)
(0.000393506 2.06979 64.9212)
(-22.5065 -4.58593 -132.228)
(-22.5142 1.15004 -133.499)
(-22.5244 -2.47074 -133.152)
(21.4329 0.166069 -165.973)
(21.4305 0.0283817 -166.31)
(21.4287 0.0941354 -166.413)
(0.00022497 0.508069 168.414)
(0.000225649 -0.34664 170.624)
(0.000227158 0.588564 171.874)
(-21.4323 0.165357 -165.938)
(-21.4299 0.0282596 -166.274)
(-21.4281 0.0924659 -166.374)
)
;

boundaryField
{
    fuel
    {
        type            fixedValue;
        value           uniform (0 0 0.25);
    }
    primary_air
    {
        type            fixedValue;
        value           uniform (0 0 2.5);
    }
    Secondary_air_RHS
    {
        type            fixedValue;
        value           uniform (0 150 0);
    }
    Secondary_air_LHS
    {
        type            fixedValue;
        value           uniform (0 -150 0);
    }
    outlet
    {
        type            pressureInletOutletVelocity;
        value           nonuniform List<vector> 
18
(
(0 0 -165.973)
(0.00022497 0.508069 168.414)
(0 0 -165.938)
(0 0 -166.31)
(0.000225649 -0.34664 170.624)
(0 0 -166.274)
(0 0 -166.413)
(0.000227158 0.588564 171.874)
(0 0 -166.374)
(0 0 -165.933)
(0.000207911 -0.596343 172.119)
(0 0 -165.898)
(0 0 -165.834)
(0.00020439 0.333144 170.774)
(0 0 -165.803)
(0 0 -165.499)
(0.000202394 -0.518679 168.609)
(0 0 -165.469)
)
;
    }
    stove_body
    {
        type            noSlip;
    }
    frontAndBack
    {
        type            empty;
    }
}


// ************************************************************************* //
