/*--------------------------------*- C++ -*----------------------------------*\
  =========                 |
  \\      /  F ield         | OpenFOAM: The Open Source CFD Toolbox
   \\    /   O peration     | Website:  https://openfoam.org
    \\  /    A nd           | Version:  6
     \\/     M anipulation  |
\*---------------------------------------------------------------------------*/
FoamFile
{
    version     2.0;
    format      ascii;
    class       volScalarField;
    location    "4.5";
    object      p;
}
// * * * * * * * * * * * * * * * * * * * * * * * * * * * * * * * * * * * * * //

dimensions      [1 -1 -2 0 0 0 0];

internalField   nonuniform List<scalar> 
297
(
121036
121035
121033
201681
201681
201680
121034
121035
121035
121036
121034
121033
201682
201682
201681
121033
121034
121035
121035
121034
121033
201682
201681
201681
121033
121034
121035
97209.7
97150.7
97228.8
161614
161568
161621
97211.1
97151.6
97230.2
97309.8
96605.5
97334.9
160881
161033
160950
97321.1
96606.1
97329.3
94082.7
93888.6
94237.8
151945
157019
152237
94085.3
93888.4
94238
91589.1
94394.1
91332.9
156224
155682
156210
91581
94392.8
91339.1
96290.9
96504.6
96190.4
160614
159875
160579
96290.8
96504.3
96192
96358.2
96726.8
96333.8
160499
161068
160561
96357.8
96725.8
96334.5
74140.7
91614.2
74513.8
122021
152727
121463
74071.4
91611.7
74521.1
74047.3
91508.1
74275
120372
152763
119505
73974.1
91507.5
74281.9
76317.2
91811.4
76443.7
122704
153825
121625
76252.4
91809
76448.2
96934.3
97062.4
96931
161344
161637
161321
96933.3
97061.6
96930.8
97040.9
97063.9
97029.9
161580
161715
161550
97039.9
97063.4
97029.6
97047.8
97060.1
97040.1
161694
161731
161661
97047
97059.6
97039.7
97158.7
97344.3
97756.8
161504
161633
161877
97157.8
97342.8
97753.6
97074.9
97137.2
97398.3
161522
161553
161665
97074.3
97136.4
97396.5
96995.8
96890.1
96781.2
161608
161548
161520
96995.5
96890.1
96781.4
97756.3
97344.9
97160.6
161887
161647
161524
97754.2
97343.7
97159.4
97398.4
97137.3
97076.2
161676
161568
161543
97397.3
97136.5
97075.2
96783.8
96891.4
96997.9
161533
161564
161630
96783.7
96891.2
96997.2
98629.5
98470.8
98180.6
162649
162506
162236
98620.2
98463.5
98176.1
98401.4
98202.9
97876.1
162355
162231
161971
98394.1
98197.7
97873.3
98125.3
97910
97511.2
161983
161846
161651
98119.7
97906.3
97509.7
96661.8
96586.5
96443.7
160233
160159
160059
96662.9
96587.9
96445.3
91050.8
91077.7
91125.3
151014
151016
151016
91053.3
91079.8
91127.3
83567.1
83567.3
83569.6
134757
134758
134749
83568.6
83568.8
83571.1
98182.2
98473.1
98632.3
162230
162502
162647
98176.6
98464.9
98622.3
97877.1
98204.2
98403.2
161964
162227
162351
97873.1
98198.1
98395.2
97510.7
97910
98125.7
161643
161840
161977
97508.4
97905.6
98119.5
96437.5
96580.5
96655.9
160047
160148
160223
96439.3
96582.1
96657.2
91112.8
91065.2
91038.3
150996
150996
150994
91115.4
91067.8
91041.3
83554.6
83552.2
83552
134726
134734
134733
83556.4
83554.1
83553.8
)
;

boundaryField
{
    fuel
    {
        type            zeroGradient;
    }
    primary_air
    {
        type            zeroGradient;
    }
    Secondary_air_RHS
    {
        type            zeroGradient;
    }
    Secondary_air_LHS
    {
        type            zeroGradient;
    }
    outlet
    {
        type            totalPressure;
        rho             rho;
        psi             none;
        gamma           1;
        p0              uniform 100000;
        value           nonuniform List<scalar> 
18
(
87318.5
100000
87320.7
87286.9
100000
87289.2
87277.8
100000
87280.2
87291.6
100000
87293.7
87300.8
100000
87302.6
87332.3
100000
87334
)
;
    }
    stove_body
    {
        type            zeroGradient;
    }
    frontAndBack
    {
        type            empty;
    }
}


// ************************************************************************* //
