/*--------------------------------*- C++ -*----------------------------------*\
  =========                 |
  \\      /  F ield         | OpenFOAM: The Open Source CFD Toolbox
   \\    /   O peration     | Website:  https://openfoam.org
    \\  /    A nd           | Version:  6
     \\/     M anipulation  |
\*---------------------------------------------------------------------------*/
FoamFile
{
    version     2.0;
    format      ascii;
    class       surfaceScalarField;
    location    "4.5";
    object      phi;
}
// * * * * * * * * * * * * * * * * * * * * * * * * * * * * * * * * * * * * * //

dimensions      [1 0 -1 0 0 0 0];

internalField   nonuniform List<scalar> 
675
(
-8.68797e-07
-2.72487e-05
0.000154704
-6.43413e-07
-2.7445e-05
0.000155487
-2.64297e-05
0.000154495
2.37648e-07
2.64449e-05
0.000162196
3.92389e-06
2.75095e-05
0.000156778
2.72006e-05
0.000162783
3.08559e-06
0.000154498
3.31722e-06
0.000155503
0.00015465
-8.86436e-07
-4.95483e-05
0.000202595
-6.8579e-07
-3.72959e-05
0.000192731
-4.8441e-05
0.000201955
-1.953e-06
4.85649e-05
6.87554e-05
6.40528e-06
3.73505e-05
7.76557e-05
4.92517e-05
7.0526e-05
3.13338e-06
0.000202059
3.32581e-06
0.00019277
0.000202258
-4.24693e-06
7.55309e-05
2.08091e-06
5.65011e-05
7.5308e-05
1.16503e-05
-7.58636e-05
-7.35578e-06
-5.65762e-05
-7.47361e-05
5.12317e-08
6.33117e-06
0.00379989
0.00475723
-0.00536415
-0.00383149
0.00662539
0.00420544
0.00474754
-0.00538454
0.00479247
-0.00471843
0.0099904
-0.00564784
-0.00663857
0.029008
-0.00481188
0.00921878
0.00391335
-0.00543732
-0.00371161
0.00418577
-0.00532993
0.0125297
0.0104309
-0.0283252
-0.0127119
-0.00390244
0.0333503
0.0097435
-0.0278418
0.00414378
-0.0105025
0.0267765
-0.00369682
0.00387769
0.0290649
-0.0096949
0.0249553
0.0124314
-0.0283716
-0.012779
0.0332752
-0.0278048
-0.000499668
0.0214568
-0.0492821
0.000255673
-0.00818718
0.0407815
0.0209559
-0.048542
-0.0527835
-0.021457
0.122475
0.053173
0.00820445
-0.0932827
-0.0209253
0.120009
-0.000431601
-0.0493989
0.000324505
0.0407224
-0.0484051
-0.0300711
-0.0269671
-0.0234954
0.0805334
0.0293448
0.00863644
-0.0370137
-0.0310383
-0.0283341
-0.0228242
0.0805032
-0.00148705
0.0270081
0.0220221
-0.0745119
0.00390739
-0.00861868
-0.108863
0.120724
0.0283089
0.021005
-0.0737414
-0.0301376
-0.0234187
0.0805642
0.0292715
-0.0370444
-0.030984
-0.0228036
0.0803841
0.00658833
-0.0095462
-0.0205372
-0.010743
0.0138145
-0.0334921
-0.0130287
-0.0205355
0.0221977
0.00954939
-0.0192695
-0.0149297
-0.0137992
-0.0441277
0.012996
-0.0199468
0.00665393
-0.0205219
-0.0107057
-0.0334795
-0.0205095
0.00139869
-0.000129129
-0.0217983
-0.0117202
0.000904262
-0.0212702
-0.010016
-0.0222321
0.0150336
0.000152237
-0.034592
0.00780166
-0.00085518
-0.0351446
0.00995408
-0.032123
0.00140752
-0.0217694
-0.011657
-0.0212633
-0.0222041
-0.00179779
-0.000514064
-0.0591635
0.00168168
-0.000146051
0.0374229
-0.000411543
-0.0587021
-0.00328226
0.000520251
0.104659
0.00357228
0.000146768
-0.100429
0.000412511
0.102785
-0.00180459
-0.0592552
0.00167237
0.0373612
-0.0585751
-0.00180794
0.000272529
-0.0697972
0.00173516
-0.000585864
0.0345076
0.00039337
-0.0695692
-0.0038011
-0.000252933
0.0891967
0.00385475
0.000586035
-0.109257
-0.000387549
0.0877738
-0.00181016
-0.0698555
0.00172811
0.0344607
-0.0694439
-0.00244872
0.000633857
0.00239889
-0.00139651
0.000762533
-0.0042316
-0.000626254
0.00444105
0.00139656
-0.00076238
-0.00245731
0.00239342
0.00776906
-0.000941882
-0.0109545
-0.017668
-0.00672218
-0.000940024
-0.0058352
-0.000863839
-0.0104021
-0.0176855
0.00789425
0.000944627
-0.0205259
-0.0238495
-0.0105393
0.000944322
-0.0185992
0.000862986
-0.0203382
-0.0240534
0.00775875
-0.0109588
-0.0176219
-0.00668792
-0.00586877
-0.0103961
-0.0176301
0.0028381
4.16077e-05
-0.00249852
-0.0113323
-0.00342107
-8.0017e-05
0.00050826
0.000159604
-0.00271119
-0.0112684
0.00582072
-2.9384e-05
-0.00801503
-0.018264
-0.00590159
8.97409e-05
-0.0070509
-0.000158113
-0.00740712
-0.018518
0.00284571
-0.00251263
-0.011318
-0.00340159
0.000472343
-0.00270856
-0.0112441
0.0001854
-0.000175924
-0.00250442
0.000606768
9.14159e-05
0.000126143
-0.00222717
0.00260871
0.000203312
-0.0110067
-0.00427562
-7.97153e-05
-0.000122
-0.0114379
0.000200795
-0.00250667
0.000597729
-0.00222954
-0.0161934
-1.82578e-05
-0.00147308
-0.0165623
0.00200295
-0.00163359
0.00246103
-0.00606655
-0.0129566
-0.022748
1.8472e-05
-0.0013431
-0.0202325
-0.00199877
0.00148499
-0.00245519
0.00237295
-0.0176906
-0.0161406
-0.00147039
-0.0165089
-0.00162993
-0.00605805
-0.0129059
-0.0120607
-3.44527e-05
-0.000645428
-0.0121132
0.00135374
-0.00293418
0.000608831
-0.00672238
-0.012066
-0.0196025
3.51524e-05
-0.000329215
-0.0165239
-0.00135102
0.00111004
-0.000605044
0.00335861
-0.0162969
-0.0120356
-0.0006428
-0.0120886
-0.00292737
-0.00671396
-0.0120375
-0.00285034
-2.11177e-05
-0.00522652
-0.000557249
-0.00129858
-0.0106501
-0.0118116
2.22855e-05
-0.0118166
0.0005568
0.00129814
-0.0110558
-0.00284892
-0.00521873
-0.0106343
0.0165493
0.00244539
-0.00605471
-0.0129399
0.0161696
0.00197451
-0.00159441
-4.58199e-05
-0.00145198
0.0201503
-0.00244166
0.00237019
-0.0176348
0.0226006
-0.00197108
0.00149402
4.68011e-05
-0.00134277
0.0165044
-0.006056
-0.0128898
0.0161246
-0.00159075
-0.00144979
0.0121262
0.000594823
-0.00672124
-0.0120543
0.0120998
0.00131032
-0.00287785
-8.82348e-05
-0.000595453
0.0164455
-0.000589515
0.00335312
-0.0162454
0.0194432
-0.00130782
0.0011132
9.10936e-05
-0.000344098
0.0121112
-0.00672482
-0.0120316
0.0120867
-0.00287342
-0.000589173
0.00524069
-0.00131373
-0.010648
0.00298517
-0.000621667
-0.000113655
0.0117146
0.00131387
-0.0109902
0.0115829
0.000621971
0.000117212
0.0052283
-0.0106389
0.00297757
0.00561511
0.0021399
-0.00775535
0.00869256
0.00202714
-0.00510482
0.00212339
-0.00637079
0.00806343
-0.00213164
-0.00379244
0.0129758
-0.00201909
-0.000866777
-0.0021162
-0.00042029
0.00558142
-0.00771316
0.00864395
-0.00508164
-0.00636191
0.00434276
0.00180366
-0.013902
0.00812015
0.00176113
-0.0106435
0.00134575
-0.0116507
0.00596503
-0.00179706
-0.00615728
0.0114886
-0.00175588
-0.00287399
-0.00133849
-0.00249362
0.00432257
-0.0138328
0.00809521
-0.0106101
-0.0116367
0.00533821
0.00352733
-0.0227676
0.0057957
0.00191286
-0.0130139
0.00110382
-0.0176067
0.00652175
-0.00351544
-0.00563683
0.010537
-0.00191061
-0.00306642
-0.0011046
-0.000739131
0.00530878
-0.0226571
0.00578054
-0.0129925
-0.0175995
-0.00635427
0.0123168
-0.0287288
-0.00121056
0.0106448
-0.0288006
0.0103228
-0.0291379
0.0013468
-0.0123191
0.0176484
-0.00135225
-0.0106692
0.0209433
-0.0103448
0.0185734
-0.00630077
-0.0286747
-0.00117678
-0.0287846
-0.0291196
0.000446124
0.00580097
-0.0349748
0.00098706
0.00589058
-0.0352312
0.00661107
-0.0347611
-0.001981
-0.00582498
0.0312527
-0.00138726
-0.00591079
0.0321484
-0.0066284
0.0304232
0.000462894
-0.0349613
0.000992712
-0.035224
-0.0347542
-4.68578e-06
0.0183918
-0.000194277
0.0183043
0.018335
-0.000482523
-0.018398
0.00021333
-0.0183099
-0.0183405
-1.13245e-06
-0.000192482
-0.00870023
0.00213136
-0.00638778
-0.00562555
0.0020335
-0.00510835
0.00214511
-0.00777091
-0.0130057
-0.00212311
-0.000431337
-0.00808743
-0.00202491
-0.000860802
-0.00213584
-0.00380732
-0.00865589
-0.00637312
-0.00559165
-0.00508927
-0.00772772
-0.00812429
0.00134737
-0.0116769
-0.00434833
0.00176869
-0.0106531
0.00180936
-0.0139288
-0.0115194
-0.00134159
-0.00252082
-0.00597989
-0.00176303
-0.00286944
-0.00180183
-0.0061768
-0.00810053
-0.0116517
-0.00432711
-0.0106258
-0.0138568
-0.00579181
0.00111624
-0.0176513
-0.00534679
0.00191699
-0.0130151
0.00353407
-0.0228097
-0.0105499
-0.00111493
-0.000796379
-0.00653829
-0.00191458
-0.00305031
-0.00352104
-0.00566073
-0.00578042
-0.0176204
-0.0053194
-0.0130014
-0.0226973
0.00119677
0.0103348
-0.0291812
0.0063652
0.0106508
-0.028833
0.0123272
-0.0287708
0.00132403
-0.0103545
0.0185662
-0.00135048
-0.0106751
0.0209467
-0.0123304
0.0176425
0.00117636
-0.0291496
0.00631393
-0.0288128
-0.0287129
-0.000991539
0.00660377
-0.0347923
-0.000444023
0.00588302
-0.0352624
0.00579528
-0.0350088
0.0013877
-0.00662639
0.0304063
0.00198234
-0.00590842
0.0321411
-0.00582328
0.0312408
-0.000992065
-0.0347828
-0.000458929
-0.0352532
-0.0349939
0.000194898
0.0183279
6.43631e-06
0.0182967
0.0183843
-0.000214445
-0.0183347
0.00048417
-0.0183036
-0.0183918
0.000193609
3.40078e-06
)
;

boundaryField
{
    fuel
    {
        type            calculated;
        value           nonuniform List<scalar> 
36
(
0.00012817
0.00021357
0.000128167
0.000128168
0.000213569
0.000128168
0.000128167
0.000213569
0.000128169
-0.00012817
-0.000213569
-0.000128168
-0.000128169
-0.000213569
-0.000128169
-0.000128167
-0.000213568
-0.000128169
0
0
0
0
0
0
0
0
0
0
0
0
0
0
0
0
0
0
)
;
    }
    primary_air
    {
        type            calculated;
        value           nonuniform List<scalar> 9(-0.00319664 -0.00531449 -0.00319668 -0.00319469 -0.00531298 -0.00319473 -0.00319727 -0.00531472 -0.00319731);
    }
    Secondary_air_RHS
    {
        type            calculated;
        value           nonuniform List<scalar> 9(0.0122515 0.0199708 0.0122527 0.0122123 0.019649 0.0122134 0.0125688 0.0199975 0.0125696);
    }
    Secondary_air_LHS
    {
        type            calculated;
        value           nonuniform List<scalar> 9(0.0121902 0.0200627 0.0121788 0.0121748 0.0197916 0.0121628 0.0125481 0.020175 0.0125374);
    }
    outlet
    {
        type            calculated;
        value           nonuniform List<scalar> 
18
(
-0.0533151
0.067284
-0.0533111
-0.0533707
0.0680435
-0.0533666
-0.0533867
0.0685016
-0.0533823
-0.0533619
0.0685256
-0.0533582
-0.0533459
0.0680674
-0.0533426
-0.0532903
0.0673126
-0.0532872
)
;
    }
    stove_body
    {
        type            calculated;
        value           uniform 0;
    }
    frontAndBack
    {
        type            empty;
        value           nonuniform 0();
    }
}


// ************************************************************************* //
