/*--------------------------------*- C++ -*----------------------------------*\
  =========                 |
  \\      /  F ield         | OpenFOAM: The Open Source CFD Toolbox
   \\    /   O peration     | Website:  https://openfoam.org
    \\  /    A nd           | Version:  6
     \\/     M anipulation  |
\*---------------------------------------------------------------------------*/
FoamFile
{
    version     2.0;
    format      ascii;
    class       volScalarField;
    location    "4.5";
    object      Qdot;
}
// * * * * * * * * * * * * * * * * * * * * * * * * * * * * * * * * * * * * * //

dimensions      [1 -1 -3 0 0 0 0];

internalField   nonuniform List<scalar> 
297
(
0.000130089
0.000130089
0.000197272
0
0
0
0.000197272
0.000197272
0.000197272
0
0.000327361
0.000327361
0
0
0
0
0.000197272
0
6.50445e-05
0.000197272
0
0
6.50445e-05
0
0
0.000197272
0
3.49013e-11
-9.49724e-10
0
-1.89945e-09
0
0
-4.74862e-10
0
0
-4.74862e-10
-4.74862e-10
0
0
0
0
0
-4.66137e-10
0
0
0
0
-9.40999e-10
0
8.72533e-12
0
-4.74862e-10
0
0
0
-4.73771e-10
-4.74862e-10
0
-4.74862e-10
-4.74862e-10
0
0
0
-1.89945e-09
0
0
0
-9.49724e-10
0
-1.89945e-09
-9.49724e-10
0
0
0
0
0
3.25044e-20
0
8.1261e-21
0
0
-4.74862e-10
0
0
0
0
0
0
0
0
0
-4.74862e-10
0
0
-4.74862e-10
-4.74862e-10
0
0
-4.74862e-10
0
0
-4.74862e-10
0
-4.74862e-10
-4.74862e-10
0
0
0
0
0
0
0
4.95978e-25
6.19972e-26
0
0
0
-3.7989e-09
0
0
0
0
7.56802e-30
0
3.02721e-29
0
0
0
0
0
-7.59779e-09
0
-3.7989e-09
0
-3.7989e-09
0
8.81033e-40
0
0
8.81033e-40
0
-3.7989e-09
8.81033e-40
4.61915e-34
0
0
0
0
0
4.61915e-34
0
0
-3.7989e-09
-3.7989e-09
0
7.21743e-36
0
0
9.23831e-34
-3.7989e-09
0
1.10129e-40
0
0
-7.59779e-09
0
1.892e-30
0
1.44349e-35
9.46002e-31
0
0
0
0
0
0
0
-3.7989e-09
0
0
0
0
0
0
1.12772e-37
0
0
0
0
0
0
0
0
6.72175e-45
-3.7989e-09
0
0
2.44536e-56
0
-3.7989e-09
0
1.28207e-50
0
0
0
0
0
-3.7989e-09
0
0
0
0
0
0
0
-3.7989e-09
3.91257e-55
0
0
0
0
0
0
5.0081e-53
-3.7989e-09
0
3.0567e-57
0
-3.7989e-09
0
0
0
0
0
0
0
0
-3.7989e-09
-3.7989e-09
0
-3.7989e-09
7.64175e-58
0
0
0
1.34435e-44
0
0
0
0
0
5.25137e-47
0
0
0
0
0
0
-3.7989e-09
0
-3.7989e-09
0
-3.7989e-09
0
0
1.56503e-54
0
0
0
0
0
0
0
0
1.56503e-54
0
0
1.56503e-54
0
0
2.38805e-59
0
0
0
0
0
0
0
9.55218e-59
0
0
5.0081e-53
3.13006e-54
0
1.91044e-58
0
)
;

boundaryField
{
    fuel
    {
        type            calculated;
        value           uniform 0;
    }
    primary_air
    {
        type            calculated;
        value           uniform 0;
    }
    Secondary_air_RHS
    {
        type            calculated;
        value           uniform 0;
    }
    Secondary_air_LHS
    {
        type            calculated;
        value           uniform 0;
    }
    outlet
    {
        type            calculated;
        value           uniform 0;
    }
    stove_body
    {
        type            calculated;
        value           uniform 0;
    }
    frontAndBack
    {
        type            empty;
    }
}


// ************************************************************************* //
