/*--------------------------------*- C++ -*----------------------------------*\
  =========                 |
  \\      /  F ield         | OpenFOAM: The Open Source CFD Toolbox
   \\    /   O peration     | Website:  https://openfoam.org
    \\  /    A nd           | Version:  6
     \\/     M anipulation  |
\*---------------------------------------------------------------------------*/
FoamFile
{
    version     2.0;
    format      ascii;
    class       volVectorField;
    location    "4.5";
    object      U;
}
// * * * * * * * * * * * * * * * * * * * * * * * * * * * * * * * * * * * * * //

dimensions      [0 1 -1 0 0 0 0];

internalField   nonuniform List<vector> 
297
(
(13.7562 -0.00606547 0.271119)
(13.7573 -0.00368024 0.272147)
(13.7566 0.00238495 0.270826)
(-5.87441e-05 0.00700784 0.250647)
(9.38248e-07 0.00609235 0.2472)
(6.07443e-05 -0.000904689 0.250725)
(-13.7565 0.00356868 0.270909)
(-13.7573 0.0156113 0.272161)
(-13.7562 0.0120421 0.270975)
(13.756 -0.00687961 0.296201)
(13.7572 -0.00382227 0.287688)
(13.7563 0.00296138 0.295977)
(-5.85281e-05 0.0126513 0.0835437)
(1.11222e-06 0.00660909 0.118384)
(6.09153e-05 -0.00586363 0.0862819)
(-13.7563 0.00298348 0.295835)
(-13.7571 0.0157826 0.287757)
(-13.7559 0.0128006 0.296334)
(12.807 -0.0243378 0.440062)
(13.747 -0.0056967 0.460828)
(12.9047 0.0194741 0.44125)
(-4.70155e-05 -0.0328189 0.212505)
(1.20279e-06 0.00477333 0.170336)
(4.93896e-05 0.0371146 0.21165)
(-12.8778 -0.0144904 0.440872)
(-13.747 0.0154955 0.460841)
(-12.8801 0.0291915 0.440997)
(49.0524 5.29606 16.578)
(32.0128 -0.308594 22.9353)
(50.9003 -3.62909 15.1223)
(7.06793e-05 1.66648 18.1448)
(3.47649e-05 -0.372534 10.8744)
(7.76721e-05 -2.12006 17.3801)
(-49.2665 5.31734 16.1116)
(-32.0872 0.12326 23.0617)
(-50.9216 -3.47401 15.4452)
(70.689 -0.645371 35.3674)
(64.9871 -3.44319 110.23)
(73.3804 6.30123 33.562)
(0.0016027 36.6587 188.576)
(4.88193e-05 -0.526352 133.053)
(-0.000835821 -31.2108 190.369)
(-70.7066 -0.602838 35.3943)
(-65.1473 -4.46455 109.989)
(-73.6511 6.72781 33.5357)
(69.098 -42.6022 -51.2129)
(57.972 0.797969 153.206)
(71.6823 45.5415 -50.873)
(0.000321664 -50.9024 252.241)
(-1.37906e-05 1.29399 -22.5766)
(1.93898e-05 50.8256 257.844)
(-69.1189 -43.5572 -51.3384)
(-58.0754 1.89138 153.454)
(-71.9421 44.9573 -50.9717)
(45.2538 -49.5126 -212.2)
(33.8865 -3.42155 -25.724)
(46.885 53.9798 -212.965)
(-0.00146976 -55.7886 -19.9054)
(-8.14334e-05 1.71674 -116.493)
(0.0011224 58.5559 -27.1813)
(-45.2962 -49.5729 -212.496)
(-33.9092 -3.64436 -25.9132)
(-46.8949 53.9159 -213.152)
(21.8558 50.948 -125.271)
(14.175 -7.58003 -87.8699)
(24.1939 -44.1977 -128.223)
(-9.03644e-06 13.2648 -112.624)
(-1.56604e-05 6.05312 -98.5705)
(0.000160583 -10.7077 -115.56)
(-21.8706 50.8913 -125.427)
(-14.1818 -7.44632 -87.9088)
(-24.1863 -44.2255 -128.151)
(9.42505 30.1739 -25.4947)
(9.43128 -6.72265 -19.5496)
(9.42839 -28.1033 -25.7936)
(-7.65633e-06 25.4391 -23.6419)
(-2.27112e-05 6.48435 -24.8707)
(1.45054e-05 -21.9244 -22.4666)
(-9.4344 30.1092 -25.4817)
(-9.43614 -6.66369 -19.554)
(-9.43585 -28.0694 -25.7877)
(60.7254 -34.2693 -486.314)
(56.5794 -4.47232 199.434)
(62.1141 40.5082 -486.464)
(-0.0116026 -50.345 374.353)
(-0.000139386 4.50243 -144.347)
(0.00126189 52.3155 387.908)
(-60.6078 -34.9363 -486.67)
(-56.681 -4.51811 199.497)
(-62.4598 40.2767 -487.881)
(55.7626 -40.3646 -391.351)
(51.1222 -4.68921 195.094)
(53.4268 45.6386 -389.685)
(-0.0131776 -52.1343 421.174)
(-3.29661e-05 4.15814 -145.789)
(0.00134997 53.2529 440.531)
(-55.7964 -40.6472 -392.41)
(-51.2126 -4.81558 195.157)
(-53.573 45.4928 -390.459)
(50.2224 -39.1279 -343.805)
(51.4995 -4.61499 179.901)
(51.5384 44.6 -342.597)
(-0.0132412 -52.3771 467.544)
(-0.000145965 3.49609 -137.418)
(0.00095444 57.2656 484.244)
(-50.2853 -39.4781 -344.524)
(-51.5873 -4.88393 179.954)
(-51.6939 44.4584 -343.173)
(9.37107 46.137 -13.0254)
(9.42038 2.86446 -12.6416)
(9.36925 -46.0966 -13.0929)
(-1.98324e-05 36.8063 -13.594)
(-1.81203e-05 -4.25071 -13.5507)
(-4.26437e-06 -37.3595 -12.9362)
(-9.38057 46.0655 -13.0198)
(-9.42355 2.9231 -12.6468)
(-9.38064 -46.0061 -13.0882)
(9.43132 22.5396 -5.12582)
(9.44735 -2.5266 -2.30928)
(9.42878 -21.413 -5.08958)
(-2.1089e-05 25.8124 -5.53043)
(-1.03422e-05 -0.123192 -6.90435)
(-5.79461e-06 -26.3114 -5.49937)
(-9.43456 22.5315 -5.15753)
(-9.45224 -2.45155 -2.34067)
(-9.43586 -21.3848 -5.09544)
(9.45062 -2.13708 -5.38136)
(9.44917 0.5327 1.14376)
(9.44459 4.03684 -5.01724)
(-1.69217e-05 14.239 -3.18172)
(-1.03909e-05 -3.07515 -3.28027)
(-8.0602e-06 -15.3434 -2.64309)
(-9.45218 -1.95619 -5.34545)
(-9.45394 0.502876 1.06302)
(-9.4491 4.01135 -5.02195)
(9.35893 -49.9031 -5.71019)
(9.39451 -44.7055 -8.26525)
(9.37815 -38.4846 -11.2201)
(-1.94855e-05 -40.435 -4.62171)
(-3.22432e-05 -37.42 -4.55486)
(-6.86909e-05 -31.8001 -4.94021)
(-9.37088 -49.8108 -5.69014)
(-9.40688 -44.6098 -8.24121)
(-9.39103 -38.3952 -11.1969)
(9.40577 -36.0354 -2.94301)
(9.42411 -37.3762 -9.32436)
(9.37573 -32.8162 -17.7033)
(-1.22918e-05 -33.5023 0.201488)
(-1.72018e-05 -33.1515 1.53083)
(-3.88693e-05 -27.8479 2.42429)
(-9.41383 -35.9916 -2.95342)
(-9.4325 -37.3254 -9.32477)
(-9.38486 -32.7726 -17.7005)
(9.45148 -3.35377 -3.81068)
(9.44537 -18.0576 -16.6933)
(9.39783 -27.6686 -25.2324)
(-7.21624e-06 -19.92 2.62628)
(-1.19312e-06 -20.7591 3.4822)
(5.1032e-06 -21.1691 3.36552)
(-9.4564 -3.36838 -3.78972)
(-9.4508 -18.0393 -16.6624)
(-9.40405 -27.6386 -25.2014)
(9.38024 38.4266 -11.2168)
(9.39585 44.6711 -8.25498)
(9.36049 49.8327 -5.68117)
(-4.53457e-05 31.678 -4.93947)
(-2.52201e-05 37.28 -4.52892)
(-2.5111e-05 40.1965 -4.62493)
(-9.391 38.3328 -11.191)
(-9.40698 44.5813 -8.226)
(-9.37097 49.7596 -5.65482)
(9.38072 32.8048 -17.7189)
(9.42881 37.4259 -9.29525)
(9.40993 36.1156 -2.9257)
(-2.40472e-05 27.7116 2.4172)
(-1.61634e-05 32.9982 1.54745)
(-2.1036e-05 33.23 0.23921)
(-9.38484 32.7547 -17.735)
(-9.43255 37.3854 -9.30689)
(-9.4135 36.0841 -2.94799)
(9.4022 27.7034 -25.2222)
(9.44923 18.1089 -16.4599)
(9.45502 4.02188 -3.47554)
(-2.10005e-06 21.0124 3.41042)
(-6.01831e-06 20.5356 3.54602)
(-1.5879e-05 19.4895 2.68518)
(-9.40396 27.6718 -25.2145)
(-9.45084 18.07 -16.4287)
(-9.45656 3.992 -3.41371)
(9.34959 11.9762 -19.5553)
(9.35266 17.7212 -13.8204)
(9.36635 27.5267 -15.9955)
(-0.000201572 10.2078 -9.83731)
(-0.000158923 15.8624 -5.24679)
(-9.76217e-05 23.4799 -6.13852)
(-9.36966 11.9382 -19.4779)
(-9.36971 17.6727 -13.7515)
(-9.37853 27.4387 -15.9469)
(9.35774 5.16332 -29.37)
(9.37088 15.5754 -21.9208)
(9.36526 27.4269 -26.9691)
(-0.000160092 7.63307 -7.23726)
(-0.000114204 12.5506 -2.32351)
(-6.1817e-05 21.5304 -2.19764)
(-9.37524 5.17281 -29.2636)
(-9.38045 15.5474 -21.8508)
(-9.37079 27.396 -26.9405)
(9.40054 4.20365 -35.9887)
(9.37768 17.5985 -32.8666)
(9.37887 16.3329 -40.7907)
(-0.000122433 6.11335 -11.9719)
(-7.99225e-05 13.9073 -7.02578)
(-3.44475e-05 16.4756 -1.3892)
(-9.41775 4.212 -35.8729)
(-9.38294 17.6005 -32.8035)
(-9.381 16.3078 -40.77)
(9.39701 -4.35376 -57.4286)
(9.40272 -3.45798 -54.7579)
(9.40893 -10.2726 -59.5138)
(2.48348e-05 -5.0174 10.6714)
(3.05071e-05 2.86258 19.0751)
(3.55021e-05 -9.52829 16.1387)
(-9.41012 -4.29908 -57.3194)
(-9.40244 -3.42398 -54.756)
(-9.40989 -10.2785 -59.4844)
(9.2816 1.8282 -123.719)
(9.27797 -1.0876 -125.052)
(9.27606 4.81648 -123.836)
(6.05089e-05 -1.79134 62.6756)
(5.00753e-05 0.921832 65.5546)
(4.75032e-05 -2.013 60.5164)
(-9.28142 1.80576 -123.662)
(-9.27778 -1.08189 -125.026)
(-9.2759 4.82357 -123.808)
(8.88106 -0.011621 -159.127)
(8.882 -0.0410946 -159.061)
(8.8831 -0.0568938 -158.835)
(3.88747e-05 -0.579573 176.722)
(3.77345e-05 0.418636 175.585)
(3.70862e-05 -0.567835 173.804)
(-8.88095 -0.0107057 -159.112)
(-8.88189 -0.0398213 -159.048)
(-8.88299 -0.0564222 -158.822)
(9.36396 -27.5457 -16.0207)
(9.35229 -17.7498 -13.8241)
(9.34852 -11.9865 -19.5852)
(-0.000122341 -23.5318 -6.16799)
(-0.000176986 -15.927 -5.24806)
(-0.000217995 -10.1856 -9.86984)
(-9.37864 -27.4637 -15.9801)
(-9.36987 -17.7036 -13.7694)
(-9.36981 -11.9532 -19.5124)
(9.35994 -27.4551 -26.9894)
(9.36725 -15.5809 -21.9338)
(9.35435 -5.16216 -29.425)
(-8.69081e-05 -21.5652 -2.21721)
(-0.0001328 -12.6296 -2.3246)
(-0.000174892 -7.62059 -7.27681)
(-9.37082 -27.4216 -26.9614)
(-9.38089 -15.5516 -21.8898)
(-9.37555 -5.17264 -29.3212)
(9.37396 -16.3213 -40.8869)
(9.37561 -17.622 -32.8939)
(9.40044 -4.20634 -36.0655)
(-5.09643e-05 -16.4371 -1.48066)
(-9.58041e-05 -14.0094 -7.00507)
(-0.000134535 -6.11034 -12.0085)
(-9.38122 -16.3103 -40.8298)
(-9.3828 -17.6091 -32.8507)
(-9.41805 -4.21299 -35.951)
(9.40377 10.2839 -59.6381)
(9.40196 3.44507 -54.8437)
(9.39719 4.35711 -57.5567)
(4.00122e-05 9.57261 16.0705)
(3.40043e-05 -2.89865 19.0298)
(2.90051e-05 5.03899 10.6024)
(-9.41032 10.2887 -59.5811)
(-9.40289 3.42271 -54.8361)
(-9.41058 4.30807 -57.4389)
(9.27631 -4.82622 -123.947)
(9.27823 1.09474 -125.161)
(9.28183 -1.83308 -123.849)
(6.05516e-05 2.04308 60.526)
(6.18449e-05 -0.943691 65.5751)
(7.07479e-05 1.80392 62.6778)
(-9.27611 -4.82772 -123.909)
(-9.27801 1.08735 -125.13)
(-9.28162 -1.81072 -123.786)
(8.88322 0.0571234 -158.934)
(8.88213 0.0416461 -159.16)
(8.88119 0.0120589 -159.226)
(4.55539e-05 0.576319 173.763)
(4.60132e-05 -0.425015 175.542)
(4.69799e-05 0.584125 176.673)
(-8.88308 0.056753 -158.918)
(-8.88199 0.0406331 -159.144)
(-8.88105 0.0112671 -159.208)
)
;

boundaryField
{
    fuel
    {
        type            fixedValue;
        value           uniform (0 0 0.25);
    }
    primary_air
    {
        type            fixedValue;
        value           uniform (0 0 2.5);
    }
    Secondary_air_RHS
    {
        type            fixedValue;
        value           uniform (0 125 0);
    }
    Secondary_air_LHS
    {
        type            fixedValue;
        value           uniform (0 -125 0);
    }
    outlet
    {
        type            pressureInletOutletVelocity;
        value           nonuniform List<vector> 
18
(
(0 0 -158.934)
(4.55539e-05 0.576319 173.763)
(0 0 -158.918)
(0 0 -159.16)
(4.60132e-05 -0.425015 175.542)
(0 0 -159.144)
(0 0 -159.226)
(4.69799e-05 0.584125 176.673)
(0 0 -159.208)
(0 0 -159.127)
(3.88747e-05 -0.579573 176.722)
(0 0 -159.112)
(0 0 -159.061)
(3.77345e-05 0.418636 175.585)
(0 0 -159.048)
(0 0 -158.835)
(3.70862e-05 -0.567835 173.804)
(0 0 -158.822)
)
;
    }
    stove_body
    {
        type            noSlip;
    }
    frontAndBack
    {
        type            empty;
    }
}


// ************************************************************************* //
