/*--------------------------------*- C++ -*----------------------------------*\
  =========                 |
  \\      /  F ield         | OpenFOAM: The Open Source CFD Toolbox
   \\    /   O peration     | Website:  https://openfoam.org
    \\  /    A nd           | Version:  6
     \\/     M anipulation  |
\*---------------------------------------------------------------------------*/
FoamFile
{
    version     2.0;
    format      ascii;
    class       volScalarField;
    location    "0.0125";
    object      N2;
}
// * * * * * * * * * * * * * * * * * * * * * * * * * * * * * * * * * * * * * //

dimensions      [0 0 0 0 0 0 0];

internalField   nonuniform List<scalar> 
3773
(
0.581268
0.583483
0.580274
0.580975
0.582864
0.582727
0.58357
0.661357
0.673677
0.666165
0.669431
0.672638
0.668723
0.663849
0.581131
0.595536
0.592277
0.592397
0.592915
0.594675
0.58226
0.57924
0.586797
0.586561
0.586153
0.586198
0.588985
0.580183
0.581005
0.58826
0.592611
0.59157
0.593463
0.5936
0.582425
0.663837
0.670166
0.66786
0.671116
0.673631
0.667658
0.663826
0.585136
0.593931
0.58425
0.582045
0.584872
0.584537
0.585572
0.683787
0.702134
0.698941
0.700696
0.698747
0.698028
0.686804
0.981965
0.990795
0.98981
0.990353
0.990979
0.990369
0.982312
0.972976
0.969802
0.966195
0.968256
0.971047
0.96241
0.974418
0.975433
0.984881
0.984343
0.98399
0.984124
0.986809
0.977054
0.973289
0.981888
0.968992
0.96913
0.972507
0.967662
0.974651
0.982351
0.991549
0.990123
0.990789
0.99116
0.99045
0.982437
0.689492
0.694367
0.699914
0.70098
0.701683
0.700674
0.689118
0.753813
0.779735
0.780246
0.781311
0.779265
0.775563
0.753307
0.977457
0.989416
0.989011
0.989117
0.988705
0.98823
0.977422
0.991215
0.998335
0.997239
0.997758
0.998045
0.997563
0.990961
0.991849
0.999268
0.999561
0.999566
0.999591
0.999471
0.991981
0.990862
0.998972
0.997992
0.997969
0.998288
0.997516
0.990989
0.977972
0.988323
0.988547
0.98897
0.988705
0.988195
0.977732
0.751096
0.766801
0.772564
0.774781
0.77722
0.774113
0.749738
0.886842
0.909391
0.91192
0.912183
0.909589
0.906195
0.885818
0.983514
0.994612
0.994779
0.994833
0.994127
0.993926
0.983274
0.991947
0.999826
0.999761
0.99983
0.999886
0.999858
0.991931
0.992408
0.999944
0.999986
0.999982
0.999981
0.999893
0.992399
0.991952
0.99991
0.999856
0.999901
0.999888
0.999782
0.991973
0.983341
0.99363
0.994089
0.993862
0.994318
0.994054
0.983173
0.881785
0.900342
0.904967
0.90589
0.907616
0.905171
0.880802
0.95829
0.975098
0.976691
0.976824
0.976495
0.974932
0.95786
0.987932
0.998235
0.998525
0.998547
0.998504
0.998312
0.987822
0.992014
0.999889
0.999983
0.999987
0.999984
0.999963
0.99201
0.992442
0.999983
0.999999
0.999999
0.999999
0.999924
0.992413
0.992022
0.999963
0.999982
0.999983
0.999987
0.999965
0.992039
0.987751
0.998151
0.998346
0.998356
0.99849
0.998244
0.987702
0.955772
0.972323
0.974283
0.97474
0.975728
0.974205
0.955475
0.977976
0.995879
0.996183
0.996264
0.996222
0.995955
0.977912
0.989383
0.999597
0.999765
0.999778
0.99977
0.999663
0.989368
0.992111
0.99988
0.999997
0.999999
0.999998
0.999975
0.992111
0.992545
0.999988
1
1
1
0.99992
0.992488
0.992108
0.999952
0.999999
0.999997
0.999999
0.999978
0.992126
0.989299
0.999658
0.999757
0.999763
0.999756
0.999696
0.989289
0.976855
0.995342
0.995829
0.995952
0.995898
0.995774
0.976791
1
1
1
1
1
1
1
1
1
1
1
1
1
1
1
1
1
1
1
1
1
1
1
1
1
1
1
1
1
1
1
1
1
1
1
1
1
1
1
1
1
1
1
1
1
1
1
1
1
0.99823
0.999181
0.999292
0.999259
0.999263
0.999219
0.998139
0.997747
0.998737
0.998991
0.999013
0.999002
0.998696
0.997682
0.995891
0.996809
0.997131
0.997226
0.997136
0.996724
0.995885
0.992691
0.993085
0.9927
0.991234
0.992766
0.993358
0.992782
0.995376
0.995665
0.995659
0.995506
0.995393
0.99538
0.994736
0.99887
0.998834
0.998791
0.998655
0.998265
0.997932
0.996875
0.999236
0.999252
0.999248
0.999224
0.999088
0.998619
0.9973
0.999015
0.999953
0.999984
0.999989
0.999991
0.999995
0.999555
0.998682
0.999919
0.99997
0.999967
0.999936
0.999908
0.998884
0.997195
0.998391
0.99839
0.99838
0.998935
0.998469
0.997091
0.993422
0.993648
0.993383
0.991722
0.993744
0.994222
0.993643
0.996638
0.997204
0.997806
0.998145
0.998266
0.997855
0.996077
0.999836
0.999876
0.999923
0.999941
0.999937
0.999763
0.998338
0.999968
0.999969
0.999975
0.999986
0.999993
0.999905
0.998385
0.999317
0.999916
0.999977
0.999985
0.999989
0.999994
0.999934
0.99922
0.999841
0.999967
0.999949
0.999925
0.999881
0.999362
0.998169
0.99882
0.998834
0.998249
0.999067
0.999003
0.998042
0.994391
0.994722
0.994175
0.992473
0.994049
0.994755
0.994619
0.996793
0.997918
0.998773
0.998917
0.998888
0.99863
0.9972
0.999772
0.999814
0.999917
0.999951
0.999955
0.999958
0.99939
0.999966
0.999965
0.99997
0.999985
0.999994
0.999997
0.999252
0.999769
0.999943
0.999976
0.999985
0.999988
0.999993
0.999999
0.999362
0.999797
0.999963
0.999939
0.999919
0.999901
0.999797
0.998445
0.999032
0.999219
0.998695
0.999237
0.999086
0.998393
0.994924
0.995763
0.994977
0.994268
0.994718
0.995628
0.994923
0.996816
0.998203
0.999026
0.999139
0.999228
0.99902
0.997641
0.999734
0.999777
0.999905
0.999969
0.999987
0.999991
0.999742
0.999964
0.999962
0.999968
0.999984
0.999993
0.999998
0.999635
1
0.999997
0.999987
0.999986
0.999988
0.999993
0.999998
0.999669
0.999839
0.999952
0.999918
0.999888
0.999902
0.999928
0.998379
0.998995
0.999394
0.999389
0.999306
0.99898
0.998507
0.995105
0.996607
0.996885
0.996575
0.996235
0.996335
0.996006
0.996961
0.99871
0.999292
0.999347
0.999374
0.999165
0.998303
0.999717
0.999767
0.999864
0.99995
0.999987
0.999997
0.999828
0.999962
0.999959
0.999968
0.999984
0.999992
0.999997
0.999826
1
0.999994
0.999981
0.999982
0.999987
0.999993
0.999998
0.999992
0.999968
0.999952
0.999906
0.999844
0.999834
0.999858
0.99837
0.998906
0.999327
0.999565
0.999322
0.998833
0.998366
0.995737
0.996887
0.997919
0.997388
0.997586
0.996582
0.996262
0.997538
0.999007
0.999303
0.999327
0.999366
0.999221
0.998971
0.99968
0.999745
0.999833
0.999924
0.99998
0.999985
0.999916
0.999974
0.999964
0.999973
0.999984
0.999991
0.999993
0.999893
1
0.999992
0.999978
0.999981
0.999986
0.999991
0.999999
0.99998
0.999887
0.999866
0.999866
0.999816
0.99975
0.999824
0.998331
0.998853
0.999283
0.999627
0.999327
0.998792
0.998247
0.996198
0.997475
0.998418
0.998255
0.998293
0.997638
0.997381
0.997892
0.999086
0.999371
0.999416
0.999453
0.999276
0.999086
0.999871
0.999787
0.999819
0.999914
0.99997
0.999991
0.999957
0.999997
0.999978
0.999982
0.999982
0.999988
0.999993
0.999957
1
1
0.999999
0.999999
0.999999
1
1
0.999999
0.999994
0.999992
0.99999
0.999994
0.999998
0.999999
0.999287
0.999183
0.999445
0.999747
0.999715
0.999921
1
0.998006
0.998502
0.998888
0.998859
0.998922
0.998534
0.998713
0.999281
0.999473
0.999671
0.999718
0.99975
0.99962
0.999825
0.999988
0.999961
0.999943
0.999957
0.999981
0.999983
0.999998
1
1
0.999997
0.999999
0.999996
0.999991
1
1
1
0.999999
0.999999
0.999999
0.999999
1
0.999997
0.999992
0.999997
0.999996
0.999996
0.999997
0.999999
0.999772
0.999489
0.999694
0.999827
0.999893
0.999954
1
0.998838
0.999055
0.999194
0.999284
0.999115
0.998997
0.999313
0.999937
0.999883
0.999816
0.999842
0.999863
0.999831
0.999963
0.999999
0.999994
0.999972
0.999972
0.999987
0.999994
0.999998
1
0.999999
0.999997
0.999997
0.999998
0.999996
1
1
1
0.999999
0.999998
0.999998
0.999999
1
0.999999
0.999998
0.999998
0.99999
0.99999
0.999993
0.999997
0.999938
0.999716
0.999838
0.999867
0.999863
0.999865
0.999999
0.999454
0.999274
0.999467
0.999426
0.999422
0.999444
0.999718
1
0.99999
0.999949
0.999907
0.999915
0.999913
0.999988
1
0.999999
0.999995
0.999976
0.999986
0.999998
0.999999
1
1
1
0.999999
0.999999
0.999999
1
1
1
0.999999
0.999997
0.999998
0.999999
1
0.999999
0.999998
0.999997
0.999988
0.999979
0.999991
0.999998
0.99998
0.999891
0.99991
0.999903
0.999883
0.999895
0.999995
0.999815
0.999653
0.999639
0.999576
0.999615
0.999714
0.9999
1
0.999943
0.999975
0.99996
0.999952
0.999952
0.999989
1
0.999999
0.999997
0.999991
0.999989
0.999996
0.999999
1
1
1
0.999999
0.999999
0.999999
1
1
1
0.999999
0.999998
0.999998
1
1
0.999998
0.999997
0.999998
0.99999
0.999974
0.999991
0.999999
0.999989
0.999963
0.999963
0.999959
0.999922
0.99994
0.999997
0.999906
0.999815
0.999799
0.999729
0.999744
0.999844
0.99997
0.999999
0.999969
0.999969
0.999975
0.999972
0.999974
0.999991
1
0.999999
0.999998
0.999996
0.999993
0.999995
0.999998
1
1
1
1
0.999999
0.999999
1
1
1
1
0.999999
0.999997
0.999999
1
0.999998
1
0.999999
0.999994
0.999985
0.999991
0.999999
0.999994
0.999992
0.99999
0.999985
0.999971
0.999967
0.999994
0.999964
0.999877
0.999865
0.999861
0.999852
0.999908
0.999989
0.999997
0.999976
0.999977
0.999981
0.999989
0.999989
0.999994
1
0.999999
0.999998
0.999997
0.999998
0.999996
0.999998
1
1
1
1
0.999999
0.999999
0.999999
1
1
1
1
0.999999
0.999999
1
1
1
0.999999
0.999997
0.999996
0.999996
0.999999
0.999998
0.999991
0.999987
0.999992
0.999992
0.999987
0.999994
0.999976
0.99993
0.999932
0.999925
0.999926
0.999948
0.999991
0.999998
0.999995
0.999997
0.999997
0.999997
0.999997
0.999998
1
1
1
0.999999
0.999999
0.999999
0.999999
1
1
1
1
1
1
1
1
0.999995
0.999986
0.999984
0.999992
0.999991
1
0.999983
0.999856
0.999789
0.999831
0.999904
0.999856
0.999975
0.998374
0.998822
0.999293
0.999636
0.999281
0.99874
0.998345
0.996322
0.997687
0.998589
0.998535
0.998492
0.997715
0.997494
0.998043
0.999075
0.999446
0.999522
0.999549
0.999364
0.999253
0.999993
0.999852
0.999859
0.999898
0.999942
0.999971
1
1
0.999991
0.999986
0.999981
0.999977
0.999991
1
1
0.999997
0.999992
0.999991
0.999996
0.999997
1
1
0.999896
0.999825
0.999851
0.999931
0.999912
0.999994
0.998397
0.998823
0.999287
0.999626
0.999269
0.998736
0.998451
0.996358
0.997744
0.9986
0.998556
0.998513
0.997762
0.99759
0.998072
0.999077
0.999456
0.999533
0.999563
0.999373
0.999293
0.999999
0.99987
0.999875
0.999918
0.999944
0.999961
1
1
0.999994
0.99999
0.999985
0.999984
0.999993
1
1
0.999998
0.999993
0.999993
0.999997
0.999998
1
1
0.999908
0.999833
0.99986
0.999939
0.999934
1
0.998453
0.99883
0.999285
0.999626
0.999253
0.998772
0.999048
0.996434
0.997776
0.99862
0.998574
0.998531
0.997805
0.997655
0.998107
0.999085
0.999466
0.999552
0.999573
0.99937
0.999344
1
0.999877
0.999881
0.999923
0.999959
0.999958
1
1
0.999995
0.999991
0.999986
0.999987
0.999995
1
1
0.999998
0.999995
0.999994
0.999997
0.999998
1
1
0.999926
0.999836
0.999877
0.999946
0.999962
1
0.998489
0.99883
0.999281
0.999625
0.999255
0.999026
0.999832
0.996477
0.997842
0.998649
0.998611
0.99857
0.997851
0.997877
0.998158
0.999091
0.999483
0.999569
0.999578
0.999364
0.999378
0.999988
0.999886
0.999885
0.999925
0.999957
0.99994
1
1
0.999995
0.999991
0.999987
0.999988
0.999994
1
1
0.999999
0.999996
0.999995
0.999997
0.999998
1
1
0.999936
0.999885
0.999922
0.999954
0.999971
1
0.998564
0.998829
0.999272
0.999621
0.999266
0.999143
1
0.996546
0.997879
0.998676
0.99866
0.998595
0.997971
0.997986
0.998243
0.999099
0.999492
0.999578
0.999592
0.999364
0.999457
0.999984
0.999894
0.99989
0.999931
0.999953
0.999944
1
1
0.999996
0.99999
0.999989
0.999985
0.99999
1
1
0.999999
0.999999
0.999998
0.999998
0.999999
1
1
0.999961
0.999944
0.99996
0.999974
0.999989
1
0.998606
0.998836
0.999269
0.999616
0.999311
0.999294
1
0.996628
0.997957
0.998692
0.998689
0.99865
0.998023
0.998074
0.998309
0.999125
0.999511
0.999597
0.999596
0.999366
0.999496
0.999981
0.999912
0.999897
0.999935
0.99995
0.999942
1
1
0.999997
0.999993
0.999991
0.999982
0.999989
1
1
1
0.999999
0.999999
0.999999
1
1
1
0.999977
0.999966
0.999977
0.999988
0.999999
1
0.998754
0.998857
0.999269
0.999609
0.999372
0.999499
1
0.996788
0.998009
0.99871
0.998709
0.99866
0.99805
0.998217
0.998376
0.99914
0.999525
0.999603
0.999607
0.999373
0.99959
0.999987
0.999921
0.999907
0.999945
0.999962
0.999922
1
1
0.999999
0.999996
0.999994
0.99998
0.999978
1
1
1
1
1
1
1
1
1
1
1
1
1
1
1
0.999995
0.999982
0.999984
0.999985
0.999992
0.999996
0.999995
0.999983
0.999946
0.999953
0.99994
0.999946
0.999964
0.999994
0.999998
0.999997
0.999997
0.999996
0.999998
0.999999
1
1
1
1
1
1
1
1
1
1
1
1
1
1
1
1
1
1
1
1
1
1
1
1
1
1
1
1
1
0.999992
0.999985
0.999988
0.999987
0.99999
0.999994
0.999995
0.999982
0.999954
0.999959
0.999945
0.999953
0.999968
0.999994
0.999998
0.999997
0.999995
0.99999
0.999994
0.999995
1
1
1
1
1
1
1
1
1
1
1
1
1
1
1
1
1
1
1
1
1
1
1
1
1
1
1
1
1
0.999991
0.999986
0.999989
0.999986
0.999989
0.999992
0.999995
0.999981
0.999959
0.999963
0.999949
0.999959
0.99997
0.999994
0.999997
0.999995
0.999991
0.999985
0.999992
0.999994
0.999997
1
1
1
1
1
1
1
1
1
1
1
1
1
1
1
1
1
1
1
1
1
1
1
1
1
1
1
1
0.99999
0.999988
0.999992
0.999991
0.999992
0.999993
0.999995
0.999981
0.999964
0.999967
0.999953
0.999965
0.999973
0.999993
0.999996
0.999994
0.99999
0.999985
0.999991
0.999993
0.999997
1
1
1
1
1
1
1
1
1
1
1
1
1
1
1
1
1
1
1
1
1
1
1
1
1
1
1
1
0.999991
0.99999
0.999996
0.999993
0.999993
0.999994
0.999995
0.999979
0.99997
0.999972
0.999958
0.999972
0.999976
0.999993
0.999995
0.999994
0.999993
0.999989
0.999993
0.999994
0.999997
1
1
1
1
1
1
1
1
1
1
1
1
1
1
1
1
1
1
1
1
1
1
1
1
1
1
1
1
0.999994
0.999994
0.999997
0.999996
0.999996
0.999995
0.999996
0.99998
0.99998
0.999975
0.999966
0.999977
0.99998
0.999992
0.999995
0.999996
0.999995
0.999992
0.999994
0.999995
0.999997
1
1
1
1
1
1
1
1
1
1
1
1
1
1
1
1
1
1
1
1
1
1
1
1
1
1
1
1
0.999997
0.999998
0.999999
0.999998
0.999997
0.999997
0.999997
0.999988
0.99999
0.999986
0.999986
0.999987
0.999989
0.999992
0.999997
0.999997
0.999996
0.999995
0.999996
0.999997
0.999997
1
1
1
1
1
1
1
1
1
1
1
1
1
1
1
1
1
1
1
1
1
1
1
1
1
1
1
1
0.999996
0.999997
0.999999
1
1
1
1
0.999995
0.999999
1
1
1
1
1
1
1
1
1
1
1
1
1
1
1
1
1
1
1
1
1
1
1
1
1
1
1
1
1
1
1
1
1
1
1
1
1
1
1
1
0.999996
0.999997
0.999998
1
1
1
1
0.999995
0.999998
0.999999
1
1
1
1
1
1
1
1
1
1
1
1
1
1
1
1
1
1
1
1
1
1
1
1
1
1
1
1
1
1
1
1
1
1
1
1
1
1
1
0.999996
0.999997
0.999998
0.999999
1
1
1
0.999995
0.999997
0.999998
0.999998
0.999999
0.999999
1
0.999998
0.999999
0.999999
0.999999
1
1
1
1
1
1
1
1
1
1
1
1
1
1
1
1
1
1
1
1
1
1
1
1
1
1
1
1
1
1
1
0.999996
0.999996
0.999997
0.999998
0.999999
1
1
0.999995
0.999996
0.999997
0.999997
0.999998
0.999999
0.999999
0.999997
0.999998
0.999998
0.999999
0.999999
1
1
1
1
1
1
1
1
1
1
1
1
1
1
1
1
1
1
1
1
1
1
1
1
1
1
1
1
1
1
0.999996
0.999996
0.999997
0.999997
0.999998
0.999999
1
0.999994
0.999995
0.999996
0.999997
0.999997
0.999998
0.999998
0.999997
0.999998
0.999998
0.999999
0.999999
0.999999
1
1
1
1
1
1
1
1
1
1
1
1
1
1
1
1
1
1
1
1
1
1
1
1
1
1
1
1
1
0.999997
0.999997
0.999997
0.999997
0.999998
0.999998
0.999998
0.999994
0.999995
0.999995
0.999996
0.999997
0.999997
0.999998
0.999997
0.999998
0.999998
0.999999
0.999999
0.999999
0.999999
1
1
1
1
1
1
1
1
1
1
1
1
1
1
1
1
1
1
1
1
1
1
1
1
1
1
1
1
0.999997
0.999997
0.999997
0.999997
0.999998
0.999998
0.999998
0.999994
0.999995
0.999995
0.999996
0.999996
0.999997
0.999997
0.999998
0.999998
0.999999
0.999999
1
1
1
1
1
1
1
1
1
1
1
1
1
1
1
1
1
1
1
1
1
1
1
1
1
1
1
1
1
1
1
1
1
1
1
1
1
0.999999
1
1
1
1
0.999999
0.999996
0.999988
1
1
1
1
1
1
0.999999
1
1
1
1
1
1
1
1
1
1
1
1
1
1
1
1
1
1
1
1
1
1
1
1
1
1
1
1
1
1
1
1
1
1
0.999995
1
1
1
0.999999
0.999998
0.999994
0.999987
1
1
1
1
1
0.999999
0.999999
1
1
1
1
1
1
1
1
1
1
1
1
1
1
1
1
1
1
1
1
1
1
1
1
1
1
1
1
1
1
1
1
1
0.999996
0.999993
0.999999
0.999999
0.999999
0.999997
0.999994
0.999989
0.999985
1
1
1
1
0.999999
0.999999
0.999998
1
1
1
1
1
1
1
1
1
1
1
1
1
1
1
1
1
1
1
1
1
1
1
1
1
1
1
1
1
1
0.999999
0.999998
0.999996
0.999995
0.999994
0.999997
0.999996
0.999994
0.999992
0.99999
0.999987
0.999984
1
1
1
0.999999
0.999999
0.999998
0.999998
1
1
1
1
1
1
1
1
1
1
1
1
1
1
1
1
1
1
1
1
1
1
1
1
1
1
1
1
0.999999
0.999998
0.999997
0.999996
0.999995
0.999995
0.999993
0.999994
0.999993
0.999992
0.999991
0.999988
0.999987
0.999984
1
0.999999
0.999999
0.999998
0.999998
0.999997
0.999997
1
1
1
1
1
1
1
1
1
1
1
1
1
1
1
1
1
1
1
1
1
1
1
1
1
1
1
1
0.999998
0.999998
0.999997
0.999996
0.999995
0.999995
0.999994
0.999992
0.999992
0.99999
0.999989
0.999986
0.999985
0.999984
0.999999
0.999998
0.999998
0.999998
0.999997
0.999997
0.999996
1
1
1
1
1
1
1
1
1
1
1
1
1
1
1
1
1
1
1
1
1
1
1
1
1
1
1
1
0.999998
0.999998
0.999997
0.999997
0.999997
0.999997
0.999996
0.999992
0.999991
0.999991
0.999989
0.999989
0.999988
0.999988
0.999998
0.999998
0.999997
0.999997
0.999997
0.999996
0.999996
1
1
1
1
1
1
1
1
1
1
1
1
1
1
1
1
1
1
1
1
1
1
1
1
1
1
1
1
1
1
1
1
1
1
1
1
1
1
1
1
1
1
1
1
1
1
1
1
1
1
1
1
1
1
1
1
1
1
1
1
1
1
1
1
1
1
1
1
1
1
1
1
1
1
1
1
1
1
1
1
1
1
1
1
1
1
1
1
1
1
1
1
1
1
1
1
1
1
1
1
1
1
1
1
1
1
1
1
1
1
1
1
1
1
1
1
1
1
1
1
1
1
1
1
1
1
1
1
1
1
1
1
1
1
1
1
1
0.999999
0.999999
0.999999
1
1
1
1
1
1
1
1
1
1
1
1
1
1
1
1
1
1
1
1
1
1
1
1
1
1
1
1
1
1
1
1
1
1
1
1
1
1
1
1
1
1
1
1
0.999999
0.999999
0.999999
0.999998
0.999998
1
1
1
1
1
1
1
1
1
1
1
1
1
1
1
1
1
1
1
1
1
1
1
1
1
1
1
1
1
1
1
1
1
1
1
1
1
1
1
1
1
1
1
0.999999
0.999998
0.999997
0.999997
0.999996
0.999995
1
1
1
1
1
1
1
1
1
1
1
1
1
1
1
1
1
1
1
1
1
1
1
1
1
1
1
1
1
1
1
1
1
1
1
1
1
1
1
1
0.999999
0.999998
0.999999
0.999998
0.999997
0.999997
0.999996
0.999995
0.999994
1
1
1
1
1
1
0.999999
1
1
1
1
1
1
1
1
1
1
1
1
1
1
1
1
1
1
1
1
1
1
1
1
1
1
1
1
1
1
1
1
0.999999
0.999998
0.999998
0.999999
0.999997
0.999996
0.999995
0.999994
0.999994
0.999993
1
1
1
1
0.999999
0.999999
0.999998
1
1
1
1
1
1
1
1
1
1
1
1
1
1
1
1
1
1
1
1
1
1
1
1
1
1
1
1
1
1
1
1
0.999999
0.999999
0.999999
0.999998
0.999997
0.999997
0.999997
0.999997
0.999997
0.999997
1
1
1
1
1
0.999999
1
1
1
1
1
1
1
1
1
1
1
1
1
1
1
1
1
1
1
1
1
1
1
1
1
1
1
1
1
1
1
1
1
1
1
1
0.999999
0.999998
0.999998
0.999998
0.999998
0.999998
0.999998
1
1
1
1
1
1
1
1
1
1
1
1
1
1
1
1
1
1
1
1
1
1
1
1
1
1
1
1
1
1
1
1
1
1
1
1
1
1
1
1
1
1
0.999999
0.999998
0.999998
0.999998
0.999998
0.999998
0.999998
1
1
1
1
1
1
1
1
1
1
1
1
1
1
1
1
1
1
1
1
1
1
1
1
1
1
1
1
1
1
1
1
1
1
1
1
1
1
1
1
1
1
0.999999
0.999999
0.999999
0.999999
0.999999
0.999999
0.999999
1
1
1
1
1
1
1
1
1
1
1
1
1
1
1
1
1
1
1
1
1
1
1
1
1
1
1
1
1
1
1
1
1
1
1
1
1
1
1
1
1
1
0.999999
0.999999
0.999999
0.999999
0.999999
0.999999
0.999999
1
1
1
1
1
1
1
1
1
1
1
1
1
1
1
1
1
1
1
1
1
1
1
1
1
1
1
1
1
1
1
1
1
1
1
1
1
1
1
1
1
1
0.999999
0.999999
0.999999
0.999999
0.999999
0.999999
0.999999
1
1
1
1
1
1
1
1
1
1
1
1
1
1
1
1
1
1
1
1
1
1
1
1
1
1
1
1
1
1
1
1
1
1
1
1
1
1
1
1
1
1
0.999999
0.999999
0.999999
0.999999
0.999999
0.999999
0.999999
1
1
1
1
1
1
1
1
1
1
1
1
1
1
1
1
1
1
1
1
1
1
1
1
1
1
1
1
1
1
1
1
1
1
1
1
1
1
1
1
1
1
1
1
1
1
1
1
1
1
1
1
1
1
1
1
1
1
1
1
1
1
1
1
1
1
1
1
1
1
1
1
1
1
1
1
1
1
1
1
1
1
1
1
1
1
1
1
1
1
1
1
1
1
1
1
1
1
1
1
1
1
1
1
1
1
1
1
1
1
1
1
1
1
1
1
1
1
1
1
1
1
1
1
1
1
1
1
1
1
1
1
1
1
1
1
1
1
1
1
1
1
1
1
1
1
1
1
1
1
1
1
1
1
1
1
1
1
1
1
1
1
1
1
1
1
1
1
1
1
1
1
1
1
1
1
1
1
1
1
1
1
1
1
1
1
1
1
1
0.999999
0.999999
1
1
1
1
1
1
1
1
1
1
1
1
1
1
1
1
1
1
1
1
1
1
1
1
1
1
1
1
1
1
1
1
1
1
1
1
1
1
1
1
1
1
1
1
1
1
1
0.999999
0.999999
0.999999
0.999999
1
1
1
1
1
1
1
1
1
1
1
1
1
1
1
1
1
1
1
1
1
1
1
1
1
1
1
1
1
1
1
1
1
1
1
1
1
1
0.999999
1
1
1
1
1
1
0.999998
0.999998
0.999999
0.999999
1
1
1
1
1
1
1
1
1
1
1
1
1
1
1
1
1
1
1
1
1
1
1
1
1
1
1
1
1
1
1
1
1
1
1
1
1
1
0.999998
0.999999
0.999999
1
1
1
1
0.999997
0.999998
0.999998
0.999998
0.999999
0.999999
1
1
1
1
1
1
1
1
1
1
1
1
1
1
1
1
1
1
1
1
1
1
1
1
1
1
1
1
1
1
1
1
1
1
1
1
0.999999
0.999999
1
1
1
1
1
0.999998
0.999999
0.999999
0.999999
0.999999
0.999999
1
1
1
1
1
1
1
1
1
1
1
1
1
1
1
1
1
1
1
1
1
1
1
1
1
1
1
1
1
1
1
1
1
1
1
1
1
1
1
1
1
1
1
0.999999
0.999999
0.999999
0.999999
0.999999
0.999999
1
1
1
1
1
1
1
1
1
1
1
1
1
1
1
1
1
1
1
1
1
1
1
1
1
1
1
1
1
1
1
1
1
1
1
1
1
1
1
1
1
1
1
0.999999
0.999999
0.999999
1
1
1
1
1
1
1
1
1
1
1
1
1
1
1
1
1
1
1
1
1
1
1
1
1
1
1
1
1
1
1
1
1
1
1
1
1
1
1
1
1
1
1
1
1
1
0.999999
0.999999
0.999999
1
1
1
1
1
1
1
1
1
1
1
1
1
1
1
1
1
1
1
1
1
1
1
1
1
1
1
1
1
1
1
1
1
1
1
1
1
1
1
1
1
1
1
1
1
1
0.999999
0.999999
0.999999
1
1
1
1
1
1
1
1
1
1
1
1
1
1
1
1
1
1
1
1
1
1
1
1
1
1
1
1
1
1
1
1
1
1
1
1
1
1
1
1
1
1
1
1
1
1
1
0.999999
1
1
1
1
1
1
1
1
1
1
1
1
1
1
1
1
1
1
1
1
1
1
1
1
1
1
1
1
1
1
1
1
1
1
1
1
1
1
1
1
1
1
1
1
1
1
1
1
1
1
1
1
1
1
1
1
1
1
1
1
1
1
1
1
1
1
1
1
1
1
1
1
1
1
1
)
;

boundaryField
{
    fuel
    {
        type            fixedValue;
        value           uniform 0;
    }
    primary_air
    {
        type            fixedValue;
        value           uniform 0.77;
    }
    Secondary_air_RHS
    {
        type            fixedValue;
        value           uniform 0.77;
    }
    Secondary_air_LHS
    {
        type            fixedValue;
        value           uniform 0.77;
    }
    outlet
    {
        type            inletOutlet;
        inletValue      uniform 0;
        value           nonuniform List<scalar> 
98
(
1
1
1
1
1
1
1
1
1
1
1
1
1
1
1
1
1
1
1
1
1
1
1
1
1
1
1
1
1
1
1
1
1
1
1
1
1
1
1
1
1
1
1
1
1
1
1
1
1
1
1
1
0.999999
1
1
1
1
1
1
0.999999
1
1
1
1
1
1
0.999999
1
1
1
1
1
1
0.999999
1
1
1
1
1
1
0.999999
1
1
1
1
1
1
0.999999
1
1
1
1
1
1
0.999999
1
1
1
)
;
    }
    stove_body
    {
        type            fixedValue;
        value           uniform 0;
    }
    frontAndBack
    {
        type            empty;
    }
}


// ************************************************************************* //
