/*--------------------------------*- C++ -*----------------------------------*\
  =========                 |
  \\      /  F ield         | OpenFOAM: The Open Source CFD Toolbox
   \\    /   O peration     | Website:  https://openfoam.org
    \\  /    A nd           | Version:  6
     \\/     M anipulation  |
\*---------------------------------------------------------------------------*/
FoamFile
{
    version     2.0;
    format      ascii;
    class       surfaceScalarField;
    location    "0.0125";
    object      phi;
}
// * * * * * * * * * * * * * * * * * * * * * * * * * * * * * * * * * * * * * //

dimensions      [1 0 -1 0 0 0 0];

internalField   nonuniform List<scalar> 
10143
(
-8.38636e-08
-4.26725e-05
4.66022e-05
-2.8334e-07
-4.19141e-05
4.59121e-05
-2.03363e-08
-4.22496e-05
4.57574e-05
1.37307e-07
-4.19554e-05
4.55808e-05
1.57459e-08
-4.1745e-05
4.56758e-05
1.5691e-08
-4.20135e-05
4.57933e-05
-4.24456e-05
4.62859e-05
-1.80436e-07
-1.87989e-05
-1.41011e-05
3.90808e-07
-1.86623e-05
-1.41046e-05
-4.04141e-07
-1.86697e-05
-1.29613e-05
-2.27204e-07
-1.85729e-05
-1.38306e-05
2.57819e-07
-1.83567e-05
-1.41799e-05
-3.4716e-07
-1.84217e-05
-1.31909e-05
-1.86662e-05
-1.45775e-05
1.74108e-07
-6.29768e-06
6.00262e-07
6.92281e-07
-6.33695e-06
5.05481e-07
-4.38504e-08
-6.76972e-06
2.23714e-06
-4.78439e-07
-6.78574e-06
2.04708e-06
-2.30485e-07
-6.57894e-06
1.32089e-06
-5.69321e-07
-6.66801e-06
1.96055e-06
-6.05756e-06
5.28048e-08
-1.42765e-07
6.24156e-06
2.05299e-06
3.79397e-08
6.10737e-06
1.78643e-06
-1.61402e-07
6.59881e-06
1.18739e-06
-5.19923e-07
6.77277e-06
1.14406e-06
-5.45792e-07
6.45224e-06
1.35741e-06
-3.60195e-07
6.47113e-06
1.0434e-06
6.01341e-06
2.01752e-06
-2.65896e-08
1.88429e-05
6.85115e-07
3.76873e-07
1.87594e-05
1.40993e-07
2.33183e-08
1.85674e-05
1.73471e-06
-4.44552e-07
1.83673e-05
2.24533e-06
-2.18575e-07
1.85243e-05
1.02685e-06
-4.45011e-07
1.86459e-05
1.34555e-06
1.87929e-05
4.6111e-09
3.29796e-07
4.26636e-05
-1.45985e-05
4.56535e-07
4.22458e-05
-1.40317e-05
-3.13326e-08
4.23003e-05
-1.35382e-05
1.68703e-07
4.20004e-05
-1.41626e-05
8.62385e-07
4.19804e-05
-1.45088e-05
-1.44879e-07
4.23478e-05
-1.28513e-05
4.26358e-05
-1.44356e-05
9.42094e-08
4.63543e-05
-1.71761e-07
4.62454e-05
8.68385e-09
4.58199e-05
8.86485e-08
4.56669e-05
1.22747e-08
4.5812e-05
7.08845e-08
4.59992e-05
4.64993e-05
-1.61599e-07
-1.35238e-05
6.22064e-05
-3.57628e-07
-1.49136e-05
6.31552e-05
-7.87283e-08
-1.50333e-05
6.27065e-05
1.33305e-07
-1.47906e-05
6.2321e-05
-2.09537e-08
-1.40535e-05
6.20696e-05
4.2351e-08
-1.43271e-05
6.22395e-05
-1.3484e-05
6.16701e-05
-7.03129e-07
1.90028e-06
-3.09373e-05
-1.68439e-07
-4.48762e-07
-3.1199e-05
-3.59141e-07
-4.07559e-07
-2.95964e-05
4.32597e-07
-4.17956e-07
-3.12394e-05
9.05178e-07
1.01791e-06
-3.22044e-05
2.98384e-07
1.15887e-06
-3.04925e-05
2.09321e-06
-3.2044e-05
3.55407e-07
8.87287e-07
-1.43271e-08
3.89013e-07
9.52828e-07
-2.04793e-06
1.12402e-08
1.94419e-07
1.07935e-06
6.99516e-08
2.75716e-07
3.44049e-07
2.81607e-07
5.56378e-07
4.10701e-07
-2.78052e-07
7.49376e-07
1.78461e-06
1.19847e-06
-6.91705e-07
-3.01656e-08
-1.05216e-06
3.44068e-06
3.85108e-07
-1.22432e-06
2.85063e-06
-2.44735e-07
-6.4262e-07
1.94812e-06
-9.18369e-07
-4.76395e-07
1.85497e-06
-1.02374e-06
-6.36908e-07
1.94379e-06
-6.53879e-07
-7.85759e-07
1.48148e-06
-1.26672e-06
3.21661e-06
-1.47221e-07
-1.84702e-06
3.52632e-07
-6.36853e-08
-1.96156e-06
-6.3728e-07
3.64477e-08
-1.18877e-06
1.02202e-06
-2.42817e-08
-6.52312e-07
1.44445e-06
2.52524e-07
-1.20382e-06
9.74534e-08
-1.86406e-08
-1.07095e-06
7.15595e-07
-1.96214e-06
-6.6618e-07
-6.48976e-08
1.37636e-05
-3.2303e-05
5.24136e-08
1.32718e-05
-3.14851e-05
-1.79208e-07
1.45723e-05
-3.14944e-05
6.53721e-07
1.42129e-05
-3.24452e-05
1.44056e-06
1.42391e-05
-3.31859e-05
4.25599e-07
1.46949e-05
-2.99246e-05
1.37691e-05
-3.18955e-05
1.15441e-07
6.18149e-05
-2.39767e-07
6.18543e-05
9.89925e-08
6.20979e-05
3.96933e-08
6.2051e-05
2.11119e-08
6.21669e-05
1.63707e-07
6.27109e-05
6.2225e-05
-3.20121e-08
6.82757e-06
6.52901e-05
-1.54693e-07
6.13159e-06
6.81151e-05
4.1128e-08
6.38876e-06
6.72683e-05
3.37836e-07
6.43131e-06
6.65864e-05
8.14904e-08
6.74656e-06
6.63206e-05
-1.8473e-07
6.60886e-06
6.64265e-05
6.70839e-06
6.43902e-05
-2.81586e-07
4.685e-06
-2.91866e-05
8.67074e-08
3.89838e-06
-3.05124e-05
-2.00312e-08
3.7862e-06
-2.79628e-05
3.09753e-07
3.82746e-06
-3.00427e-05
5.30466e-07
3.10343e-06
-2.9933e-05
2.94315e-07
4.14224e-06
-2.89139e-05
4.77768e-06
-3.05159e-05
1.44044e-07
1.52144e-06
1.04827e-06
3.29682e-07
1.809e-06
-1.89853e-06
1.51899e-07
1.26095e-06
2.01476e-06
2.54972e-07
1.25796e-06
1.02771e-06
9.57868e-08
1.63789e-06
2.93812e-07
-7.03745e-08
2.51395e-06
1.72183e-06
2.04105e-06
-1.25572e-08
-1.49048e-07
-1.83588e-06
6.18968e-06
3.19417e-07
-2.02855e-06
5.37965e-06
-3.52897e-07
-1.32672e-06
4.36606e-06
-9.17166e-07
-1.27753e-06
4.10446e-06
-9.6797e-07
-1.56125e-06
4.32983e-06
-4.8875e-07
-2.04039e-06
4.68892e-06
-2.05371e-06
6.04642e-06
-2.1416e-07
-4.76385e-06
1.51661e-06
-2.035e-07
-3.91138e-06
-6.66463e-07
2.3595e-07
-4.52712e-06
1.85763e-06
-4.44797e-08
-1.19849e-06
1.79788e-07
-5.68684e-08
-4.02649e-06
6.91435e-07
2.9549e-07
-5.11588e-06
1.42943e-06
-4.85196e-06
4.35229e-07
-1.06268e-07
-6.26188e-06
-3.1431e-05
3.19637e-07
-6.28396e-06
-3.05933e-05
-2.66141e-07
-6.28879e-06
-3.02362e-05
7.47395e-07
-6.01972e-06
-2.98006e-05
8.47413e-07
-6.39528e-06
-3.21063e-05
1.17152e-07
-6.28934e-06
-2.91372e-05
-6.30544e-06
-3.10491e-05
3.50376e-07
6.40756e-05
-1.31247e-07
6.62158e-05
9.42038e-08
6.58365e-05
-1.386e-07
6.64558e-05
-1.51609e-07
6.62744e-05
-1.17852e-07
6.67952e-05
6.46151e-05
-3.47682e-08
1.40249e-05
6.14874e-05
6.99372e-08
1.38056e-05
6.40734e-05
3.11096e-07
1.41688e-05
6.27507e-05
4.95288e-07
1.39691e-05
6.22159e-05
3.12571e-07
1.42806e-05
6.20299e-05
1.48153e-07
1.40343e-05
6.25009e-05
1.40739e-05
6.05955e-05
7.75613e-07
3.15304e-06
-2.14222e-05
9.61729e-08
4.6603e-06
-2.41736e-05
-1.24661e-09
4.40365e-06
-2.15073e-05
-1.65717e-07
4.09546e-06
-2.33466e-05
1.65473e-07
3.00016e-06
-2.18752e-05
4.92308e-08
3.44346e-06
-2.11198e-05
3.81579e-06
-2.2568e-05
3.45555e-08
1.09173e-06
1.51561e-06
2.89616e-07
1.41022e-06
-5.53428e-07
2.47664e-07
1.61147e-06
3.22597e-06
2.64301e-07
1.57147e-06
1.92848e-06
-1.56069e-08
1.16786e-06
8.47814e-07
8.33807e-09
2.05664e-06
1.48078e-06
1.60449e-06
5.48107e-07
-2.1034e-07
-1.35825e-06
8.16681e-06
2.98096e-07
-1.49752e-06
6.99285e-06
-4.28102e-07
1.6225e-07
5.7763e-06
-8.81699e-07
-3.01176e-07
5.65525e-06
-8.60086e-07
-1.5033e-06
6.19732e-06
-4.0584e-07
-2.07304e-06
7.54725e-06
-1.63324e-06
8.17051e-06
-2.495e-07
-2.80998e-06
1.66681e-06
-2.75565e-07
-3.39436e-06
-3.32272e-07
1.19862e-07
-2.90435e-06
3.00212e-06
2.62586e-07
-2.59334e-06
7.85333e-07
-2.58337e-07
-2.52337e-06
7.16239e-07
4.6864e-07
-5.37233e-06
2.25223e-06
-3.34912e-06
1.00385e-06
2.65258e-07
-1.32199e-05
-2.35002e-05
2.73284e-07
-1.35048e-05
-2.3268e-05
-1.54114e-07
-1.36668e-05
-2.19173e-05
6.60599e-07
-1.43344e-05
-2.14236e-05
6.23468e-07
-1.35696e-05
-2.3899e-05
-3.23428e-07
-1.40374e-05
-2.27375e-05
-1.33382e-05
-2.36174e-05
2.1365e-07
6.1169e-05
-1.08611e-07
6.32096e-05
-9.82088e-08
6.22149e-05
-2.85252e-07
6.25884e-05
-2.63902e-07
6.26729e-05
-2.94596e-07
6.28385e-05
6.1754e-05
-1.44645e-07
1.94191e-05
4.70543e-05
1.86341e-07
1.90166e-05
4.8882e-05
3.87964e-07
1.88614e-05
4.76954e-05
6.73028e-07
1.85742e-05
4.73311e-05
5.87735e-07
1.92777e-05
4.70157e-05
4.79568e-07
1.91038e-05
4.7947e-05
1.95446e-05
4.63776e-05
1.23814e-06
3.10908e-06
-1.03094e-05
1.17142e-08
4.29435e-06
-1.29772e-05
3.07103e-08
3.44043e-06
-1.07148e-05
-2.14355e-07
2.81628e-06
-1.18346e-05
-1.36644e-07
4.07918e-06
-1.12922e-05
-2.47222e-07
3.97632e-06
-1.03757e-05
4.01004e-06
-1.13224e-05
1.999e-07
4.15966e-07
2.52983e-06
2.36772e-07
1.26977e-06
7.85458e-07
3.33467e-07
1.46674e-06
3.52795e-06
1.77806e-07
1.29164e-06
2.0794e-06
-1.03104e-07
1.38868e-06
2.16841e-06
8.62512e-08
1.09513e-06
2.55905e-06
1.1637e-06
1.89486e-06
-3.70218e-07
-8.84798e-07
9.24123e-06
1.60616e-07
-1.40879e-06
8.42977e-06
-4.51126e-07
-4.57225e-07
7.61253e-06
-7.47972e-07
-9.15438e-07
7.45063e-06
-5.71425e-07
-1.2456e-06
7.9383e-06
-4.06905e-07
-1.15512e-06
8.87993e-06
-1.04538e-06
9.34652e-06
-2.06433e-07
-2.65449e-06
2.17992e-06
-2.90809e-07
-4.00435e-06
6.90155e-07
4.44933e-09
-2.99669e-06
3.71419e-06
3.96609e-07
-5.22727e-06
2.95975e-06
-3.10558e-07
-2.5346e-06
1.18436e-06
4.10137e-07
-4.30271e-06
3.03558e-06
-3.11485e-06
1.97845e-06
6.02046e-07
-1.87794e-05
-1.17531e-05
8.15837e-08
-1.87404e-05
-1.24555e-05
2.08192e-07
-1.88236e-05
-1.0579e-05
3.27368e-07
-2.01499e-05
-1.14018e-05
3.65802e-07
-1.86624e-05
-1.2068e-05
-4.3713e-07
-1.90936e-05
-1.17447e-05
-1.89224e-05
-1.20924e-05
7.4422e-08
4.74124e-05
-2.83993e-07
4.95045e-05
-1.01317e-07
4.76734e-05
-4.96497e-07
4.74168e-05
-2.95272e-07
4.81085e-05
-2.70869e-07
4.82465e-05
4.77474e-05
-2.41379e-07
2.14478e-05
2.76399e-05
3.23023e-07
2.10356e-05
2.86588e-05
3.46682e-07
2.06959e-05
2.83243e-05
5.85193e-07
2.0207e-05
2.81011e-05
4.74425e-07
2.07555e-05
2.76032e-05
6.31153e-07
2.09474e-05
2.81852e-05
2.155e-05
2.72385e-05
1.26045e-06
4.79915e-06
-1.70996e-07
-8.13702e-08
5.71759e-06
-2.11584e-06
1.99117e-07
4.77737e-06
-7.60343e-07
-3.11185e-07
4.94561e-06
-1.70406e-06
-5.38523e-07
5.36738e-06
-1.42041e-06
-4.33472e-07
5.25824e-06
-5.45985e-07
5.30165e-06
-7.73847e-07
4.65332e-07
-1.586e-06
6.8652e-06
3.47492e-08
-1.74448e-07
5.38673e-06
3.30518e-07
-5.63615e-07
6.92883e-06
1.73895e-07
-4.85124e-07
6.03292e-06
-1.81353e-07
2.5057e-07
5.93102e-06
8.81112e-08
-6.42673e-07
6.50188e-06
-4.85429e-07
6.09696e-06
-5.73331e-07
9.73472e-07
6.74699e-06
7.8234e-08
-2.08585e-07
7.22757e-06
-4.42927e-07
2.59956e-07
6.73147e-06
-7.28432e-07
-4.37568e-08
6.70146e-06
-5.12713e-07
1.12132e-07
7.27335e-06
-5.14604e-07
9.24716e-07
6.71306e-06
6.54526e-07
7.17762e-06
5.47055e-08
-4.79651e-06
6.27588e-06
-3.55757e-07
-5.04058e-06
4.22806e-06
8.75316e-08
-5.10093e-06
6.95776e-06
1.2528e-07
-4.98572e-06
6.19421e-06
-2.3252e-07
-5.03995e-06
5.05026e-06
2.67798e-07
-4.81073e-06
6.60513e-06
-4.75762e-06
6.03583e-06
5.98937e-07
-2.11622e-05
-1.15825e-06
1.08283e-07
-2.07846e-05
-2.04565e-06
4.2457e-07
-2.06834e-05
-1.00242e-06
4.95043e-07
-2.08337e-05
-1.46803e-06
1.23105e-08
-1.98552e-05
-2.53866e-06
-2.88535e-07
-2.09308e-05
-9.72331e-07
-2.12444e-05
-1.07765e-06
7.61346e-08
2.80569e-05
-3.43125e-07
3.0689e-05
-8.8047e-08
2.80976e-05
-4.05011e-07
2.82446e-05
-4.84757e-07
2.96075e-05
-2.10224e-07
2.8465e-05
2.82074e-05
-5.03665e-07
2.49922e-05
5.15521e-07
2.46262e-05
3.46118e-07
2.53376e-05
7.05017e-07
2.45358e-05
4.88507e-07
2.4596e-05
8.88051e-07
2.45711e-05
2.49677e-05
1.15201e-06
8.94014e-06
-5.46662e-08
8.88339e-06
7.63756e-07
8.95765e-06
8.6253e-09
8.95015e-06
-6.76074e-07
9.17505e-06
-1.54909e-07
8.78572e-06
9.34956e-06
9.21193e-07
1.94316e-06
-2.03469e-07
2.44611e-06
5.19096e-07
2.09564e-06
3.94888e-07
2.14027e-06
8.88709e-08
2.32337e-06
8.50566e-08
2.34437e-06
2.42683e-06
-5.77123e-07
-2.07332e-06
3.22946e-08
-2.23728e-06
-5.55887e-07
-1.87401e-06
-8.23641e-07
-2.20606e-06
-6.67301e-07
-1.85426e-06
-7.25531e-07
-2.2447e-06
-2.40616e-06
2.3173e-07
-9.00214e-06
-6.04961e-07
-9.75577e-06
2.15798e-07
-8.66013e-06
1.89477e-07
-9.07032e-06
1.93162e-07
-9.12862e-06
2.96145e-07
-8.66045e-06
-9.14071e-06
2.65279e-09
-2.48368e-05
4.60804e-07
-2.82842e-05
5.60901e-07
-2.44642e-05
2.95129e-07
-2.50889e-05
-3.3393e-07
-2.70248e-05
-3.39339e-08
-2.46466e-05
-2.49596e-05
6.87181e-08
-6.48901e-07
-2.16926e-07
-3.01251e-07
-7.51732e-07
-1.0898e-07
-0.00390247
0.00200431
0.00193495
-0.00306459
0.00258517
-0.00336862
-0.000981509
0.00311195
-0.00513607
0.000415463
0.00369601
-0.00502384
0.00196433
0.00356539
-0.00505142
0.00334309
0.00303753
-0.0043546
0.00313813
0.000268608
-0.00631244
0.0041648
0.00419351
-0.00661718
0.00480927
-0.00186048
-0.00368954
0.00557773
-0.00529807
-0.000728971
0.00652171
-0.00568779
0.00307117
0.00591989
-0.00603452
0.00450954
0.00478292
-0.00306546
0.00461916
0.00313124
-0.00429537
0.00418935
0.00437782
-0.00475969
0.00363048
0.00174469
-0.00323305
0.00289567
0.00127737
0.000142025
0.00218494
0.00108186
0.00288784
0.00221958
0.00106846
0.0031589
0.00268989
0.00193136
0.00337425
0.00452682
-0.000560924
-0.000759916
0.00571311
-0.000337576
-0.000872121
0.00441671
-0.000204163
-0.00154631
0.00443167
-0.000703662
-0.00185382
0.00466393
-0.000689011
-0.00205911
0.00436936
-0.000110064
-0.00223668
0.00444325
-0.00227157
0.00568334
0.00193521
-0.0054405
0.00304539
0.00324849
-0.00454105
0.00257173
0.00410137
-0.00450774
0.00231247
0.00399472
-0.00382041
0.00224433
0.00325257
-0.00348423
0.00232501
0.00213888
-0.00383514
0.00285982
-0.00467746
0.00472164
0.00436323
-0.0032046
-0.00646534
0.00824338
-0.00308476
-0.00519133
0.0116136
-0.00360615
-0.0041256
0.0131903
-0.00298532
-0.00226651
0.0119697
-0.0022608
0.000148532
0.0081
-0.00159651
0.0017844
-0.0012989
0.0048559
0.00177657
-0.00493552
0.0036635
-0.00493609
0.0048344
-0.00472697
0.00609877
-0.00420297
0.00612164
-0.00223772
0.00405374
0.00052112
0.00281941
-0.00167637
0.00141266
0.00221768
-0.000285345
0.00183044
-0.00653853
0.00115167
0.00199757
-0.00854205
0.00177742
0.00274235
-0.00835921
0.00223308
0.00237623
-0.00784655
0.00233578
0.0020172
-0.00643906
0.00319092
-0.000544437
-0.00327554
0.00317161
0.00570853
-0.0029988
0.00371979
-0.00396002
-0.0030713
0.00355167
-0.00669296
-0.00275284
0.00462539
-0.00784635
-0.00113147
0.00380975
-0.00900384
0.00122338
0.00323187
-0.00653762
0.00350019
0.00409909
-0.00240276
0.00302617
0.00697242
-0.00337475
0.00186407
0.0046162
-0.00270097
0.000777824
0.0034678
-0.000308258
1.10879e-05
0.00333133
0.000975994
0.000373086
0.00326151
0.000767887
0.00124462
0.00416959
0.00212086
0.00672941
0.000456347
0.000373616
0.00805024
7.72579e-05
0.000146883
0.00659164
-0.000347915
-0.000493482
0.00617312
-0.00123158
-0.00101516
0.00653141
-0.00142972
-0.00141981
0.00636856
-0.0011704
-0.00136205
0.00682973
-0.00141717
0.00813148
0.00178857
-0.00308331
0.00493686
0.00233664
-0.00247788
0.0048072
0.00249487
-0.00264841
0.00444208
0.0017864
-0.00256224
0.00459422
0.00106259
-0.00308813
0.00480858
0.000294643
-0.00322541
0.00558447
-0.00362726
0.00733219
0.00293314
-0.00248778
-0.00988544
0.00434425
-0.0025044
-0.00649044
0.00582959
-0.00261657
-0.00553334
0.00731252
-0.00211062
-0.00408634
0.00648785
-0.00186693
-0.000137465
0.00404166
-0.00144917
0.00256069
-0.00101822
0.00636612
0.00113406
-0.0085113
0.0020752
-0.00834168
0.00261814
-0.00783937
0.00314189
-0.00679115
0.00301709
-0.00392979
0.0020526
8.84249e-05
0.00390943
0.000498935
0.00207242
-0.000375428
0.00231162
0.00176501
-0.0100808
0.00333553
0.000751234
-0.0103015
0.00342336
0.0010384
-0.00945833
0.00276928
0.00131485
-0.00849013
0.00110224
0.00198155
-0.00671864
0.00287256
-0.00224191
-0.00103553
0.00299341
0.00585731
-0.000794107
0.00286192
-0.00513766
-0.00368552
0.00288468
-0.00595575
-0.00429885
0.00196319
-0.00815681
-0.00315029
0.00130333
-0.0100845
-0.00155485
0.00257808
-0.00864073
0.00342872
0.00203622
-0.00162183
0.00306037
0.00857706
-0.00193058
0.00215879
0.00568939
-0.000954512
0.000956638
0.0044906
-0.00013347
-0.000278018
0.0047226
-0.000393534
0.00051109
0.00431747
-1.1271e-05
0.00150806
0.0049211
0.00189782
0.00832454
0.000459391
0.00073661
0.0100606
0.000553598
-8.52882e-05
0.00877907
0.00040169
-0.000664629
0.00791757
-0.0010106
-0.000549475
0.00804177
-0.00156707
-0.000847618
0.00820266
-0.00147701
-0.000737919
0.00902495
-0.00154822
0.0102184
0.00120349
-0.00192876
0.00662952
0.000464632
-0.0010115
0.00660992
-0.000467529
-0.00115078
0.0059373
-0.000987216
-0.00130634
0.0059471
-0.000696423
-0.00216697
0.00593039
9.8893e-06
-0.00240619
0.00667824
-0.00350991
0.00944431
0.00121259
-0.00128302
-0.011636
0.00115773
-0.00128738
-0.00610877
0.000781156
-0.00115093
-0.00507326
0.0018744
-0.00106404
-0.00530536
0.00261698
-0.000970637
-0.00195793
0.00297731
-0.00120347
0.00106091
-0.00115131
0.00703278
0.000938919
-0.0106768
0.00176074
-0.0104034
0.00216674
-0.00935149
0.00212523
-0.00776935
0.00184424
-0.00456656
0.00143559
-0.00064758
0.0042489
0.00289586
0.00249444
-0.00555787
0.00395386
0.00172877
-0.012755
0.00460457
-0.000361343
-0.010545
0.00434609
-9.93395e-05
-0.00906863
0.00303876
0.00092576
-0.00807388
0.000900386
0.00167884
-0.00621334
0.00190599
-0.00316879
0.00181932
0.00235918
0.00429432
0.000938051
0.00181167
-0.00416176
-0.00364712
0.0020451
-0.00385002
-0.0049128
0.000752496
-0.00771579
-0.00467075
0.000541369
-0.00987521
-0.00422229
0.0018929
-0.00921991
0.00293818
-0.00312244
-0.00128452
0.00184987
0.0104938
-0.0014334
0.00142468
0.00629077
-0.000286757
0.000705549
0.00471337
0.000361473
-0.00018125
0.00498395
-0.000755278
0.00046433
0.00550603
-0.00117067
0.00104222
0.006295
0.000372988
0.00989167
-9.89139e-05
0.000423044
0.0117097
0.000284114
-0.000243285
0.0100618
0.000294989
-0.000480068
0.00894618
-0.000822365
9.61709e-06
0.00879124
-0.00108288
-0.000359403
0.00908732
-0.000917766
-0.000438075
0.0103662
-0.00178824
0.0115961
-0.000177952
-0.00145984
0.00896151
-0.00150894
-0.000359035
0.00821547
-0.00238707
-0.000443471
0.00681281
-0.002155
-0.000549808
0.0063068
-0.00118343
-0.00137992
0.00605667
0.00046314
-0.00193151
0.00672414
-0.00232044
0.0107466
0.000276887
-5.42662e-05
-0.0131848
0.000412931
-3.46593e-05
-0.00651058
-0.000335705
-0.000299568
-0.00441175
3.91208e-05
-0.000292902
-0.00587949
0.00128563
-0.000453763
-0.00403365
0.00201028
-0.00108972
-0.000459655
-0.000797619
0.00762062
0.00116799
-0.0118644
0.00197657
-0.0112149
0.00222466
-0.00986552
0.00206105
-0.00784914
0.00176641
-0.00468171
0.00105576
-0.000965407
0.00456633
0.00351937
0.00130032
-0.0103655
0.00373843
0.0011189
-0.0141014
0.00475939
-0.00128111
-0.0102781
0.00380484
0.000333342
-0.00843282
0.00256424
0.000523797
-0.00731652
0.00094243
0.000918252
-0.00546699
0.00142882
-0.00360368
0.00399302
0.00243477
-0.00069661
0.00306775
0.00164047
-0.00364148
-0.00171982
0.00126558
-0.001663
-0.00381684
0.000823505
-0.00604948
-0.00475595
0.000254186
-0.00864268
-0.00444919
0.00102711
-0.00952876
0.00203515
-0.00798039
0.000493462
0.000196206
0.0124508
0.00018768
0.00024369
0.00820289
-3.73511e-05
0.000438822
0.00583651
0.000274717
0.000140392
0.00537105
-0.00100386
0.000307133
0.00681461
-0.00145855
-0.000184406
0.00809796
-6.1471e-05
0.0107094
-0.000532457
-0.00064007
0.0131133
-0.000634158
-0.000571457
0.0109633
-0.000287152
-0.000439364
0.00939382
-0.000448577
1.85535e-05
0.00899862
-0.000455222
7.72347e-05
0.00918841
-0.00107043
6.40448e-05
0.0107163
-0.00167096
0.0122008
-0.00141031
-0.000630449
0.0105824
-0.00238601
-0.000598944
0.00936534
-0.00312853
-0.000684513
0.00780099
-0.00277817
-0.000701969
0.00670575
-0.00169527
-0.000852806
0.00595329
-0.000262205
-0.00114604
0.00668488
-0.00129786
0.0104149
-0.000367191
0.00091928
-0.0143245
0.00108946
0.00087787
-0.00926214
0.000781441
0.00042754
-0.00513424
0.000298398
-0.000150735
-0.00590607
0.00079199
-0.000442696
-0.00486792
0.000384351
-0.000867477
-0.000286836
-0.000475712
0.00738541
0.00136248
-0.0122899
0.0025095
-0.0114858
0.00280605
-0.00970662
0.00205265
-0.00720025
0.00152855
-0.00455434
0.000471951
-0.000727631
0.00461527
0.00197899
-0.000955209
-0.0114615
0.00235356
-0.000386583
-0.0141932
0.00423507
-0.00204108
-0.0101561
0.00283484
0.000534385
-0.00757875
0.00172142
0.000364429
-0.00654368
0.000333242
0.00111109
-0.00515962
0.000668201
-0.00389869
0.00189461
0.00152626
-0.00513351
0.0019346
0.00132563
-0.00535815
-0.000798472
0.00118882
-0.00220575
-0.00213589
0.000525379
-0.0046872
-0.00245946
-0.000479195
-0.00746392
-0.00219108
0.000255285
-0.00891532
0.000659952
-0.0100862
0.00107899
0.000426032
0.0125776
0.00186627
-0.000618768
0.00948058
0.000852173
0.00072463
0.007472
0.000237462
0.000575866
0.00596336
-0.00122945
0.000605296
0.00730717
-0.000892704
-0.000236792
0.00849144
5.24043e-05
0.0106733
1.72396e-05
0.000287264
0.0132504
-0.00114106
0.000242848
0.0112756
-0.000715263
0.000456525
0.0092255
-0.000666576
0.000851382
0.00865204
-0.000636165
0.00079691
0.00890929
-0.00107632
0.000645525
0.010237
-0.000130379
0.0113082
-0.00152722
0.00101254
0.0115691
-0.00283237
0.0007178
0.0103588
-0.00429183
0.000164512
0.00956499
-0.00399515
-0.000730178
0.00802783
-0.00260259
-0.00115393
0.00655684
-0.00161924
-0.000750805
0.00716793
-0.000832508
0.00961792
0.00111384
0.0020535
-0.0165049
0.00326751
0.00221392
-0.0128932
0.00378581
0.000813165
-0.00622259
0.00171534
0.000204123
-0.00468997
-7.18036e-06
-0.000255526
-0.00401193
-0.00111045
-0.000514583
0.000529278
-0.000321434
0.00580474
0.00158525
-0.0118195
0.00332724
-0.0110205
0.00305062
-0.00860601
0.00176523
-0.00570292
0.000691554
-0.00371082
-0.000368203
-0.000153098
0.00398602
0.00101074
-0.00159044
-0.0109203
0.00239328
-0.0015941
-0.0140525
0.00383392
-0.00220133
-0.00938584
0.00292493
-0.000549498
-0.0060961
0.00215845
-0.000419614
-0.00530064
0.000959776
0.000440101
-0.00436705
3.08395e-05
-0.00289724
-0.00170984
0.000370972
-0.00541647
0.00125984
-0.000137516
-0.00970632
-0.000540724
0.000875353
-0.00352316
-0.00230858
2.24589e-05
-0.00350535
-0.00120687
-0.00138462
-0.00752143
3.32426e-05
-0.00133967
-0.00831218
-0.000809924
-0.00914936
0.0017083
0.000493166
0.0108498
0.00227653
-0.000381893
0.00920323
0.00109242
0.00217075
0.00747789
-0.000897483
0.00240231
0.00560081
-0.00236662
0.00204391
0.00538225
-0.00204842
0.00156887
0.00538428
0.00289732
0.00512722
4.23311e-06
0.000788968
0.0129036
-0.00210458
0.000403939
0.0125119
-0.000578959
8.92262e-05
0.00970283
-0.000416109
0.000622929
0.0102498
-0.000406936
0.000809243
0.0100622
-0.0013169
0.00127181
0.0113455
0.00105453
0.0118149
-0.000646628
0.00182923
0.0112218
-0.00198784
0.00252887
0.00966211
-0.00315553
0.00107069
0.00978432
-0.00372691
-0.000788992
0.0100294
-0.00372894
-0.00191568
0.00930406
-0.00192754
-0.00205774
0.00864159
-0.0022825
0.0110467
0.00233824
0.00240259
-0.0193894
0.00482323
0.00248133
-0.0153195
0.00502858
0.00142729
-0.00675038
0.00340475
0.00104701
-0.00485501
-0.000411345
-7.13628e-06
-0.00204358
-0.00170763
-0.000293249
-2.39347e-05
-0.000936934
0.00266813
0.00172441
-0.0111307
0.00344779
-0.0102576
0.00331134
-0.00704476
0.00203371
-0.00337511
-0.000463102
-0.00122278
-0.00107888
0.000156463
0.00199157
0.000121588
0.00366433
-0.0131562
0.00950764
0.00190003
0.00341126
-0.0184013
0.0132276
0.00170309
0.00210489
-0.0105599
0.00863403
0.00310069
0.000459698
-0.00627775
0.00444222
0.00266292
0.00100436
-0.0043737
0.00384651
0.00173245
0.000307134
-0.00249031
0.00313682
0.000628096
-0.000761686
0.00191805
-0.00158506
0.00132343
-0.00168285
0.00572409
-0.00183055
0.00111048
-0.00737566
0.00993792
0.00204499
0.00184994
-0.0077267
0.00427782
0.0059037
0.00167424
-0.00952048
0.00459877
0.00527066
0.00187845
-0.00839845
0.00815805
0.0048892
0.00185065
-0.00757079
0.00641165
0.00305142
-0.0056772
0.00816024
0.00101491
-0.000425448
0.0103434
-0.00959388
0.000501532
-0.000641758
0.0111968
-0.00874794
-0.000975351
0.0003781
0.0100499
-0.00690814
-0.00421221
0.00126805
0.00936884
-0.00561568
-0.00457312
0.0014204
0.00624177
-0.00529272
-0.00188484
0.00174234
0.000967686
-0.00341394
0.00222794
-0.00223981
0.0013707
0.00033983
-0.00116618
0.0130155
-0.0127733
0.000162839
-0.0013099
0.0119621
-0.0112613
-0.00020661
-0.000839691
0.0120897
-0.0105966
-0.000698765
-2.0527e-05
0.012313
-0.0105925
-0.00144931
4.59927e-05
0.0132687
-0.0112611
-0.00161408
0.000248213
0.0135402
-0.0119978
6.54419e-05
0.0128359
-0.0122802
0.00399826
0.000580645
0.00296644
-0.00883101
0.00299927
0.0030136
0.00552588
-0.00888436
-0.000553595
0.0025158
0.00905638
-0.00886931
-0.00199592
0.000646123
0.00941961
-0.00868529
-0.00146423
-0.000584803
0.00878769
-0.00874041
-0.000853031
-0.000668807
0.00943338
-0.00924995
-0.000676771
0.0102375
-0.0105182
0.00225717
-0.00236436
-0.0198614
0.0205055
0.00584517
-0.00205169
-0.0153908
0.0168231
0.00748023
0.000231329
-0.00710604
0.00774259
0.00699265
-0.000160893
-0.00436793
0.00561322
0.00517612
0.000230696
-0.00122094
0.00220944
0.00325382
0.000656102
0.00192262
-0.00128972
0.00142488
0.00434174
-0.0031889
0.000790896
-0.0128262
0.00967573
0.0014814
-0.0119382
0.00917044
0.00158246
-0.0054896
0.00561901
0.000354418
-0.000558988
0.00163215
-0.00017471
0.00138579
-0.000592161
-0.000657158
0.00269009
-0.00154287
0.00310266
-0.00235436
0.00090424
0.000345335
-0.0144022
2.09477e-05
0.000197304
-0.0176757
0.00123648
-0.000744046
-0.0110404
0.0027217
-0.00160945
-0.0061374
0.00320221
-0.00155005
-0.00327721
0.0024998
-0.00107669
-0.000695548
7.59066e-05
0.00166632
-0.00383964
0.00104258
0.00154581
0.00022447
1.53984e-05
-0.0111555
0.00688779
0.00134765
-0.0163031
0.00972629
0.0013073
-0.0152054
0.00924884
0.000862086
-0.0103092
0.00698581
0.00117696
-0.00757867
0.00318328
-0.00180809
0.000246886
0.000115108
0.0110398
-0.000613578
-0.000213417
0.0123874
-0.00093983
0.000292126
0.0115083
-0.00206949
0.000359543
0.0114996
-0.00132753
-0.00113745
0.00753457
-0.000746846
-0.000786546
0.00241096
0.000884206
-0.000632551
0.000717537
-0.00145169
0.0136205
0.00105532
-0.00224497
0.0135385
0.00105704
-0.00192452
0.0142112
0.000907537
-0.00157058
0.0143241
-0.000387125
-0.0011645
0.0144164
-0.00156945
-0.000205877
0.0139678
-0.000513841
0.012535
0.0061863
0.000660325
-0.0053513
0.00836695
0.00219897
-0.00110283
0.00506867
0.00299937
0.00739908
0.00112132
0.00155471
0.0102055
-0.000598054
-1.72014e-05
0.00934642
-0.00052578
-0.000237568
0.00934776
-0.000761772
0.00989001
0.00130963
-0.000135412
-0.0204046
0.00427941
-0.000881989
-0.0153094
0.00635887
0.000936407
-0.00716723
0.00489966
9.87555e-05
-0.00150731
0.00372551
-0.000104378
3.63148e-05
0.00223256
0.000598231
0.00260397
0.00125679
0.00456842
-0.00061084
-0.0123175
-0.0014565
-0.0119254
-0.000313295
-0.00567877
-0.00079214
2.3865e-05
-0.001428
0.00193779
-0.0010122
0.00288732
0.00335554
0.00107305
5.74524e-05
-0.0155167
-3.48386e-05
0.000789782
-0.0173433
0.00121981
-0.00152557
-0.0107455
0.00354848
-0.00235882
-0.00606854
0.00345104
-0.000523103
-0.00262044
0.0023152
-7.57562e-05
0.000536202
0.000244453
0.0037671
-0.00159589
0.00103422
0.00224966
0.0043322
0.000726551
-0.0169905
0.00980025
0.000288936
-0.0235323
0.0104339
-0.00102356
-0.0171796
0.00851602
-9.79925e-05
-0.00884632
0.00560332
0.00112583
-0.00590903
0.00293973
0.00108565
-0.000520918
0.00114118
0.0114676
0.000126087
0.000172635
0.0121012
0.000387315
7.58159e-05
0.0113379
-0.000771086
-0.00121336
0.0127897
-0.000571211
-0.00287058
0.0100405
0.000133752
-0.00317228
0.00594694
0.000287692
0.00216319
0.00155177
-0.000942394
0.013954
0.000998983
-0.000368613
0.0144852
0.00190593
-0.00160338
0.0149033
0.00185431
-0.00182598
0.0148768
0.000283272
-0.00184015
0.014788
-0.00185113
-0.00145639
0.0142271
-0.00181853
0.0126349
0.00404673
-0.000467959
-0.00985529
0.00616751
-0.000291646
-0.00325322
0.00771071
0.00137268
0.00294142
0.00499963
0.00231323
0.0087621
0.00157871
0.000913449
0.00999838
0.000306519
-0.000315398
0.0094435
-0.00087132
0.00920086
-0.000557879
-0.00156171
-0.0187665
-0.00124656
-0.0014391
-0.0134988
0.000227303
-0.000682213
-0.00662705
0.00159996
-0.000312779
-0.00031789
0.00132795
-0.000243861
0.00142858
0.000920425
0.000213064
0.00248945
0.000480838
0.00414447
-0.00219139
-0.0116475
-0.00389346
-0.0115929
-0.00280385
-0.00740209
-0.00196502
-0.00111182
-0.00172067
0.00146574
-0.000989909
0.00239605
0.00286879
0.000611994
-3.08336e-05
-0.0161029
-0.000658735
0.00115816
-0.0171993
0.000788845
-0.00210283
-0.0100592
0.00292756
-0.00254361
-0.00563387
0.00201333
0.000350798
-0.00203879
0.000685855
0.000350282
0.00154848
0.000295823
0.00422728
0.00355622
-0.00142108
6.27734e-05
0.0090462
0.000165415
-0.0215634
0.00960398
-0.0001256
-0.0260596
0.00716825
-0.00305444
-0.014251
0.00450829
-0.00162938
-0.00425883
0.00185866
0.000130053
-0.0030631
0.00120756
0.0020425
-0.00156234
0.00152569
0.0100511
0.000259215
0.00045628
0.00986341
0.00149315
-0.000181082
0.0100952
-0.000180429
-0.000624338
0.0119588
-0.000978493
-0.00168148
0.0108498
-8.46874e-06
-0.0032764
0.00832288
-0.000649196
0.0039773
0.00259852
-0.00047181
0.0132595
0.0011541
0.00229086
0.0139983
0.00155006
7.20014e-05
0.014153
0.0016586
-0.000507765
0.0144945
0.000315521
-0.000411752
0.0147247
-0.00133001
-0.00161529
0.0140557
-0.0018546
0.0123617
0.00206031
-0.00293122
-0.00943363
0.0042053
-0.00182272
-0.0012726
0.00623318
-0.000313669
0.00131498
0.00678028
0.00142713
0.00628921
0.00467804
0.00147509
0.0101606
0.00214118
0.000569945
0.0097144
0.000392774
0.00903674
-0.00333677
-0.00250707
-0.0158229
-0.00516417
-0.00182462
-0.0116234
-0.00423415
-0.0015412
-0.00633099
-1.81803e-05
-0.000905201
-0.00221336
0.000862941
-0.000159848
0.00213958
0.000702511
0.000501772
0.00267285
0.000762103
0.00447101
-0.00410453
-0.00997523
-0.00630546
-0.0111289
-0.00491616
-0.0102497
-0.00157361
-0.00530488
-0.000724018
0.000466621
-0.000519866
0.00267527
0.00311283
-0.00185509
0.000933901
-0.0151703
-0.00213708
-0.00115231
-0.0156803
-0.000196167
-0.0035358
-0.00848481
9.75566e-05
-0.00230132
-0.00362039
-0.00102356
-0.000753026
-0.000149921
-0.00121327
-0.000197216
0.00195638
-0.000497036
0.00356256
0.00498342
-0.00371367
-0.000353427
0.00916778
-0.00234007
-0.0246794
0.00508484
-0.00130265
-0.0243112
0.00123264
-0.00513115
-0.0076564
0.000630266
-0.00424206
-0.000200956
-0.000271953
-0.00149351
-0.000852487
-0.000300556
0.00157435
-0.00394809
0.00304582
0.00711914
-0.000439581
0.00211544
0.00173803
0.00401114
0.0016926
0.00252717
0.00173537
0.00108236
0.00795135
-0.000582963
-0.000663164
0.00959521
0.000196874
-0.00241345
0.00845854
-0.0008622
0.00471441
0.00211502
9.41509e-05
0.0139567
0.00108831
0.00199593
0.015015
0.00100648
0.00115686
0.0146241
0.00147741
0.000650518
0.0142667
0.0007638
0.000400667
0.0142343
-0.0005099
-0.000576099
0.0133585
-0.00120347
0.0121462
0.00131812
-0.00569634
-0.00500158
0.00322271
-0.00326971
0.00206701
0.00361545
-0.00132197
0.00344166
0.00486394