/*--------------------------------*- C++ -*----------------------------------*\
  =========                 |
  \\      /  F ield         | OpenFOAM: The Open Source CFD Toolbox
   \\    /   O peration     | Website:  https://openfoam.org
    \\  /    A nd           | Version:  6
     \\/     M anipulation  |
\*---------------------------------------------------------------------------*/
FoamFile
{
    version     2.0;
    format      ascii;
    class       volScalarField;
    location    "0.0125";
    object      T;
}
// * * * * * * * * * * * * * * * * * * * * * * * * * * * * * * * * * * * * * //

dimensions      [0 0 0 1 0 0 0];

internalField   nonuniform List<scalar> 
3773
(
290.989
290.859
290.942
290.894
290.841
290.934
291.001
291.165
291.007
291.322
291.127
290.946
291.285
291.2
306.816
308.396
308.379
308.359
308.315
308.375
306.802
311.494
311.752
311.771
311.762
311.759
311.82
311.516
306.842
307.022
308.413
308.332
308.364
308.317
306.857
291.327
291.572
291.492
291.105
291.121
291.609
291.35
291.041
291.052
291.012
290.906
290.901
291.026
291.049
286.514
285.962
286.046
285.972
285.809
286.135
286.709
270.923
275.829
275.776
275.451
274.632
275.454
271.474
314.204
312.723
313.097
313.159
313.116
312.495
314.367
325.456
325.705
325.986
326.024
325.991
325.823
325.934
314.601
314.759
313.2
313.218
313.242
313.128
314.699
271.528
272.265
275.512
274.271
275.088
275.999
271.622
286.942
286.629
286.601
286.196
286.218
286.548
287.02
270.102
266.418
266.228
266.17
266.368
267.536
270.899
261.188
267.749
266.411
266.083
263.874
264.613
261.339
314.286
312.793
314.642
314.722
314.114
311.888
313.909
326.812
326.022
326.79
327.27
327.202
325.968
326.668
314.203
312.947
312.827
314.169
314.187
312.983
313.979
261.902
264.442
265.073
262.809
264.919
265.948
261.855
272.401
269.37
269.164
269.008
267.918
268.762
272.647
240.249
237.379
236.268
236.441
237.021
238.166
240.647
256.322
264.594
263.447
263.092
259.546
259.979
256.209
314.039
312.509
313.313
313.313
313.991
311.414
313.683
326.905
326.343
326.863
327.2
326.945
326.213
326.735
314.067
311.341
314.085
315.594
313.961
311.62
313.732
256.882
260.325
260.573
258.594
260.588
261.401
256.739
242.102
239.222
238.827
238.133
237.85
239.116
242.294
223.419
223.392
222.564
222.357
221.979
222.32
223.469
254.632
261.726
261.001
261.049
258.433
258.518
254.436
314.179
312.157
311.743
312.71
312.059
310.456
313.896
326.997
326.365
326.651
326.72
326.458
326.13
326.93
314.079
311.108
313.02
313.756
313.344
311.352
314.009
255.079
259.135
258.997
258.144
259.29
259.538
254.936
224.071
223.034
222.767
221.505
222.426
223.14
224.138
218.862
219.412
218.556
218.891
218.348
218.128
218.799
256.784
261.996
262.01
262.813
261.719
261.404
256.281
315.153
311.897
312.014
311.495
311.05
310.953
314.564
327.32
326.578
326.338
326.591
326.137
326.873
327.277
314.828
312.128
311.699
311.954
311.776
312.482
314.776
256.943
261.114
261.7
261.857
263.575
260.659
256.699
219.006
218.306
218.462
217.127
218.88
218.648
218.992
213.482
212.717
212.852
213.999
213.688
213.458
213.514
255.841
257.332
255.051
256.707
256.91
257.121
255.759
312.408
312.635
311.01
311.695
310.6
312.125
311.005
333.69
334.995
334.761
334.752
335.321
333.573
335.393
312.404
317.413
312.286
310.979
318.868
312.701
311.213
256.177
245.874
256.962
255.912
249.289
256.68
255.962
213.685
212.71
213.581
212.698
212.94
213.594
213.603
341.887
344.258
345.731
345.639
345.366
343.326
339.603
336.368
335.991
336.148
337.137
334.299
333.547
333.907
333.854
334.116
334.361
335.592
332.885
331.985
331.333
321.293
325.532
326.142
325.424
325.129
324.092
319.601
321.235
322.798
323.338
323.38
322.869
321.688
318.695
336.304
335.147
333.724
332.247
331.707
330.511
326.903
345.36
344.251
342.376
340.442
338.286
337.144
332.218
341.421
345.178
347.6
347.623
347.116
344.649
338.547
334.223
329.231
333.08
334.149
331.064
329.648
333.076
332.813
331.223
332.339
333.69
330.437
329.205
330.526
320.603
323.965
325.212
326.651
323.83
322.181
318.793
319.373
320.801
321.583
322.042
321.628
320.146
317.457
335.555
333.252
330.619
327.752
326.108
325.772
324.797
347.142
345.184
343.359
340.439
336.475
334.185
330.779
339.224
346.797
348.074
347.7
347.03
345.133
332.98
332.502
323.775
330.632
330.684
330.23
330.096
330.607
330.861
326.804
329.345
332.326
326.835
326.902
328.735
319.238
322.853
324.996
330.404
324.017
320.312
317.151
316.507
316.486
318.162
318.957
317.585
315.485
315.566
334.997
327.587
327.023
326.05
321.436
320.881
322.013
347.318
344.373
342.866
339.208
336.652
329.973
328.129
338.779
350.551
348.882
347.737
346.874
345.533
335.671
328.086
325.043
329.705
330.103
331.239
330.568
326.373
323.993
321.406
327.435
331.411
325.409
320.354
324.732
315.892
320.51
326.769
336.519
326.152
318.053
312.621
309.89
311.786
316.886
317.403
315.326
310.777
311.382
336.343
325.768
327.02
328.719
325.94
322.875
320.86
347.153
343.485
341.692
338.687
336.404
329.902
327.022
350.721
352.166
349.498
347.864
347.038
346.012
339.554
326.089
329.716
330.037
332.205
332.867
332.54
329.68
319.567
315.328
321.478
328.946
321.624
317.847
319.13
313.447
319.668
328.802
339.4
330.69
316.94
309.55
306.141
308.586
316.668
316.738
313.953
306.042
303.53
339.794
329.765
328.825
331.46
329.725
325.257
315.541
347.073
342.951
341.023
338.338
336.253
329.972
326.23
347.719
350.481
348.892
347.76
347.175
346.371
340.784
334.218
333.49
331.588
332.652
333.239
335.987
336.862
317.405
313.801
317.075
325.803
316.02
310.072
316.562
313.099
320.147
330.276
339.377
331.684
316.953
309.739
302.611
307.538
317.347
318.309
315.109
303.971
299.558
340.614
335.041
333.397
332.393
332.258
324.326
311.392
347.931
342.604
339.647
337.279
335.747
329.157
323.811
347.061
349.383
349.012
347.443
347.329
347.325
343.339
337.433
341.887
332.553
331.456
333.561
335.552
337.821
313.559
310.015
311.449
321.241
309.592
305.174
309.134
314.411
321.946
329.282
337.756
330.56
317.2
310.677
302.173
307.82
318.271
319.843
317.384
308.378
302.908
344.872
336.813
334.775
334.694
333.212
327.292
314.398
348.585
342.456
337.704
336.344
335.402
327.968
319.554
353.162
352.739
353.291
351.755
350.677
349.175
345.239
348.597
349.412
346.14
346.424
347.676
348.493
348.498
312.4
309.986
312.342
319.116
313.711
325.179
337.066
315.986
325.864
330.331
335.765
327.559
317.929
313.38
304.895
307.808
318.123
321.729
320.902
316.384
309.905
350.681
342.537
336.573
336.623
337.026
335.303
331.519
350.941
342.366
337.143
336.033
333.774
331.778
326.312
352.089
350.405
351.965
350.505
349.881
349.238
347.242
343.323
346.785
349.217
348.7
348.277
348.422
348.762
316.497
310.014
315.608
322.459
326.531
338.725
345.874
322.409
328.008
330.999
335.778
330.411
322.328
319.443
338.607
329.407
320.803
322.187
322.341
320.108
316.264
351.031
344.751
338.539
335.898
336.884
336.484
333.018
349.24
340.978
335.781
333.269
332.302
331.689
328.659
351.535
349.394
350.599
349.199
349.533
349.344
347.601
341.57
348.063
350.51
347.871
346.461
346.477
348.021
323.005
316.322
323.515
324.967
330.05
338.431
346.58
331.24
332.84
332.988
336.11
333.342
326.753
324.916
351.822
350.147
336.256
325.176
323.839
323.575
321.65
350.569
345.017
339.301
333.908
334.957
336.452
333.575
349.633
342.902
336.51
332.77
331.8
331.098
329.357
351.371
348.51
350.558
348.276
348.747
349.166
347.481
335.187
346.815
350.547
346.438
343.217
344.957
347.931
323.69
321.596
326.169
328.763
332.277
338.605
345.287
335.554
337.048
336.65
337.679
336.028
329.643
327.627
351.786
346.948
342.483
334.644
327.4
326.675
324.794
350.391
345.28
339.245
335.972
334.341
335.858
332.401
351.263
348.825
343.252
335.776
331.907
331.152
328.916
351.661
349.352
350.385
347.452
347.37
348.497
346.982
331.957
347.264
351.096
344.869
341.749
344.307
347.917
324.747
325.011
329.062
330.249
334.69
339.521
344.354
335.555
337.215
337.565
341.148
340.335
333.719
329.901
351.011
347.862
343.42
337.166
332.327
329.858
326.156
351.231
347.184
342.266
338.761
335.251
334.844
330.186
354.508
351.529
348.656
342.44
336.231
331.829
327.619
351.033
349.445
349.779
348.471
345.511
346.89
346.814
332.642
351.873
350.93
345.31
339.955
343.275
347.655
331.252
344.337
345.96
339.688
337.006
339.321
343.079
334.94
338.388
340.616
342.785
342.129
336.3
331.825
349.403
346.635
345.191
341.678
334.377
331.943
328.075
352.004
350.484
348.624
347.101
343.719
338.168
330.597
355.66
353.225
351.609
347.819
342.967
340.887
326.546
343.535
355.529
350.933
350.702
349.336
348.991
349.154
348.931
352.503
351.798
351.466
347.911
344.258
345.803
345.699
353.374
351.878
353.046
349.088
343.736
342.145
336.47
340.003
342.64
345.203
344.357
340.115
335.308
350.721
348.11
346.259
345.756
345.145
344.576
340.734
355.224
354.788
352.584
351.485
348.931
346.547
344.08
352.673
355.582
352.303
349.982
346.632
340.848
339.068
350.262
351.275
351.999
349.44
349.556
348.305
344.911
339.048
344.431
332.898
330.228
342.285
342.246
342.413
313.337
310.222
311.428
321.259
309.219
305.26
308.499
314.157
323.734
327.348
335.367
328.465
316.979
310.665
301.651
307.666
318.657
319.958
318.715
310.47
303.746
347.443
339.175
334.886
334.745
335.236
333.005
319.498
350.439
342.928
337.172
335.921
334.858
328.475
318.332
350.675
351.51
352.508
350.091
349.831
348.627
345.067
341.392
345.805
334.519
331.978
343.556
344.178
344.064
313.145
310.123
311.312
321.152
308.992
304.944
307.645
314.222
323.914
327.39
335.4
328.52
317.044
310.687
301.72
307.733
318.773
320.036
318.763
310.889
303.938
348.009
339.838
335.313
335.5
335.469
334.172
321.214
350.563
342.91
337.153
336.003
334.995
328.419
318.784
351.166
351.967
353.045
350.437
349.977
348.724
345.077
342.7
346.257
334.651
333.137
344.006
345.297
344.982
312.832
309.943
310.999
320.84
308.248
304.24
304.484
314.352
324.249
327.501
335.489
328.392
316.955
310.572
301.738
307.755
318.923
320.098
318.792
311.039
304.08
348.342
340.114
335.377
335.677
335.9
334.217
323.123
350.66
342.873
337.104
335.997
335.016
328.593
319.292
351.626
352.364
353.271
350.617
350.068
348.797
345.118
344.306
346.877
334.713
335.135
344.217
346.273
346.454
312.525
309.918
310.754
320.561
307.723
303.495
305.032
314.5
324.458
327.584
335.55
328.067
316.754
310.412
301.743
307.774
319.001
320.19
319.016
311.466
304.414
348.633
340.384
335.34
335.663
335.703
333.502
325.202
350.804
342.857
337.044
335.984
335.096
328.965
319.837
352.59
353.039
354.008
350.977
350.128
348.905
345.129
344.892
347.373
337.982
338.729
344.879
347.084
347.719
312.06
309.953
310.731
320.259
307.171
305.051
328.484
314.677
324.813
327.728
335.584
327.764
316.396
310.699
301.729
307.836
319.156
320.304
319.042
311.682
304.733
348.889
340.517
335.387
335.773
335.475
333.589
326.794
351.179
342.984
337.092
336.003
334.986
329.914
320.25
352.908
353.28
354.347
351.485
350.57
349.032
345.127
346.027
348.272
342.685
342.65
346.14
347.772
347.883
311.658
309.969
310.665
319.921
306.848
306.064
334.825
314.776
324.964
327.892
335.589
327.24
316.399
311.323
301.732
307.846
319.235
320.353
319.134
311.893
305.127
349.15
341.097
335.412
335.824
335.44
333.462
327.451
351.326
343.053
337.293
336.004
335.124
330.947
321.052
353.284
353.271
354.423
351.644
350.657
349.089
344.739
347.277
348.918
344.592
344.407
347.106
348.623
348.384
311.203
309.861
310.613
319.012
306.841
308.215
337.409
315.01
325.348
328.315
335.607
327.278
316.454
311.413
301.773
308.017
319.504
320.49
319.187
312.153
305.272
349.832
341.415
335.824
336.214
336.128
332.498
327.252
351.227
342.855
337.249
335.973
335.117
331.534
321.871
336.373
360.093
338.923
326.666
322.07
320.295
319.247
348.526
353.316
351.794
347.721
346.424
345.002
343.035
348.204
352.495
351.368
352.895
353.264
350.912
342.979
337.996
341.996
344.894
345.965
345.886
342.687
335.782
350.545
351.986
353.927
354.594
356.366
357.345
357.176
346.639
354.182
354.875
360.217
357.171
352.722
345.099
323.063
329.475
340.684
345.688
358.734
348.357
331.565
353.458
346.896
344.09
337.126
333.297
332.081
330.901
350.121
360.313
351.274
348.615
346.751
346.098
344.563
351.502
353.065
352.454
353.426
353.614
353.311
345.702
338.528
342.521
345.758
346.276
346.306
343.206
336.997
350.725
352.304
352.654
351.657
352.67
354.438
361.539
344.838
349.496
351.034
355.625
355.772
358.47
356.609
327.724
327.595
330.053
336.384
342.192
345.721
350.545
356.598
350.204
351.992
348.59
345.657
344.705
345.402
353.789
357.507
356.125
353.561
351.965
351.346
350.811
351.747
353.124
353.4
353.641
353.678
353.354
347.981
339.178
343.626
346.319
346.762
346.673
343.756
337.488
350.903
351.821
351.996
351.553
352.746
351.901
353.288
348.081
349.368
350.326
353.255
353.8
354.588
357.318
337.699
333.602
333.164
336.272
339.407
341.305
356.66
359.325
351.498
354.818
353.506
352.464
352.729
352.262
359.317
358.117
359.553
355.541
356.064
355.275
355.208
351.697
353.582
355.154
355.142
355.089
353.91
352.299
340.516
344.311
347.011
347.318
347.341
344.52
338.918
351.551
352.185
352.257
351.739
352.551
352.037
351.723
355.027
352.162
352.16
353.301
353.592
354.509
355.345
348.221
340.165
340.335
341.578
344.102
344.303
347.984
358.331
352.288
356.037
354.165
353.469
353.458
352.628
360.025
359.151
360.773
357.828
355.323
354.628
354.779
351.976
354.228
357.223
356.586
355.897
353.921
353.676
342.134
345.362
347.526
347.837
347.79
345.245
339.314
351.607
353.003
353.45
352.892
353
352.382
351.59
357.106
354.9
353.964
353.982
353.963
354.578
354.699
352.689
349.505
344.563
344.28
345.999
347.244
348.611
356.637
354.057
355.959
353.379
352.089
351.301
350.75
360.456
360.81
360.788
359.755
356.3
355.588
355.459
354.344
355.726
357.937
357.651
356.866
354.381
352.558
343.431
348.07
348.798
349.072
348.723
346.906
340.621
350.539
353.001
353.626
353.285
353.316
352.264
350.193
356.839
355.738
355.683
355.764
355.738
355.816
356.311
350.666
350.093
351.032
350.289
349.988
349.67
350.619
355.865
357.511
357.555
353.758
351.07
350.752
350.135
360.102
362.055
360.645
359.291
357.875
356.222
355.481
356.715
358.803
359.189
358.181
357.131
354.513
352.21
346.089
349.686
349.951
350.258
349.386
348.681
342.177
351.827
352.584
352.81
352.707
352.493
351.915
349.701
355.295
355.664
356.714
357.071
356.788
357.456
358.461
349.249
348.631
351.921
353.798
354.571
356.645
357.146
319.49
319.698
319.749
322.994
328.072
334.234
343.6
341.391
341.318
342.055
342.314
343.03
346.957
348.807
342.727
342.577
348.567
359.813
359.677
358.738
358.797
338.782
353.203
355.177
358.803
359.579
359.366
358.969
356.327
356.287
356.299
356.81
357.845
358.242
359.424
345.914
346.961
347.236
348.187
348.599
350.48
351.893
332.588
334.073
333.627
334.577
335.381
339.613
344.607
330.977
329.559
330.766
331.158
334.257
338.083
342.717
344.129
343.676
343.963
344.424
345.318
347.697
348.616
343.566
342.901
346.286
358.692
358.229
357.676
357.7
338.892
345.113
349.288
355.615
357.586
357.527
357.233
360.607
360.37
360.456
360.424
360.489
360.224
359.7
358.039
358.001
357.463
356.401
355.578
355.137
356.259
349.882
350.852
349.992
350.74
350.068
349.41
351.99
345.998
345.664
345.785
346.126
345.698
343.738
341.182
351.012
350.982
351.35
351.433
351.992
353.211
353.706
345.237
343.635
343.526
352.365
358.186
357.958
357.917
339.008
342.338
343.746
347.011
350.358
352.694
354.233
356.002
356.31
357.07
358.201
360.615
362.114
361.652
358.562
359.153
360.22
361.93
362.261
362.573
361.762
358.908
359.374
360.481
361.476
361.854
362.631
358.495
352.802
353.096
353.131
353.696
354.796
354.316
342.763
354.928
354.788
354.793
355.212
355.591
355.757
356.895
349.703
348.387
345.442
345.849
350.592
356.756
358.084
339.697
341.119
341.469
342.391
343.1
345.041
346.889
351.994
352.255
353.238
354.372
356.473
359.998
361.347
355.832
356.293
357.229
357.967
360.201
360.95
363.12
349.321
350.893
352.627
355.397
357.24
361.08
363.741
352.499
352.306
352.445
353.275
354.008
355.028
349.396
354.701
354.787
354.909
354.987
354.18
354.518
355.304
352.654
352.191
351.445
349.005
348.895
350.018
353.722
339.859
340.526
340.917
341.321
341.282
341.454
342.067
350.224
350.208
350.732
351.867
352.615
354.181
357.08
354.915
355.234
356.077
356.591
357.6
358.387
360.197
350.029
351.813
353.052
355.535
357.424
360.608
364.048
350.575
350.933
351.498
353.335
354.085
355.437
354.085
355.442
355.237
355.033
354.709
354.493
354.332
354.018
352.456
352.111
351.865
351.12
350.651
349.26
349.403
340.65
340.571
340.369
340.361
340.168
339.579
338.637
347.431
347.777
348.985
350.25
351.208
351.527
352.135
356.607
356.809
356.922
357.306
357.984
358.628
359.237
352.061
353.271
354.097
355.856
357.562
360.95
363.873
350.671
350.902
351.956
352.879
353.738
354.987
357.029
355.412
355.342
354.926
354.582
354.512
354.329
353.7
351.927
351.328
350.913
350.644
350.28
349.49
346.534
341.654
341.017
340.758
340.086
339.597
338.249
336.101
350.096
351.791
352.649
354.782
354.922
353.518
351.031
359.144
359.583
360.026
360.872
361.251
361.374
359.944
358.289
359.791
361.024
361.816
362.428
363.863
363.462
346.43
339.36
332.302
324.861
324.385
327.161
330.616
348.298
346.941
344.153
343.523
343.978
345.402
346.099
358.337
358.259
358.352
358.908
359.276
359.588
356.464
356.064
356.826
357.317
357.456
356.606
351.46
341.517
357.084
357.307
358.288
359.26
358.947
355.285
350.138
345.932
341.729
339.702
339.508
339.845
340.343
341.062
341.386
327.559
321.538
318.63
319.071
320.635
321.153
346.089
340.2
335.192
332.345
331.798
334.492
338.834
351.188
349.332
347.362
345.863
345.819
346.938
348.298
357.808
357.724
357.559
357.621
357.944
357.803
352.633
354.441
355.119
355.392
355.173
353.205
347.267
340.934
356.488
356.909
357.183
357.702
356.84
351.767
350.216
347.116
344.86
342.337
342.119
342.853
343.178
344.213
341.217
336.456
328.172
326.476
326.883
326.955
329.34
340.336
342.188
345.906
346.723
346.188
348.651
348.79
356.947
354.841
353.11
352.813
352.86
352.718
353.504
358.417
358.434
358.346
358.591
358.591
355.59
351.835
352.414
352.547
352.516
350.591
347.748
342.479
340.262
356.311
356.942
357.125
355.527
351.367
350.191
350.05
349.734
348.347
347.915
348.447
348.356
348.439
348.938
339.323
339.268
339.799
339.511
340.711
341.503
342.25
343.308
355.691
357.994
357.689
357.39
357.781
356.835
359.226
358.078
358.393
358.545
358.534
358.66
359.295
359.419
359.195
357.718
355.899
353.466
351.851
351.363
347.779
346.105
344.625
343.268
341.773
341.148
340.715
356.912
354.979
351.657
350.122
349.737
349.915
350.496
354.377
354.048
354.009
354.464
354.669
355.187
355.554
340.803
349.481
352.059
352.493
353.19
353.825
353.471
349.748
358.456
357.529
356.947
357.987
358.347
358.685
360.025
359.859
359.465
359.507
359.816
359.966
360.217
355.785
353.488
352.636
352.266
351.978
351.869
352.103
340.406
340.329
341.012
341.512
341.542
341.557
341.878
350.309
348.555
348.295
349.08
349.461
350.236
350.745
355.777
356.467
356.777
357.044
357.197
357.188
357.207
346.366
352.297
352.25
352.57
352.765
352.956
353.449
352.981
358.421
355.995
353.653
353.685
354.976
356.237
359.03
358.221
357.836
357.733
358.173
358.866
359.201
350.605
350.504
350.898
351.075
351.568
351.797
352.394
337.514
339.264
340.096
341.4
341.937
342.717
343.324
346.879
347.043
348.469
349.027
349.799
350.189
350.61
355.776
356.118
356.592
356.753
356.796
356.868
356.866
350.853
351.473
351.488
351.523
351.228
351.098
350.546
352.288
356.05
353.808
350.95
350.023
351.124
353.769
357.051
356.133
355.793
355.557
355.641
356.321
357.578
347.407
349.551
350.356
351.538
352.115
352.744
353.39
335.539
338.409
341.01
342.118
343.784
344.501
345.664
343.822
346.44
347.371
348.371
349.113
349.653
350.326
352.904
353.662
354.067
354.51
354.81
355.016
355.213
351.498
350.681
350.727
350.658
350.628
350.38
349.789
363.82
361.695
362.444
359.654
358.079
354.376
351.033
363.839
358.37
358.268
357.079
354.441
353.501
350.618
362.462
360.985
359.467
359.179
358.229
358.175
358.319
358.86
357.724
355.874
354.937
354.388
354.308
355.34
359.058
359.016
358.362
357.62
356.816
356.765
356.944
360.225
360.213
357.756
355.181
353.434
350.96
347.651
370.855
370.823
365.518
361.655
358.096
352.559
346.022
360.477
357.408
359.058
357.624
358.823
358.263
352.95
355.058
354.122
354.129
354.339
354.896
353.611
352.734
358.663
358.559
358.16
357.536
357.364
357.433
357.841
358.006
355.896
354.032
353.057
352.499
352.572
353.732
357.686
357.4
356.356
355.766
355.48
355.548
355.975
357.187
356.071
353.478
352.731
352.412
351.309
349.982
366.026
365.403
357.234
356.926
355.912
352.107
346.562
357.307
353.17
354.798
353.225
357.912
356.871
341.516
350.576
350.254
353.091
355.152
358.791
358.422
358.044
356.177
356.155
356.306
356.56
357.379
357.85
358.322
357.535
355.244
354.04
352.534
351.896
351.742
351.951
355.818
355.09
354.991
354.959
354.979
355.229
356.024
348.675
349.65
349.626
350.937
352.485
352.28
351.751
355.131
355.946
350.53
354.5
351.621
342.062
336.533
354.278
348.692
351.046
348.108
355.88
351.06
335.86
347.422
348.529
355.504
361.289
361.838
361.801
360.653
353.906
354.097
355.071
355.677
356.833
358.447
359.076
356.623
354.691
352.747
350.869
349.459
348.723
348.496
352.499
352.571
352.222
353.116
354.207
355.458
356.678
343.445
345.077
347.319
353.613
356.135
355.656
355.566
345.243
350.228
346.331
352.059
339.704
332.021
331.516
349.481
341.868
346.137
342.96
352.921
344.963
328.323
341.743
345.716
358.549
362.164
362.328
361.43
359.357
351.889
352.252
354.864
356.291
358.455
359.491
358.035
355.514
351.188
347.928
344.853
342.672
341.627
341.155
351.299
349.782
351.103
353.643
355.484
356.118
354.263
337.569
338.761
346.707
357.889
356.573
356.585
356.505
335.228
343.842
342.064
344.424
331.658
326.842
327.083
345.436
338.401
342.782
338.915
347.758
340.376
327.033
338.43
344.444
362.246
361.663
361.367
359.659
359.035
349.461
350.777
353.779
353.953
355.714
354.638
351.002
353.127
349.953
346.334
342.507
339.932
337.42
336.913
348.579
348.116
349.126
351.97
350.933
347.561
345.968
330.197
335.967
347.568
359.086
353.924
357.27
355.951
332.302
338.46
339.766
342.463
329.736
325.367
327.813
336.46
333.249
339.267
335.417
343.038
336.268
323.856
334.112
341.612
362.033
359.991
356.894
356.027
355.818
348.129
347.209
350.11
350.304
349.113
345.411
345.412
350.56
342.067
338.214
334.544
331.978
330.465
330.786
347.2
343.887
345.816
347.531
344.442
341.356
341.743
327.64
331.651
347.06
358.326
352.064
355.151
353.381
331.972
337.364
332.43
341.113
327.55
323.542
327.201
330.081
329.827
331.91
331.995
328.615
321.407
314.571
327.359
334.727
346.765
357.415
344.996
337.713
331.808
337.549
339.595
341.154
345.685
343.26
340.212
337.897
330.605
334.097
335.285
334.734
333.821
332.257
326.624
333.987
334.199
333.868
334.202
332.983
336.797
332.8
322.448
325.358
327.783
328.301
332.266
334.538
334.232
321.605
332.162
316.212
324.039
325.254
321.358
318.683
303.895
297.954
304.522
301.08
311.509
304.74
304.775
315.148
324.126
335.245
339.691
338.297
326.895
316.066
333.525
332.779
329.981
329.748
329.481
331.222
333.785
324.046
325.237
326.101
327.635
327.37
328.216
326.446
331.086
330.419
328.054
327.999
329.438
332.453
332.003
311.772
314.641
316.183
319.644
319.1
317.485
320.066
293.33
292.162
298.405
299.905
303.434
304.343
304.814
292.2
292.166
291.974
293.169
292.228
292.475
293.677
312.081
311.499
312.097
312.751
314.847
312.274
313.17
330.529
330.031
328.846
328.935
327.069
328.474
331.78
315.652
316.592
318.535
320.372
321.038
323.409
324.075
323.702
322.995
322.274
322.028
321.471
322.928
325.603
307.525
306.626
308.475
311.647
309.072
311.965
310.538
286.947
286.619
285.177
287.096
287.041
286.157
283.961
285.002
284.978
285.241
285.884
285.247
286.086
285.934
306.018
306.418
306.26
306.112
307.096
305.528
306.444
328.301
326.747
326.306
327.177
324.305
326.242
328.29
312.059
312.606
314.822
316.954
317.469
318.946
319.655
319.123
318.432
317.798
318.215
317.105
318.535
320.634
302.98
302.845
305.205
305.787
306.475
305.696
306.535
278.642
278.441
278.628
278.419
278.168
278.319
279.588
280.632
280.558
280.575
280.566
280.666
280.74
280.886
303.595
303.912
303.939
303.875
304.328
303.101
303.692
322.976
321.078
321.062
322.131
318.311
321.593
324.027
307.069
308.119
309.543
311.65
312.473
313.828
314.151
317.894
317.278
316.689
316.726
315.036
316.531
319.207
301.21
301.19
301.361
303.92
303.136
303.868
301.306
277.281
277.281
277.221
277.377
276.987
277.261
277.261
280.141
280.111
280.121
280.287
280.125
280.292
280.175
302.952
303.075
303.102
303.004
303.292
302.448
302.989
320.404
320.763
320.798
321.438
317.781
321.317
323.386
304.507
305.899
307.036
309.189
309.987
311.421
311.86
318.505
317.913
317.262
316.814
314.772
316.211
319.306
302.217
302.173
302.268
303.393
302.923
303.088
302.237
277.981
278.132
278.235
279.027
278.352
279.177
278.407
292.625
292.626
292.624
292.065
292.621
292.062
292.621
305.076
305.097
305.094
305.017
305.227
304.922
305.142
314.441
315.315
315.561
315.48
311.943
315.154
316.397
289.257
291.483
292.13
294.289
295.162
296.64
297.436
312.216
311.611
310.726
310.592
307.527
308.556
311.915
305.354
305.23
305.23
305.326
305.342
305.317
305.252
292.628
292.074
292.233
292.071
292.075
292.072
292.075
348.887
355.476
358.439
361.191
364.931
363.665
365.904
353.541
355.266
358.199
359.73
361.845
360.984
365.366
359.318
359.719
360.179
360.578
361.397
361.63
363.455
358.644
358.316
358.119
358.328
358.886
359.888
360.405
359.83
360.167
360.741
361.145
361.572
361.627
363.466
354.704
355.914
357.837
358.695
360.105
359.612
363.117
351.642
354.178
357.181
359.852
363.28
361.884
363.598
347.844
352.516
354.971
355.599
360.955
361.371
364.754
351.852
352.867
353.803
354.08
354.778
355.996
364.796
357.874
357.711
357.733
358.049
358.874
360.417
363.077
356.52
356.026
355.908
356.17
356.973
358.795
360.253
359.465
359.26
359.157
358.954
359.467
360.561
363.265
357.07
357.178
356.744
355.626
355.206
355.449
363.407
354.83
355.747
357.107
356.906
359.337
358.699
363.338
339.057
346.057
350.883
348.507
354.7
356.454
356.899
355.165
355.811
355.906
352.67
351.723
349.715
351.82
357.969
357.695
357.613
357.583
357.528
358.975
360.589
354.403
354.751
355.129
355.697
356.606
357.779
359.78
361.414
360.442
359.811
358.936
358.673
359.634
361.131
362.402
362.959
361.392
357.341
354.026
352.305
353.198
356.729
355.928
356.193
352.655
355.487
355.737
358.177
334.935
335.353
342.016
336.689
347.77
351.001
355.372
358.411
358.973
359.57
355.914
352.43
346.831
346.154
358.007
357.533
356.963
356.112
355.828
355.706
356.008
349.165
350.303
352.626
354.34
355.657
357.391
358.734
362.469
362.164
360.953
358.831
357.048
356.922
356.926
363.862
364.948
365.42
363.192
357.225
351.547
348.131
357.706
352.162
352.306
349.243
351.662
351.001
356.373
332.878
330.697
337.649
332.489
342.724
341.381
350.302
356.404
358.993
360.28
356.88
355.589
345.554
341.691
357.239
357.916
357.509
356.014
355.373
354.372
354.488
343.994
344.727
346.29
349.443
351.297
355.057
357.889
359.845
361.218
362.53
360.427
357.184
355.755
355.148
362.695
363.446
365.928
365.047
361.792
353.295
343.931
356.642
348.763
349.355
344.738
349.453
348.706
355.049
336.726
327.608
336.347
331.067
339.46
337.582
342.497
354.258
355.823
359.782
356.929
355.982
345.412
338.576
350.033
352.772
354.513
354.063
353.968
352.137
351.554
338.826
339.761
341.83
346.185
349.616
352.412
355.55
352.882
355.361
360.828
359.33
356.127
354.955
352.887
360.616
361.561
363.935
364.775
363.296
355.677
340.223
349.126
345.324
343.282
336.955
345.729
347.01
351.982
338.273
326.611
335.803
330.401
338.488
333.8
339.61
354.482
356.043
359.023
352.481
355.942
344.8
337.37
344.924
345.932
349.364
350.726
351.324
348.87
349.76
332.144
332.311
333.587
337.406
340.642
347.234
353.802
349.388
349.095
351.219
355.515
354.5
351.974
349.419
360.058
360.966
363.659
364.875
363.208
356.334
338.421
344.257
339.246
338.158
334.334
340.213
341.22
345.565
324.096
324.501
323.802
327.98
335.573
320.531
334.796
337.234
329.364
335.676
334.816
331.107
330.375
326.699
330.934
338.003
337.264
338.256
338.422
339.77
337.414
328.422
332.11
333.041
335.579
337.083
334.406
334.589
341.896
345.463
346.921
345.475
341.327
340.452
342.08
351.275
349.903
350.593
348.29
342.082
338.672
334.108
337.005
333.73
329.203
324.01
332.553
325.91
338.775
305.491
307.097
303.731
304.022
296.442
295.984
304.638
321.615
320.943
321.689
321.961
320.49
319.956
320
329.608
330.352
330.484
330.557
328.864
330.198
330.999
327.489
329.075
328.884
329.043
327.673
329.05
329.116
335.768
334.904
334.087
334.46
333.676
336.951
338.013
324.63
323.874
323.999
324.721
325.513
325.921
325.009
315.433
313.912
309.169
308.243
305.805
304.448
316.337
290.338
290.97
290.163
289.418
289.129
289.465
289.469
312.372
311.62
310.868
310.93
310.702
311.065
311.998
325.87
325.131
325.144
323.251
326.124
327.616
326.426
322.406
322.737
321.346
319.65
317.86
318.265
317.828
330.751
331.411
330.203
329.06
330.708
327.833
328.387
314.243
312.657
314.712
316.248
316.413
314.578
312.757
294.036
297.616
296.353
297.338
296.828
296.813
297.462
281.426
280.864
280.164
281.551
279.749
280.027
280.01
307.996
308.225
307.618
306.577
303.933
303.525
305.697
316.926
318.861
318.875
317.778
319.227
319.2
319.574
316.432
316.823
315.987
314.162
312.344
312.487
312.681
321.836
323.674
321.223
320.354
324.31
324.402
324.884
306.619
306.371
306.585
306.751
305.321
309.015
308.678
283.006
285.079
285.541
285.182
282.878
284.798
284.86
278.411
278.451
278.078
278.45
278.294
278.271
278.585
301.902
304.712
303.599
304.088
301.642
301.456
303.769
313.951
313.541
314.123
315.675
318.012
317.837
317.45
309.431
309.944
309.347
308.218
306.627
306.345
306.256
316.556
318.156
317.349
317.639
318.54
316.895
317.524
303.45
303.447
303.586
303.707
302.111
303.438
303.526
280.565
280.505
280.518
280.563
280.215
280.519
280.636
279.082
279.646
278.877
279.544
278.992
278.997
279.686
302.422
303.616
303.263
303.541
302.282
302.173
303.279
314.565
313.403
313.904
315.741
318.764
318.544
317.24
307.453
307.863
307.4
306.327
304.8
304.399
304.289
317.302
318.581
318.066
318.322
317.816
316.198
316.937
302.834
302.805
302.911
303.019