/*--------------------------------*- C++ -*----------------------------------*\
  =========                 |
  \\      /  F ield         | OpenFOAM: The Open Source CFD Toolbox
   \\    /   O peration     | Website:  https://openfoam.org
    \\  /    A nd           | Version:  6
     \\/     M anipulation  |
\*---------------------------------------------------------------------------*/
FoamFile
{
    version     2.0;
    format      ascii;
    class       volVectorField;
    location    "0.0125";
    object      U;
}
// * * * * * * * * * * * * * * * * * * * * * * * * * * * * * * * * * * * * * //

dimensions      [0 1 -1 0 0 0 0];

internalField   nonuniform List<vector> 
3773
(
(42.4352 -0.0128316 0.552748)
(42.3776 -0.0172279 0.548072)
(42.4468 -0.00974763 0.546234)
(42.4278 0.00729817 0.543129)
(42.3865 0.00218887 0.544774)
(42.4023 0.00370127 0.55673)
(42.3965 0.014206 0.562668)
(11.2612 0.0292951 -0.0826478)
(11.1949 -0.0395806 -0.0791706)
(11.2439 -0.0266325 -0.0647394)
(11.2204 0.0061125 -0.0679764)
(11.1978 0.015822 -0.0660201)
(11.2299 0.0273483 -0.0487244)
(11.2503 -0.0245393 -0.0516445)
(4.53895 0.0313219 0.0391524)
(4.5348 -0.00243635 0.0426989)
(4.54075 -0.0194343 0.0526707)
(4.54021 0.00445518 0.052071)
(4.53858 0.00717302 0.051811)
(4.53607 -0.0003874 0.0595453)
(4.53656 -0.0167404 0.0503808)
(3.04851e-05 0.00430976 0.0521722)
(3.33863e-05 0.00784069 0.0532666)
(3.37967e-05 0.0108583 0.0500261)
(3.25512e-05 -0.00912527 0.0484371)
(2.76765e-05 -0.0192268 0.0474188)
(2.37286e-05 -0.0176242 0.0429861)
(2.29482e-05 -0.0135403 0.0467191)
(-4.5395 0.0255436 0.0428627)
(-4.52839 -0.00722418 0.0425574)
(-4.54056 -0.019341 0.0482859)
(-4.54134 0.00453862 0.0507545)
(-4.53821 0.00566462 0.048568)
(-4.53725 -0.00122342 0.0543309)
(-4.53704 -0.0149317 0.0462629)
(-11.2553 0.0324249 -0.0916829)
(-11.2338 -0.0350361 -0.0827801)
(-11.2421 -0.0191718 -0.0683034)
(-11.2113 0.0148933 -0.0717228)
(-11.1996 0.027683 -0.0690133)
(-11.2475 0.0411264 -0.0491595)
(-11.2562 -0.0194633 -0.0527575)
(-42.3744 -0.00403472 0.551485)
(-42.2202 -0.00897439 0.547346)
(-42.3865 -0.00650197 0.550216)
(-42.4105 0.00719852 0.550222)
(-42.3594 0.0013101 0.547512)
(-42.3833 0.00669602 0.562592)
(-42.3676 0.0148516 0.570323)
(40.0006 -0.0200075 0.888503)
(39.6031 -0.0168993 0.869454)
(39.6705 -0.0111116 0.87358)
(39.6299 0.00420467 0.867083)
(39.6416 -0.00222106 0.868276)
(39.6991 0.00196566 0.86742)
(39.9753 0.0209078 0.880245)
(9.02343 0.00993393 -0.27091)
(9.14578 -0.050936 -0.262165)
(9.14852 -0.0346524 -0.247055)
(9.13521 0.0119741 -0.255462)
(9.10537 0.0345917 -0.264516)
(9.13553 0.0461475 -0.242493)
(9.04021 -0.00490492 -0.246807)
(3.88536 0.0415785 -0.0255858)
(3.87319 -0.00536942 -0.0260878)
(3.88482 -0.027245 -0.000680319)
(3.88159 0.00853501 -0.00390971)
(3.87564 0.0232493 -0.00575902)
(3.88467 0.0126756 0.0101209)
(3.88454 -0.0219369 -0.00852346)
(2.56867e-05 0.00789287 0.0205833)
(2.8989e-05 0.0125195 0.0191356)
(3.01755e-05 0.0143559 0.0142088)
(2.92874e-05 -0.0128847 0.0127534)
(2.35361e-05 -0.0275851 0.0115928)
(1.99681e-05 -0.0234485 0.0046832)
(1.93549e-05 -0.0165226 0.012612)
(-3.88961 0.0336404 -0.0243606)
(-3.8748 -0.0160861 -0.0257849)
(-3.88063 -0.0286424 -0.00894589)
(-3.88058 0.00862195 -0.00508271)
(-3.87433 0.0202546 -0.01082)
(-3.88231 0.0115435 0.00124887)
(-3.88816 -0.0189751 -0.0137765)
(-9.04178 0.0214023 -0.283205)
(-9.02436 -0.0441854 -0.265071)
(-9.13857 -0.0318219 -0.262344)
(-9.09414 0.0149972 -0.269394)
(-9.11974 0.0420733 -0.267818)
(-9.15325 0.056705 -0.235341)
(-9.04455 -0.00343591 -0.244848)
(-39.9605 -0.00884903 0.873168)
(-39.8319 -0.00687882 0.874382)
(-39.7309 -0.00416094 0.865994)
(-39.6563 0.00794894 0.854108)
(-39.6469 0.000180411 0.868756)
(-39.7099 0.00661833 0.868713)
(-39.9779 0.022122 0.881193)
(36.5744 -0.0508754 1.52939)
(35.6534 0.00197017 1.52487)
(35.6194 0.00886415 1.50042)
(35.5944 0.00898094 1.49144)
(35.654 -0.00262225 1.48518)
(35.871 -0.00964076 1.49902)
(36.6908 0.047512 1.50938)
(8.71921 -0.00553307 -0.160018)
(8.88468 -0.0335911 -0.18252)
(8.84193 -0.0236555 -0.165464)
(8.83058 0.00740183 -0.179681)
(8.75888 0.0303638 -0.176397)
(8.78565 0.0368921 -0.165802)
(8.7244 0.0090648 -0.175297)
(3.85085 0.0375708 0.0136543)
(3.81873 -0.00623585 -0.00559857)
(3.84347 -0.0247414 0.0167836)
(3.84344 0.00704717 0.0110097)
(3.83544 0.0264316 0.00764673)
(3.80918 0.0162099 0.0166052)
(3.84669 -0.0241598 0.00115871)
(2.3688e-05 0.00884045 0.0348915)
(2.42501e-05 0.00974131 0.0296475)
(2.52835e-05 0.0114028 0.0229948)
(2.57113e-05 -0.0127483 0.0219146)
(2.1875e-05 -0.0280654 0.0226535)
(1.83904e-05 -0.0209712 0.0216354)
(1.82892e-05 -0.0156758 0.0306176)
(-3.85046 0.0320267 0.0122161)
(-3.81933 -0.0168373 0.0012932)
(-3.81975 -0.0279489 0.0152934)
(-3.83622 0.00715106 0.0112196)
(-3.83582 0.0209368 0.00594338)
(-3.82261 0.013502 0.00939902)
(-3.84746 -0.020148 0.0016962)
(-8.74081 0.00294084 -0.17198)
(-8.7796 -0.0304541 -0.174558)
(-8.79962 -0.0248743 -0.17345)
(-8.72191 0.00685645 -0.169591)
(-8.79368 0.0382312 -0.189458)
(-8.83033 0.0428621 -0.166136)
(-8.74029 0.004433 -0.17901)
(-36.9314 -0.0352901 1.52264)
(-36.2615 0.0110685 1.50877)
(-36.1391 0.00700941 1.50026)
(-36.0818 0.00345594 1.51392)
(-35.8954 -0.0139181 1.4914)
(-36.0595 -0.0151257 1.51515)
(-36.987 0.0402439 1.52677)
(30.576 -0.0772663 1.29889)
(29.8839 0.013267 1.30747)
(29.7073 0.018935 1.2856)
(29.7253 0.0191554 1.27189)
(29.8357 0.0081034 1.28199)
(30.0293 -0.00611014 1.29984)
(30.6417 0.0739168 1.29488)
(8.5297 -0.00467888 -0.16183)
(8.75639 -0.0181386 -0.190493)
(8.71757 -0.0225372 -0.167812)
(8.70538 -0.00141276 -0.183669)
(8.59065 0.0252136 -0.170625)
(8.60595 0.0304004 -0.166136)
(8.52697 0.0122593 -0.174111)
(3.84636 0.0328052 0.0156996)
(3.81236 -0.00573416 -0.00217334)
(3.8223 -0.0223967 0.0245002)
(3.82216 0.00473635 0.0173241)
(3.83031 0.0275667 0.0105674)
(3.79893 0.0156077 0.0148647)
(3.84201 -0.0252718 0.00569163)
(2.10518e-05 0.00969332 0.0470728)
(1.82519e-05 0.00924901 0.0406)
(1.99751e-05 0.00885833 0.0343453)
(2.09182e-05 -0.0126259 0.0325503)
(2.0812e-05 -0.0269464 0.0347837)
(1.77308e-05 -0.0195953 0.0398545)
(1.74376e-05 -0.0152953 0.0455764)
(-3.84663 0.02865 0.0154299)
(-3.79788 -0.01531 0.00184744)
(-3.8314 -0.0260757 0.0214098)
(-3.84979 0.00529385 0.00793769)
(-3.82989 0.0237591 0.00890423)
(-3.80153 0.0146811 0.0148991)
(-3.84247 -0.0211309 0.00712199)
(-8.549 -0.00253469 -0.174081)
(-8.61861 -0.0221271 -0.174241)
(-8.62495 -0.0209718 -0.16959)
(-8.56012 0.00254833 -0.169136)
(-8.62425 0.0365652 -0.183641)
(-8.65294 0.0349 -0.172881)
(-8.54501 0.00493415 -0.17786)
(-30.8866 -0.0618887 1.31037)
(-30.2482 0.0148605 1.31879)
(-30.1307 0.00455637 1.29565)
(-30.0294 -0.00614057 1.29519)
(-29.969 -0.0197242 1.29929)
(-30.1639 -0.0272454 1.31431)
(-30.9251 0.0576296 1.3239)
(27.4583 -0.0881103 0.896426)
(27.2258 0.0155534 0.929104)
(27.1033 0.0210809 0.891419)
(27.0764 0.0229688 0.889037)
(27.0345 0.0183152 0.885076)
(27.0971 -0.00023618 0.901203)
(27.4702 0.0881181 0.889588)
(8.45421 -0.00256234 -0.0996538)
(8.64536 -0.0117387 -0.119046)
(8.61961 -0.020119 -0.105977)
(8.62086 -0.00486445 -0.112828)
(8.53456 0.024229 -0.105485)
(8.53826 0.0261131 -0.101899)
(8.44822 0.0100065 -0.109567)
(3.84788 0.0297184 0.0178651)
(3.80791 -0.00290878 0.00519507)
(3.80264 -0.0191844 0.0307427)
(3.81444 0.00144727 0.0201408)
(3.80651 0.027885 0.0159448)
(3.78696 0.0140709 0.0181415)
(3.84441 -0.0258607 0.0121415)
(1.83364e-05 0.00806434 0.0569898)
(1.31272e-05 0.0067778 0.0495477)
(1.70888e-05 0.00585353 0.0432072)
(1.81734e-05 -0.0115349 0.0417875)
(1.92776e-05 -0.022693 0.0452753)
(1.71129e-05 -0.0174833 0.0522074)
(1.61945e-05 -0.0133193 0.0554039)
(-3.84657 0.0255733 0.0164622)
(-3.7949 -0.0131834 0.00544373)
(-3.81814 -0.0257653 0.0270556)
(-3.82717 0.00303635 0.0164815)
(-3.82212 0.0258238 0.0102034)
(-3.79784 0.0133457 0.0211212)
(-3.84568 -0.0231285 0.0120254)
(-8.46966 -0.00247107 -0.112798)
(-8.5592 -0.0155878 -0.118224)
(-8.55386 -0.0181357 -0.102101)
(-8.52579 4.42237e-05 -0.105408)
(-8.56278 0.0318013 -0.114627)
(-8.57249 0.0299309 -0.109132)
(-8.4652 0.00310788 -0.112752)
(-27.5731 -0.0770553 0.904888)
(-27.22 0.0123418 0.919492)
(-27.1608 0.00356301 0.900679)
(-27.0005 -0.0118632 0.889228)
(-27.0996 -0.0247285 0.904653)
(-27.2072 -0.0287328 0.912949)
(-27.5852 0.0708256 0.918334)
(26.635 -0.0833396 0.491362)
(26.462 0.0176195 0.52189)
(26.3548 0.0196699 0.513309)
(26.3941 0.0202816 0.500479)
(26.3292 0.015947 0.483902)
(26.3061 0.000519167 0.497873)
(26.6281 0.0893216 0.482264)
(8.52013 0.000317742 -0.0413631)
(8.64862 -0.00987834 -0.0484576)
(8.64792 -0.0157221 -0.0249158)
(8.67432 -0.0066583 -0.0326277)
(8.63827 0.0177967 -0.0328665)
(8.62834 0.0223186 -0.0270719)
(8.50349 0.00477401 -0.0351344)
(3.85947 0.0267949 0.0470098)
(3.80465 1.02303e-05 0.035574)
(3.80579 -0.0158662 0.0535175)
(3.79948 -0.000870229 0.0466131)
(3.79407 0.0260767 0.0479466)
(3.79288 0.0122214 0.0479517)
(3.85227 -0.0271519 0.0432479)
(1.63352e-05 0.00482952 0.0625293)
(1.14166e-05 0.00267807 0.0604022)
(1.62739e-05 0.00473039 0.0543333)
(1.81682e-05 -0.0107799 0.0530815)
(1.68187e-05 -0.021798 0.0556281)
(1.60238e-05 -0.017336 0.0568441)
(1.50358e-05 -0.0112441 0.0626615)
(-3.85546 0.0232545 0.0425905)
(-3.80727 -0.00968369 0.0290756)
(-3.8019 -0.0216553 0.0532003)
(-3.80504 -0.00155476 0.0502997)
(-3.80287 0.0235868 0.0405633)
(-3.81148 0.0118501 0.0491492)
(-3.8548 -0.0247433 0.0442786)
(-8.52564 -0.00192825 -0.0502356)
(-8.6187 -0.0103955 -0.0530775)
(-8.63767 -0.0142091 -0.0312081)
(-8.64279 -0.000163021 -0.0328493)
(-8.69952 0.0345722 -0.0443782)
(-8.60356 0.0256273 -0.0329454)
(-8.51761 -8.8548e-07 -0.0421882)
(-26.6676 -0.0777806 0.498466)
(-26.3358 0.0128524 0.533368)
(-26.3483 0.00159507 0.495877)
(-26.1856 -0.00933933 0.496477)
(-26.3978 -0.02568 0.506627)
(-26.3712 -0.03137 0.505741)
(-26.6667 0.0748807 0.501011)
(25.6927 -0.0873453 0.338488)
(25.6007 0.0199316 0.354815)
(25.6168 0.0208013 0.350468)
(25.755 0.0208553 0.351999)
(25.7176 0.0173868 0.341789)
(25.6899 0.0057141 0.349463)
(25.6965 0.0943578 0.336852)
(8.44378 -0.00466192 0.00241596)
(8.49303 -0.0076009 0.00677963)
(8.4177 -0.00988135 0.0290624)
(8.47236 -0.00292013 0.0228188)
(8.47906 0.0226188 0.0220054)
(8.48601 0.0274465 0.0304155)
(8.44107 0.00742253 0.0205786)
(3.81076 0.0312475 0.0131616)
(3.81355 0.00102209 -0.000984914)
(3.79371 -0.0165588 0.0134609)
(3.80206 -0.000186694 0.0120087)
(3.7887 0.0358634 0.0120224)
(3.80729 0.0167114 0.0137655)
(3.79363 -0.0352759 0.00979913)
(1.53214e-05 0.00737658 -0.00396441)
(1.00279e-05 0.00196846 -0.00307998)
(1.60965e-05 0.00381249 -0.00762978)
(1.82043e-05 -0.0129649 -0.00888747)
(1.50197e-05 -0.0266509 -0.0068827)
(1.57392e-05 -0.0194403 -0.00878687)
(1.48039e-05 -0.0147567 -0.00362858)
(-3.81066 0.0247589 0.00618828)
(-3.87178 -0.0117696 -0.0103695)
(-3.8092 -0.0220981 0.0124333)
(-3.79328 -0.00286881 0.0100056)
(-3.88951 0.0335825 0.00708284)
(-3.81428 0.0194447 0.0146988)
(-3.79614 -0.031999 0.0119207)
(-8.45481 -0.00620494 -0.000196714)
(-8.11473 -0.0107331 0.0281942)
(-8.48072 -0.0111118 0.021556)
(-8.44606 -0.0021862 0.0250865)
(-8.22746 0.0318184 0.0278063)
(-8.47145 0.0248438 0.0221643)
(-8.44775 0.00173586 0.0108367)
(-25.7172 -0.0769121 0.347044)
(-25.5991 0.00738261 0.375707)
(-25.7048 -0.00836911 0.346841)
(-25.5986 -0.00630414 0.347635)
(-25.6271 -0.0296503 0.367075)
(-25.7063 -0.0369816 0.34608)
(-25.7074 0.0835222 0.343109)
(40.4247 -22.9254 -7.26371)
(40.6538 -15.0848 -33.3538)
(40.7878 -10.2527 -40.2496)
(40.7558 -2.061 -37.3987)
(40.6723 7.99714 -38.8271)
(40.3702 10.4609 -35.1704)
(40.0214 16.7255 -15.5377)
(10.7856 -19.2292 -6.44553)
(10.7628 -13.9115 -22.325)
(10.74 -8.89121 -26.0208)
(10.7604 -4.89815 -27.6301)
(10.6575 3.30548 -27.3858)
(10.6384 4.44382 -20.9351)
(10.6685 15.746 -8.31878)
(3.89132 -11.8459 -2.78863)
(3.8943 -7.56495 -15.6339)
(3.89202 -5.70232 -17.5009)
(3.90152 -2.8945 -17.2771)
(3.86724 3.30521 -17.1802)
(3.86094 3.26658 -13.9525)
(3.8583 11.324 -1.53338)
(-0.0419373 -6.30984 2.76205)
(-0.0436534 -0.174697 0.300874)
(-0.0445621 -0.116462 0.24901)
(-0.0432165 -0.785831 0.749931)
(-0.0423381 -1.05732 0.338831)
(-0.0400857 -1.35069 0.476386)
(-0.0373745 5.90654 2.97712)
(-3.80007 -3.93441 -1.68289)
(-3.82935 4.78003 -6.53811)
(-3.85211 6.89308 -9.03457)
(-3.85866 6.11813 -9.78796)
(-3.85489 6.32476 -8.93501)
(-3.8354 3.99796 -6.65725)
(-3.78933 7.13511 1.34597)
(-10.7872 3.20781 -24.4135)
(-10.7512 10.6844 -22.845)
(-10.7619 23.4433 -22.5239)
(-10.7421 27.7491 -20.1765)
(-10.7371 28.6765 -15.6001)
(-10.6894 24.5204 -12.6452)
(-10.5528 16.6474 -0.82809)
(-40.8403 0.393964 -34.9088)
(-40.7236 14.6836 -37.0417)
(-40.516 23.2462 -37.3868)
(-40.2943 26.9057 -35.9423)
(-40.1395 30.3818 -28.8664)
(-40.0832 32.4262 -19.6939)
(-39.4297 23.2214 1.84122)
(40.5608 -21.1231 10.4732)
(41.0055 2.52849 -45.4237)
(41.0899 4.94018 -64.0154)
(40.9872 7.82349 -63.6515)
(40.8326 11.5616 -60.0661)
(40.4478 8.49909 -48.8546)
(39.9942 12.894 0.395576)
(10.795 -17.6181 14.3424)
(10.6149 -1.49222 -9.05164)
(10.7115 -6.11164 -22.6381)
(10.722 -6.53501 -27.3645)
(10.6105 -5.7576 -28.2695)
(10.5781 -5.06819 -16.4158)
(10.7033 15.8584 9.88489)
(3.92324 -9.98061 11.3609)
(3.90204 -3.46919 9.71361)
(3.9119 -4.40903 7.11084)
(3.9259 -2.50481 5.28783)
(3.88965 0.276726 5.78569)
(3.88135 -1.066 8.46449)
(3.89238 10.1681 10.7029)
(-0.0355072 -4.86955 11.9332)
(-0.0373451 1.05382 9.8893)
(-0.039303 0.73863 9.93093)
(-0.0365243 -1.40741 10.847)
(-0.0327479 -2.64127 9.91402)
(-0.0291886 -2.67411 10.2638)
(-0.0292985 4.39823 12.2393)
(-3.82235 -4.14288 5.60626)
(-3.84817 4.23474 6.98623)
(-3.86592 4.82473 7.22566)
(-3.87828 3.35693 8.17256)
(-3.87444 3.0365 8.5223)
(-3.84871 -0.626176 9.38375)
(-3.80854 6.68821 10.9474)
(-10.8576 -0.131826 -32.9719)
(-10.7817 8.39653 -24.7812)
(-10.7255 10.1378 -21.11)
(-10.6553 14.7401 -12.2126)
(-10.6261 18.4255 0.0501762)
(-10.6087 10.9317 10.0972)
(-10.56 11.5326 17.491)
(-41.1936 -1.0471 -65.6955)
(-40.9595 10.0734 -63.311)
(-40.7575 11.0299 -59.2584)
(-40.4034 14.7095 -50.1633)
(-40.0412 14.734 -27.8649)
(-39.882 16.4515 3.62975)
(-39.4185 17.5985 22.4057)
(40.3057 -18.3541 19.1434)
(41.2342 13.3584 -68.4576)
(40.9983 19.4948 -80.1195)
(40.836 19.5469 -74.9672)
(40.7557 17.3101 -67.14)
(40.5258 10.2523 -52.1408)
(39.4236 -0.169062 -4.3299)
(10.7621 -17.7522 21.804)
(10.4709 7.25045 -15.9909)
(10.7041 -5.23549 -22.4301)
(10.6473 -10.8409 -26.0518)
(10.6127 -9.05187 -31.5047)
(10.6407 -7.19998 -24.8888)
(10.6614 7.97553 18.0846)
(3.92271 -10.2228 21.6891)
(3.87613 -0.870014 15.188)
(3.91051 -2.12419 12.421)
(3.9483 -1.21825 13.057)
(3.88482 -0.875125 12.2212)
(3.88409 -3.01497 14.0128)
(3.89489 10.0825 19.9959)
(-0.0336767 -4.40985 20.3245)
(-0.0345789 1.79494 18.7716)
(-0.0339268 1.83299 17.688)
(-0.0297958 -0.33072 18.5708)
(-0.0254674 -3.18064 18.2456)
(-0.0239556 -3.2405 18.749)
(-0.0255026 3.42788 19.9299)
(-3.8226 -5.36349 13.7126)
(-3.82881 3.23786 14.291)
(-3.85295 0.241408 14.1492)
(-3.8635 -1.17199 14.5104)
(-3.84183 -0.879465 14.9312)
(-3.80538 -2.58461 16.44)
(-3.80765 7.58154 20.7164)
(-10.9336 -5.40555 -35.7882)
(-10.6827 5.31944 -20.8035)
(-10.6673 1.27875 -16.6594)
(-10.6367 2.57514 -14.15)
(-10.5065 6.77582 -0.214848)
(-10.4881 6.12389 7.48722)
(-10.5273 9.11884 23.3395)
(-41.4394 -2.25417 -83.8722)
(-41.0397 9.49613 -80.831)
(-40.8379 9.32694 -72.5256)
(-40.3531 14.108 -59.4344)
(-40.1191 8.97533 -33.6513)
(-39.4701 8.18694 -3.67181)
(-39.2627 14.1899 32.8997)
(40.0274 3.10597 -5.94929)
(41.3766 16.976 -82.4956)
(40.8879 26.007 -82.7659)
(40.7604 26.531 -74.2746)
(40.964 21.5053 -66.1065)
(40.8662 11.3788 -51.4677)
(39.8806 -2.24773 -23.9881)
(10.5871 -13.1911 24.444)
(10.4975 12.6247 -11.9153)
(10.6812 -3.35539 -12.4296)
(10.6687 -12.3947 -24.5481)
(10.7004 -10.6435 -31.3934)
(10.6759 -9.94783 -25.3667)
(10.5431 -0.570724 5.04782)
(3.84811 -11.0455 24.5845)
(3.82652 0.838755 15.3969)
(3.90368 -1.94651 12.6093)
(3.95283 -0.0235729 13.7076)
(3.88368 -0.402033 13.5922)
(3.81343 -4.79804 14.7101)
(3.84607 7.74086 25.3233)
(-0.0316823 -3.39753 24.2011)
(-0.0286217 2.08324 21.5528)
(-0.0271092 0.947959 19.6111)
(-0.0260615 -0.402199 19.7419)
(-0.0244312 -2.64238 19.6708)
(-0.0232653 -2.53216 21.8302)
(-0.0262251 2.95759 24.7217)
(-3.76157 -4.94831 19.4886)
(-3.78492 0.811374 18.8621)
(-3.84657 -3.48579 16.2245)
(-3.85116 -3.84428 15.421)
(-3.8234 -2.29014 14.7478)
(-3.75967 -2.35556 15.8942)
(-3.76857 6.81736 24.9226)
(-11.041 -6.77381 -38.8064)
(-10.6769 3.74785 -16.3633)
(-10.7176 -0.387695 -13.6385)
(-10.7682 0.111136 -17.7659)
(-10.68 1.15737 -10.8654)
(-10.5825 3.63408 -0.445832)
(-10.5017 8.58983 23.5872)
(-41.5708 -0.971763 -95.0973)
(-41.1052 11.39 -89.7248)
(-40.8929 10.5149 -78.3739)
(-40.4346 16.3907 -62.7174)
(-40.2155 8.60095 -37.0524)
(-39.52 4.19503 -5.5239)
(-39.1883 13.4392 35.9874)
(41.3912 28.435 -78.0092)
(41.3598 9.27468 -117.977)
(40.9825 24.9324 -87.7344)
(41.117 26.805 -73.0826)
(41.149 19.8464 -63.9992)
(41.0671 10.0391 -49.1796)
(40.441 -0.184062 -28.6382)
(10.548 -1.37225 11.8856)
(10.6589 11.3508 -8.08635)
(10.718 2.36895 -7.44079)
(10.8037 -9.53018 -23.6442)
(10.8167 -9.08077 -32.0591)
(10.7754 -9.99536 -33.7517)
(10.6964 -3.62253 -26.1268)
(3.80804 -8.96384 29.1012)
(3.76934 3.90142 17.409)
(3.84617 -0.360953 11.6801)
(3.93594 0.544504 11.9754)
(3.85297 -0.788796 14.1747)
(3.79686 -5.39489 16.0009)
(3.78887 6.45716 22.7856)
(-0.0297968 -3.22988 26.6745)
(-0.0244105 0.783882 22.368)
(-0.0246441 -0.383834 19.8013)
(-0.0244326 -0.62745 19.8223)
(-0.0233698 -1.32066 20.0788)
(-0.0217906 -2.11666 22.5204)
(-0.0242129 1.88419 24.9774)
(-3.72963 -4.36143 21.985)
(-3.75416 -0.69341 19.4809)
(-3.85262 -4.93825 16.5752)
(-3.84904 -5.15905 14.9129)
(-3.81275 -3.47185 13.8075)
(-3.71212 -2.42777 15.2956)
(-3.68228 4.07965 25.4153)
(-11.1796 -5.60214 -48.2114)
(-10.8443 3.18828 -22.7438)
(-10.8103 2.12019 -12.4487)
(-10.8955 2.78158 -19.3351)
(-10.8268 0.633303 -14.3472)
(-10.6811 0.278663 -1.86589)
(-10.3387 5.71735 25.2051)
(-41.438 -1.48549 -100.389)
(-40.97 13.9753 -93.2132)
(-40.933 13.8537 -80.037)
(-40.5827 19.0239 -62.1577)
(-40.3462 10.1273 -37.7657)
(-39.5737 -0.9211 -6.4804)
(-39.1012 10.881 38.0566)
(40.9706 32.2141 -100.476)
(41.1405 -6.10121 -124.556)
(41.078 23.7431 -86.9022)
(41.4922 21.7973 -76.2282)
(41.3131 17.0814 -64.6713)
(41.197 7.84372 -49.1108)
(40.5508 -1.68476 -33.2752)
(10.8651 -1.98418 -23.3584)
(10.85 4.67205 -21.1654)
(10.8176 1.14949 -8.33743)
(10.873 -5.54803 -22.0532)
(10.8887 -4.7636 -29.301)
(10.951 -3.88375 -34.8313)
(10.956 -0.079373 -35.3804)
(3.79602 -5.48078 28.7119)
(3.76151 4.53245 20.3357)
(3.80857 2.43528 13.4095)
(3.91051 1.68997 12.3429)
(3.797 -1.15044 15.9507)
(3.71938 -4.54332 18.9156)
(3.78088 4.81191 23.7755)
(-0.0268315 -2.20678 27.6749)
(-0.0232741 0.165449 23.1669)
(-0.0251419 -0.909981 20.4759)
(-0.0262367 -0.821738 20.3536)
(-0.0218501 -1.39712 20.3544)
(-0.016694 -1.96675 22.6912)
(-0.0162505 0.507923 25.3217)
(-3.67947 -2.27774 24.2185)
(-3.73989 -1.95103 22.0735)
(-3.86711 -6.72371 18.8155)
(-3.87092 -6.83534 16.1092)
(-3.82664 -5.18045 14.4921)
(-3.68413 -3.15088 16.0037)
(-3.63489 -0.553338 22.516)
(-11.1893 -3.79226 -53.0468)
(-11.0151 6.03144 -41.0476)
(-10.9542 9.37364 -21.6046)
(-10.9227 8.52092 -18.1113)
(-10.923 1.72233 -15.5093)
(-10.6545 -2.56519 2.5514)
(-10.2193 0.783688 22.063)
(-41.1933 0.142906 -102.975)
(-40.6172 16.1704 -94.1124)
(-40.7826 17.0368 -79.4281)
(-40.5457 18.8246 -56.182)
(-40.3349 12.8538 -33.812)
(-39.4951 -8.16636 -0.672826)
(-38.769 5.41421 37.0213)
(40.8399 28.8199 -103.3)
(40.8548 -9.9433 -126.936)
(41.1278 26.5543 -89.4864)
(41.4843 17.7703 -72.1792)
(41.4821 17.9206 -60.8821)
(41.459 12.436 -48.8919)
(40.8898 1.90301 -35.999)
(10.9592 -6.9017 -26.6756)
(11.0989 0.467821 -29.8763)
(10.8447 2.06545 -16.5359)
(10.849 -5.96371 -18.7744)
(10.9046 -4.55469 -25.6473)
(10.9548 -0.517674 -30.8114)
(11.0046 6.6343 -36.4348)
(3.75952 -2.24344 23.9981)
(3.7131 3.81926 20.5325)
(3.74093 4.21182 14.5778)
(3.84987 0.980162 12.0453)
(3.71761 -3.47128 15.1568)
(3.66064 -4.8088 15.5973)
(3.70251 2.07947 17.265)
(-0.025533 -0.826653 28.3871)
(-0.0301643 -1.19264 24.6847)
(-0.0364575 -1.5068 23.4067)
(-0.0409702 -0.798565 23.6472)
(-0.0316163 -1.34822 23.605)
(-0.0257986 -1.65044 24.5495)
(-0.0259328 -0.197839 25.5736)
(-3.66716 -1.63312 22.9787)
(-3.74648 -1.29484 22.2785)
(-3.8881 -5.74937 21.7388)
(-3.90077 -6.41338 17.5991)
(-3.86002 -5.10937 16.5459)
(-3.74391 -4.08978 20.3746)
(-3.68076 -1.85671 23.7518)
(-11.2295 -4.84785 -63.8873)
(-11.0086 10.5323 -48.4423)
(-10.9722 11.0757 -25.153)
(-10.9762 12.0392 -20.4303)
(-10.9358 6.89256 -15.2437)
(-10.7343 -5.04091 1.31046)
(-10.3118 -1.25992 14.0081)
(-41.0545 -0.306492 -104.178)
(-40.4078 16.6552 -94.3187)
(-40.3436 16.6867 -70.2855)
(-40.3222 18.5309 -42.6566)
(-40.2367 14.3893 -25.2481)
(-39.3102 -12.581 2.95362)
(-38.2537 1.70272 26.7108)
(41.9818 42.8011 -92.41)
(41.9231 -17.4766 -124.289)
(42.2388 9.72687 -76.339)
(42.0664 17.6833 -43.5798)
(41.9059 20.8911 -31.7547)
(41.8502 12.9567 -19.2475)
(41.3971 4.48042 -7.75826)
(11.2329 8.19417 -23.357)
(11.2594 -14.7512 -32.5866)
(11.2347 3.56771 -17.8377)
(11.2899 6.70539 -23.4963)
(11.3217 17.1077 -27.3302)
(11.3097 16.1643 -30.4746)
(11.3415 15.4576 -15.9288)
(3.70767 0.305939 19.6239)
(3.66913 2.0572 19.8479)
(3.70526 1.51926 16.4912)
(3.79351 -4.94461 14.6423)
(3.72374 -10.5426 9.94179)
(3.85822 -5.28635 -1.26178)
(3.98525 3.64561 -3.20625)
(-0.00246294 0.357102 25.9281)
(-0.015339 0.512526 24.3857)
(-0.0328265 -0.0781209 23.9088)
(-0.0456892 -0.610461 24.72)
(-0.0433788 -2.27801 25.8959)
(-0.0410022 -2.70302 26.3265)
(-0.0477848 -1.34163 25.757)
(-3.65867 4.55333 11.334)
(-3.72053 6.87134 18.8499)
(-3.86691 0.0719555 19.3986)
(-3.91647 -3.29968 18.8799)
(-3.90264 -2.46524 17.7522)
(-3.82835 -1.4354 19.9546)
(-3.74453 -1.0875 21.7923)
(-11.4025 -8.82287 -72.7151)
(-11.1702 9.78953 -57.6145)
(-11.0489 16.4715 -26.5551)
(-11.0656 18.9647 -19.6872)
(-11.0787 19.5109 -8.81911)
(-10.998 11.2839 1.1992)
(-10.8508 5.84358 10.7752)
(-41.7111 -11.5562 -91.9609)
(-40.9905 -5.96345 -85.5003)
(-40.3594 -0.750658 -46.9501)
(-40.3965 11.0597 -13.2927)
(-40.0766 10.7618 9.0536)
(-39.7667 -2.34131 23.8986)
(-38.9775 -1.90637 27.9402)
(41.8785 37.3613 -113.33)
(41.7914 -17.6914 -140.996)
(42.1135 5.08403 -87.7954)
(41.73 14.82 -48.4034)
(41.673 20.2379 -28.9146)
(41.7937 17.3722 -8.09782)
(41.6188 9.59822 7.71182)
(11.2062 -8.52596 7.6698)
(11.2885 -9.72616 -20.2092)
(11.3867 12.2402 -37.879)
(11.2994 20.4638 -45.6829)
(11.2814 25.3461 -35.2641)
(11.3416 20.6315 -27.0764)
(11.3738 18.9045 -10.6425)
(3.81848 -0.216305 22.6456)
(3.731 0.915114 25.684)
(3.79495 0.410732 23.6249)
(3.87108 -4.69934 21.0592)
(3.91012 -6.60548 12.9589)
(4.05203 -0.318235 0.126134)
(4.12359 7.27006 -5.74423)
(0.0272677 0.5892 27.2265)
(0.0118573 1.86069 26.1273)
(-0.00408762 1.84105 27.5888)
(-0.0115819 1.21688 27.6518)
(-0.0133227 -0.205173 29.0741)
(-0.0176555 -2.1248 28.9079)
(-0.0277105 -1.09274 26.5075)
(-4.04256 5.36671 -5.80444)
(-3.97346 12.6788 2.93526)
(-3.89373 13.3284 20.9939)
(-3.91754 3.39703 22.2556)
(-3.91972 -0.00950816 18.5558)
(-3.87606 -0.969984 20.9193)
(-3.82574 -0.579381 22.1517)
(-11.4109 -15.5384 -70.1944)
(-11.3148 5.64372 -56.5849)
(-11.1486 15.6454 -24.6189)
(-11.0635 15.0344 -10.9327)
(-11.0892 15.1539 -2.37992)
(-11.0538 8.53616 6.78619)
(-10.9213 5.59519 13.5346)
(-41.5059 -17.2807 -100.482)
(-40.8523 -18.1692 -89.6724)
(-40.1804 -6.04993 -36.9294)
(-40.0152 8.94119 1.39767)
(-39.8898 -6.09946 17.703)
(-39.7644 -5.4887 25.4662)
(-39.3091 -1.49689 27.49)
(41.6668 40.017 -124.257)
(41.821 -19.7442 -147.961)
(42.0464 0.39559 -96.1589)
(41.5381 22.4581 -53.7675)
(41.8173 21.1652 -28.1479)
(41.9149 18.6289 -4.53348)
(41.7038 14.489 24.2118)
(11.1843 -9.11628 4.01716)
(11.398 -0.0694764 -58.8929)
(11.4466 23.4754 -78.2008)
(11.3448 23.3971 -62.1947)
(11.3523 25.9469 -40.0763)
(11.3704 17.862 -28.6941)
(11.4063 18.6966 -2.77545)
(3.93253 -1.8203 25.4781)
(3.82706 1.08174 26.6662)
(3.91521 2.72095 24.4522)
(3.95378 -3.1887 27.8232)
(4.01277 -4.36603 20.9237)
(4.09788 -0.301789 10.2524)
(4.18355 12.3461 1.80818)
(0.0423455 0.532142 30.3689)
(0.0153764 1.66258 30.2801)
(0.00670553 3.1151 30.5059)
(0.0122008 3.08851 31.799)
(0.0107417 1.12254 31.8417)
(0.00326356 -1.5611 30.4665)
(-0.00524012 -1.01285 27.0973)
(-4.17697 -4.40927 -25.8404)
(-4.20585 7.59731 -16.6671)
(-4.07052 17.6567 9.60961)
(-3.94156 12.6421 23.6534)
(-3.92822 3.52491 22.5006)
(-3.92405 0.812794 21.3282)
(-3.89687 0.948189 22.0611)
(-11.3605 -19.6297 -72.5568)
(-11.2728 -3.36387 -52.2442)
(-11.1392 0.00882121 -26.5316)
(-10.9802 6.84664 -0.941574)
(-11.0195 7.74924 2.39292)
(-11.0636 2.99743 10.1173)
(-10.9617 5.34997 15.4243)
(-41.6064 -29.321 -95.5403)
(-40.9654 -29.0604 -89.9602)
(-40.2683 -22.8525 -45.9634)
(-39.8683 -1.93826 1.49934)
(-39.7802 -9.41073 15.418)
(-39.6717 -7.173 23.5965)
(-39.4871 -1.00799 26.1392)
(41.1537 34.6361 -129.358)
(41.6691 -27.7231 -150.411)
(42.2323 -7.88876 -95.6887)
(41.6763 24.7358 -53.3012)
(41.9503 14.2192 -27.5353)
(41.9575 9.75115 1.72145)
(41.6842 13.8426 29.951)
(10.9372 -5.23042 5.43496)
(11.3404 29.788 -64.6574)
(11.5048 17.0344 -88.0025)
(11.4162 19.122 -59.0282)
(11.3416 17.38 -27.3045)
(11.3792 8.84028 -19.3465)
(11.4499 14.03 2.41762)
(3.93481 -2.92093 26.3891)
(3.87391 0.407207 26.5172)
(3.93428 2.39041 26.9083)
(4.0264 -1.12941 30.2696)
(4.07616 -3.30736 25.7259)
(4.14023 -1.3209 18.7923)
(4.20873 11.8729 7.91271)
(0.0415763 0.39266 32.3202)
(0.00977565 1.75552 33.1253)
(0.00166181 3.35629 32.821)
(0.0164872 3.15878 34.1379)
(0.0205605 1.81519 34.1868)
(0.016572 -1.11201 31.7969)
(0.0128472 -0.352067 27.7622)
(-4.15715 -13.7164 -27.1344)
(-4.15111 5.19073 -1.96879)
(-4.13392 13.9498 1.61688)
(-4.04815 14.8445 17.5507)
(-3.96275 9.62284 24.7932)
(-3.96293 4.26331 23.1026)
(-3.93746 2.74642 22.3543)
(-11.2994 -27.8167 -61.6196)
(-11.2185 -14.556 -43.4914)
(-11.0944 -10.8394 -20.8235)
(-11.0283 0.178599 -1.88184)
(-10.9864 6.0685 6.98822)
(-11.0329 0.803598 8.97325)
(-10.9138 4.89846 15.444)
(-41.4762 -31.9625 -85.6119)
(-41.3765 -40.3845 -93.8411)
(-40.9583 -40.252 -76.827)
(-40.176 -9.31303 -19.2508)
(-39.7461 -1.08734 11.5899)
(-39.6204 -4.98478 19.2499)
(-39.3772 1.48136 24.332)
(41.2312 31.4334 -129.014)
(41.284 -39.4948 -143.029)
(42.2848 -22.7283 -101.445)
(41.9304 21.0493 -49.1802)
(41.8833 -1.22529 -20.2509)
(41.9182 -4.78238 12.7144)
(41.5152 6.20512 33.6597)
(10.7923 -7.62121 -1.47549)
(11.1711 45.007 -83.2708)
(11.5168 -1.3113 -93.1257)
(11.4057 8.63934 -38.7594)
(11.3114 5.84062 -3.84822)
(11.377 0.949862 -8.3668)
(11.4697 12.1488 5.09122)
(3.90598 -4.9706 25.7998)
(3.87382 -3.15084 25.0665)
(3.96381 3.71153 26.191)
(4.05099 4.37232 30.6071)
(4.10863 -0.966171 26.8961)
(4.15541 -2.07708 21.1861)
(4.21175 11.9371 11.5349)
(0.0221182 1.21633 34.0213)
(-0.0159756 2.25695 35.7078)
(-0.017816 2.09085 35.1377)
(0.00646828 2.71965 34.7486)
(0.020619 2.05332 34.0588)
(0.0214945 -0.503444 31.8988)
(0.0172182 -0.534922 28.9961)
(-4.10682 -19.3621 -15.7914)
(-4.14391 5.51986 -0.245698)
(-4.14243 9.51762 4.93169)
(-4.08695 11.0754 11.8246)
(-4.02167 9.71178 24.1301)
(-3.99727 6.02672 24.9619)
(-3.95684 3.3691 23.2853)
(-11.2271 -30.998 -48.4187)
(-11.2 -25.9373 -36.9014)
(-11.1398 -18.8803 -18.8173)
(-11.0965 -11.7663 -13.2303)
(-11.0146 5.14627 6.33937)
(-11.0038 2.67396 11.5121)
(-10.8495 4.29273 18.5782)
(-41.7219 -40.3701 -65.4904)
(-41.2524 -56.7256 -82.7572)
(-41.0275 -60.5717 -87.6026)
(-40.8288 -53.3322 -71.1253)
(-40.272 -12.4498 -10.8436)
(-39.6801 2.35319 22.4411)
(-39.1937 1.64763 27.6953)
(41.8264 47.7093 -136.594)
(40.9296 -54.3691 -143.451)
(41.9374 -68.7521 -89.2501)
(41.9423 2.68063 -38.3784)
(41.5886 -4.79548 2.11679)
(41.6373 -9.98295 14.6446)
(41.3997 5.34973 29.2185)
(10.8597 -25.2009 4.14027)
(11.2667 53.7554 -98.2529)
(11.4852 -55.6064 -99.02)
(11.4307 8.27185 -21.3662)
(11.2425 6.46832 6.09463)
(11.3312 -0.0339404 0.733522)
(11.4431 11.819 2.16902)
(3.954 -9.07151 17.9602)
(4.04263 -2.98532 -14.0302)
(4.12689 -1.20678 -14.7438)
(4.15675 11.9395 13.8581)
(4.1257 6.1006 27.236)
(4.13609 3.21616 24.2842)
(4.1785 9.92801 16.0722)
(0.0168212 -0.276839 36.9595)
(-0.0380483 1.33112 35.8107)
(-0.0390379 0.45248 34.3461)
(-0.00364195 1.80469 34.7898)
(0.0199749 2.41335 34.3514)
(0.0239877 1.56259 32.3151)
(0.0161296 1.44498 31.0814)
(-3.99844 -23.5571 4.08762)
(-4.06972 7.80577 15.1045)
(-4.14064 8.70684 15.3357)
(-4.13488 7.73674 14.6549)
(-4.05701 9.52688 18.4442)
(-4.02216 10.2103 21.9992)
(-3.97527 6.75471 26.088)
(-11.1179 -44.1439 -21.2477)
(-11.0781 -48.3132 -26.0881)
(-11.1848 -50.99 -24.495)
(-11.3117 -44.0504 -24.7942)
(-11.3149 -23.7283 -19.8443)
(-11.1507 -0.128863 -6.72886)
(-10.8683 7.38919 29.7295)
(-42.1552 -33.4354 -41.9886)
(-41.6504 -63.986 -61.242)
(-40.7225 -75.2339 -81.9447)
(-40.6853 -81.5413 -86.482)
(-40.7631 -82.9378 -79.1608)
(-40.8504 -4.51811 -8.9731)
(-39.0183 7.09775 44.8478)
(40.7309 177.112 -140.468)
(39.9474 -57.9053 -97.2299)
(40.6102 -125.558 -60.5501)
(41.6227 -77.5707 -21.2187)
(41.8265 -64.6544 0.715622)
(41.8353 -56.628 9.46355)
(41.785 -38.8068 18.7949)
(11.2957 12.2163 -21.9694)
(10.7316 76.0177 -85.2066)
(11.0485 -82.8053 -66.1624)
(11.4441 -15.9462 -30.6341)
(11.4539 6.11542 -11.5845)
(11.3258 -0.681054 13.7659)
(11.3714 12.4888 28.1566)
(4.07915 -13.4617 -1.67574)
(3.96941 12.5249 -42.2816)
(4.02058 -21.0159 -30.8057)
(4.2539 12.9835 -26.1511)
(4.24883 14.3559 -2.5405)
(4.17262 8.65245 12.5468)
(4.12651 11.1611 32.3438)
(0.0166397 -1.1914 48.3677)
(-0.0254653 -2.9536 39.5245)
(-0.0290427 -3.98171 35.4328)
(0.0169458 -2.68336 35.612)
(0.0286907 1.96509 34.1088)
(0.0255162 3.29913 32.6224)
(-0.00633186 0.705343 39.4873)
(-3.96951 -20.1662 38.1145)
(-4.07937 -10.1518 16.6431)
(-4.14341 -15.3654 14.5968)
(-4.15263 -17.323 11.2129)
(-4.13488 -12.8676 4.58357)
(-4.12907 -12.9025 1.43297)