# Probe 0 (0 -0.07 0.5)
# Probe 1 (0 -0.04 0.5)
# Probe 2 (0 -0.07 0.3)
# Probe 3 (0 -0.07 0.33)
# Probe 4 (0 -0.04 0.3)
# Probe 5 (0 -0.04 0.33)
# Probe 6 (0 0 0.33)
# Probe 7 (0 0 0.3)
# Probe 8 (0 0.1 0.33)
# Probe 9 (0 0.1 0.3)
# Probe 10 (0 0.14 0.3)
# Probe 11 (0 0.14 0.33)
# Probe 12 (0 0.17 0.3)
# Probe 13 (0 0.17 0.33)
# Probe 14 (0 0.14 0.5)
# Probe 15 (0 0.14 0.33)
#       Probe             0             1             2             3             4             5             6             7             8             9            10            11            12            13            14            15
#        Time
          0.5       292.078       291.337       302.967       303.407       302.164       302.004       302.295       317.958       300.864         405.7       299.211       299.486       299.307       299.738       291.155       299.486
            1        292.24       291.589       302.568       302.681        301.85       300.898        300.81       380.727       300.659       760.753       300.282       300.441        300.46       300.591       291.575       300.441
          1.5        292.12       291.379       301.764       301.934       302.076       302.435       324.409        511.33       319.467       1170.34       300.589       300.809       300.848       300.993       291.716       300.809
            2       292.123       291.373       301.837       302.155       302.802       307.388       342.733       553.912       332.252       1300.25        300.68       300.767       300.665       300.826       291.689       300.767
          2.5       292.244       291.485       302.084       302.309       302.572       303.787        342.95       550.417       334.437        1321.5       300.655       300.785       300.439       300.795       291.805       300.785
            3       292.012       291.262       302.002       302.016       302.539       306.306        344.88       555.503       334.924       1328.53       300.525       300.612       300.757       300.963       291.604       300.612
          3.5       292.121       291.356       303.242       303.012       302.809       305.925       342.631       559.284         332.4       1330.35       300.201       300.435       301.455       301.492       291.683       300.435
            4       292.109       291.345       301.973        302.05       302.574       306.055       344.114         552.2       336.292       1327.44       300.543       300.692       301.085        301.25       291.668       300.692
          4.5         292.3        291.55       301.672       301.883        302.51       306.152        343.91       556.089       338.663       1329.78       300.434       300.688       300.401       300.764        291.82       300.688
            5       292.116       291.355       301.759       302.154       302.719         305.5       344.022       550.076       335.291       1327.38        300.55       300.654       300.564       300.857       291.684       300.654
