# Probe 0 (0 -0.07 0.5)
# Probe 1 (0 -0.04 0.5)
# Probe 2 (0 -0.07 0.3)
# Probe 3 (0 -0.07 0.33)
# Probe 4 (0 -0.04 0.3)
# Probe 5 (0 -0.04 0.33)
# Probe 6 (0 0 0.33)
# Probe 7 (0 0 0.3)
# Probe 8 (0 0.1 0.33)
# Probe 9 (0 0.1 0.3)
# Probe 10 (0 0.14 0.3)
# Probe 11 (0 0.14 0.33)
# Probe 12 (0 0.17 0.3)
# Probe 13 (0 0.17 0.33)
# Probe 14 (0 0.14 0.5)
# Probe 15 (0 0.14 0.33)
#       Probe             0             1             2             3             4             5             6             7             8             9            10            11            12            13            14            15
#        Time
          0.5       290.857       290.737       298.224       298.379       298.381       298.371       298.365       302.453       298.536       324.098       298.293       298.261       298.298       298.231       290.656       298.261
            1       291.037       290.921       298.434       298.292       298.551       298.568       298.831       299.933       299.515       319.612       299.227       299.331       299.464       299.472       291.146       299.331
          1.5        291.24        291.12       298.896        298.84           299        299.07       298.977       299.018        298.98       299.035        299.12        299.22       299.196       299.212       291.163        299.22
            2       291.134       291.011       298.789       298.441       298.854       298.864       298.871        299.39       299.148       299.362        299.19       299.259       299.414       299.442       291.232       299.259
          2.5       291.712       291.654       300.319       300.347       299.947       300.073       300.682       300.613       302.249       302.075       302.303       302.285       302.887       303.165       291.717       302.285
            3       291.779       291.768       300.936       300.868       300.547       300.769       300.314       364.284       302.045       308.632       302.825       302.646       303.356       303.953       291.853       302.646
