/*--------------------------------*- C++ -*----------------------------------*\
  =========                 |
  \\      /  F ield         | OpenFOAM: The Open Source CFD Toolbox
   \\    /   O peration     | Website:  https://openfoam.org
    \\  /    A nd           | Version:  6
     \\/     M anipulation  |
\*---------------------------------------------------------------------------*/
FoamFile
{
    version     2.0;
    format      ascii;
    class       volScalarField;
    location    "4";
    object      O2;
}
// * * * * * * * * * * * * * * * * * * * * * * * * * * * * * * * * * * * * * //

dimensions      [0 0 0 0 0 0 0];

internalField   nonuniform List<scalar> 
297
(
0
0
0
0
0
0
0
0
0
0
0
0
0
0
0
0
0
0
0
0
0
0
0
0
0
0
0
0.101266
0.138549
0.212805
0.180912
0.2039
0.226342
0.104574
0.142764
0.215305
0
0.0322576
0.0404728
0.016142
0.148356
0.192583
0
0.041805
0.0526447
0
0.0288793
0
0.0148556
0.0256815
0.106447
0
0.0363351
0
0.00442011
0.0111617
0.00334552
0
0.0024618
0
0.00582101
0.014368
0.00425084
9.15176e-07
3.20078e-07
9.05208e-08
1.65713e-06
7.72854e-08
3.79424e-09
1.08484e-06
4.85602e-07
1.02024e-07
4.74871e-11
1.28526e-11
1.60204e-12
9.41759e-11
2.46945e-11
1.45761e-12
6.63957e-11
2.65848e-11
5.8186e-12
0
0.0251822
0
0
0.00246244
0.0442283
0
0.0304814
0
0
0.0248868
0
0
0.00246193
0
0
0.0301269
0
0
0.0242345
0
0
0.00246188
0
0
0.0293537
0
1.99758e-15
7.2028e-16
5.54954e-17
2.47795e-15
8.416e-16
3.7445e-17
2.37782e-15
1.55926e-15
3.95329e-16
5.08741e-19
3.01336e-19
8.4425e-21
3.66637e-19
3.89748e-19
1.16317e-20
5.25769e-19
1.01257e-18
2.40559e-19
4.29648e-20
8.58918e-20
1.09626e-22
1.8323e-20
2.08474e-19
2.12473e-20
9.43815e-20
1.00204e-18
9.93728e-19
1.32206e-21
4.50082e-26
3.71569e-30
8.48067e-22
3.19974e-24
1.00741e-26
1.48574e-20
6.25839e-23
1.55144e-25
1.91416e-24
1.59852e-26
2.2437e-29
6.54648e-23
3.87415e-23
2.65734e-27
2.06421e-20
6.98357e-22
2.58948e-25
1.17893e-22
1.16969e-25
5.6818e-29
4.9441e-21
1.92444e-24
6.40045e-28
8.37384e-19
8.71517e-21
4.40237e-25
2.01252e-29
1.00474e-24
4.71893e-20
1.89023e-29
8.50103e-25
4.48143e-20
4.00601e-29
1.06157e-24
5.27614e-20
5.3926e-32
9.70562e-28
2.05396e-23
1.77378e-30
3.32423e-26
6.45203e-24
7.604e-32
1.2346e-27
1.96105e-23
4.57543e-32
5.90762e-28
6.31934e-24
3.38595e-31
1.3966e-27
1.94652e-24
7.48856e-32
1.40592e-27
1.14234e-23
8.56234e-38
1.38402e-37
1.27478e-33
2.03083e-37
1.97727e-37
7.59089e-34
2.64028e-37
2.65119e-37
2.39973e-33
3.72718e-39
1.36284e-40
2.63324e-36
1.60171e-37
7.78108e-39
7.91041e-35
2.7408e-38
2.76112e-40
4.27762e-36
1.9181e-41
1.69827e-41
9.39751e-37
8.81162e-38
9.64812e-40
1.70006e-35
4.26279e-41
3.66193e-41
1.68993e-36
2.05792e-42
5.01107e-43
3.82736e-42
3.90042e-38
3.44263e-41
1.66191e-40
3.48184e-42
9.98079e-43
1.22432e-41
2.63168e-43
6.57158e-44
1.1845e-44
2.08202e-38
3.22766e-39
3.94259e-40
2.02517e-43
6.40047e-44
7.4816e-45
3.44434e-44
6.78652e-45
8.46938e-46
9.83297e-39
1.89279e-39
2.42841e-40
6.19281e-44
1.24282e-44
1.52801e-45
5.72004e-34
3.06579e-37
1.27102e-37
3.2668e-30
9.00449e-33
8.67979e-33
4.02078e-29
1.88829e-32
2.26857e-32
1.75848e-33
1.4968e-37
1.28606e-38
5.95329e-31
2.11705e-33
2.91568e-33
1.39169e-29
1.92189e-33
9.24249e-33
1.68645e-33
4.55413e-38
2.66177e-40
9.32322e-31
1.84584e-34
5.71771e-35
1.11346e-29
6.05481e-34
1.67956e-34
1.66244e-38
4.33114e-40
8.18089e-41
9.64807e-35
1.30156e-35
4.00126e-36
1.02649e-34
2.21926e-38
2.53141e-39
4.98351e-40
6.04617e-41
1.58401e-41
6.01046e-35
5.08461e-36
2.17983e-36
8.50549e-40
4.63209e-41
2.03965e-41
9.81336e-41
7.8126e-42
3.03583e-42
2.73462e-35
2.18235e-36
9.03227e-37
1.85542e-40
1.37978e-41
5.43177e-42
)
;

boundaryField
{
    fuel
    {
        type            fixedValue;
        value           uniform 0;
    }
    primary_air
    {
        type            fixedValue;
        value           uniform 0.23;
    }
    Secondary_air_RHS
    {
        type            fixedValue;
        value           uniform 0.23;
    }
    Secondary_air_LHS
    {
        type            fixedValue;
        value           uniform 0.23;
    }
    outlet
    {
        type            inletOutlet;
        inletValue      uniform 0;
        value           nonuniform List<scalar> 
18
(
0
2.73462e-35
0
0
2.18235e-36
0
0
9.03227e-37
0
0
9.83297e-39
0
0
1.89279e-39
0
0
2.42841e-40
0
)
;
    }
    stove_body
    {
        type            fixedValue;
        value           uniform 0;
    }
    frontAndBack
    {
        type            empty;
    }
}


// ************************************************************************* //
