/*--------------------------------*- C++ -*----------------------------------*\
  =========                 |
  \\      /  F ield         | OpenFOAM: The Open Source CFD Toolbox
   \\    /   O peration     | Website:  https://openfoam.org
    \\  /    A nd           | Version:  6
     \\/     M anipulation  |
\*---------------------------------------------------------------------------*/
FoamFile
{
    version     2.0;
    format      ascii;
    class       volScalarField;
    location    "4";
    object      p;
}
// * * * * * * * * * * * * * * * * * * * * * * * * * * * * * * * * * * * * * //

dimensions      [1 -1 -2 0 0 0 0];

internalField   nonuniform List<scalar> 
297
(
117163
117163
117163
195231
195231
195231
117163
117163
117163
117163
117163
117163
195231
195231
195231
117163
117163
117163
117163
117163
117163
195231
195231
195231
117163
117163
117163
98059.8
97873
97846.8
162940
162835
162896
98042.1
97857.6
97830.8
98538.2
97629.8
97643.4
162655
162496
162309
98524.8
97620.3
97618.7
97376.3
96120.4
96510.2
157772
160074
158110
97427.7
96135.9
96509.3
94650.7
96307.8
94979.7
160005
158881
159572
94596
96266.6
95082.6
97709
97586.5
97348.1
162909
162078
162308
97678.4
97573.4
97408.9
97607.7
97761.8
97638.6
162603
162795
162736
97547.5
97727.1
97730.5
83042.6
94382.7
89023.7
136684
155735
147293
82864.9
94365.8
89417.8
82599.7
94381.1
88784.9
135216
155536
146265
82402.3
94358.4
89239.5
83806.2
94603.3
89406.9
136722
155948
146611
83617.3
94574.8
89909.9
97823.3
97874.6
97806
162870
162955
162884
97756.6
97823.1
97794.5
97864.7
97873.8
97840.2
162959
162979
162941
97818.4
97824.1
97792.6
97870.7
97868.4
97839.8
162986
162982
162966
97825
97820.2
97791.7
97870.9
97943.5
98127.2
162925
162958
163010
97835.7
97908.3
98060.2
97828.2
97841.5
97962.7
162925
162921
162937
97795.1
97830.4
97925.5
97779.2
97720.5
97688
162947
162919
162898
97789.4
97782.3
97761.5
98226.6
98020
97924.4
163116
163011
162957
98226.2
97995.4
97886.3
98017.8
97910.3
97879
162980
162941
162950
97998.3
97869.2
97834.8
97755.1
97793.9
97844.7
162899
162936
162974
97708.4
97746.8
97795.6
98407.2
98436.4
98404.2
163371
163374
163279
98435.8
98468.5
98427.3
98359.6
98367.4
98236
163213
163215
163121
98386
98394.3
98244.1
98293.6
98315.7
98120.6
162976
163021
162941
98318.2
98343.6
98116.2
97559.6
97528.3
97493.4
161882
161901
161826
97541
97504.3
97466.5
93375.9
93339.7
93347.5
154703
154697
154692
93350.4
93314.1
93324.1
86530.3
86524.7
86526.7
139562
139550
139535
86506.7
86500.9
86502.5
98295.2
98389.5
98439
163077
163123
163161
98112.4
98045.9
98006.9
98179.2
98305.3
98385
163003
163058
163100
98024.6
98006.9
97986.9
98058.7
98239.9
98334.8
162932
162974
163005
97966.5
98017.9
97999.1
97678.2
97744.7
97771.1
162356
162402
162393
97824.2
97862.1
97878.5
93753.7
93727.5
93726.6
155644
155648
155647
94049.8
94051.2
94071.4
87139.5
87136.8
87135.8
140553
140562
140562
87278.2
87279.2
87285.1
)
;

boundaryField
{
    fuel
    {
        type            zeroGradient;
    }
    primary_air
    {
        type            zeroGradient;
    }
    Secondary_air_RHS
    {
        type            zeroGradient;
    }
    Secondary_air_LHS
    {
        type            zeroGradient;
    }
    outlet
    {
        type            totalPressure;
        rho             rho;
        psi             none;
        gamma           1;
        p0              uniform 100000;
        value           nonuniform List<scalar> 
18
(
90426.9
100000
90646
90408
100000
90643.9
90410.9
100000
90661.5
89943.6
100000
89919.2
89917.7
100000
89892.8
89928.7
100000
89904.7
)
;
    }
    stove_body
    {
        type            zeroGradient;
    }
    frontAndBack
    {
        type            empty;
    }
}


// ************************************************************************* //
