/*--------------------------------*- C++ -*----------------------------------*\
  =========                 |
  \\      /  F ield         | OpenFOAM: The Open Source CFD Toolbox
   \\    /   O peration     | Website:  https://openfoam.org
    \\  /    A nd           | Version:  6
     \\/     M anipulation  |
\*---------------------------------------------------------------------------*/
FoamFile
{
    version     2.0;
    format      ascii;
    class       volScalarField;
    location    "4";
    object      Qdot;
}
// * * * * * * * * * * * * * * * * * * * * * * * * * * * * * * * * * * * * * //

dimensions      [1 -1 -3 0 0 0 0];

internalField   nonuniform List<scalar> 
297
(
0.000213225
0
0.000213225
0
0
0
0
-0.000140609
0
0
0
0
0
0
0.000426451
0.000353834
0.000213225
-0.000140609
0
0.000213225
0.000213225
0
-1.75761e-05
0
0
0
0.000213225
0
0
0
-1.02653e-09
0
0
0
3.77237e-11
-1.02653e-09
-2.56632e-10
4.71547e-12
0
0
-7.54475e-11
0
0
0
0
0
0
0
0
0
0
0
0
0
0
-5.13263e-10
0
0
0
-5.13263e-10
0
0
0
0
0
-7.19523e-17
0
0
2.24851e-18
0
0
0
0
0
0
0
0
0
0
0
0
0
0
0
0
0
1.88619e-11
0
-4.71547e-12
0
0
0
0
0
-1.02653e-09
0
0
0
5.13263e-10
-2.56632e-10
0
0
2.56632e-10
0
0
0
0
0
0
0
0
0
0
0
0
0
0
0
0
0
0
0
0
0
-2.09409e-27
0
0
0
0
0
0
0
0
0
0
0
6.24087e-35
-7.61825e-39
-2.04501e-30
0
3.12043e-35
0
0
0
3.99416e-33
0
0
0
0
0
0
0
0
0
0
0
0
0
0
0
0
0
0
1.99708e-33
0
6.0946e-38
1.99708e-33
0
-6.0946e-38
1.99708e-33
0
0
0
3.19532e-32
0
0
1.59766e-32
0
0
3.19532e-32
0
0
0
-9.52281e-40
0
0
1.19035e-40
-1.95027e-36
0
0
0
0
0
0
0
0
0
0
0
0
3.63266e-45
4.54083e-46
0
2.3249e-43
0
0
0
0
0
0
0
0
0
0
0
0
0
0
0
0
0
0
6.92876e-51
0
0
0
1.08262e-52
0
0
0
8.86881e-49
0
0
0
0
0
0
4.10611e-09
0
0
0
0
0
0
0
0
-7.61825e-39
0
0
0
-2.97588e-41
0
0
0
0
0
0
0
0
0
0
0
0
0
0
4.64981e-43
0
0
-9.29962e-43
0
0
-8.86881e-49
0
0
2.90613e-44
0
0
0
0
0
1.1086e-49
0
0
0
0
0
0
2.7715e-50
0
-1.38575e-50
0
5.81226e-44
0
1.81633e-45
0
0
0
)
;

boundaryField
{
    fuel
    {
        type            calculated;
        value           uniform 0;
    }
    primary_air
    {
        type            calculated;
        value           uniform 0;
    }
    Secondary_air_RHS
    {
        type            calculated;
        value           uniform 0;
    }
    Secondary_air_LHS
    {
        type            calculated;
        value           uniform 0;
    }
    outlet
    {
        type            calculated;
        value           uniform 0;
    }
    stove_body
    {
        type            calculated;
        value           uniform 0;
    }
    frontAndBack
    {
        type            empty;
    }
}


// ************************************************************************* //
