/*--------------------------------*- C++ -*----------------------------------*\
  =========                 |
  \\      /  F ield         | OpenFOAM: The Open Source CFD Toolbox
   \\    /   O peration     | Website:  https://openfoam.org
    \\  /    A nd           | Version:  6
     \\/     M anipulation  |
\*---------------------------------------------------------------------------*/
FoamFile
{
    version     2.0;
    format      ascii;
    class       volScalarField;
    location    "2.5";
    object      O2;
}
// * * * * * * * * * * * * * * * * * * * * * * * * * * * * * * * * * * * * * //

dimensions      [0 0 0 0 0 0 0];

internalField   nonuniform List<scalar> 
297
(
0
0
0
0
0
0
0
0
0
0
0
0
0
0
0
0
0
0
0
0
0
0
0
0
0
0
0
0.0859424
0.152359
0.0857864
0.18895
0.209053
0.183401
0.0852129
0.152207
0.0863385
0
0.0287795
0
0.0364131
0.148186
0.0351687
0
0.028664
0
0
0.0303111
0
0.0236748
0.03657
0.0234626
0
0.0302238
0
0.00476151
0.0130413
0.00464002
0
0.00178129
0
0.00485742
0.0129843
0.00472866
1.57163e-07
1.78374e-07
2.87873e-07
3.3343e-07
1.2165e-07
8.38276e-07
1.59461e-07
1.7814e-07
2.89607e-07
1.83191e-12
4.39571e-12
4.58249e-12
4.60771e-12
3.06376e-12
1.07734e-11
1.86267e-12
4.4001e-12
4.59967e-12
0
0.030219
0
0
0.00178165
0
0
0.0301314
0
0
0.0299829
0
0
0.00178132
0
0
0.0298956
0
0
0.0291138
0
0
0.00178129
0
0
0.0290285
0
3.46156e-17
2.3055e-16
1.14782e-16
7.58477e-17
9.20999e-17
1.77297e-16
4.84787e-17
2.11663e-16
1.21523e-16
4.00254e-21
6.51633e-20
1.85332e-20
5.05201e-21
1.57388e-20
8.0706e-21
4.05005e-21
5.76214e-20
1.92928e-20
5.2251e-24
3.7416e-20
8.00182e-21
9.81518e-25
9.60187e-22
1.00579e-22
4.77782e-24
3.09508e-20
6.53961e-21
1.72533e-21
4.40564e-26
5.39697e-31
1.95718e-21
2.32638e-26
2.96901e-31
1.83401e-21
4.70254e-26
5.78532e-31
2.85047e-25
1.65582e-29
8.42716e-34
1.78988e-25
8.73453e-28
2.99135e-32
2.94337e-25
1.8607e-29
8.84819e-34
7.41089e-25
4.25267e-29
1.29476e-33
2.33281e-27
3.93402e-29
2.6148e-33
6.06021e-25
3.52929e-29
1.10874e-33
8.51301e-32
7.01206e-27
5.22386e-22
1.1206e-31
9.16149e-27
8.42575e-22
2.44841e-31
9.96824e-27
7.33377e-22
1.14008e-34
2.08183e-30
6.24647e-26
1.15095e-32
3.48596e-28
9.79607e-26
1.89398e-34
4.31368e-30
1.19228e-25
1.83813e-34
1.13909e-30
4.69146e-28
2.10737e-33
1.58413e-29
4.55081e-29
1.99218e-34
1.72155e-30
4.46071e-28
4.50657e-45
1.68743e-40
3.00574e-36
3.20059e-44
2.24932e-40
2.39769e-36
4.08811e-44
5.061e-40
8.68549e-36
1.74523e-47
2.36206e-43
4.97682e-39
3.55111e-46
5.05826e-42
1.89961e-37
9.86085e-47
2.66438e-43
7.29381e-39
2.2914e-47
8.57342e-44
3.47912e-39
1.28139e-46
1.18643e-42
4.52235e-38
8.93408e-47
9.36327e-44
4.07473e-39
3.79516e-47
2.45956e-46
1.3013e-44
7.56134e-47
2.55424e-44
4.4118e-43
8.71798e-47
7.56e-46
2.60526e-44
1.39747e-50
2.09758e-49
2.05411e-48
1.73657e-45
2.6686e-44
2.7038e-43
1.35716e-50
3.10646e-49
2.01979e-48
2.85422e-51
4.32913e-50
3.95674e-49
8.39365e-46
1.24851e-44
1.16152e-43
4.82252e-51
7.38767e-50
6.6792e-49
1.02358e-35
5.92379e-40
4.76175e-44
6.32474e-36
2.49553e-40
4.69377e-44
2.05023e-35
6.59193e-40
5.38254e-44
3.50935e-38
1.75813e-42
3.1646e-46
4.88876e-37
1.30043e-41
1.31809e-45
3.62808e-38
1.1744e-42
7.78237e-46
2.86824e-38
8.61199e-43
3.066e-46
5.79137e-38
1.65573e-42
6.7766e-46
2.34379e-38
5.42338e-43
7.40532e-46
1.07062e-43
1.99845e-45
3.11937e-46
7.58398e-43
4.743e-44
5.982e-46
1.49685e-43
6.38154e-45
7.28029e-46
2.58917e-48
3.81456e-49
1.93413e-50
4.65745e-43
4.81009e-44
3.39452e-45
3.64899e-48
3.77547e-49
2.74142e-50
6.80364e-49
7.79691e-50
5.55989e-51
1.99723e-43
2.25069e-44
1.63428e-45
1.14814e-48
1.3295e-49
9.38793e-51
)
;

boundaryField
{
    fuel
    {
        type            fixedValue;
        value           uniform 0;
    }
    primary_air
    {
        type            fixedValue;
        value           uniform 0.23;
    }
    Secondary_air_RHS
    {
        type            fixedValue;
        value           uniform 0.23;
    }
    Secondary_air_LHS
    {
        type            fixedValue;
        value           uniform 0.23;
    }
    outlet
    {
        type            inletOutlet;
        inletValue      uniform 0;
        value           nonuniform List<scalar> 
18
(
0
1.99723e-43
0
0
2.25069e-44
0
0
1.63428e-45
0
0
8.39365e-46
0
0
1.24851e-44
0
0
1.16152e-43
0
)
;
    }
    stove_body
    {
        type            fixedValue;
        value           uniform 0;
    }
    frontAndBack
    {
        type            empty;
    }
}


// ************************************************************************* //
