/*--------------------------------*- C++ -*----------------------------------*\
  =========                 |
  \\      /  F ield         | OpenFOAM: The Open Source CFD Toolbox
   \\    /   O peration     | Website:  https://openfoam.org
    \\  /    A nd           | Version:  6
     \\/     M anipulation  |
\*---------------------------------------------------------------------------*/
FoamFile
{
    version     2.0;
    format      ascii;
    class       volScalarField;
    location    "2.5";
    object      p;
}
// * * * * * * * * * * * * * * * * * * * * * * * * * * * * * * * * * * * * * //

dimensions      [1 -1 -2 0 0 0 0];

internalField   nonuniform List<scalar> 
297
(
121035
121035
121035
201674
201673
201673
121036
121035
121034
121035
121035
121035
201674
201673
201673
121036
121035
121034
121035
121035
121035
201674
201673
201672
121036
121035
121034
97208.8
97150.2
97228.1
161612
161568
161620
97210.2
97151.1
97229.6
97309.2
96604.9
97334.2
160881
161032
160950
97320.7
96605.6
97328.6
94082.7
93888.5
94237.7
151946
157019
152238
94085.2
93888.3
94238.2
91589.1
94393.8
91332.5
156223
155682
156210
91580.8
94392.5
91338.5
96291.4
96505
96191.2
160615
159875
160580
96291.3
96504.8
96192.7
96358.7
96727.4
96334.3
160500
161068
160562
96358.4
96726.4
96335
74140.5
91615.6
74513.4
122022
152726
121446
74069.9
91613.8
74520.8
74045.6
91501.6
74273.1
120372
152763
119535
73971
91499.9
74279.9
76316.1
91811.2
76442.4
122703
153825
121609
76249.8
91809.3
76447
96934.3
97062.6
96931.1
161345
161637
161321
96933.4
97061.8
96930.9
97040.9
97064
97029.9
161580
161715
161551
97039.8
97063.5
97029.6
97047.8
97060.2
97040.1
161694
161731
161661
97046.9
97059.7
97039.7
97158.4
97343.8
97756.3
161504
161634
161878
97157.5
97342.4
97753.2
97074.5
97136.7
97397.8
161522
161553
161665
97074
97136
97396
96995.5
96889.6
96780.6
161608
161549
161520
96995.2
96889.6
96780.9
97755.9
97344.5
97160.3
161887
161648
161524
97753.8
97343.3
97159.1
97398
97136.9
97075.9
161676
161568
161544
97396.9
97136.1
97074.9
96783.3
96891
96997.6
161533
161564
161631
96783.2
96890.7
96996.9
98629.2
98470.5
98180.3
162649
162506
162236
98620
98463.3
98175.9
98401.2
98202.6
97875.8
162356
162232
161971
98393.9
98197.4
97873
98125.1
97909.7
97510.9
161983
161846
161651
98119.5
97906.1
97509.3
96661.5
96586.2
96443.4
160233
160159
160058
96662.6
96587.6
96445
91050.6
91077.5
91125.1
151014
151016
151016
91053.2
91079.6
91127.1
83567
83567.3
83569.6
134757
134758
134750
83568.6
83568.8
83571.1
98181.9
98472.7
98632.1
162230
162502
162647
98176.2
98464.6
98622
97876.7
98203.9
98402.9
161965
162227
162352
97872.7
98197.8
98394.9
97510.3
97909.6
98125.4
161643
161840
161978
97508
97905.2
98119.2
96437.2
96580.3
96655.6
160047
160148
160222
96439
96581.8
96656.9
91112.6
91065
91038.1
150996
150996
150994
91115.2
91067.7
91041.2
83554.5
83552.2
83551.9
134726
134734
134733
83556.3
83554
83553.8
)
;

boundaryField
{
    fuel
    {
        type            zeroGradient;
    }
    primary_air
    {
        type            zeroGradient;
    }
    Secondary_air_RHS
    {
        type            zeroGradient;
    }
    Secondary_air_LHS
    {
        type            zeroGradient;
    }
    outlet
    {
        type            totalPressure;
        rho             rho;
        psi             none;
        gamma           1;
        p0              uniform 100000;
        value           nonuniform List<scalar> 
18
(
87318.5
100000
87320.7
87286.9
100000
87289.2
87277.7
100000
87280.2
87291.6
100000
87293.7
87300.7
100000
87302.6
87332.2
100000
87334
)
;
    }
    stove_body
    {
        type            zeroGradient;
    }
    frontAndBack
    {
        type            empty;
    }
}


// ************************************************************************* //
