/*--------------------------------*- C++ -*----------------------------------*\
  =========                 |
  \\      /  F ield         | OpenFOAM: The Open Source CFD Toolbox
   \\    /   O peration     | Website:  https://openfoam.org
    \\  /    A nd           | Version:  6
     \\/     M anipulation  |
\*---------------------------------------------------------------------------*/
FoamFile
{
    version     2.0;
    format      ascii;
    class       surfaceScalarField;
    location    "2.5";
    object      phi;
}
// * * * * * * * * * * * * * * * * * * * * * * * * * * * * * * * * * * * * * //

dimensions      [1 0 -1 0 0 0 0];

internalField   nonuniform List<scalar> 
675
(
2.66575e-06
-2.56673e-05
0.000154042
2.37928e-06
-2.67856e-05
0.000155072
-2.65269e-05
0.000153964
-7.93544e-07
2.6346e-05
0.000163141
1.68211e-06
2.6708e-05
0.000158058
2.5785e-05
0.000163098
-1.28552e-06
0.000153989
-1.53066e-06
0.000155027
0.000153887
2.71577e-06
-4.80005e-05
0.00020215
2.36067e-06
-3.65596e-05
0.000191759
-4.8498e-05
0.000201634
-2.93744e-06
4.84396e-05
7.03554e-05
4.13842e-06
3.64882e-05
7.83005e-05
4.78448e-05
7.09629e-05
-1.24566e-06
0.000201806
-1.56503e-06
0.000191691
0.000201581
-4.49048e-07
7.74237e-05
5.43534e-06
5.74193e-05
7.54003e-05
1.10791e-05
-7.60755e-05
-9.07358e-06
-5.73959e-05
-7.63198e-05
-4.50048e-06
1.43757e-06
0.00380144
0.0047555
-0.00536022
-0.00383011
0.00661995
0.00420652
0.00474435
-0.0053762
0.00479493
-0.0047166
0.00999193
-0.0056476
-0.00663319
0.0290086
-0.00480865
0.00922312
0.00391426
-0.00543404
-0.00371063
0.00418664
-0.00532113
0.0125259
0.0104316
-0.0283167
-0.0127102
-0.00390378
0.0333478
0.00974482
-0.0278316
0.00414277
-0.0105038
0.0267867
-0.00369881
0.00387919
0.0290723
-0.00969576
0.0249634
0.012428
-0.0283648
-0.0127774
0.0332726
-0.0277947
-0.00049859
0.0214601
-0.0492774
0.000253672
-0.00819439
0.0407884
0.0209573
-0.0485378
-0.0527803
-0.0214604
0.122489
0.053166
0.00821119
-0.0932817
-0.0209273
0.119959
-0.000428935
-0.0493953
0.00032358
0.0407299
-0.0484009
-0.0300694
-0.0269635
-0.0234937
0.0805272
0.0293449
0.00863981
-0.0370065
-0.0310463
-0.0283291
-0.0228229
0.0804997
-0.00148799
0.0270052
0.0220449
-0.0745244
0.00391179
-0.00862195
-0.10886
0.120722
0.0283044
0.0210177
-0.073756
-0.0301379
-0.0234144
0.0805582
0.0292711
-0.0370371
-0.0309926
-0.0228025
0.0803808
0.00659075
-0.00955069
-0.020534
-0.0107416
0.0138144
-0.0334887
-0.013031
-0.0205314
0.0221984
0.00955288
-0.0192574
-0.0149268
-0.0137993
-0.0441198
0.0129985
-0.0199351
0.00665695
-0.0205185
-0.0107036
-0.0334761
-0.0205055
0.00140074
-0.000139439
-0.0217948
-0.0117178
0.00089717
-0.0212666
-0.0100205
-0.0222285
0.0150282
0.000162012
-0.0345883
0.00779511
-0.000848383
-0.035142
0.00995868
-0.0321206
0.00140986
-0.0217658
-0.0116541
-0.0212598
-0.0222007
-0.00179776
-0.000514015
-0.0591557
0.00168158
-0.000146122
0.0374552
-0.000411478
-0.0586962
-0.00328254
0.000520336
0.104674
0.00357117
0.000146816
-0.10043
0.000412444
0.102774
-0.0018046
-0.0592489
0.00167226
0.0373999
-0.0585689
-0.00180799
0.000272609
-0.0697948
0.00173517
-0.000585833
0.0344979
0.000392998
-0.0695674
-0.00380168
-0.00025229
0.0892093
0.00385378
0.000586011
-0.109259
-0.000387167
0.0878183
-0.00181015
-0.0698533
0.00172812
0.0344477
-0.0694424
-0.00244879
0.000633415
0.00239906
-0.00139622
0.000762153
-0.00423079
-0.000625579
0.00444067
0.0013963
-0.000761987
-0.00245771
0.00239369
0.00776915
-0.000943226
-0.0109525
-0.0176683
-0.00672241
-0.000941891
-0.00583308
-0.000865063
-0.0104003
-0.0176856
0.00789465
0.000945948
-0.0205229
-0.0238495
-0.0105392
0.000946146
-0.0185964
0.000864178
-0.0203359
-0.0240535
0.00775881
-0.0109567
-0.017622
-0.00668807
-0.00586668
-0.0103944
-0.0176303
0.00283788
3.95513e-05
-0.00249736
-0.0113326
-0.00342086
-8.32238e-05
0.000508963
0.000157712
-0.00271037
-0.0112685
0.00582136
-2.73558e-05
-0.00801318
-0.0182644
-0.00590173
9.2876e-05
-0.0070495
-0.00015626
-0.00740556
-0.0185186
0.00284546
-0.0025115
-0.011318
-0.0034013
0.00047302
-0.00270779
-0.0112442
0.000185813
-0.000178686
-0.00250454
0.000606828
8.80043e-05
0.000123628
-0.00222724
0.00260915
0.000206039
-0.0110073
-0.004276
-7.63712e-05
-0.000119522
-0.0114388
0.000201148
-0.00250664
0.000597839
-0.00222957
-0.0161943
-1.86992e-05
-0.00147274
-0.0165636
0.00200241
-0.00163324
0.00246069
-0.00606707
-0.0129574
-0.0227489
1.89013e-05
-0.00134257
-0.0202343
-0.00199824
0.00148555
-0.00245485
0.0023727
-0.017692
-0.0161414
-0.00147006
-0.0165102
-0.00162957
-0.00605858
-0.0129067
-0.0120613
-3.49414e-05
-0.000645114
-0.012114
0.00135314
-0.0029339
0.000608486
-0.00672283
-0.0120669
-0.0196033
3.56288e-05
-0.000328691
-0.0165253
-0.00135042
0.00111065
-0.000604695
0.00335851
-0.0162985
-0.0120363
-0.00064248
-0.0120893
-0.00292708
-0.00671443
-0.0120384
-0.00285055
-2.19359e-05
-0.00522671
-0.000557924
-0.00129889
-0.0106509
-0.0118129
2.30925e-05
-0.0118181
0.000557472
0.00129846
-0.0110574
-0.00284907
-0.00521885
-0.0106351
0.0165507
0.0024451
-0.00605533
-0.0129406
0.0161706
0.00197397
-0.00159404
-4.62718e-05
-0.00145156
0.0201518
-0.00244131
0.00236992
-0.0176359
0.0226012
-0.00197051
0.00149457
4.72726e-05
-0.00134217
0.0165055
-0.0060566
-0.0128904
0.0161253
-0.00159047
-0.00144945
0.0121269
0.000594489
-0.00672184
-0.0120551
0.0121005
0.00130971
-0.00287754
-8.87355e-05
-0.000595047
0.0164466
-0.000589151
0.00335299
-0.0162466
0.0194437
-0.00130718
0.0011138
9.16144e-05
-0.000343563
0.0121118
-0.00672537
-0.0120324
0.0120872
-0.00287317
-0.000588841
0.00524061
-0.00131402
-0.0106487
0.00298523
-0.000622357
-0.000114498
0.0117156
0.00131419
-0.0109914
0.0115838
0.000622683
0.000118067
0.00522821
-0.0106396
0.00297753
0.00561542
0.00213984
-0.00775538
0.00869294
0.00202708
-0.00510473
0.00212326
-0.00637108
0.00806374
-0.00213152
-0.00379279
0.0129764
-0.00201899
-0.000866986
-0.00211603
-0.000420639
0.00558169
-0.00771335
0.00864431
-0.00508174
-0.0063623
0.0043431
0.00180354
-0.0139021
0.00812074
0.00176099
-0.0106435
0.00134553
-0.011651
0.00596522
-0.0017969
-0.00615795
0.0114894
-0.00175569
-0.00287491
-0.00133824
-0.00249445
0.00432289
-0.0138333
0.00809578
-0.0106104
-0.0116373
0.00533844
0.00352715
-0.0227678
0.00579604
0.00191271
-0.0130139
0.00110357
-0.0176074
0.00652187
-0.00351523
-0.00563774
0.0105372
-0.00191042
-0.00306742
-0.00110431
-0.000741108
0.00530899
-0.0226576
0.00578083
-0.0129928
-0.0176005
-0.00635382
0.0123152
-0.0287293
-0.00120981
0.0106432
-0.0288012
0.0103209
-0.0291382
0.00134775
-0.0123176
0.0176474
-0.00135038
-0.0106679
0.0209419
-0.0103431
0.0185726
-0.00630034
-0.028675
-0.00117606
-0.028785
-0.0291197
0.000446061
0.00579968
-0.0349748
0.000986805
0.00588937
-0.0352312
0.00660988
-0.0347611
-0.001981
-0.00582363
0.0312517
-0.00138745
-0.00590952
0.0321472
-0.00662715
0.0304222
0.000462842
-0.0349613
0.000992478
-0.0352241
-0.0347543
-4.64812e-06
0.0183919
-0.000194239
0.0183044
0.0183351
-0.000482384
-0.0183982
0.000213371
-0.01831
-0.0183406
-1.0958e-06
-0.000192447
-0.00870065
0.00213119
-0.00638811
-0.00562586
0.00203342
-0.00510835
0.00214501
-0.00777101
-0.0130066
-0.00212294
-0.000431642
-0.00808793
-0.00202481
-0.000860889
-0.00213573
-0.00380762
-0.00865627
-0.00637347
-0.00559195
-0.00508929
-0.00772783
-0.00812494
0.00134713
-0.0116774
-0.00434869
0.00176852
-0.0106533
0.0018092
-0.013929
-0.0115205
-0.00134134
-0.00252156
-0.00598021
-0.00176285
-0.00287021
-0.00180167
-0.00617735
-0.00810114
-0.0116522
-0.00432745
-0.010626
-0.0138571
-0.00579219
0.00111594
-0.0176522
-0.00534703
0.00191679
-0.0130153
0.00353385
-0.02281
-0.0105504
-0.00111462
-0.000798362
-0.00653853
-0.00191438
-0.00305125
-0.00352081
-0.00566153
-0.00578077
-0.0176212
-0.00531962
-0.0130016
-0.0226976
0.001196
0.010333
-0.0291813
0.00636471
0.0106493
-0.0288335
0.0123257
-0.0287711
0.00132206
-0.0103528
0.0185654
-0.00135152
-0.0106737
0.0209454
-0.0123289
0.0176415
0.00117561
-0.0291497
0.00631347
-0.0288133
-0.0287132
-0.000991299
0.00660253
-0.0347923
-0.000443967
0.00588176
-0.0352624
0.00579394
-0.0350088
0.00138787
-0.00662515
0.0304053
0.00198233
-0.00590717
0.0321399
-0.00582195
0.0312398
-0.00099185
-0.0347828
-0.000458897
-0.0352532
-0.0349939
0.000194862
0.018328
6.40122e-06
0.0182969
0.0183845
-0.00021449
-0.0183348
0.000484029
-0.0183037
-0.0183919
0.000193576
3.36819e-06
)
;

boundaryField
{
    fuel
    {
        type            calculated;
        value           nonuniform List<scalar> 
36
(
0.000128169
0.000213561
0.00012817
0.000128169
0.00021356
0.000128169
0.000128169
0.00021356
0.000128168
-0.000128169
-0.000213561
-0.00012817
-0.000128169
-0.00021356
-0.000128169
-0.000128169
-0.00021356
-0.000128168
0
0
0
0
0
0
0
0
0
0
0
0
0
0
0
0
0
0
)
;
    }
    primary_air
    {
        type            calculated;
        value           nonuniform List<scalar> 9(-0.00319661 -0.00531445 -0.00319665 -0.00319468 -0.00531299 -0.00319471 -0.00319724 -0.0053147 -0.00319729);
    }
    Secondary_air_RHS
    {
        type            calculated;
        value           nonuniform List<scalar> 9(0.0122515 0.0199681 0.0122527 0.012212 0.0196538 0.0122131 0.0125686 0.0199949 0.0125694);
    }
    Secondary_air_LHS
    {
        type            calculated;
        value           nonuniform List<scalar> 9(0.0121902 0.0200629 0.0121785 0.0121746 0.0197915 0.0121623 0.0125479 0.0201747 0.012537);
    }
    outlet
    {
        type            calculated;
        value           nonuniform List<scalar> 
18
(
-0.053315
0.067283
-0.0533111
-0.0533706
0.0680424
-0.0533666
-0.0533867
0.0685006
-0.0533823
-0.0533619
0.0685246
-0.0533582
-0.0533459
0.0680663
-0.0533426
-0.0532903
0.0673116
-0.0532871
)
;
    }
    stove_body
    {
        type            calculated;
        value           uniform 0;
    }
    frontAndBack
    {
        type            empty;
        value           nonuniform 0();
    }
}


// ************************************************************************* //
