/*--------------------------------*- C++ -*----------------------------------*\
  =========                 |
  \\      /  F ield         | OpenFOAM: The Open Source CFD Toolbox
   \\    /   O peration     | Website:  https://openfoam.org
    \\  /    A nd           | Version:  6
     \\/     M anipulation  |
\*---------------------------------------------------------------------------*/
FoamFile
{
    version     2.0;
    format      ascii;
    class       volScalarField;
    location    "2.5";
    object      T;
}
// * * * * * * * * * * * * * * * * * * * * * * * * * * * * * * * * * * * * * //

dimensions      [0 0 0 1 0 0 0];

internalField   nonuniform List<scalar> 
297
(
292.863
292.883
292.866
292.848
293.067
292.848
292.864
292.883
292.863
292.865
292.883
292.867
293.277
293.347
293.283
292.866
292.883
292.865
292.181
292.643
292.243
354.409
330.575
355.198
292.224
292.642
292.226
1597.23
1050.29
1657.66
708.148
519.289
777.042
1604.11
1052.71
1658.47
2286.33
2093.44
2373.33
1982.32
1080.73
2071.41
2287.11
2098.58
2381.98
2289.38
1857.65
2375.03
1607.39
889.579
1643.87
2290.14
1860.96
2383.71
1440.4
1109.03
1489.75
2463.06
819.012
2473.42
1441.67
1109.76
1490.14
702.631
457.988
777.804
1512.23
774.602
1475.12
703.107
458.209
777.563
302.936
303.285
303.026
303.417
303.337
303.463
303.235
303.439
303.267
2207.8
1852.19
2285.72
1791.38
817.702
1831.96
2202.34
1855.53
2300.26
1860.93
1843.71
1800.68
1918.88
817.35
2092.37
1861.55
1847
1806.57
1622.66
1820.96
1675.07
2411.16
818.122
2467.65
1623.8
1824.13
1680.25
302.59
303.586
302.539
303.236
303.823
303.229
302.893
303.687
302.905
303.378
303.473
303.31
303.59
303.964
303.667
303.481
303.63
303.537
303.563
303.396
303.409
304.07
304.156
304.164
303.614
303.548
303.552
302.377
302.442
302.616
302.964
302.999
303.159
302.758
302.837
303.026
303.159
303.033
303.047
303.504
303.513
303.662
303.417
303.301
303.338
303.573
303.46
303.252
304.191
304.175
304.183
303.73
303.633
303.451
302.671
302.467
302.408
303.233
303.087
303.044
303.014
302.823
302.742
303.188
303.163
303.282
303.605
303.482
303.473
303.322
303.281
303.396
303.373
303.561
303.675
304.08
304.075
304.095
303.428
303.611
303.723
302.96
303.035
302.837
303.846
303.733
303.447
303.59
303.572
303.223
302.955
303.194
303.04
304.206
304.043
303.842
303.506
303.492
303.217
302.799
303.063
303.002
304.497
304.254
304.21
303.345
303.224
303.064
302.724
302.992
302.883
305.098
304.286
304.523
303.15
302.984
302.917
299.671
299.652
299.677
302.07
301.676
303.459
299.671
299.65
299.676
292.478
292.511
292.555
290.921
291.004
291.296
292.477
292.51
292.555
302.771
303.034
302.935
303.398
303.671
303.824
303.235
303.586
303.603
302.887
303.086
302.855
303.932
304.149
304.338
303.232
303.514
303.524
302.849
303.005
302.801
304.323
304.345
304.54
303.076
303.225
303.359
302.718
302.969
302.731
304.706
304.343
305.122
302.932
303
303.166
299.685
299.661
299.679
303.599
301.714
302.09
299.684
299.659
299.679
292.56
292.515
292.482
291.351
291.034
290.942
292.559
292.515
292.481
)
;

boundaryField
{
    fuel
    {
        type            fixedValue;
        value           uniform 293;
    }
    primary_air
    {
        type            fixedValue;
        value           uniform 293;
    }
    Secondary_air_RHS
    {
        type            fixedValue;
        value           uniform 293;
    }
    Secondary_air_LHS
    {
        type            fixedValue;
        value           uniform 293;
    }
    outlet
    {
        type            inletOutlet;
        inletValue      uniform 293;
        value           nonuniform List<scalar> 
18
(
293
291.351
293
293
291.034
293
293
290.942
293
293
290.921
293
293
291.004
293
293
291.296
293
)
;
    }
    stove_body
    {
        type            fixedValue;
        value           uniform 293;
    }
    frontAndBack
    {
        type            empty;
    }
}


// ************************************************************************* //
