/*--------------------------------*- C++ -*----------------------------------*\
  =========                 |
  \\      /  F ield         | OpenFOAM: The Open Source CFD Toolbox
   \\    /   O peration     | Website:  https://openfoam.org
    \\  /    A nd           | Version:  6
     \\/     M anipulation  |
\*---------------------------------------------------------------------------*/
FoamFile
{
    version     2.0;
    format      ascii;
    class       volScalarField;
    location    "1";
    object      p;
}
// * * * * * * * * * * * * * * * * * * * * * * * * * * * * * * * * * * * * * //

dimensions      [1 -1 -2 0 0 0 0];

internalField   nonuniform List<scalar> 
297
(
122663
122663
122663
203050
203050
203050
122663
122663
122663
122663
122663
122663
203050
203050
203050
122663
122663
122663
122663
122663
122663
203050
203050
203050
122663
122663
122663
97167.7
97165
97135.6
160631
160587
160560
97074.3
97077.7
97070.1
97164.2
97150.9
97132.4
160317
160334
160217
97065.8
97075.6
97088.6
96888.5
97097.7
97003.5
158249
159456
158275
96803.9
97062.4
97005.7
96178.1
96470.9
96280.7
159240
159130
159347
96289.4
96513.5
96123.1
96475.7
96651.2
96653.2
160006
159923
160174
96593.2
96618.8
96495
96579.8
96890.8
96856.8
160067
160132
160175
96757.9
96804.7
96538.5
95594.4
97016.2
95166.8
154319
158376
153013
95447
97111.7
95552.3
95424.4
96978.6
94885.4
153857
158368
152423
95258.2
97091.5
95338.5
95365.7
96918.5
94772.2
154113
158484
152876
95187.3
97022.3
95309.2
97124.4
97334.8
97259.5
160220
160213
160186
97216.9
97307.6
97064.5
97191.6
97395.1
97366.3
160293
160278
160224
97325.7
97375.6
97186.8
97236.7
97382.1
97398.9
160321
160315
160250
97351.1
97369.9
97284.1
97136.7
97027.1
96902.7
160100
160113
160049
97618.9
97832.5
98503.5
97073.1
96794.7
96469.8
160105
160054
159801
97262.3
97253.9
97718.9
97064.1
96732.5
96345.8
160104
159991
159669
97134.2
96931.8
96854.4
98369.2
97689.9
97486.8
159858
159999
160064
96761.6
96901.1
97043.8
97659.7
97160.9
97150.4
159642
159904
160046
96368.7
96689.3
96975.2
96894.1
96921.5
97059.3
159529
159849
160057
96255.6
96627.9
96957.8
98897.3
99061.2
98925.1
159739
159730
159759
99090.4
98290.5
97200.5
98532.7
98629.2
98329.2
159373
159325
159391
98113.7
97135.2
96428.4
98070.8
98142.6
97697.9
158774
158864
158903
96983.4
96240.2
95858.4
95321.8
95249.1
95239
154637
154606
154400
92652
92602.4
92524.2
90284
90205.7
90208.3
146943
146915
146858
88888.5
88860
88770.5
84306.8
84292.1
84276.8
135118
135024
134925
86775.4
86927.9
87106.7
97374.5
98529.9
99367
159895
159825
159820
99032.4
99136.2
98911.5
96549
97301.1
98323.1
159517
159411
159447
98362.7
98609.6
98497.2
95954.6
96370.7
97146.4
158995
158907
158821
97654.2
98059.9
98035.1
92566.2
92646.6
92699.6
154443
154625
154643
95192.7
95223.4
95301.6
88678.7
88770.6
88807.6
146674
146726
146748
90091.6
90090.7
90166.6
86837.3
86644.7
86489.2
134517
134615
134705
84043.6
84060.8
84077.1
)
;

boundaryField
{
    fuel
    {
        type            zeroGradient;
    }
    primary_air
    {
        type            zeroGradient;
    }
    Secondary_air_RHS
    {
        type            zeroGradient;
    }
    Secondary_air_LHS
    {
        type            zeroGradient;
    }
    outlet
    {
        type            totalPressure;
        rho             rho;
        psi             none;
        gamma           1;
        p0              uniform 100000;
        value           nonuniform List<scalar> 
18
(
99997
100000
86358.7
93421.8
100000
86326.3
87763.3
100000
86455.9
86649.7
100000
87969.3
86447.8
100000
93684.2
86590.5
100000
99999
)
;
    }
    stove_body
    {
        type            zeroGradient;
    }
    frontAndBack
    {
        type            empty;
    }
}


// ************************************************************************* //
