/*--------------------------------*- C++ -*----------------------------------*\
  =========                 |
  \\      /  F ield         | OpenFOAM: The Open Source CFD Toolbox
   \\    /   O peration     | Website:  https://openfoam.org
    \\  /    A nd           | Version:  6
     \\/     M anipulation  |
\*---------------------------------------------------------------------------*/
FoamFile
{
    version     2.0;
    format      ascii;
    class       volScalarField;
    location    "1";
    object      Qdot;
}
// * * * * * * * * * * * * * * * * * * * * * * * * * * * * * * * * * * * * * //

dimensions      [1 -1 -3 0 0 0 0];

internalField   nonuniform List<scalar> 
297
(
0
2.34005e-05
5.8886e-05
4.6801e-05
0
4.6801e-05
0
0
3.54855e-05
5.8886e-05
0
3.54855e-05
0.000117772
7.0971e-05
0
3.54855e-05
5.8886e-05
5.8886e-05
1.17002e-05
3.54854e-05
0
0
-6.83349e-10
0
1.17002e-05
3.54854e-05
-1.70837e-10
-3.41674e-10
0
1.25562e-11
-6.83349e-10
0
-6.83349e-10
5.02246e-11
0
0
7.8476e-13
-3.41674e-10
-3.41674e-10
-6.33124e-10
-6.83349e-10
2.51123e-11
0
-3.41674e-10
-3.41674e-10
0
-3.41674e-10
0
2.51123e-11
-6.70793e-10
-6.83349e-10
0
0
0
0
-6.83349e-10
0
0
0
0
-3.41674e-10
1.87101e-19
0
-3.41674e-10
0
0
0
0
0
0
0
0
-3.41674e-10
0
0
-6.83349e-10
0
0
0
-6.83349e-10
0
0
0
-3.41674e-10
1.25562e-11
0
-6.8021e-10
0
0
-3.41674e-10
-3.41674e-10
0
0
3.13904e-12
0
0
0
4.78979e-17
0
-3.41674e-10
0
-3.41674e-10
0
0
0
0
-6.83349e-10
-3.41674e-10
0
-6.83349e-10
0
0
0
-6.83349e-10
0
0
-6.83349e-10
0
2.72268e-30
1.08907e-29
0
-6.83349e-10
-1.3667e-09
0
0
0
0
0
-6.83349e-10
0
6.83349e-10
0
0
0
0
0
0
1.70168e-31
-6.83349e-10
0
0
0
0
0
0
0
0
-6.83349e-10
0
0
0
0
0
0
-6.83349e-10
-6.83349e-10
-6.83349e-10
-6.83349e-10
-6.83349e-10
0
4.25419e-32
-6.83349e-10
0
0
-6.83349e-10
1.06355e-32
0
-6.83349e-10
0
0
0
-6.83349e-10
0
0
0
0
0
0
0
0
-6.83349e-10
0
1.06355e-32
0
0
-6.83349e-10
0
-6.83349e-10
0
3.16962e-40
-6.83349e-10
-6.83349e-10
1.03862e-35
0
0
-6.83349e-10
0
0
0
0
1.26785e-39
0
0
0
1.03862e-35
8.30897e-35
-6.83349e-10
0
-6.83349e-10
-6.83349e-10
-6.83349e-10
1.03862e-35
-1.03862e-35
2.07724e-35
0
0
0
0
0
2.07724e-35
0
0
0
0
-6.83349e-10
-6.83349e-10
0
-6.83349e-10
2.07724e-35
0
0
0
0
0
-6.83349e-10
1.58481e-40
0
0
0
1.66179e-34
0
8.30897e-35
0
8.50838e-32
8.50838e-32
0
0
-1.3667e-09
0
0
1.29828e-36
1.29828e-36
-6.83349e-10
-6.83349e-10
0
0
4.25419e-32
0
0
-6.83349e-10
0
-6.83349e-10
8.50838e-32
0
-6.83349e-10
6.83349e-10
0
0
0
1.29828e-36
-6.83349e-10
0
0
0
0
0
0
6.49138e-37
6.49138e-37
0
0
0
-6.83349e-10
-6.83349e-10
-6.83349e-10
-6.83349e-10
-6.83349e-10
-6.83349e-10
-6.83349e-10
0
0
3.40335e-31
0
-6.83349e-10
-6.83349e-10
0
0
)
;

boundaryField
{
    fuel
    {
        type            calculated;
        value           uniform 0;
    }
    primary_air
    {
        type            calculated;
        value           uniform 0;
    }
    Secondary_air_RHS
    {
        type            calculated;
        value           uniform 0;
    }
    Secondary_air_LHS
    {
        type            calculated;
        value           uniform 0;
    }
    outlet
    {
        type            calculated;
        value           uniform 0;
    }
    stove_body
    {
        type            calculated;
        value           uniform 0;
    }
    frontAndBack
    {
        type            empty;
    }
}


// ************************************************************************* //
