/*--------------------------------*- C++ -*----------------------------------*\
  =========                 |
  \\      /  F ield         | OpenFOAM: The Open Source CFD Toolbox
   \\    /   O peration     | Website:  https://openfoam.org
    \\  /    A nd           | Version:  6
     \\/     M anipulation  |
\*---------------------------------------------------------------------------*/
FoamFile
{
    version     2.0;
    format      ascii;
    class       volVectorField;
    location    "1";
    object      U;
}
// * * * * * * * * * * * * * * * * * * * * * * * * * * * * * * * * * * * * * //

dimensions      [0 1 -1 0 0 0 0];

internalField   nonuniform List<vector> 
297
(
(75.8027 -0.00781251 0.186281)
(75.8003 -0.000184599 0.180856)
(75.8026 0.00776255 0.186494)
(1.06479e-06 0.0263488 0.305956)
(1.0503e-06 -0.000260726 0.300929)
(1.09641e-06 -0.0262013 0.305915)
(-75.8027 -0.00782173 0.186311)
(-75.8003 -0.000185805 0.180827)
(-75.8026 0.00779129 0.186518)
(75.913 -0.0570623 0.215252)
(75.9107 -0.000629635 0.237125)
(75.9134 0.056275 0.214697)
(1.04514e-06 0.0449553 0.276449)
(9.90415e-07 0.000633859 0.338229)
(1.07205e-06 -0.0447965 0.277845)
(-75.9128 -0.057086 0.215212)
(-75.9103 -0.000608647 0.237135)
(-75.9136 0.0563143 0.21467)
(73.8675 -0.342501 0.438886)
(78.8061 -0.00307908 0.446221)
(73.7781 0.343551 0.43813)
(1.05923e-06 0.150792 0.090488)
(1.11451e-06 0.00515906 -0.216274)
(1.0744e-06 -0.154471 0.0862385)
(-73.8656 -0.342624 0.438836)
(-78.8117 -0.0032534 0.446054)
(-73.7775 0.34391 0.438149)
(57.1421 -1.99952 0.364927)
(62.8066 -3.62867 -3.00584)
(64.5007 -6.36575 -4.1522)
(-0.0115037 -0.267953 4.6085)
(-0.0113456 0.793539 4.01875)
(-0.00844044 -0.880981 4.91749)
(-55.4911 -2.76204 -2.1486)
(-62.593 -3.27653 -2.19364)
(-64.4825 -3.76506 -3.35856)
(69.1132 -6.68884 11.9641)
(69.632 -6.82953 -5.65474)
(71.2474 -12.7593 -7.01227)
(-0.0136621 0.843725 37.2245)
(-0.010488 -0.197261 25.6353)
(-0.00662716 -9.91647 37.7864)
(-70.295 -0.30579 20.1383)
(-71.0439 -4.65899 -4.69632)
(-72.9602 -6.32836 -3.85991)
(81.2938 12.8242 20.2479)
(65.959 8.45023 -5.3059)
(70.5547 -13.2464 -11.4859)
(-0.0131528 -5.64551 53.1126)
(-0.00557952 3.22817 13.4694)
(0.000356375 6.76708 52.4935)
(-72.9388 24.8533 4.29037)
(-66.8892 4.84232 -7.26039)
(-72.2988 -5.06522 -6.43076)
(68.898 -3.48306 -40.1739)
(61.632 2.12704 -27.9686)
(64.7315 -4.90847 -56.9502)
(0.0197477 5.36972 20.0691)
(0.00738231 -6.43309 -22.5856)
(-0.0277313 1.84746 5.39856)
(-64.3134 10.0913 -46.3754)
(-60.6117 -0.0153845 -28.5661)
(-66.6698 7.76397 -40.4372)
(70.393 4.94204 -21.5113)
(61.7459 4.91431 -35.2151)
(58.5477 -16.3431 -34.4763)
(0.0209444 6.67612 14.4801)
(-0.00557022 -1.28672 -6.6747)
(-0.0279815 -1.17597 -0.26587)
(-60.4857 20.3169 -33.2736)
(-60.8218 -4.00106 -37.3074)
(-69.108 -8.06422 -26.2379)
(64.0374 22.2528 -22.6397)
(59.3309 18.5942 -29.4503)
(56.0386 -18.3119 -31.6605)
(0.0317349 4.59043 13.9613)
(-0.0120648 0.428951 -12.8706)
(-0.0543669 3.4187 6.0878)
(-55.551 23.659 -35.0934)
(-56.2758 -21.0993 -31.1851)
(-63.7913 -16.0717 -25.1442)
(73.9054 19.3106 -39.756)
(59.2704 9.4321 -17.6265)
(62.6108 -16.3626 -56.2508)
(-0.0256962 0.268486 70.7034)
(0.0150603 3.84978 -29.4154)
(0.0668886 4.85836 71.28)
(-65.9884 29.956 -43.8347)
(-58.7296 -0.251271 -12.5605)
(-63.1645 -7.6056 -48.9183)
(67.6444 6.18152 -43.8148)
(59.9069 6.45609 -18.6051)
(58.3727 -9.49952 -60.6245)
(-0.0265776 0.91812 78.4784)
(0.0183668 1.45775 -30.4751)
(0.0662176 3.78431 79.2861)
(-61.5673 18.2138 -48.6217)
(-58.6086 -1.32427 -11.49)
(-61.0567 -1.62593 -52.9976)
(62.8197 3.30277 -43.7595)
(60.6603 6.05356 -21.8364)
(53.0193 -8.09608 -59.9551)
(-0.0278163 4.84206 78.9223)
(0.0181708 -0.376534 -27.9917)
(0.0757831 2.65326 78.3753)
(-55.5258 15.4719 -48.4199)
(-60.3338 -1.0313 -16.7923)
(-64.0861 2.55522 -50.5453)
(55.0876 40.6652 -8.3979)
(54.3139 13.3929 -9.41156)
(51.9455 -39.8454 -9.16448)
(0.0163874 -1.72171 10.1548)
(-0.00361379 1.79066 -6.89653)
(-0.0300124 5.56945 2.77754)
(-52.4095 41.2618 -9.10378)
(-52.7337 -22.3807 -9.69026)
(-54.0065 -40.7409 -7.34682)
(54.497 34.9922 -1.08469)
(54.0127 21.3961 -3.16822)
(51.8541 -28.9152 3.96663)
(0.0226337 -0.997826 3.11276)
(-0.00252098 -0.361586 -5.66184)
(-0.0223058 -6.34504 -1.97622)
(-52.6049 27.8036 4.13542)
(-52.3578 -30.7104 -5.33368)
(-52.2478 -38.6577 -0.521668)
(54.1372 1.25995 4.86325)
(54.2252 9.74558 2.16687)
(52.547 5.30939 -0.959443)
(0.0157416 -3.65523 -0.807805)
(-0.00157415 2.9412 -1.11815)
(-0.0143805 6.0497 -0.166569)
(-52.7665 -1.76785 -0.100296)
(-52.5411 -6.94903 1.22448)
(-52.3266 -5.79542 3.87703)
(51.5862 -46.6005 -4.74936)
(50.857 -50.7661 -8.27685)
(50.1962 -57.1831 -10.3087)
(0.0744039 11.6985 3.12829)
(0.109843 2.68207 -0.19645)
(0.195357 -10.2424 -7.69818)
(-51.1653 -42.5644 -1.23192)
(-50.6651 -48.1868 -7.3392)
(-51.3711 -30.6592 -23.1413)
(51.4804 -36.5491 8.1931)
(51.6378 -40.4082 7.43743)
(51.4647 -45.59 4.14096)
(0.0243781 7.912 -0.781872)
(0.0613035 4.38141 3.5529)
(0.15643 -1.30222 10.7514)
(-51.1743 -38.4979 5.29064)
(-51.8686 -44.8431 -5.76789)
(-50.8027 -25.7336 -24.4089)
(52.1541 5.05609 5.63694)
(52.0621 10.278 6.54752)
(51.721 20.4922 11.0675)
(0.00879989 13.3908 -0.834846)
(0.0251784 15.0548 1.37876)
(0.063271 25.0121 8.35172)
(-52.018 -16.3492 12.261)
(-52.2229 -6.80057 3.79333)
(-50.781 -23.2441 -33.8604)
(51.4721 29.0934 -22.6139)
(51.3248 48.1239 -12.2936)
(50.3378 44.974 -4.7708)
(-0.196577 9.90623 -10.5275)
(-0.0964615 8.80255 -6.82185)
(-0.0602718 -1.70916 1.22376)
(-50.1012 55.5422 -10.6156)
(-50.2736 50.7964 -9.15123)
(-50.7875 47.641 -6.061)
(51.0622 25.2046 -24.9161)
(52.2983 42.5019 -9.44435)
(52.9847 37.0839 2.62541)
(-0.170952 -1.2668 10.9939)
(-0.073095 -9.85371 4.95587)
(-0.0286186 -11.7554 3.26288)
(-51.5905 43.6311 4.55832)
(-51.9875 37.9256 7.30428)
(-52.1903 34.6522 8.62522)
(51.2786 21.582 -33.8451)
(52.7589 0.835743 16.8456)
(53.7252 10.3846 14.5806)
(-0.086344 -29.2343 9.0952)
(-0.0412744 -19.3001 1.52418)
(-0.014062 -14.1634 1.1747)
(-52.7727 -20.8756 11.229)
(-52.7902 -11.5506 6.99799)
(-52.7302 -4.86135 6.21038)
(51.0337 -9.3473 -13.5855)
(50.9455 1.31415 -34.3576)
(50.9422 22.7457 -32.1219)
(0.0235848 4.69528 -8.50896)
(-0.0942846 2.08791 -11.4415)
(-0.209254 12.3183 -11.3605)
(-49.2391 24.8212 -33.8873)
(-49.05 32.0425 -24.9598)
(-50.7403 53.2798 -19.0897)
(50.9816 -4.8862 9.62117)
(51.0138 5.14749 -40.9694)
(50.794 20.8595 -40.9147)
(-0.0510375 2.87185 12.2817)
(-0.181969 3.39457 9.48388)
(-0.231766 10.6288 10.9189)
(-49.8075 5.99452 -56.4291)
(-50.2144 22.6857 -30.5152)
(-51.7425 41.0424 -5.63184)
(50.7621 -0.0566346 5.29892)
(53.486 4.07812 -50.908)
(51.7018 11.6679 -54.1232)
(-0.13302 -0.766993 4.59853)
(-0.237027 -10.4273 10.3296)
(-0.233425 -22.1866 17.6031)
(-52.1611 2.92049 -72.3911)
(-50.8602 21.2497 -21.4621)
(-51.6398 -15.5893 22.5079)
(51.0017 5.11028 -13.8457)
(51.4811 4.92368 -70.238)
(51.1535 -9.61452 -85.867)
(-0.338566 0.584197 60.7511)
(-0.34164 -1.1086 35.0341)
(-0.357607 -13.7532 34.2027)
(-51.8321 -9.4078 -101.965)
(-52.2039 12.8387 32.7604)
(-52.7481 -4.86259 71.315)
(50.1718 1.2961 -131.213)
(50.2442 1.29036 -137.448)
(50.0689 7.24127 -135.192)
(-0.184376 3.16097 85.5829)
(-0.181604 4.78771 71.4042)
(-0.195768 0.131308 68.9959)
(-50.4145 3.01307 -135.506)
(-50.645 -5.07404 -63.7813)
(-51.1658 0.0927299 113.63)
(48.218 0.11827 -163.697)
(48.2673 0.306668 -165.123)
(48.0747 -0.880109 -164.116)
(0.338024 0.183441 161.434)
(0.359315 2.13136 174.547)
(0.382958 -0.0799003 202.786)
(-47.432 -6.01601 -154.227)
(-47.2908 -7.2156 -108.283)
(-48.9363 -4.52271 -1.30985)
(50.8544 -54.7494 -19.5963)
(49.0993 -32.8793 -25.6916)
(49.5607 -25.3573 -34.6093)
(0.201687 -11.0984 -9.28911)
(0.0742746 -1.34279 -10.0498)
(-0.0557839 -4.5053 -8.04097)
(-50.9944 -21.0031 -30.0148)
(-50.932 -2.26696 -34.379)
(-50.9805 10.3938 -13.1204)
(51.6218 -41.8106 -6.23535)
(50.0387 -23.6847 -32.2534)
(50.0635 -6.32508 -58.4056)
(0.221495 -9.76044 10.1786)
(0.159934 -3.04772 9.16388)
(0.0212685 -2.50699 12.5062)
(-50.8479 -20.6646 -42.6394)
(-51.0964 -8.23896 -43.8773)
(-50.9999 5.78901 10.4981)
(50.6221 14.3747 22.5828)
(50.5334 -21.8348 -22.4497)
(52.4251 -3.09885 -74.6151)
(0.204576 19.0411 17.9807)
(0.205159 8.07642 10.5666)
(0.108046 -0.464086 4.46622)
(-51.9938 -11.9132 -55.1295)
(-53.5166 -4.19302 -53.135)
(-50.8726 -0.829635 6.0677)
(51.803 4.12841 69.6005)
(51.5904 -12.0416 25.1604)
(51.5653 9.59034 -103.721)
(0.336437 12.4499 33.5021)
(0.328023 1.52215 34.0886)
(0.328044 -0.7759 58.7089)
(-51.2928 7.71215 -89.9346)
(-51.6641 -2.44125 -72.0125)
(-51.0952 -6.85434 -15.1861)
(50.3249 -0.67829 112.849)
(50.4442 5.35084 -70.328)
(50.0199 -2.83212 -137.434)
(0.188945 0.0792711 69.595)
(0.176311 -4.4564 72.7947)
(0.179622 -3.08092 86.885)
(-50.0994 -6.76772 -136.764)
(-49.9274 -2.38197 -138.658)
(-50.0795 -0.882357 -132.351)
(48.1687 4.25915 -2.29666)
(47.0664 7.45325 -110.667)
(47.3596 5.82032 -155.727)
(-0.374738 0.127923 200.694)
(-0.351558 -1.80573 174.768)
(-0.331035 -0.204978 162.921)
(-48.0894 0.827063 -165.752)
(-48.2235 -0.24279 -165.98)
(-48.1954 -0.180858 -165.068)
)
;

boundaryField
{
    fuel
    {
        type            fixedValue;
        value           uniform (0 0 0.25);
    }
    primary_air
    {
        type            fixedValue;
        value           uniform (0 0 2.5);
    }
    Secondary_air_RHS
    {
        type            fixedValue;
        value           uniform (0 47.2222 0);
    }
    Secondary_air_LHS
    {
        type            fixedValue;
        value           uniform (0 -47.2222 0);
    }
    outlet
    {
        type            pressureInletOutletVelocity;
        value           nonuniform List<vector> 
18
(
(0 0 -2.29666)
(-0.374738 0.127923 200.694)
(0 0 -165.752)
(0 0 -110.667)
(-0.351558 -1.80573 174.768)
(0 0 -165.98)
(0 0 -155.727)
(-0.331035 -0.204978 162.921)
(0 0 -165.068)
(0 0 -163.697)
(0.338024 0.183441 161.434)
(0 0 -154.227)
(0 0 -165.123)
(0.359315 2.13136 174.547)
(0 0 -108.283)
(0 0 -164.116)
(0.382958 -0.0799003 202.786)
(0 0 -1.30985)
)
;
    }
    stove_body
    {
        type            noSlip;
    }
    frontAndBack
    {
        type            empty;
    }
}


// ************************************************************************* //
