/*--------------------------------*- C++ -*----------------------------------*\
  =========                 |
  \\      /  F ield         | OpenFOAM: The Open Source CFD Toolbox
   \\    /   O peration     | Website:  https://openfoam.org
    \\  /    A nd           | Version:  6
     \\/     M anipulation  |
\*---------------------------------------------------------------------------*/
FoamFile
{
    version     2.0;
    format      ascii;
    class       volScalarField;
    location    "5";
    object      O2;
}
// * * * * * * * * * * * * * * * * * * * * * * * * * * * * * * * * * * * * * //

dimensions      [0 0 0 0 0 0 0];

internalField   nonuniform List<scalar> 
297
(
0
0
0
0
0
0
0
0
0
0
0
0
0
0
0
0
0
0
0
0
0
0
0
0
0
0
0
0.102225
0.0614893
0.133615
0.19031
0.150441
0.198437
0.101673
0.106995
0.167976
0
7.45525e-06
0.00766623
0.0894676
0.110959
0.105426
0
1.18449e-05
0.00131879
0
0
0
0.0543207
0.0241552
0.0690264
0
0
0
0
1.52958e-12
0
0
0
0
0
0
0
5.90607e-19
5.65517e-17
0
3.34998e-21
2.2399e-19
6.13021e-21
3.22572e-21
6.48398e-20
1.25591e-20
2.3276e-21
4.86031e-21
9.99947e-21
6.54409e-21
7.22132e-20
2.29938e-20
2.97551e-21
6.79521e-21
1.33602e-20
0
0
0
0.0152905
4.73479e-07
0.0249251
0
0
0
0
0
0
0
8.79005e-09
0.00747154
0
0
0
0
0
0
0
0
0
0
0
0
1.69672e-21
3.62629e-21
6.93436e-21
6.83961e-21
1.00112e-20
2.64627e-20
1.05495e-21
2.57861e-21
3.73789e-21
4.31189e-22
1.425e-21
4.91243e-21
2.71429e-21
9.3341e-21
2.62574e-20
5.59639e-22
2.04958e-21
2.59872e-21
9.29197e-23
6.22092e-22
2.39279e-21
3.3289e-21
8.01329e-21
1.78348e-20
1.15354e-21
2.27778e-21
2.77719e-21
1.57771e-21
3.333e-22
3.40276e-22
1.7646e-20
1.90847e-22
8.18105e-23
5.389e-22
1.41812e-22
1.8495e-22
4.10232e-21
1.29989e-21
1.50618e-21
2.55056e-20
2.42479e-20
1.79381e-20
2.50698e-21
9.22901e-22
8.88483e-22
3.01153e-21
1.4692e-21
2.61963e-21
1.8135e-20
1.85761e-20
1.85536e-20
2.62122e-21
1.68949e-21
4.56215e-21
4.95549e-23
5.2848e-23
8.46129e-22
1.61216e-21
6.45707e-21
6.4418e-21
1.6672e-22
6.47937e-22
8.47204e-22
1.69605e-22
1.34855e-22
4.82133e-22
2.77243e-21
3.50345e-21
2.78299e-21
2.74781e-22
3.52577e-22
5.32653e-22
3.52571e-22
1.74346e-22
2.2889e-22
2.73163e-21
2.68961e-21
2.93928e-21
6.82113e-22
4.34872e-22
5.47801e-22
8.67874e-28
2.01946e-27
9.65849e-27
3.20076e-25
3.76249e-26
2.43192e-24
2.16245e-24
2.77238e-23
2.71061e-23
1.05695e-27
3.3657e-27
1.51864e-26
1.2859e-24
3.82967e-25
1.13021e-22
9.82791e-24
6.95487e-23
6.49969e-23
3.70813e-27
3.81033e-27
1.56315e-26
1.192e-22
7.78187e-22
2.03816e-21
1.63941e-23
1.16356e-22
6.52638e-22
2.81368e-27
3.47687e-27
7.96492e-27
1.56201e-22
5.75409e-22
9.82648e-22
2.42048e-23
2.13656e-22
4.94324e-22
8.31885e-28
1.88156e-27
5.91168e-27
1.05004e-22
2.24781e-22
5.93685e-22
3.50782e-23
9.8568e-23
4.59547e-22
1.86143e-28
4.33139e-28
1.44725e-27
5.08094e-23
1.2129e-22
4.01556e-22
2.90704e-23
1.11261e-22
4.23589e-22
7.64452e-26
1.86068e-26
7.17692e-27
2.96143e-23
2.38224e-23
6.69811e-23
2.34628e-22
2.354e-22
1.80433e-22
1.17859e-25
2.77834e-26
5.75289e-27
6.28557e-22
3.12992e-23
6.68465e-23
4.34587e-22
4.50643e-22
1.79076e-22
1.17826e-25
3.08302e-26
2.4885e-26
1.43166e-20
6.3153e-21
1.29735e-21
4.35702e-21
6.27199e-22
1.78628e-22
6.10387e-26
2.95269e-26
1.56337e-26
7.0674e-21
4.89674e-21
1.24626e-21
3.22002e-21
8.9721e-22
1.78266e-22
3.68228e-26
1.8275e-26
9.39958e-27
4.82968e-21
2.03051e-21
1.03962e-21
3.16033e-21
1.09213e-21
1.75286e-22
1.16204e-26
3.76419e-27
2.8331e-27
3.17543e-21
1.05526e-21
4.93716e-22
2.9409e-21
9.60833e-22
1.31232e-22
)
;

boundaryField
{
    fuel
    {
        type            fixedValue;
        value           uniform 0;
    }
    primary_air
    {
        type            fixedValue;
        value           uniform 0.23;
    }
    Secondary_air_RHS
    {
        type            fixedValue;
        value           uniform 0.23;
    }
    Secondary_air_LHS
    {
        type            fixedValue;
        value           uniform 0.23;
    }
    outlet
    {
        type            inletOutlet;
        inletValue      uniform 0;
        value           nonuniform List<scalar> 
18
(
0
3.17543e-21
0
0
1.05526e-21
0
0
4.93716e-22
0
0
5.08094e-23
0
0
1.2129e-22
0
0
4.01556e-22
0
)
;
    }
    stove_body
    {
        type            fixedValue;
        value           uniform 0;
    }
    frontAndBack
    {
        type            empty;
    }
}


// ************************************************************************* //
