/*--------------------------------*- C++ -*----------------------------------*\
  =========                 |
  \\      /  F ield         | OpenFOAM: The Open Source CFD Toolbox
   \\    /   O peration     | Website:  https://openfoam.org
    \\  /    A nd           | Version:  6
     \\/     M anipulation  |
\*---------------------------------------------------------------------------*/
FoamFile
{
    version     2.0;
    format      ascii;
    class       volScalarField;
    location    "5";
    object      p;
}
// * * * * * * * * * * * * * * * * * * * * * * * * * * * * * * * * * * * * * //

dimensions      [1 -1 -2 0 0 0 0];

internalField   nonuniform List<scalar> 
297
(
120938
120938
120937
199949
199951
199951
120942
120941
120940
120938
120938
120937
199950
199951
199951
120942
120941
120940
120938
120938
120937
199950
199951
199952
120941
120941
120940
97126
97145.3
97140.5
160428
160428
160441
97034.7
97050.1
97053.5
97162.9
97175.8
97161.5
160215
160323
160280
97073.7
97103.6
97107.8
97031.5
97162.6
97006.2
158405
159527
158376
96948.2
97078.8
96958.2
96467.7
96688.9
96454.9
159459
159294
159469
96429.2
96574.8
96330.2
96696.8
96838.4
96704.7
160208
160034
160211
96748.7
96755.1
96653.6
96742
96988.6
96764
160187
160203
160142
96857.2
96935.1
96723.5
95737.8
97126.5
95798.2
153873
158708
154050
95694.1
97002.1
95803
95540.7
97093.1
95604.6
153347
158736
153471
95500.5
96970.7
95625.5
95463.7
97041
95519.8
153724
158858
153818
95424.2
96921.4
95558.7
97349
97430.1
97336.3
160179
160206
160162
97198.3
97289.3
97124.2
97476.1
97519.1
97426.6
160198
160236
160250
97287.3
97344
97217.3
97531.8
97542.4
97466.5
160206
160274
160315
97304.4
97328.3
97251.6
97689.2
97854
98438.1
159974
159978
159911
97065.1
96987.6
96889.2
97391.3
97384
97793.6
160029
159917
159747
97009.5
96771.1
96492.6
97282.8
97131.7
97082
160078
159889
159625
97014.4
96724.7
96380.9
98499.6
97952.8
97771.7
160059
160075
160043
96909.3
96993.1
97080.6
97881.9
97488.9
97481.7
159854
160023
160057
96612
96862.7
97057.9
97220.8
97259
97397.7
159716
159950
160058
96516.3
96828.9
97065.5
98854.2
99021.1
98927.6
159830
159833
159915
98723.1
98121.3
97256.7
98537.3
98620.3
98403.7
159507
159503
159617
97908.1
97184.7
96629.3
98171
98191.5
97835.7
158968
159054
159132
96946
96385.2
96105.9
95859.9
95793.8
95766.8
155363
155318
155131
93227.3
93140.7
93067.4
91136.4
91072.9
91073.9
148137
148105
148051
89652.1
89633.9
89582
85310.3
85293.9
85278.1
136433
136332
136245
87855.2
88020.5
88197.2
98912.9
99024.1
98864.9
159811
159764
159766
97327.8
98375.2
99105.8
98349.7
98605.7
98543.5
159533
159424
159452
96580.1
97271.9
98171.2
97755.6
98155.9
98151
159067
159001
158932
96013.6
96397.6
97105.6
95614
95632.8
95688.3
154763
154991
155032
92908.7
92989.3
93065
90721.3
90715.5
90785.1
147325
147389
147415
89166
89237.4
89272.6
84771.5
84787.1
84802.8
135305
135389
135476
87476.3
87257.5
87099.1
)
;

boundaryField
{
    fuel
    {
        type            zeroGradient;
    }
    primary_air
    {
        type            zeroGradient;
    }
    Secondary_air_RHS
    {
        type            zeroGradient;
    }
    Secondary_air_LHS
    {
        type            zeroGradient;
    }
    outlet
    {
        type            totalPressure;
        rho             rho;
        psi             none;
        gamma           1;
        p0              uniform 100000;
        value           nonuniform List<scalar> 
18
(
87118
100000
99991.2
86824.9
100000
93565.2
87149.6
100000
88186.5
87489
100000
88702.6
87269.1
100000
93903
87433.4
100000
99993.3
)
;
    }
    stove_body
    {
        type            zeroGradient;
    }
    frontAndBack
    {
        type            empty;
    }
}


// ************************************************************************* //
