/*--------------------------------*- C++ -*----------------------------------*\
  =========                 |
  \\      /  F ield         | OpenFOAM: The Open Source CFD Toolbox
   \\    /   O peration     | Website:  https://openfoam.org
    \\  /    A nd           | Version:  6
     \\/     M anipulation  |
\*---------------------------------------------------------------------------*/
FoamFile
{
    version     2.0;
    format      ascii;
    class       surfaceScalarField;
    location    "5";
    object      phi;
}
// * * * * * * * * * * * * * * * * * * * * * * * * * * * * * * * * * * * * * //

dimensions      [1 0 -1 0 0 0 0];

internalField   nonuniform List<scalar> 
675
(
1.06632e-05
-4.13829e-05
0.000167136
5.21357e-06
-2.41422e-05
0.00016692
-2.3277e-05
0.000166154
-2.13267e-05
5.22022e-05
0.000122102
-1.37355e-05
1.78996e-05
0.000143667
1.84948e-05
0.000137612
1.77873e-05
0.000172021
6.85566e-06
0.000167359
0.000164428
7.44702e-06
-5.5955e-05
0.000224256
6.73486e-07
-3.6853e-05
0.000219946
-4.21002e-05
0.000218038
-2.35977e-05
6.72767e-05
3.69002e-06
-4.93156e-05
3.19765e-05
8.10022e-05
3.6849e-05
-9.39267e-06
1.28106e-05
0.000236663
2.1694e-06
0.000220933
0.000214258
1.25638e-06
0.000103646
1.91168e-05
8.27616e-05
0.000117762
-1.57593e-05
-0.000109363
1.69906e-06
-8.67938e-05
-0.000122398
9.26937e-06
2.57028e-05
-0.000112
0.00722695
-0.00378099
0.00515728
0.00654813
-0.00849508
0.00731317
0.00117476
-0.000868485
-0.00523894
0.018511
-0.00103363
-0.00490541
0.0167964
-0.00680814
0.018294
0.00209215
-0.004028
0.0037715
-0.00330902
0.000228702
0.00730932
0.00925595
-0.0202621
0.00280921
0.00813552
-0.0120472
0.010206
-0.00619239
0.00269623
-0.00743337
0.0323874
0.00213595
-0.00513354
0.0305255
-0.00893069
0.0394258
0.00976918
-0.0211119
0.00538603
-0.00390432
-0.00319003
-0.00274335
0.0243399
-0.0418457
-0.00377424
0.0135867
-0.0247033
0.0250421
-0.0349758
-0.0462947
-0.0238083
0.126769
0.0438733
-0.0140077
-0.0321661
-0.02512
0.133397
-0.0028913
-0.0419921
-0.00349684
-0.0172142
-0.0317413
-0.00674252
-0.0156619
-0.0292898
0.051816
0.00644118
0.00320783
-0.0443284
0.0280636
-0.0151756
-0.0241876
0.0459364
0.0119586
0.0164824
0.0543297
-0.0986123
-0.00774568
-0.00237194
-0.0160742
0.0411388
0.0132878
0.0702892
-0.106719
-0.00533787
-0.030181
0.0519765
0.0106648
-0.0398714
0.0214432
-0.0190536
0.042886
0.000878058
-0.00919851
-0.020988
-0.00286758
-0.00755131
-0.0328652
-0.00996929
-0.0171088
0.0163268
0.00948698
0.0190752
-0.0159694
0.00747551
0.000862101
0.00904855
0.0350348
0.00325116
-0.0238268
-0.000728123
-0.0284165
-0.0106193
0.0046693
-0.00644618
-0.0190776
-0.00723424
0.000276867
-0.0210621
-0.00688237
-0.0173917
0.0031119
0.00226897
0.0072616
0.00843346
0.00206999
-0.00652565
0.00947172
0.0270368
-0.00546685
-0.0159665
-0.0141782
-0.0175533
-0.0152011
6.61693e-06
-0.00240125
-0.0446935
-0.000178768
-0.000656333
-0.0238656
-0.00218319
-0.0382149
-0.00342257
0.00241378
0.116934
0.00343265
0.000282682
-0.0399691
0.00195378
0.124242
-1.30539e-05
-0.0448094
-4.32184e-05
-0.0169026
-0.0350856
-0.000373948
-0.00110081
-0.0484497
0.000286679
6.21156e-05
-0.0245829
-0.000867593
-0.0422933
-0.00177849
0.00110072
0.108101
0.00152503
-0.000255796
-0.0429647
0.000794567
0.115688
-0.000371588
-0.048571
0.000402092
-0.0179328
-0.0391308
-0.000336046
-0.00152503
0.000265514
0.00288497
-0.00132024
-0.00199375
0.00152682
0.00173959
-0.00268422
0.000954507
-0.000297585
0.000528252
0.00547205
-0.00364603
-0.00638928
-0.0144864
-0.00545249
-0.000720697
-0.00940671
-0.00374629
-0.00388305
-0.0151934
-0.002571
0.00173182
-0.00266453
0.00711564
-0.000335306
0.0010284
-0.0105454
0.00284696
0.0152618
0.0048412
0.00418385
-0.00470802
-0.0137226
-0.00712479
-0.00521908
-0.0034753
-0.0160098
0.00584748
0.000708629
-0.000279523
-0.0126437
-0.0055081
0.00213027
-0.000181346
-0.000281899
0.00312683
-0.0122163
-0.000493524
-0.0019181
-0.0043846
0.00485561
-0.0014425
-0.0009164
-0.00658551
-0.000774306
0.00648187
0.00782509
0.00275819
0.00170768
-0.0111017
-0.00737825
0.0040025
0.00135757
-0.0129993
-0.000958577
0.0036556
-0.00295763
-0.00508047
0.00393693
0.00240489
-0.00434278
-0.00368994
-0.00334802
0.00632738
-0.00380321
-0.00256476
-0.00235096
0.00744117
-0.0016049
-4.64274e-05
-0.000167496
-0.00117865
-0.0146296
-0.00244984
0.00189572
-0.0157443
0.00065493
0.000463642
0.00273678
-0.00701169
-0.0114709
-0.00192301
0.00087376
0.00343083
-0.00355352
0.00229835
-2.19331e-05
0.00209356
0.00205363
-0.00497492
-0.0170391
0.00189545
-0.0170449
0.00229764
0.00249104
-0.017445
-0.0118213
-0.00172392
0.0032295
-0.012702
0.00091536
0.000433161
-7.20803e-05
-0.00954751
-0.0100945
0.00778117
0.00095355
0.000795687
0.00638507
9.69228e-05
0.00219149
0.000478544
0.00733366
0.000551548
-0.0130469
0.00288759
-0.0127007
0.00204456
0.00225694
-0.0119881
-0.00141289
0.000302744
-0.00191971
0.000937363
-0.00163391
-0.00983663
0.0087534
-0.000221546
0.0119245
-5.30489e-05
0.00117112
0.016444
0.00147746
0.00346064
0.00688703
0.0147539
0.00260184
-0.00674298
-0.0106006
0.0139165
-3.51407e-05
0.000880644
-0.00265726
0.00210504
-0.0019926
0.00160668
0.005216
-0.00222476
-0.00526483
0.0015558
0.0017136
0.00044184
-0.00126196
0.0150148
0.00231933
-0.0157251
0.0146686
0.00190577
0.00139059
0.012463
-3.59792e-06
-0.00925745
-0.0099418
0.0117158
0.00138759
0.000247962
-0.00131168
0.00250066
-0.00364778
0.000995942
0.00737394
0.000499495
-0.00310267
0.000433656
0.00212675
0.000338754
-0.00115164
0.0113205
0.00275221
-0.010754
0.0117157
0.00194329
0.00233838
0.00175886
-0.00142122
-0.00959511
0.00103985
0.00097218
0.000590581
-0.00983195
0.000950626
0.0148433
-0.00641717
-0.000308101
-0.000642362
-0.00327484
0.00697902
-0.00164329
-0.00392101
0.00249321
0.00142472
0.00375702
0.00265092
-0.0103298
0.00241637
-0.00925764
0.000240994
-0.00139844
0.00365734
0.000858292
0.000302548
0.00174069
-0.000645762
0.00170457
0.0106697
-0.0120608
0.0166798
-0.00570045
0.000313853
-0.00194551
0.00191176
0.00145103
0.0053182
0.00228187
-0.01989
0.00158174
-0.015466
0.00118414
-0.00112485
0.00551673
0.00167121
0.000376582
0.00316802
-0.00060727
0.00607213
0.00777634
-0.0209576
0.012115
-0.00965806
0.00107089
-0.00378458
0.00121865
0.0040139
0.00812957
0.00546578
-0.037286
0.00206796
-0.0190049
-0.00376814
-0.0035137
0.0140259
-0.00788929
0.000749335
0.0120125
0.00129045
0.0138102
0.00885535
-0.0333204
0.003168
-0.00321744
0.0125115
0.0165136
0.0107948
-0.0232883
-0.00189554
0.0154985
-0.0344099
0.0148679
-0.0357887
-0.00714654
-0.00120644
0.0332202
-0.00671353
0.00492681
0.0221869
0.00313139
0.0188758
0.00994065
-0.0444514
0.0138923
-0.00221867
0.0295657
0.00784754
0.00651093
-0.0376739
0.00513778
0.00716696
-0.0388919
0.00745798
-0.0381347
0.0134275
-0.00412461
0.0304072
0.0143482
-0.00315151
0.0315629
0.00126311
0.0393996
-0.00418737
-0.0443998
0.0021447
-0.0117222
0.0329507
0.00090459
0.0147998
-9.85358e-05
0.0158652
0.0152422
0.00553225
-0.0243302
0.00559152
-0.0230838
-0.0217226
-0.017956
-0.013857
-0.00411455
0.00239633
-0.00975792
0.00397403
0.00281976
-0.0109158
0.00272378
0.00123901
-0.00278185
-0.000686663
0.000883073
-0.00179323
0.000231526
0.00159353
-0.00160771
0.00252968
-0.0182886
0.000157878
-0.0116595
-0.00639511
-0.0132642
-0.00534165
0.00160626
-0.0161284
0.00196646
0.00210685
-0.0203496
0.00215378
0.00103919
-0.00235828
-0.000620016
0.00601074
-0.00252725
0.000422753
0.00344014
-0.00126545
0.00341387
-0.01323
0.000779684
-0.0086243
-0.0105774
-0.0231538
-0.00840524
0.00195134
-0.0195258
0.00397238
0.00532863
-0.0380755
0.0013729
0.00363244
0.00937264
0.00133089
0.0136944
0.00424756
0.000853642
0.0130224
-0.00391921
0.012951
-0.00365507
0.0126536
-0.00953278
-0.00384487
-0.036604
0.00194801
0.0152724
-0.0367235
-0.0166544
0.0159185
-0.0353938
0.0111383
-0.024123
0.00592116
0.00225604
0.0208044
0.00761501
0.00378705
0.0234786
-0.00179407
0.033538
-0.0155405
0.0304662
-0.00746066
-0.00812716
-0.0458472
-0.0048732
0.00741855
-0.0392543
-0.00783133
0.00733298
-0.0397546
0.00667464
-0.0386137
-0.0134762
0.001098
0.0405767
-0.0116413
-0.00317352
0.0321415
-0.00320401
0.0317645
-0.00204296
0.0335852
0.00416287
-0.0175256
-0.0448933
-6.62049e-06
0.0147968
-0.000859132
0.0156275
0.0145172
-0.00478815
-0.0207391
-0.00445577
-0.0219828
-0.023072
0.0157591
0.016177
)
;

boundaryField
{
    fuel
    {
        type            calculated;
        value           nonuniform List<scalar> 
36
(
0.000128066
0.000211736
0.00012807
0.000128066
0.000211736
0.000128069
0.000128066
0.000211737
0.000128069
-0.000128066
-0.000211735
-0.00012807
-0.000128066
-0.000211736
-0.000128069
-0.000128066
-0.000211737
-0.000128069
0
0
0
0
0
0
0
0
0
0
0
0
0
0
0
0
0
0
)
;
    }
    primary_air
    {
        type            calculated;
        value           nonuniform List<scalar> 9(-0.00319388 -0.00527549 -0.00319088 -0.00319452 -0.00527551 -0.00319139 -0.00319436 -0.00527593 -0.0031915);
    }
    Secondary_air_RHS
    {
        type            calculated;
        value           nonuniform List<scalar> 9(0.00525037 0.00844292 0.00525063 0.00523976 0.00841124 0.0052409 0.00523511 0.00843024 0.00523724);
    }
    Secondary_air_LHS
    {
        type            calculated;
        value           nonuniform List<scalar> 9(0.00524706 0.00843326 0.00524466 0.00523626 0.00840442 0.00523405 0.00523203 0.00842508 0.00522987);
    }
    outlet
    {
        type            calculated;
        value           nonuniform List<scalar> 
18
(
-0.0540473
0.0809527
-0.00292588
-0.0545327
0.0694724
-0.0399346
-0.0539941
0.0649381
-0.0517967
-0.0533623
0.0640388
-0.0507648
-0.0537362
0.0704925
-0.0388956
-0.0534577
0.0819967
-0.00262762
)
;
    }
    stove_body
    {
        type            calculated;
        value           uniform 0;
    }
    frontAndBack
    {
        type            empty;
        value           nonuniform 0();
    }
}


// ************************************************************************* //
