/*--------------------------------*- C++ -*----------------------------------*\
  =========                 |
  \\      /  F ield         | OpenFOAM: The Open Source CFD Toolbox
   \\    /   O peration     | Website:  https://openfoam.org
    \\  /    A nd           | Version:  6
     \\/     M anipulation  |
\*---------------------------------------------------------------------------*/
FoamFile
{
    version     2.0;
    format      ascii;
    class       volScalarField;
    location    "5";
    object      T;
}
// * * * * * * * * * * * * * * * * * * * * * * * * * * * * * * * * * * * * * //

dimensions      [0 0 0 1 0 0 0];

internalField   nonuniform List<scalar> 
297
(
291.133
291.121
291.133
293.016
293.017
293.021
291.133
291.122
291.134
291.159
291.156
291.249
293.284
293.397
294.052
291.16
291.159
291.248
291.471
291.433
291.661
299.513
303.035
301.765
291.457
291.444
291.63
324.142
324.43
309.323
301.722
308.886
297.038
323.293
320.009
305.876
350.131
336.138
351.525
329.823
318.978
324.205
348.016
343.034
350.714
350.601
327.673
361.014
334.712
335.677
333.761
347.886
331.153
363.6
334.26
322.243
339.062
352.769
350.112
356.308
331.773
324.355
339.403
329.374
322.086
331.871
352.753
354.436
356.224
323.774
324.042
338.179
319.92
313.979
324.578
352.683
335.083
351.99
312.774
315.057
324.984
351.623
321.713
361.223
341.676
347.498
345.482
348.535
325.035
363.762
345.147
320.935
349.195
346.098
347.501
347.504
342.285
324.449
350.152
339.775
320.879
345.72
350.726
347.734
354.08
337.121
324.384
346.27
307.856
309.29
313.184
336.856
320.09
351.874
304.76
305.69
307.181
302.766
304.913
310.529
307.768
318.383
349.992
302.13
304.416
304.997
302.612
303.296
306.314
308.654
316.359
333.438
302.986
304.584
305.129
305.188
302.502
303.063
335.512
304.691
304.37
301.034
300.184
299.685
309.293
304.284
305.136
348.096
344.591
333.682
304.77
301.738
301.494
307.376
304.836
306.691
333.555
333.794
333.494
305.063
303.391
308.013
301.986
301.593
305.871
311.631
331.813
333.137
299.288
302.006
302.569
302.458
301.936
302.955
313.905
315.472
307.827
300.856
301.355
301.945
302.728
302.497
302.843
310.563
308.449
308.018
302.455
301.797
302.19
302.601
302.686
302.059
302.634
304.305
303.497
298.087
299.035
298.346
303
302.563
301.726
302.783
304.129
304.16
297.607
300.158
299.94
303.537
302.166
301.126
303.002
306.422
308.62
297.253
301.139
302.509
301.368
300.472
300.196
301.072
305.395
306.026
296.98
301.932
301.104
298.204
297.97
297.03
300.154
302.878
304.306
293.967
294.849
296.904
291.637
291.421
290.698
291.196
288.607
285.605
290.502
290.187
298.994
302.657
303.201
303.168
304.161
304.403
303.764
299.559
300.397
300.108
302.448
303.145
303.402
305.188
304.445
303.861
300.714
301.004
299.522
301.894
302.785
304.173
326.484
314.633
305.706
307.717
301.411
298.664
300.998
300.977
302.694
314.913
311.455
303.274
303.568
301.155
298.067
294.341
297.924
296.375
311.651
307.067
301.972
299.641
295.849
292.689
290.78
291.534
291.636
289.441
290.383
291.87
301.639
291.417
290.803
)
;

boundaryField
{
    fuel
    {
        type            fixedValue;
        value           uniform 293;
    }
    primary_air
    {
        type            fixedValue;
        value           uniform 293;
    }
    Secondary_air_RHS
    {
        type            fixedValue;
        value           uniform 293;
    }
    Secondary_air_LHS
    {
        type            fixedValue;
        value           uniform 293;
    }
    outlet
    {
        type            inletOutlet;
        inletValue      uniform 293;
        value           nonuniform List<scalar> 
18
(
293
289.442
293
293
290.383
293
293
291.872
293
293
291.201
293
293
288.611
293
293
285.609
293
)
;
    }
    stove_body
    {
        type            fixedValue;
        value           uniform 293;
    }
    frontAndBack
    {
        type            empty;
    }
}


// ************************************************************************* //
