/*--------------------------------*- C++ -*----------------------------------*\
  =========                 |
  \\      /  F ield         | OpenFOAM: The Open Source CFD Toolbox
   \\    /   O peration     | Website:  https://openfoam.org
    \\  /    A nd           | Version:  6
     \\/     M anipulation  |
\*---------------------------------------------------------------------------*/
FoamFile
{
    version     2.0;
    format      ascii;
    class       volVectorField;
    location    "5";
    object      U;
}
// * * * * * * * * * * * * * * * * * * * * * * * * * * * * * * * * * * * * * //

dimensions      [0 1 -1 0 0 0 0];

internalField   nonuniform List<vector> 
297
(
(82.4984 -0.00137352 0.24186)
(82.4943 0.040362 0.245062)
(82.4978 0.0350562 0.232147)
(0.000558666 0.0116834 0.333023)
(0.000454919 -0.0552677 0.345552)
(0.000417703 -0.0637698 0.329174)
(-82.4637 0.0171024 0.251273)
(-82.4928 0.0618181 0.248146)
(-82.4966 0.0355043 0.229752)
(82.4974 0.00338089 0.280661)
(82.4978 0.00804059 0.280884)
(82.5228 0.0230329 0.266166)
(0.000571359 0.086733 -0.104821)
(0.000471908 -0.165087 0.0266285)
(0.000433854 -0.137027 -0.113455)
(-82.4635 0.0158836 0.29771)
(-82.4967 0.0217184 0.285199)
(-82.5212 0.0318973 0.262204)
(82.5893 -0.0759832 0.560398)
(82.584 0.0302986 0.561616)
(82.6409 0.166844 0.569826)
(0.000524409 -0.144704 0.372159)
(0.00044756 -0.229208 0.248916)
(0.000398634 0.579622 0.39357)
(-82.5837 -0.0399572 0.575539)
(-82.5847 0.0540486 0.560075)
(-82.6301 0.213927 0.568943)
(59.9967 2.6374 0.83635)
(60.3284 0.888905 -4.1717)
(57.0135 1.9601 -2.69708)
(-0.0118442 -0.0147177 5.45501)
(-0.0127056 -0.449428 3.67516)
(-0.0111058 0.769337 4.06578)
(-59.8871 3.62053 0.827778)
(-59.2244 1.59331 -0.453585)
(-56.2058 0.834484 -1.89425)
(65.5017 9.57367 0.492327)
(62.9007 3.17529 -7.77872)
(65.7823 -3.56421 15.16)
(-0.0128189 8.78491 35.1959)
(-0.00998755 0.248627 21.9581)
(-0.00757131 -4.07322 36.8963)
(-65.1465 11.4162 -0.712158)
(-64.1772 4.91688 -0.972686)
(-65.7023 -0.191834 14.4304)
(64.7449 10.9572 -8.84274)
(60.9441 -3.71336 -16.5317)
(66.6965 -12.2592 2.80539)
(-0.0123307 -3.59262 46.5651)
(-0.0122699 -1.55378 11.2328)
(-0.00708423 4.02124 49.447)
(-64.2968 13.2985 -8.72416)
(-61.677 -6.28248 -4.26292)
(-67.2221 -8.37573 9.8211)
(61.9406 4.01097 -44.9827)
(59.9998 -1.11442 -29.9875)
(62.9095 -2.73157 -39.7909)
(-0.00595233 -0.78385 5.42888)
(-0.0177453 1.60864 -9.48113)
(-0.01948 0.890514 15.2288)
(-61.4968 5.71592 -44.8516)
(-60.4692 -2.3616 -25.7024)
(-63.2554 2.84496 -35.6225)
(61.756 14.2285 -28.6908)
(60.0658 -1.73455 -34.2743)
(62.2058 -13.2681 -24.0514)
(0.00807467 0.417775 1.32587)
(-0.0130084 0.242524 0.716804)
(-0.00799921 -1.5929 13.7907)
(-60.6715 15.0145 -29.5665)
(-60.5235 -4.77402 -31.0216)
(-63.5391 -5.7851 -18.4573)
(59.9596 25.9885 -32.9786)
(58.7298 -1.59815 -34.3664)
(60.7669 -25.7754 -29.8165)
(0.0179002 -1.81798 6.79028)
(-0.00790971 3.81396 -8.14683)
(-0.00626668 1.00286 14.4389)
(-58.6565 20.1777 -30.1829)
(-58.909 -12.9943 -27.7251)
(-60.8335 -20.3676 -21.677)
(57.8983 14.6405 -42.6464)
(57.3855 -1.75746 -20.7182)
(60.3686 -15.4586 -36.8998)
(-0.00687509 -2.36001 61.7347)
(-0.0174063 -1.11619 -22.8345)
(0.000764258 2.33123 65.6904)
(-57.4629 16.9218 -42.4126)
(-58.7952 -3.96288 -14.5744)
(-61.1462 -11.2353 -34.341)
(55.6348 8.65171 -47.1292)
(58.5027 -1.55464 -22.1157)
(57.2012 -8.24663 -41.9701)
(-0.0053046 -1.91887 67.839)
(-0.0177617 -0.911023 -23.3886)
(0.00272511 1.80424 72.5047)
(-55.2509 10.6368 -46.8746)
(-59.5494 -3.65701 -16.0596)
(-57.6783 -3.80717 -38.6771)
(51.5007 6.93899 -46.8017)
(59.7459 -1.53716 -24.1672)
(53.4851 -6.12288 -41.6304)
(-0.00494242 -1.4261 66.6601)
(-0.0190035 -0.620031 -20.0829)
(0.00482039 1.26659 71.7692)
(-51.1584 8.81755 -46.5995)
(-60.4376 -3.31368 -18.8598)
(-55.9751 -1.46438 -38.556)
(56.3139 38.1022 -8.45224)
(57.0453 0.687951 -10.0805)
(57.2415 -39.3443 -7.17728)
(-0.0222631 -8.20764 2.4596)
(-0.0198739 -4.36548 -6.07843)
(-0.0326149 6.6655 12.9555)
(-56.2708 33.7451 -7.01045)
(-56.4895 -7.01065 -7.79993)
(-56.5836 -38.1716 -7.92897)
(56.0041 34.1578 -3.08229)
(56.6238 0.546786 -5.92379)
(57.4463 -34.4025 -1.72001)
(-0.0255459 -0.747447 -3.27024)
(-0.0245346 -5.01361 -3.2901)
(-0.0321806 6.90366 9.20011)
(-56.2675 25.6864 1.48283)
(-56.5166 -11.4702 -0.802118)
(-56.8327 -31.3014 2.84731)
(56.3848 -2.31117 1.3341)
(56.6264 -9.62951 1.86991)
(57.0765 -12.5327 6.12314)
(-0.0309077 -9.47115 -1.80219)
(-0.0297776 -6.87559 -0.663106)
(-0.0316136 2.53608 1.68542)
(-56.6319 -9.73405 -3.24256)
(-56.8496 -6.36449 1.97574)
(-57.0644 10.7346 -3.33894)
(54.4308 -42.1222 -3.66504)
(55.4908 -45.9037 -10.9227)
(55.9403 -28.5442 -21.5586)
(-0.0918224 5.92634 7.25283)
(-0.116545 -5.79912 -8.36587)
(-0.206738 -7.95611 -11.2794)
(-55.3797 -45.0441 -3.80589)
(-54.6611 -49.3983 -7.92886)
(-54.4248 -53.5108 -8.68768)
(56.2379 -34.8837 3.63202)
(56.6677 -41.1119 -6.20624)
(55.6449 -24.1195 -23.1701)
(-0.0581265 16.2573 4.66724)
(-0.0919153 15.7292 5.52071)
(-0.190916 8.91368 11.093)
(-56.2484 -34.8461 7.91754)
(-56.2843 -40.8713 7.20765)
(-56.1645 -43.4063 4.30116)
(57.0798 -11.6703 12.5998)
(56.9777 -4.35591 4.32741)
(55.7107 -21.6363 -31.7257)
(-0.0397006 15.4731 0.703049)
(-0.0595797 18.8711 0.863142)
(-0.101122 30.7252 7.33083)
(-56.8845 -1.73872 7.43593)
(-56.7308 4.17679 8.66688)
(-57.1251 16.6786 12.3687)
(55.7758 26.8118 -21.0476)
(55.0256 43.4588 -7.65847)
(54.2591 39.3421 -2.45868)
(-0.216519 1.24385 -2.32034)
(-0.139289 -11.0592 3.34726)
(-0.100512 -11.9465 1.24985)
(-54.7078 48.7281 -7.24348)
(-55.3132 42.6192 -5.48694)
(-55.845 39.2508 -3.08331)
(55.1635 23.7813 -22.1499)
(56.2652 39.3574 -7.06194)
(55.1579 35.3612 3.21914)
(-0.17505 -6.005 8.70709)
(-0.0866067 -5.67844 0.0428152)
(-0.0570703 -9.41801 -3.54118)
(-55.7037 38.272 5.07578)
(-55.9758 34.1236 6.34475)
(-55.8844 31.2407 6.66941)
(55.0683 21.1392 -30.1939)
(56.4025 2.60373 8.42636)
(56.1478 10.8914 11.1915)
(-0.0947361 -25.2732 8.58722)
(-0.0581674 -13.6502 2.02816)
(-0.0452376 -12.3999 -0.523915)
(-56.0806 -15.4371 10.7486)
(-56.4041 -6.24574 5.92271)
(-56.3732 -0.555208 5.53559)
(55.3843 -9.01357 -11.4923)
(55.3976 1.96055 -30.8025)
(55.4277 19.12 -27.4711)
(-0.0173985 2.32882 -3.82078)
(-0.120461 -4.70451 -8.58401)
(-0.222281 9.37107 -7.96154)
(-53.8827 22.7299 -28.3835)
(-53.4185 28.6032 -20.3635)
(-55.1045 47.2094 -14.9304)
(55.41 -4.93331 9.26157)
(55.5226 7.5163 -38.5771)
(55.3064 18.9666 -37.5446)
(-0.0831071 1.30726 12.9714)
(-0.191402 -0.822691 7.72856)
(-0.236499 7.51539 9.87462)
(-54.3571 6.26071 -50.6619)
(-54.5281 19.2879 -26.7009)
(-55.9807 37.044 -3.40386)
(55.2298 0.664821 6.49974)
(58.1753 4.0158 -46.8802)
(56.4934 11.4853 -48.3561)
(-0.160141 -0.695337 10.6665)
(-0.237305 -11.3302 10.8435)
(-0.224674 -19.6342 16.6318)
(-56.7185 3.9899 -65.8552)
(-55.0038 19.2259 -20.1409)
(-54.9239 -8.47668 21.2768)
(55.4101 6.13446 -11.8089)
(55.8416 2.31351 -64.1272)
(55.6357 -7.13517 -81.7225)
(-0.358631 1.1671 59.9915)
(-0.36593 -1.55864 33.4907)
(-0.373953 -11.945 31.8047)
(-56.2393 -8.06283 -96.434)
(-56.7478 9.5406 19.2525)
(-56.679 -0.749579 62.0967)
(54.597 0.838029 -124.141)
(54.6614 2.05555 -130.776)
(54.4826 6.32487 -127.157)
(-0.210931 3.25115 80.1239)
(-0.206695 4.77622 70.2428)
(-0.215721 0.967044 66.6319)
(-55.0067 2.19104 -129.575)
(-55.0921 -4.66872 -28.0706)
(-55.0383 2.07688 106.002)
(52.4559 0.181031 -157.707)
(52.4936 0.211165 -159.288)
(52.2701 -0.870817 -158.107)
(0.372972 -0.0735713 160.773)
(0.39637 2.01034 175.946)
(0.418285 0.649334 203.41)
(-51.6137 -6.94484 -148.834)
(-51.1568 -6.8939 -106.267)
(-52.3901 -2.66896 -3.42612)
(55.5273 -21.2217 -30.3227)
(55.5405 -2.2258 -33.0919)
(55.5156 9.06995 -13.2808)
(-0.210386 -10.6908 -11.5074)
(-0.0867207 0.570589 -10.869)
(0.0321482 -4.10935 -6.70888)
(-55.2212 -52.1568 -17.3396)
(-53.3327 -31.3981 -23.067)
(-53.9526 -24.7467 -31.8494)
(55.4699 -19.5827 -38.6875)
(55.5896 -6.31675 -39.6822)
(55.5105 4.34638 10.3597)
(-0.23672 -8.4386 11.7946)
(-0.177572 -1.60936 9.42784)
(-0.0494544 -2.56276 11.9273)
(-56.1376 -40.8304 -4.76716)
(-54.4443 -21.5506 -29.6687)
(-54.4727 -6.87906 -55.1023)
(56.6287 -12.2351 -51.1675)
(58.3201 -2.51262 -48.5284)
(55.4027 -1.62557 3.97494)
(-0.238752 24.0522 16.2198)
(-0.237228 13.382 11.6533)
(-0.138361 0.892333 6.65268)
(-55.8701 7.35608 22.3357)
(-54.8621 -20.572 -21.6918)
(-57.0172 -3.88931 -70.7672)
(55.7534 8.32349 -83.5142)
(55.9529 -3.04631 -67.4312)
(55.6476 -6.04243 -13.2597)
(-0.38651 13.9698 35.6047)
(-0.372412 0.830867 36.7708)
(-0.360678 -1.14257 59.6391)
(-57.1152 0.148959 64.9318)
(-56.6177 -9.08919 21.4523)
(-56.4484 8.86967 -100.116)
(53.9032 -6.60739 -131.479)
(54.6057 -1.86899 -133.803)
(54.1507 -0.842489 -127.112)
(-0.23105 -0.549592 69.9438)
(-0.215938 -4.51714 70.7014)
(-0.217525 -3.3732 83.0711)
(-55.502 -3.2735 108.898)
(-55.2358 6.72082 -63.9155)
(-54.5813 -2.66597 -133.708)
(52.1908 0.751331 -160.369)
(52.457 -0.215581 -162.457)
(52.3576 -0.187619 -160.143)
(0.395321 -0.482904 203.596)
(0.363672 -1.61569 174.538)
(0.339821 -0.0532025 163.628)
(-52.8423 2.55505 -3.90594)
(-51.3825 7.38296 -109.368)
(-51.6164 6.42616 -152.64)
)
;

boundaryField
{
    fuel
    {
        type            fixedValue;
        value           uniform (0 0 0.25);
    }
    primary_air
    {
        type            fixedValue;
        value           uniform (0 0 2.5);
    }
    Secondary_air_RHS
    {
        type            fixedValue;
        value           uniform (0 41.6667 0);
    }
    Secondary_air_LHS
    {
        type            fixedValue;
        value           uniform (0 -41.6667 0);
    }
    outlet
    {
        type            pressureInletOutletVelocity;
        value           nonuniform List<vector> 
18
(
(0 0 -160.369)
(0.395321 -0.482904 203.596)
(0 0 -3.90594)
(0 0 -162.457)
(0.363672 -1.61569 174.538)
(0 0 -109.368)
(0 0 -160.143)
(0.339821 -0.0532025 163.628)
(0 0 -152.64)
(0 0 -157.707)
(0.372972 -0.0735713 160.773)
(0 0 -148.834)
(0 0 -159.288)
(0.39637 2.01034 175.946)
(0 0 -106.267)
(0 0 -158.107)
(0.418285 0.649334 203.41)
(0 0 -3.42612)
)
;
    }
    stove_body
    {
        type            noSlip;
    }
    frontAndBack
    {
        type            empty;
    }
}


// ************************************************************************* //
