/*--------------------------------*- C++ -*----------------------------------*\
  =========                 |
  \\      /  F ield         | OpenFOAM: The Open Source CFD Toolbox
   \\    /   O peration     | Website:  https://openfoam.org
    \\  /    A nd           | Version:  6
     \\/     M anipulation  |
\*---------------------------------------------------------------------------*/
FoamFile
{
    version     2.0;
    format      ascii;
    class       volScalarField;
    location    "4";
    object      p;
}
// * * * * * * * * * * * * * * * * * * * * * * * * * * * * * * * * * * * * * //

dimensions      [1 -1 -2 0 0 0 0];

internalField   nonuniform List<scalar> 
297
(
111915
111915
111915
182442
182442
182442
111915
111915
111915
111915
111915
111915
182442
182442
182442
111915
111915
111915
111915
111915
111915
182443
182443
182443
111915
111915
111915
97528.3
97553.8
97538.5
159446
159430
159447
97538.5
97553.8
97528.2
97476.4
97500.5
97497.9
159256
159273
159256
97498.3
97500.6
97476.2
97369.8
97495.9
97451.2
158212
158764
158211
97451.1
97496.8
97370.1
97384.1
97444.3
97343.6
159280
158986
159280
97343.1
97444.4
97384.1
97341.6
97386.4
97263.4
159211
159162
159212
97261.2
97385.2
97341.4
97275.1
97380.7
97152.7
158959
159034
158961
97152
97380.3
97275.7
97232.6
97587.9
97187
156383
158288
156387
97186.9
97590.7
97233.3
97202.7
97584.3
97152.1
156174
158351
156178
97151.7
97586.5
97203.4
97189.1
97569.7
97145.3
156372
158515
156374
97144.8
97569.1
97189.3
97598.3
97626.5
97547.9
158932
159032
158933
97550.6
97628.1
97601.2
97662.8
97674.8
97633.7
159048
159046
159048
97637.2
97676.9
97666.3
97685.8
97684.3
97675.7
159124
159074
159124
97679.5
97686.7
97689.5
97692.3
97634.9
97600.2
158535
158688
158902
97664.4
97604.3
97558.7
97636.2
97537.9
97453.8
158796
158795
158910
97631.5
97541.5
97448.3
97611.8
97511.9
97432.5
158914
158801
158724
97614.8
97521.7
97419.6
97557.1
97601.1
97660.2
158904
158689
158536
97605.3
97640.8
97698.3
97446.7
97538.1
97627.2
158912
158797
158797
97459
97544.1
97642.3
97418.2
97518.2
97610.5
158726
158803
158915
97437.5
97518.4
97618
98421.5
98174.5
97761.5
159070
159053
159028
98669.7
98379.3
97876.6
98124.1
97811.5
97530.7
158983
158945
158985
98345.4
97963.3
97598.4
97787.3
97508.8
97325.7
158764
158635
158600
97990.5
97617.2
97374.6
96601.2
96524.8
96505
157252
157153
157085
96710.7
96619.1
96605.3
95326.3
95367.3
95422.6
153235
153218
153219
95236.7
95281.6
95347.9
92443.5
92524.8
92588.9
141633
141655
141690
92057.6
92130.9
92195
97872.7
98377.1
98668.3
159026
159051
159068
97761.4
98172.3
98418.1
97595.4
97963
98347.6
158983
158944
158982
97529.8
97808.3
98119.7
97373.4
97619.6
97996.6
158598
158634
158763
97323.5
97504
97782
96612.9
96629.6
96726.1
157085
157153
157252
96495
96513.6
96588.9
95337
95266.6
95215
153221
153221
153237
95436.7
95383.4
95344
92198.1
92133.9
92060.4
141691
141656
141634
92586.8
92522.7
92441.6
)
;

boundaryField
{
    fuel
    {
        type            zeroGradient;
    }
    primary_air
    {
        type            zeroGradient;
    }
    Secondary_air_RHS
    {
        type            zeroGradient;
    }
    Secondary_air_LHS
    {
        type            zeroGradient;
    }
    outlet
    {
        type            totalPressure;
        rho             rho;
        psi             none;
        gamma           1;
        p0              uniform 100000;
        value           nonuniform List<scalar> 
18
(
93551.3
100000
93840.9
93170.6
100000
93536.5
92005.4
100000
92324.6
92324.5
100000
92005.4
93537.4
100000
93169.2
93841.8
100000
93549.9
)
;
    }
    stove_body
    {
        type            zeroGradient;
    }
    frontAndBack
    {
        type            empty;
    }
}


// ************************************************************************* //
