/*--------------------------------*- C++ -*----------------------------------*\
  =========                 |
  \\      /  F ield         | OpenFOAM: The Open Source CFD Toolbox
   \\    /   O peration     | Website:  https://openfoam.org
    \\  /    A nd           | Version:  6
     \\/     M anipulation  |
\*---------------------------------------------------------------------------*/
FoamFile
{
    version     2.0;
    format      ascii;
    class       surfaceScalarField;
    location    "4";
    object      phi;
}
// * * * * * * * * * * * * * * * * * * * * * * * * * * * * * * * * * * * * * //

dimensions      [1 0 -1 0 0 0 0];

internalField   nonuniform List<scalar> 
675
(
-2.58614e-06
-0.000213958
0.000335059
1.68293e-06
-0.000225998
0.000340249
-0.000217153
0.000337353
1.55622e-05
0.000213959
-0.000250286
-4.59075e-06
0.000225999
-0.000238641
0.000217154
-0.0002457
-2.58603e-06
0.000335061
1.68305e-06
0.00034025
0.000337354
-2.93059e-06
1.92487e-05
0.000318747
1.50664e-06
1.13121e-05
0.000324509
1.80088e-05
0.000320856
4.67586e-06
-1.92472e-05
-0.000216486
-3.45591e-06
-1.13105e-05
-0.000207889
-1.80071e-05
-0.000213161
-2.93045e-06
0.000318749
1.50681e-06
0.000324512
0.000320859
-8.33812e-06
0.000208575
4.7849e-06
0.000192881
0.00020713
7.44568e-06
-0.000208577
-7.88102e-06
-0.000192883
-0.000207132
-8.33781e-06
4.78523e-06
-0.00586446
0.00589592
0.00317424
0.0061085
0.0031226
-0.0118874
0.00596541
0.00335213
0.00175175
-0.00596933
0.0153544
-0.00174233
-0.00312416
0.0149837
-0.00589271
0.0153615
-0.00609467
0.00333121
0.00587643
-0.0118874
0.00319228
-0.00145003
0.00813777
-0.00351317
0.000311884
0.00288696
-0.0165361
0.00860974
-0.00494612
-0.000637418
-0.00860028
0.0327295
0.000606824
-0.00288829
0.0195145
-0.00814808
0.0327256
-0.000352335
-0.00491679
0.00140824
-0.0165368
-0.00354841
0.0069799
0.0123499
-0.0228398
0.000830213
0.00528943
-0.0156525
0.0151928
-0.0193106
-0.0319633
-0.0151937
0.0922479
0.0319523
-0.0053031
-0.0338084
-0.0123444
0.0922125
-0.000836157
-0.0192706
-0.00698766
-0.0157118
-0.0228823
-0.00120789
-0.00649461
-0.0199273
0.0276307
0.00519656
0.00758877
-0.0263572
0.0123712
-0.00551434
-0.0132512
0.0239606
0.0190896
0.00550734
0.0402876
-0.0713759
-0.019064
-0.00758395
0.00428971
0.049039
0.006503
0.0402755
-0.0713658
-0.00519072
-0.0132285
0.0239288
0.0012202
-0.0263645
0.0123621
-0.0199405
0.0276635
0.00238446
-0.00475582
-0.0175566
0.000259777
-0.00162855
-0.0226038
-0.00185258
-0.0111376
0.00858138
0.00184961
0.0250994
-0.00856707
0.00162769
0.0181816
0.0047615
0.0250955
-0.00025041
-0.0111306
-0.00238068
-0.0226071
-0.0175592
-0.00283376
-0.000322601
-0.0143961
-0.0072902
-0.00124867
-0.0168918
-0.00295575
-0.0154647
-0.0101502
0.0029595
0.0319641
0.0101423
0.00125841
-0.00461746
0.000330207
0.0319565
0.00729018
-0.0154697
0.00282838
-0.0168931
-0.0144021
0.000839433
-0.00271804
-0.0241586
-0.000164296
-0.00181422
-0.0128308
-0.00178643
-0.0208838
-0.0027734
0.00179271
0.085364
0.00277315
0.00188344
-0.043054
0.00271189
0.0853446
0.000167178
-0.0208424
-0.000832363
-0.0128314
-0.0242011
0.000370993
-0.00144035
-0.0262857
0.000140791
-0.00126858
-0.0113319
-0.00111713
-0.0228208
-0.00138816
0.00112064
0.0790487
0.00138844
0.00131529
-0.0484166
0.00143681
0.0790448
-0.000135992
-0.0227814
-0.000362766
-0.0112891
-0.0263245
0.000319087
-0.00217042
0.000144198
0.00121631
-0.00191106
-0.00154359
0.00190712
0.0015436
-0.00124643
0.00217398
-0.000140138
-0.000316543
0.00256036
-0.00251089
-0.00392281
-0.0105224
-0.00586423
-0.00108018
-0.00738525
-0.0038178
-0.00502132
-0.0124891
-0.00154386
0.00381628
0.0162824
0.0108973
0.00154299
0.00108115
-0.00986545
0.00251068
0.0162753
0.010897
0.00586434
-0.00502408
-0.0124957
-0.00256332
-0.00738587
-0.00392577
-0.0105283
0.00296704
0.00043938
0.000895738
-0.00822453
-0.00461374
0.00124337
-0.00104605
-0.000210868
0.000436436
-0.00986011
-0.000848193
0.000209824
0.00487814
0.0124807
0.000847794
-0.00124288
-0.00907498
-0.000441258
0.00487487
0.01248
0.00461402
0.000435596
-0.00986615
-0.00297011
-0.00104627
0.000893974
-0.00823029
0.00120349
0.00211143
-0.0024187
-0.00243078
0.00259005
0.00182811
-0.00382202
0.00194758
-0.00182915
0.00686979
-0.00194746
-0.00258969
-0.00211245
0.00686938
0.00243149
-0.00382756
-0.00120613
-0.00242374
-0.0120143
-0.00168044
0.00120496
-0.0123765
-0.000870065
0.00123089
-0.00101122
0.00136121
-0.0127287
0.00689779
0.00123977
0.00107967
0.00640361
0.000718333
-0.00109373
0.00094659
0.000627905
0.00381818
-0.0103957
0.00110871
-0.0107995
0.00112459
0.00134676
-0.0111969
-0.00952528
-0.00195273
0.002822
-0.0096831
-0.000608835
0.0019959
-0.000303221
0.000776536
-0.0087978
0.0111391
0.00134292
-0.000874291
0.0104263
0.000499626
-0.00148876
0.000523055
0.00256888
0.00765951
-0.00822949
0.00245262
-0.00847147
0.00186886
0.00145856
-0.00805714
-0.00128987
0.000288957
-0.000144107
0.000848607
0.00081916
-0.000189199
0.00680482
-0.00052005
0.00703587
-0.0008706
-0.000533274
0.0109576
-0.000489447
0.000511188
0.00143915
0.0107972
-0.000949324
0.00134601
-0.0111959
0.0103911
-0.00072047
0.00112445
-0.00124075
0.0011084
-0.00640022
0.00100834
0.000628374
0.00381355
-0.00689599
0.000867719
-0.00109323
0.00167885
0.00108099
0.0123825
0.00136145
-0.0127334
0.0120214
0.00123074
0.00120497
0.00846933
-0.000525219
0.00145721
-0.008058
0.00822469
-0.000501628
0.00186865
-0.00134536
0.0024529
-0.0104245
0.000301881
0.00256873
0.00765641
-0.0111385
0.000607424
-0.00148906
0.0019507
-0.00087366
0.00968891
0.000777691
-0.00880093
0.00953238
0.00199633
0.00282206
-0.000512741
0.000530979
0.00143637
0.000485275
0.000868747
0.000518555
-0.00703456
-0.00082109
0.0109549
-0.00680479
-0.000850701
-0.000290733
0.00014949
-0.000190904
0.0012962
0.00694355
0.00028305
-0.00722945
0.011404
-0.00125434
-0.00320931
-2.70803e-05
0.000232065
0.00429204
-0.00027884
-0.00373002
-0.000743198
0.00103709
0.00274398
-3.80481e-06
0.00304698
0.00780553
-0.00808133
0.0127872
-0.00394199
5.24895e-05
0.00496888
0.00026889
-0.0124692
0.00814223
-0.000603323
-0.00578229
0.000405258
-9.18469e-05
0.00327694
-0.000324531
-0.00641331
-0.00395042
0.000618227
0.00874993
-0.000470813
0.00762897
0.00534226
-0.0137462
0.00852118
-0.00650001
-0.000695895
0.00502362
0.00232215
-0.0198056
0.00409757
-0.0008477
-0.00401017
-0.000400167
0.00584011
0.00071425
-0.00258678
-0.00221835
-0.00682386
0.00132994
0.0141105
-2.87636e-05
0.0113886
0.00488359
-0.0212223
0.00540021
-0.00568443
0.00448642
0.00454166
0.00665769
-0.0309849
0.00541358
0.00315978
-0.00804828
0.0024126
0.00883303
0.0112198
-0.00751034
0.000732633
0.0128762
-0.00347713
0.0190935
-0.00331701
0.0299954
0.00327588
-0.0320249
0.00604702
-0.0119141
0.00722745
-0.0124374
0.0105163
-0.0290828
-0.0115689
0.00712571
-0.0160222
0.00662438
-0.00933919
-7.38991e-05
-0.0102748
0.0215955
-0.00343118
-0.00654716
0.0361218
-0.00627323
0.0394609
-0.0128002
-0.0294897
-0.0124525
-0.0188426
-0.0115227
-0.00864633
0.0223241
-0.00647857
0.0214923
0.0230294
-0.00767271
-0.021726
-0.00774066
-0.0206183
-0.0218421
-0.00762667
-0.00635764
-0.012784
1.2895e-06
5.13487e-05
-0.00780383
-0.00103929
-0.00394431
0.000277048
-0.00808541
0.000747204
2.51197e-05
0.00304734
-0.00428993
0.00125296
0.00274492
-0.000283999
-0.00372907
-0.0114034
0.000233998
-0.00694241
-0.0032058
-0.0072242
-0.00852051
0.000468953
-0.000698062
-0.00534491
-0.000620091
-0.0065041
0.000328063
-0.0137615
0.00395337
-0.000406651
0.00762927
-0.0032765
0.000602512
0.00875206
-0.00026619
-0.00641174
-0.00813932
-8.80342e-05
-0.00496485
-0.00577578
-0.0124555
-0.00540251
2.74196e-05
0.00448503
-0.00489218
-0.00133097
-0.00568631
0.00258995
-0.0212338
0.0068249
0.000398622
0.0113909
-0.000714521
0.000847599
0.0141126
-0.00232059
-0.00221628
-0.00409309
0.00584448
-0.00501515
-0.00400561
-0.0197975
-0.00605888
0.00331624
0.00721677
-0.00330897
0.00348033
-0.0119241
0.00751607
-0.0320305
-0.012876
-0.00241039
0.0299915
-0.0112204
-0.00315421
0.0190891
-0.0066517
0.000728083
-0.00539655
0.00883726
-0.00451068
-0.00804556
-0.030986
0.012473
0.00628383
-0.0115163
0.0128551
0.00655413
-0.0188375
0.0102784
-0.0294799
0.00343122
-0.0066176
0.0394636
7.52176e-05
-0.00712265
0.0361241
-0.0105137
0.0215985
0.0115431
-0.00934043
0.0123874
-0.0160228
-0.0290858
0.00635848
0.021847
0.00762701
0.020623
0.021739
0.0077404
-0.0230248
0.00767166
-0.0214877
-0.0223139
0.00647776
0.00864553
)
;

boundaryField
{
    fuel
    {
        type            calculated;
        value           nonuniform List<scalar> 
36
(
0.000118511
0.000193196
0.000118511
0.000118511
0.000193196
0.000118511
0.000118511
0.000193196
0.000118511
-0.000118512
-0.000193195
-0.000118512
-0.000118512
-0.000193195
-0.000118512
-0.000118512
-0.000193195
-0.000118512
0
0
0
0
0
0
0
0
0
0
0
0
0
0
0
0
0
0
)
;
    }
    primary_air
    {
        type            calculated;
        value           nonuniform List<scalar> 9(-0.00320711 -0.00524323 -0.00320745 -0.00320795 -0.00524267 -0.00320795 -0.00320745 -0.00524323 -0.00320711);
    }
    Secondary_air_RHS
    {
        type            calculated;
        value           nonuniform List<scalar> 9(0.00319589 0.00514261 0.00319741 0.00319474 0.00513575 0.00319643 0.00319452 0.0051422 0.00319597);
    }
    Secondary_air_LHS
    {
        type            calculated;
        value           nonuniform List<scalar> 9(0.00319739 0.00514247 0.00319589 0.00319641 0.00513562 0.00319473 0.00319596 0.00514212 0.0031945);
    }
    outlet
    {
        type            calculated;
        value           nonuniform List<scalar> 
18
(
-0.0397186
0.0765933
-0.0388478
-0.0407261
0.0783018
-0.0396826
-0.043589
0.0733212
-0.0427582
-0.042757
0.0733201
-0.0435909
-0.0396787
0.078302
-0.0407314
-0.0388437
0.0765934
-0.0397239
)
;
    }
    stove_body
    {
        type            calculated;
        value           uniform 0;
    }
    frontAndBack
    {
        type            empty;
        value           nonuniform 0();
    }
}


// ************************************************************************* //
