/*--------------------------------*- C++ -*----------------------------------*\
  =========                 |
  \\      /  F ield         | OpenFOAM: The Open Source CFD Toolbox
   \\    /   O peration     | Website:  https://openfoam.org
    \\  /    A nd           | Version:  6
     \\/     M anipulation  |
\*---------------------------------------------------------------------------*/
FoamFile
{
    version     2.0;
    format      ascii;
    class       volScalarField;
    location    "1.5";
    object      p;
}
// * * * * * * * * * * * * * * * * * * * * * * * * * * * * * * * * * * * * * //

dimensions      [1 -1 -2 0 0 0 0];

internalField   nonuniform List<scalar> 
297
(
122864
122864
122864
203677
203677
203677
122862
122862
122862
122864
122864
122864
203677
203677
203677
122862
122862
122862
122864
122864
122864
203677
203677
203677
122862
122862
122862
97118.7
97123.8
97103.6
160897
160877
160871
97135.2
97140.7
97131.4
97193.7
97195.8
97164.9
160606
160675
160556
97164
97185.4
97183.4
97003.1
97131.3
97033.9
158402
159718
158383
97051
97178
97050.2
95951.4
96298
96072.2
159326
159138
159397
96033.4
96289.1
95966.2
96530.8
96687.2
96604.9
160340
160132
160392
96583
96656.1
96527.6
96749
96953.3
96745.6
160441
160417
160407
96752.6
96891.4
96674.1
95266.1
96946.5
94798.6
153119
158574
152662
95011.8
96979.3
95214.6
95026.2
96891.1
94477.7
152426
158567
151979
94729.3
96921
94956.4
94992.5
96815.4
94361.8
152850
158664
152439
94638.6
96839.4
94922.5
97239
97364.4
97142.1
160572
160531
160426
97232.3
97339
97126.6
97273.3
97412.3
97254.5
160629
160562
160453
97354.9
97409.1
97195.4
97299.5
97406.1
97292.8
160655
160613
160473
97395.9
97400.6
97249.8
96980.3
96869.1
96762.9
160324
160271
160129
97537.4
97714.7
98374.3
96922.9
96621.8
96310.9
160308
160201
159903
97198.9
97193.6
97656.2
96911.9
96547
96173.7
160301
160151
159808
97106.6
96956.8
96874.6
98270.1
97663.2
97525.4
160126
160334
160454
96819
96945.5
97081.6
97602.1
97169.1
97201.5
159909
160231
160389
96409.3
96731.9
97026.9
96921.8
96985.4
97113.9
159801
160175
160401
96271
96657.4
97015.5
98686.5
98957.9
98860.2
159901
159892
159967
99286.2
98433.3
97289.2
98255.4
98448.8
98274
159527
159430
159568
98273.5
97239.3
96502.7
97820.8
97911.2
97600.7
158964
158971
159082
97118.1
96354.9
95942
95585.8
95509.4
95433.7
155067
155055
154854
92743.2
92709.5
92637.3
90270.1
90200.8
90198.7
147138
147114
147061
88946.7
88916.2
88809.9
84119.6
84107
84094.6
135103
135017
134918
86519.2
86668.7
86834.8
97286.3
98502
99392.2
160026
159989
160006
98893.2
99009.9
98822.3
96457.1
97254.9
98340
159636
159568
159639
98269.3
98528.8
98434.6
95886.7
96348.8
97159.2
159133
159059
159000
97603.8
98004.2
97969.7
92489.4
92566.6
92607.1
154502
154677
154692
95128.7
95138.6
95203.4
88542.3
88653.4
88686.8
146619
146671
146697
89949.3
89951.9
90031.1
86549.2
86377.5
86225.9
134442
134544
134630
83805.9
83819.4
83833.6
)
;

boundaryField
{
    fuel
    {
        type            zeroGradient;
    }
    primary_air
    {
        type            zeroGradient;
    }
    Secondary_air_RHS
    {
        type            zeroGradient;
    }
    Secondary_air_LHS
    {
        type            zeroGradient;
    }
    outlet
    {
        type            totalPressure;
        rho             rho;
        psi             none;
        gamma           1;
        p0              uniform 100000;
        value           nonuniform List<scalar> 
18
(
99995.7
100000
86376.1
93282.5
100000
86296.2
87764.4
100000
86429
86650.2
100000
87945.5
86488.2
100000
93470.3
86591.8
100000
99997.2
)
;
    }
    stove_body
    {
        type            zeroGradient;
    }
    frontAndBack
    {
        type            empty;
    }
}


// ************************************************************************* //
