/*--------------------------------*- C++ -*----------------------------------*\
  =========                 |
  \\      /  F ield         | OpenFOAM: The Open Source CFD Toolbox
   \\    /   O peration     | Website:  https://openfoam.org
    \\  /    A nd           | Version:  6
     \\/     M anipulation  |
\*---------------------------------------------------------------------------*/
FoamFile
{
    version     2.0;
    format      ascii;
    class       volScalarField;
    location    "1.5";
    object      p;
}
// * * * * * * * * * * * * * * * * * * * * * * * * * * * * * * * * * * * * * //

dimensions      [1 -1 -2 0 0 0 0];

internalField   nonuniform List<scalar> 
297
(
111314
111314
111314
182589
182589
182589
111314
111314
111314
111314
111314
111314
182589
182589
182589
111314
111314
111314
111314
111314
111314
182590
182590
182590
111314
111314
111314
97263
97283.6
97264.2
159755
159741
159756
97263.5
97284.1
97264.3
97216.9
97237.3
97217.9
159555
159588
159554
97217.2
97236
97217.6
97116.1
97253.4
97121.8
158208
158958
158211
97117.9
97251.4
97120.8
97022.1
97145.4
97018.7
159417
159168
159413
97022.2
97145.7
97020.4
96986.3
97098.3
96981.9
159431
159396
159429
96984.7
97098.9
96983.9
96889.5
97086.1
96885.4
159208
159288
159208
96889.3
97088.3
96888.6
96760.2
97359
96758.1
155513
158401
155509
96759.6
97358.6
96758.5
96695.8
97348.9
96692.5
155218
158481
155213
96695.3
97350.2
96693.2
96661.9
97322.5
96658
155489
158664
155484
96661.9
97326.9
96659.1
97336
97397
97336.3
159241
159291
159241
97337.5
97399.1
97335.5
97429.7
97462.8
97431.1
159327
159310
159327
97431.6
97465
97429.5
97472
97477.8
97474.5
159373
159346
159373
97474.2
97479.9
97472.3
97486.9
97389.7
97325.9
159016
159157
159345
97479.9
97380.7
97316.3
97401.7
97254.7
97136.6
159159
159202
159342
97394.7
97245.8
97127.7
97365.3
97214.7
97105.9
159218
159178
159172
97358.2
97206
97097.9
97318
97382.8
97481.8
159344
159158
159017
97318.5
97384
97483.8
97130.3
97248.8
97396.8
159342
159203
159160
97130.2
97249.1
97398.1
97100
97209.1
97360.2
159173
159180
159221
97100.1
97209.2
97361.3
98601.1
98230.9
97631.2
159381
159353
159386
98604.1
98233.4
97632.4
98188.3
97709.2
97290.7
159213
159120
159248
98191.7
97711.7
97291.6
97766.4
97319.2
97042.8
158983
158793
158876
97770
97321.4
97043.8
96322
96230.3
96210.9
157530
157432
157372
96324
96232
96212.6
94775.9
94836.3
94908.4
153353
153340
153340
94773.8
94834.3
94906.6
91448.4
91523.5
91593.3
141603
141627
141658
91444
91519
91588.9
97640.1
98241
98611
159388
159354
159382
97631.6
98234.3
98606.2
97297.2
97716
98194.1
159250
159121
159213
97290.5
97711.9
98192.8
97046.8
97321.6
97766.7
158875
158793
158983
97043.2
97322
97771
96209.1
96226.9
96315.2
157371
157430
157527
96218.4
96236.6
96327.9
94894.7
94825.4
94771.5
153322
153323
153337
94889.9
94818.9
94759.8
91582.6
91512.6
91437.5
141655
141624
141601
91586
91516.1
91440.9
)
;

boundaryField
{
    fuel
    {
        type            zeroGradient;
    }
    primary_air
    {
        type            zeroGradient;
    }
    Secondary_air_RHS
    {
        type            zeroGradient;
    }
    Secondary_air_LHS
    {
        type            zeroGradient;
    }
    outlet
    {
        type            totalPressure;
        rho             rho;
        psi             none;
        gamma           1;
        p0              uniform 100000;
        value           nonuniform List<scalar> 
18
(
93088.4
100000
93090.1
92746.1
100000
92748.9
91819.2
100000
91837.6
91824.1
100000
91815.1
92758.7
100000
92757.9
93099
100000
93095.9
)
;
    }
    stove_body
    {
        type            zeroGradient;
    }
    frontAndBack
    {
        type            empty;
    }
}


// ************************************************************************* //
