/*--------------------------------*- C++ -*----------------------------------*\
  =========                 |
  \\      /  F ield         | OpenFOAM: The Open Source CFD Toolbox
   \\    /   O peration     | Website:  https://openfoam.org
    \\  /    A nd           | Version:  6
     \\/     M anipulation  |
\*---------------------------------------------------------------------------*/
FoamFile
{
    version     2.0;
    format      ascii;
    class       volScalarField;
    location    "1.5";
    object      T;
}
// * * * * * * * * * * * * * * * * * * * * * * * * * * * * * * * * * * * * * //

dimensions      [0 0 0 1 0 0 0];

internalField   nonuniform List<scalar> 
297
(
293.886
294.265
293.876
300.605
301.272
300.589
293.886
294.265
293.876
293.91
294.373
293.899
311.752
314.02
311.702
293.91
294.373
293.899
296.993
298.064
296.976
313.021
315.768
312.969
296.993
298.064
296.976
295.574
301.103
295.575
294.388
296.934
294.389
295.636
301.267
295.637
305.9
303.903
306.171
301.056
299.684
301.221
305.997
304.104
306.191
309.554
303.892
309.786
304.362
306.651
304.482
309.61
304.1
309.77
302.806
299.562
302.94
310.887
308.54
311.041
302.846
299.571
302.941
301.625
299.437
301.757
310.882
310.637
311.036
301.635
299.441
301.734
299.568
298.048
299.713
309.638
307.101
309.721
299.649
298.055
299.72
309.819
301.474
310.05
307.297
307.972
307.434
309.875
301.897
310.038
307.446
299.79
306.739
307.878
307.987
308.017
307.496
300.124
306.736
305.673
299.329
305.832
309.848
308.081
310
305.716
299.683
305.83
298.412
297.899
298.478
309.215
300.162
309.23
298.487
297.901
298.508
296.787
296.882
296.82
308.157
300.163
308.286
296.727
297.018
296.837
296.64
296.697
296.727
300.782
300.209
300.709
296.594
296.707
296.767
297.026
295.822
294.747
309.187
309.241
309.245
297.081
295.874
294.799
296.985
295.304
294.909
306.464
306.562
308.025
296.985
295.305
294.9
296.675
295.473
295.194
300.55
300.331
303.92
296.711
295.478
295.192
294.943
295.511
296.959
309.228
309.228
309.175
294.727
295.367
297.062
294.878
295.25
296.912
308.064
306.484
306.382
294.799
295.209
296.922
295.243
295.432
296.572
303.628
300.246
300.597
295.089
295.364
296.528
294.844
294.99
294.389
298.436
298.476
302.165
294.938
295.053
294.455
294.721
294.997
294.737
298.538
298.589
304.346
294.803
295.011
294.746
294.179
295.122
295.168
298.525
300.796
303.986
294.264
295.085
295.092
293.966
294.434
292.862
298.787
298.721
300.264
294.052
294.266
292.738
292.838
293.795
294.2
298.593
296.968
297.462
292.912
293.603
294.152
288.89
288.383
288.389
285.539
283.526
284.529
288.892
288.386
288.392
294.477
295.078
294.956
302.27
298.558
298.532
294.529
295.13
295.054
294.803
295.067
294.817
304.389
298.637
298.604
294.783
295.045
294.759
295.191
295.185
294.356
304.047
300.842
298.587
295.197
295.18
294.305
292.855
294.404
293.993
299.015
299.003
298.822
292.879
294.435
294.124
294.195
293.794
292.63
296.937
295.921
298.391
294.202
293.797
292.368
288.394
288.388
288.888
284.627
283.802
285.414
288.395
288.388
288.888
)
;

boundaryField
{
    fuel
    {
        type            fixedValue;
        value           uniform 293;
    }
    primary_air
    {
        type            fixedValue;
        value           uniform 293;
    }
    Secondary_air_RHS
    {
        type            fixedValue;
        value           uniform 293;
    }
    Secondary_air_LHS
    {
        type            fixedValue;
        value           uniform 293;
    }
    outlet
    {
        type            inletOutlet;
        inletValue      uniform 293;
        value           nonuniform List<scalar> 
18
(
293
284.627
293
293
283.807
293
293
285.414
293
293
285.539
293
293
283.526
293
293
284.529
293
)
;
    }
    stove_body
    {
        type            fixedValue;
        value           uniform 293;
    }
    frontAndBack
    {
        type            empty;
    }
}


// ************************************************************************* //
