/*--------------------------------*- C++ -*----------------------------------*\
  =========                 |
  \\      /  F ield         | OpenFOAM: The Open Source CFD Toolbox
   \\    /   O peration     | Website:  https://openfoam.org
    \\  /    A nd           | Version:  6
     \\/     M anipulation  |
\*---------------------------------------------------------------------------*/
FoamFile
{
    version     2.0;
    format      ascii;
    class       volScalarField;
    location    "0.5";
    object      O2;
}
// * * * * * * * * * * * * * * * * * * * * * * * * * * * * * * * * * * * * * //

dimensions      [0 0 0 0 0 0 0];

internalField   nonuniform List<scalar> 
297
(
0
0
0
0
0
0
0
0
0
0
0
0
0
0
0
0
0
0
0
0
0
0
0
0
0
0
0
0.0529611
0.108705
0.132182
0.162587
0.158329
0.184708
0.0527263
0.107844
0.133119
0
0.0197089
0
0.028431
0.146356
0.0983222
0
0.0197462
0
0
0.0116709
0
0.0156717
0.0253864
0.0298291
0
0.0116552
0
0.00181725
0.00532371
0.00181454
0
0.000657803
0
0.00182006
0.00531922
0.00180439
0
3.28024e-08
0
0
0
0
0
3.27386e-08
0
0
4.29796e-13
1.02288e-14
0
0
0
6.55528e-14
4.1717e-13
0
0
0.0116702
0
0
0.000683213
0.0020785
0
0.0116534
0
0
0.0116028
0
0
0.000657627
0
0
0.0115852
0
0
0.0113622
0
0
0.000657714
0
0
0.0113428
0
0
1.58847e-17
2.42618e-19
0
7.34142e-20
2.56614e-19
1.34634e-18
1.64339e-17
1.44911e-20
1.85764e-26
3.17002e-21
2.50299e-23
9.79803e-25
1.23514e-21
1.49041e-23
1.3223e-22
3.93378e-21
1.77167e-24
6.47544e-26
1.71002e-21
7.81951e-26
5.35726e-26
1.22186e-21
4.2267e-26
1.28224e-25
1.96498e-21
9.68172e-26
4.43814e-24
1.34525e-28
1.91624e-33
3.81787e-24
5.59694e-29
8.62344e-34
4.27219e-25
1.39127e-29
2.0481e-34
4.51878e-28
2.01015e-32
1.30428e-36
2.4707e-28
2.80647e-30
1.1764e-34
4.22519e-29
2.48037e-33
7.01931e-37
5.13804e-30
9.85302e-34
1.87436e-36
1.64998e-30
3.97406e-32
1.83935e-35
6.18918e-30
6.21306e-34
1.80366e-36
1.24934e-37
0
0
9.45343e-34
3.09573e-29
0
1.03131e-32
3.64749e-28
2.32446e-23
4.99658e-37
8.97415e-35
5.17009e-31
9.94976e-35
1.50072e-30
1.07917e-29
4.47032e-36
1.56075e-31
4.20879e-27
1.47919e-36
5.1224e-34
4.05514e-30
1.48081e-35
1.9975e-32
2.03452e-30
1.49496e-36
1.12065e-33
8.88436e-30
5.97173e-49
8.65114e-46
1.37809e-41
1.26115e-45
6.18417e-42
4.14922e-38
2.70624e-45
2.82745e-41
4.19429e-37
9.20464e-49
1.89683e-45
3.28357e-41
6.52012e-47
9.59895e-44
2.02566e-39
6.63846e-48
6.7522e-45
1.77253e-40
1.02647e-48
8.05464e-46
3.60448e-41
1.08978e-46
2.24885e-43
4.19474e-40
6.3268e-48
8.79312e-46
3.38475e-41
1.32609e-48
1.78965e-47
2.48321e-46
2.03076e-46
1.32962e-42
1.13465e-41
6.31608e-48
3.64687e-47
4.54161e-46
1.61215e-49
7.3407e-48
5.02927e-47
1.97457e-44
9.38885e-43
6.56626e-42
1.65353e-49
1.08909e-47
5.10069e-47
3.33922e-50
1.42115e-48
9.51338e-48
9.74402e-45
4.08599e-43
2.78795e-42
5.80179e-50
2.48829e-48
1.64718e-47
4.24525e-38
2.95144e-42
2.85755e-46
1.95704e-38
8.13534e-43
1.76214e-46
8.90029e-39
3.41422e-43
3.9632e-47
6.1238e-41
2.85309e-45
8.09616e-49
2.44598e-39
9.72038e-44
4.2232e-47
4.91385e-41
2.01056e-45
6.46444e-48
4.56599e-41
1.03705e-45
8.39726e-49
5.14665e-40
1.32309e-43
6.10744e-47
4.6379e-41
1.27483e-45
6.38663e-48
2.58713e-46
1.05388e-47
1.08432e-48
7.60385e-42
7.04062e-43
1.11978e-46
4.74669e-46
5.14536e-47
6.31427e-48
2.60914e-47
4.25792e-48
7.09448e-50
4.7341e-42
5.41225e-43
1.20945e-44
3.69397e-47
4.30109e-48
1.0204e-49
6.98029e-48
8.3401e-49
2.0695e-50
2.0384e-42
2.37416e-43
6.03019e-45
1.21094e-47
1.46321e-48
3.59998e-50
)
;

boundaryField
{
    fuel
    {
        type            fixedValue;
        value           uniform 0;
    }
    primary_air
    {
        type            fixedValue;
        value           uniform 0.23;
    }
    Secondary_air_RHS
    {
        type            fixedValue;
        value           uniform 0.23;
    }
    Secondary_air_LHS
    {
        type            fixedValue;
        value           uniform 0.23;
    }
    outlet
    {
        type            inletOutlet;
        inletValue      uniform 0;
        value           nonuniform List<scalar> 
18
(
0
2.0384e-42
0
0
2.37416e-43
0
0
6.03019e-45
0
0
9.74402e-45
0
0
4.08599e-43
0
0
2.78795e-42
0
)
;
    }
    stove_body
    {
        type            fixedValue;
        value           uniform 0;
    }
    frontAndBack
    {
        type            empty;
    }
}


// ************************************************************************* //
