/*--------------------------------*- C++ -*----------------------------------*\
  =========                 |
  \\      /  F ield         | OpenFOAM: The Open Source CFD Toolbox
   \\    /   O peration     | Website:  https://openfoam.org
    \\  /    A nd           | Version:  6
     \\/     M anipulation  |
\*---------------------------------------------------------------------------*/
FoamFile
{
    version     2.0;
    format      ascii;
    class       volVectorField;
    location    "0.5";
    object      U;
}
// * * * * * * * * * * * * * * * * * * * * * * * * * * * * * * * * * * * * * //

dimensions      [0 1 -1 0 0 0 0];

internalField   nonuniform List<vector> 
297
(
(30.7551 -0.0094737 0.216256)
(30.7538 -8.94428e-05 0.226943)
(30.7551 0.00932705 0.216324)
(9.3922e-08 0.00940273 0.273385)
(-7.26959e-07 0.000317517 0.266906)
(-8.16717e-07 -0.0094411 0.273044)
(-30.7551 -0.00945306 0.216339)
(-30.7538 -0.000107878 0.227095)
(-30.7551 0.00940607 0.216237)
(30.7953 -0.00414998 0.240353)
(30.7646 5.26779e-05 0.26621)
(30.7917 0.00429926 0.240336)
(9.14387e-07 0.0219094 0.264979)
(-1.3662e-07 0.000618914 0.164308)
(-7.41013e-07 -0.0213071 0.264558)
(-30.7937 -0.00450802 0.240069)
(-30.7644 -0.000409767 0.266063)
(-30.7927 0.00386578 0.240714)
(28.5392 -0.0136919 0.359807)
(31.0696 0.000532194 0.445458)
(28.6199 0.0163098 0.360333)
(5.45378e-07 -0.0117591 -0.000997701)
(-4.52923e-07 -0.000145654 0.233079)
(-3.39447e-07 0.0127393 0.00189382)
(-28.4533 -0.0153574 0.359992)
(-31.0639 -0.00205927 0.445649)
(-28.6843 0.0142096 0.360185)
(38.2471 7.30849 -0.252975)
(31.8904 6.74821 2.14833)
(31.2765 -0.98312 -0.78976)
(-6.85569e-05 2.52168 4.71791)
(-7.299e-05 1.17912 2.55422)
(-4.80229e-05 -1.72966 4.22777)
(-38.2344 7.36023 -0.359812)
(-31.9419 6.83552 2.10122)
(-31.1439 -0.81732 -0.769325)
(43.7763 8.16089 9.31354)
(43.3261 2.90517 45.9782)
(48.1416 -10.5443 40.1918)
(0.000240535 22.246 87.3739)
(-4.65155e-05 0.887038 63.8115)
(-0.000562905 -23.1811 94.0776)
(-43.7298 8.19885 9.38744)
(-43.3438 2.59389 46.0611)
(-48.2288 -10.5419 40.372)
(42.8484 -6.58198 -17.0659)
(44.8347 -3.49933 63.1237)
(47.1137 6.91519 -1.60757)
(0.000180354 -23.2745 122.178)
(1.31066e-06 1.6695 -9.27598)
(-5.95561e-05 21.9855 131.81)
(-42.808 -6.81609 -16.8359)
(-44.8492 -2.98986 63.2491)
(-47.1956 6.66309 -1.53225)
(36.6786 -19.497 -114.017)
(33.8306 -4.80083 -19.8794)
(39.5992 24.8594 -113.029)
(0.000118524 -12.3321 2.32252)
(-0.00024393 -0.781557 -82.7863)
(-3.62736e-05 17.1693 20.2009)
(-36.6558 -19.5752 -113.882)
(-33.8649 -5.0898 -19.7398)
(-39.6254 24.8412 -112.898)
(27.7605 31.9301 -76.5958)
(25.0653 -10.2866 -64.2111)
(34.7264 -25.2368 -76.559)
(0.000447435 9.39782 -52.9092)
(9.8066e-05 4.85226 -62.1569)
(9.65147e-05 -2.6319 -41.1588)
(-27.6376 31.6557 -76.4088)
(-25.0827 -10.6547 -64.0485)
(-34.7244 -24.9711 -76.4517)
(20.9714 22.0945 -21.4136)
(20.9583 -11.6743 -18.1653)
(20.9903 -24.5969 -21.4292)
(-7.12544e-05 20.5275 -20.311)
(6.85782e-05 5.95316 -20.648)
(0.000481181 -12.3192 -21.2537)
(-20.9854 21.4014 -21.1872)
(-20.9573 -11.8199 -18.1288)
(-20.9888 -24.3197 -21.574)
(32.8297 -4.18465 -180.654)
(43.2979 -6.12868 83.2406)
(36.0322 9.44781 -180.065)
(-0.00366221 -19.0129 171.709)
(-0.000250006 5.65734 -99.2785)
(0.0043725 18.2372 185.618)
(-32.7674 -4.37721 -180.643)
(-43.309 -6.21354 83.3215)
(-36.1305 9.25877 -179.945)
(32.6329 -8.67183 -181.717)
(39.5141 -6.21484 81.9979)
(34.5721 14.227 -181.193)
(-0.00292437 -16.4735 193.589)
(-0.000264097 4.98674 -102.792)
(0.00373988 16.6491 210.22)
(-32.6136 -8.81865 -181.734)
(-39.5237 -6.362 82.0786)
(-34.615 14.1019 -181.038)
(37.1554 -13.1764 -160.61)
(39.8054 -5.8538 78.0538)
(39.8403 18.6648 -160.063)
(-0.00202229 -13.2096 191.735)
(-0.000306186 4.51678 -103.415)
(0.0029273 14.3979 208.694)
(-37.1518 -13.2759 -160.593)
(-39.815 -6.07561 78.1309)
(-39.8714 18.6031 -159.9)
(20.7814 40.3368 -10.8744)
(20.8572 1.6355 -11.6906)
(20.7849 -40.633 -10.8718)
(-0.000603813 26.6807 -11.6434)
(-0.000279144 -3.14935 -11.6473)
(0.000682362 -27.342 -10.1977)
(-20.7831 40.5116 -10.6718)
(-20.8599 2.9721 -11.799)
(-20.7868 -39.8696 -11.0523)
(20.9373 26.847 -3.07609)
(20.9739 -2.08869 -1.67713)
(20.9401 -27.6213 -3.05633)
(-0.000678367 12.4205 -6.18911)
(-0.00024423 0.747393 -5.73046)
(0.000775013 -13.4942 -5.99552)
(-20.9397 27.2687 -3.08725)
(-20.9786 -0.438817 -1.6544)
(-20.9394 -26.5656 -3.07262)
(21.0069 0.924022 -4.80027)
(21.0088 -0.139133 0.327283)
(21.007 -0.276504 -4.63135)
(-0.00062231 3.16595 -4.02432)
(-0.000106544 -1.35829 -1.75054)
(0.000796682 -4.07499 -3.46193)
(-21.0103 0.673324 -4.64719)
(-21.0105 -0.0801912 0.339977)
(-21.0043 -0.436512 -4.64125)
(20.7759 -42.6944 -4.16127)
(20.9408 -38.5099 -6.95327)
(20.8958 -32.8253 -9.59792)
(0.000319087 -31.8965 -3.87)
(-0.000223944 -30.6542 -3.61603)
(-0.000348997 -24.9952 -3.83915)
(-20.7803 -42.1779 -4.17423)
(-20.9441 -38.7831 -6.83701)
(-20.8986 -33.2012 -9.5377)
(20.8712 -33.5995 -1.75876)
(20.9913 -34.5519 -8.52822)
(20.8236 -29.2754 -15.6884)
(0.00052686 -25.2998 -0.473541)
(5.11287e-05 -25.735 0.619844)
(-0.000204059 -22.0887 2.41619)
(-20.8729 -32.9971 -1.37486)
(-20.9912 -34.464 -7.90111)
(-20.8318 -29.2822 -15.283)
(21.0314 -11.5952 -3.96528)
(21.0478 -19.6671 -13.0926)
(20.8146 -25.5656 -21.2548)
(0.000504111 -12.316 2.10216)
(0.00014965 -12.8991 4.07423)
(1.52518e-05 -15.1155 4.23582)
(-21.0261 -11.9304 -4.19661)
(-21.0506 -20.1364 -13.2226)
(-20.8204 -25.5497 -21.2134)
(20.8958 33.3582 -9.658)
(20.9404 38.8774 -7.02013)
(20.7752 42.5681 -4.26019)
(-0.000174545 25.1575 -3.8401)
(-0.000339469 30.6457 -3.63027)
(-0.000449648 32.0988 -3.92302)
(-20.8976 33.2853 -9.62791)
(-20.9433 38.8868 -6.95669)
(-20.7776 42.6366 -4.21175)
(20.8312 29.4721 -15.4111)
(20.9896 34.5378 -8.22933)
(20.8713 33.2996 -1.54041)
(-0.00023165 21.9773 2.32591)
(-0.000396401 25.7977 0.573381)
(-0.000451183 25.3769 -0.604891)
(-20.8327 29.4386 -15.5102)
(-20.9923 34.7002 -8.31511)
(-20.8726 33.4075 -1.62243)
(20.8134 25.6768 -20.879)
(21.0449 19.9074 -13.1034)
(21.0263 12.287 -3.91171)
(-0.000404852 14.9178 4.5833)
(-0.000381544 12.5227 4.42878)
(-0.000465463 11.8419 2.41998)
(-20.8203 25.7091 -21.1158)
(-21.0533 20.1087 -13.0026)
(-21.0304 12.0261 -4.02753)
(20.8158 10.5209 -16.1838)
(20.8073 15.3573 -11.6918)
(20.8533 24.0707 -13.5031)
(-0.000384978 9.42406 -7.75634)
(-0.000326059 12.7572 -4.28854)
(-0.000209246 19.422 -4.69216)
(-20.8161 10.5136 -16.1379)
(-20.8079 15.3416 -11.6103)
(-20.8546 24.0119 -13.4357)
(20.836 4.63267 -24.1286)
(20.8407 13.493 -18.9732)
(20.8243 24.3545 -23.3527)
(-0.000331509 6.74942 -6.28709)
(-0.000267006 10.1845 -2.64383)
(-0.000168013 17.9837 -2.22369)
(-20.8377 4.65504 -24.0763)
(-20.8414 13.5046 -18.8598)
(-20.8256 24.3754 -23.3472)
(21.0205 3.65513 -29.551)
(20.8612 15.4412 -28.255)
(20.8213 15.8754 -33.1236)
(-0.000253471 5.45309 -10.1693)
(-0.000209996 10.4965 -7.21317)
(-0.000183949 15.2435 1.96256)
(-21.0228 3.63235 -29.438)
(-20.8643 15.5191 -28.1328)
(-20.8247 15.8248 -33.2627)
(20.937 -3.1069 -47.4765)
(20.9147 -3.08917 -47.3735)
(20.9371 -9.57373 -51.0056)
(-5.40517e-05 -3.21254 16.2677)
(-4.01962e-05 1.26523 21.9007)
(-3.43019e-05 -8.0096 17.7421)
(-20.9375 -3.10705 -47.4166)
(-20.9155 -3.02731 -47.3473)
(-20.9405 -9.56889 -51.0863)
(20.6155 1.20618 -113.419)
(20.6025 -0.782307 -115.836)
(20.6051 4.345 -112.965)
(6.25606e-05 -0.845764 61.6149)
(5.11965e-05 0.268567 63.6003)
(3.76233e-05 -0.908249 59.4056)
(-20.6123 1.22736 -113.4)
(-20.6022 -0.805825 -115.813)
(-20.5909 4.36247 -112.9)
(19.6655 -0.0142899 -150.891)
(19.6668 -0.0248887 -150.896)
(19.6681 -0.115359 -150.621)
(3.64412e-05 -0.282481 178.408)
(3.64722e-05 0.216164 177.658)
(3.53838e-05 -0.266281 176.669)
(-19.6654 -0.0145589 -150.88)
(-19.6667 -0.0242168 -150.889)
(-19.6679 -0.11419 -150.604)
(20.8528 -23.7496 -13.2995)
(20.8086 -15.0723 -11.3562)
(20.8188 -10.2086 -15.9753)
(9.11174e-05 -19.3959 -4.70691)
(0.000494061 -12.6813 -4.29725)
(0.000683172 -9.34551 -7.75009)
(-20.856 -23.8307 -13.4014)
(-20.8096 -15.2469 -11.5478)
(-20.8177 -10.4317 -16.0717)
(20.8154 -24.3715 -23.2164)
(20.8401 -13.4385 -18.2322)
(20.8404 -4.42276 -23.5549)
(2.79704e-05 -17.948 -2.29681)
(0.000330157 -10.1356 -2.72461)
(0.000652504 -6.61801 -6.31998)
(-20.8251 -24.2236 -23.0606)
(-20.8448 -13.2246 -18.3721)
(-20.8402 -4.43223 -23.7133)
(20.825 -15.5073 -33.5948)
(20.8607 -15.6149 -27.5179)
(21.0225 -3.51441 -28.8407)
(-0.000219338 -15.3185 1.42203)
(-1.18183e-05 -10.456 -7.236)
(0.000335794 -5.3292 -10.0037)
(-20.8253 -15.6437 -33.4527)
(-20.8659 -15.2564 -27.8907)
(-21.0247 -3.35982 -29.0585)
(20.94 9.49501 -50.5749)
(20.9169 2.81859 -46.8101)
(20.9397 2.90113 -46.8077)
(-0.00207253 8.32083 17.8977)
(-0.00217614 -1.63217 21.1662)
(-0.00217164 3.16585 15.5953)
(-20.9433 9.79367 -51.947)
(-20.9362 3.64676 -47.5776)
(-20.9595 3.20426 -47.4907)
(20.5903 -4.33256 -112.529)
(20.6 0.823733 -115.583)
(20.6051 -1.21178 -113.186)
(-0.00117253 1.0224 59.7935)
(-0.00134426 -0.427188 63.3595)
(-0.00150074 0.877781 61.3169)
(-20.5957 -4.45022 -113.126)
(-20.5928 0.578163 -115.849)
(-20.6152 -1.17937 -113.425)
(19.6661 0.117668 -150.507)
(19.6649 0.0323832 -150.791)
(19.6635 0.0177531 -150.775)
(-0.000792695 0.325253 176.724)
(-0.000766115 -0.234936 177.685)
(-0.000742005 0.308374 178.344)
(-19.6683 0.11131 -150.641)
(-19.6667 0.018471 -150.917)
(-19.6655 0.00882491 -150.924)
)
;

boundaryField
{
    fuel
    {
        type            fixedValue;
        value           uniform (0 0 0.25);
    }
    primary_air
    {
        type            fixedValue;
        value           uniform (0 0 2.5);
    }
    Secondary_air_RHS
    {
        type            fixedValue;
        value           uniform (0 100 0);
    }
    Secondary_air_LHS
    {
        type            fixedValue;
        value           uniform (0 -100 0);
    }
    outlet
    {
        type            pressureInletOutletVelocity;
        value           nonuniform List<vector> 
18
(
(0 0 -150.507)
(-0.000792695 0.325253 176.724)
(0 0 -150.641)
(0 0 -150.791)
(-0.000766115 -0.234936 177.685)
(0 0 -150.917)
(0 0 -150.775)
(-0.000742005 0.308374 178.344)
(0 0 -150.924)
(0 0 -150.891)
(3.64412e-05 -0.282481 178.408)
(0 0 -150.88)
(0 0 -150.896)
(3.64722e-05 0.216164 177.658)
(0 0 -150.889)
(0 0 -150.621)
(3.53838e-05 -0.266281 176.669)
(0 0 -150.604)
)
;
    }
    stove_body
    {
        type            noSlip;
    }
    frontAndBack
    {
        type            empty;
    }
}


// ************************************************************************* //
