/*--------------------------------*- C++ -*----------------------------------*\
  =========                 |
  \\      /  F ield         | OpenFOAM: The Open Source CFD Toolbox
   \\    /   O peration     | Website:  https://openfoam.org
    \\  /    A nd           | Version:  6
     \\/     M anipulation  |
\*---------------------------------------------------------------------------*/
FoamFile
{
    version     2.0;
    format      ascii;
    class       volScalarField;
    location    "4.5";
    object      T;
}
// * * * * * * * * * * * * * * * * * * * * * * * * * * * * * * * * * * * * * //

dimensions      [0 0 0 1 0 0 0];

internalField   nonuniform List<scalar> 
297
(
290.704
291.671
290.706
294.938
296.597
294.941
290.704
291.671
290.706
290.718
291.699
290.72
296.966
301.233
296.977
290.718
291.699
290.72
291.501
293.162
291.508
297.239
301.898
297.258
291.501
293.162
291.508
295.577
301.111
295.579
294.388
296.933
294.389
295.636
301.265
295.636
305.892
303.909
306.175
301.05
299.685
301.216
305.998
304.103
306.187
309.546
303.893
309.788
304.359
306.651
304.479
309.611
304.097
309.761
302.803
299.562
302.941
310.884
308.536
311.039
302.846
299.567
302.935
301.621
299.437
301.761
310.88
310.637
311.035
301.638
299.438
301.72
299.563
298.045
299.718
309.637
307.097
309.719
299.652
298.048
299.702
309.807
301.472
310.048
307.295
307.968
307.432
309.876
301.892
310.025
307.438
299.791
306.737
307.875
307.983
308.015
307.497
300.12
306.726
305.667
299.329
305.83
309.845
308.078
309.998
305.716
299.679
305.822
298.412
297.893
298.473
309.211
300.161
309.23
298.485
297.894
298.493
296.78
296.878
296.809
308.106
300.169
308.287
296.724
297.012
296.831
296.635
296.697
296.729
300.845
300.216
300.707
296.589
296.706
296.77
297.006
295.795
294.713
309.187
309.241
309.243
297.053
295.849
294.774
296.969
295.28
294.882
306.466
306.569
308.118
296.992
295.322
294.925
296.671
295.454
295.18
300.552
300.326
303.905
296.721
295.489
295.206
294.949
295.518
296.964
309.221
309.222
309.17
294.728
295.368
297.063
294.876
295.251
296.911
308.047
306.452
306.352
294.8
295.209
296.919
295.241
295.432
296.566
303.597
300.247
300.633
295.09
295.365
296.521
294.829
294.985
294.39
298.438
298.475
302.15
294.939
295.054
294.456
294.692
294.987
294.729
298.532
298.586
304.329
294.804
295.012
294.747
294.221
295.134
295.165
298.527
300.789
303.971
294.265
295.085
295.092
293.966
294.434
292.861
298.786
298.718
300.253
294.052
294.266
292.738
292.838
293.796
294.201
298.592
296.965
297.454
292.912
293.604
294.153
288.89
288.384
288.39
285.538
283.525
284.526
288.892
288.387
288.393
294.443
295.045
294.925
302.238
298.54
298.514
294.502
295.1
294.986
294.777
295.044
294.779
304.409
298.625
298.593
294.813
295.073
294.837
295.171
295.166
294.272
303.999
300.818
298.572
295.197
295.171
294.305
292.848
294.402
293.971
299.029
299.034
298.811
292.861
294.415
294.055
294.205
293.802
292.73
296.948
296.837
298.403
294.214
293.812
292.475
288.398
288.396
288.895
284.626
283.187
285.424
288.395
288.392
288.891
)
;

boundaryField
{
    fuel
    {
        type            fixedValue;
        value           uniform 293;
    }
    primary_air
    {
        type            fixedValue;
        value           uniform 293;
    }
    Secondary_air_RHS
    {
        type            fixedValue;
        value           uniform 293;
    }
    Secondary_air_LHS
    {
        type            fixedValue;
        value           uniform 293;
    }
    outlet
    {
        type            inletOutlet;
        inletValue      uniform 293;
        value           nonuniform List<scalar> 
18
(
293
284.627
293
293
283.179
293
293
285.422
293
293
285.538
293
293
283.525
293
293
284.526
293
)
;
    }
    stove_body
    {
        type            fixedValue;
        value           uniform 293;
    }
    frontAndBack
    {
        type            empty;
    }
}


// ************************************************************************* //
