/*--------------------------------*- C++ -*----------------------------------*\
  =========                 |
  \\      /  F ield         | OpenFOAM: The Open Source CFD Toolbox
   \\    /   O peration     | Website:  https://openfoam.org
    \\  /    A nd           | Version:  6
     \\/     M anipulation  |
\*---------------------------------------------------------------------------*/
FoamFile
{
    version     2.0;
    format      ascii;
    class       volScalarField;
    location    "1";
    object      N2;
}
// * * * * * * * * * * * * * * * * * * * * * * * * * * * * * * * * * * * * * //

dimensions      [0 0 0 0 0 0 0];

internalField   nonuniform List<scalar> 
297
(
0.0369552
0.0322473
0.0365112
0.256019
0.242247
0.254909
0.0369568
0.0322495
0.0365126
0.0843668
0.095378
0.0837625
0.911827
0.938242
0.912041
0.0843698
0.0953834
0.0837664
0.389583
0.392268
0.386026
0.999555
1
0.999497
0.389612
0.392298
0.38605
0.9982
0.99519
0.997398
0.992852
0.989564
0.991456
0.998123
0.994788
0.997142
1
0.999521
1
0.999104
0.995328
0.998693
1
0.998994
1
1
0.999541
1
0.99953
0.999099
0.999431
1
0.99913
1
0.999983
0.999779
1
1
0.99998
1
0.999932
0.999635
0.999955
1
1
1
1
1
1
1
1
1
1
1
1
1
1
1
1
1
1
1
0.999541
1
1
0.999976
1
1
0.99913
1
1
0.999543
1
1
0.99998
1
1
0.999132
1
1
0.99955
1
1
0.99998
1
1
0.999143
1
1
1
1
1
1
1
1
1
1
1
1
1
1
1
1
1
1
1
1
1
1
1
1
1
1
1
1
1
1
1
1
1
1
1
1
1
1
1
1
1
1
1
1
1
1
1
1
1
1
1
1
1
1
1
1
1
1
1
1
1
1
1
1
1
1
1
1
1
1
1
1
1
1
1
1
1
1
1
1
1
1
1
1
1
1
1
1
1
1
1
1
1
1
1
1
1
1
1
1
1
1
1
1
1
1
1
1
1
1
1
1
1
1
1
1
1
1
1
1
1
1
1
1
1
1
1
1
1
1
1
1
1
1
1
1
1
1
1
1
1
1
1
1
1
1
1
1
1
1
1
1
1
1
1
1
1
1
1
1
1
1
1
1
1
1
1
1
1
1
1
1
1
1
1
1
1
1
1
1
1
1
1
1
1
1
1
1
1
1
)
;

boundaryField
{
    fuel
    {
        type            fixedValue;
        value           uniform 0;
    }
    primary_air
    {
        type            fixedValue;
        value           uniform 0.77;
    }
    Secondary_air_RHS
    {
        type            fixedValue;
        value           uniform 0.77;
    }
    Secondary_air_LHS
    {
        type            fixedValue;
        value           uniform 0.77;
    }
    outlet
    {
        type            inletOutlet;
        inletValue      uniform 0;
        value           uniform 1;
    }
    stove_body
    {
        type            fixedValue;
        value           uniform 0;
    }
    frontAndBack
    {
        type            empty;
    }
}


// ************************************************************************* //
