/*--------------------------------*- C++ -*----------------------------------*\
  =========                 |
  \\      /  F ield         | OpenFOAM: The Open Source CFD Toolbox
   \\    /   O peration     | Website:  https://openfoam.org
    \\  /    A nd           | Version:  6
     \\/     M anipulation  |
\*---------------------------------------------------------------------------*/
FoamFile
{
    version     2.0;
    format      ascii;
    class       volScalarField;
    location    "1";
    object      O2;
}
// * * * * * * * * * * * * * * * * * * * * * * * * * * * * * * * * * * * * * //

dimensions      [0 0 0 0 0 0 0];

internalField   nonuniform List<scalar> 
297
(
0
0
0
0
0
0
0
0
0
0
0
0
0
0
0
0
0
0
0
0
0
0
0
0
0
0
0
0.00179999
0.00481002
0.00260236
0.00714818
0.0104361
0.00854368
0.001877
0.00521235
0.00285823
0
0.000478939
0
0.000896125
0.00467236
0.00130663
0
0.00100641
0
0
0.000459395
0
0.000470047
0.000901356
0.000569341
0
0.000869795
0
1.74316e-05
0.000221234
0
0
2.04502e-05
0
6.80084e-05
0.000364632
4.46653e-05
0
6.55664e-10
0
0
0
0
0
1.18197e-09
0
5.7448e-14
2.53311e-13
5.60535e-13
0
0
2.72314e-12
4.24888e-14
2.50626e-13
5.3836e-13
0
0.000458828
0
0
2.43033e-05
0
0
0.000869624
0
0
0.000456746
0
0
2.04209e-05
0
0
0.000867538
0
0
0.00044974
0
0
2.04362e-05
0
0
0.000857052
0
1.0702e-18
1.09747e-17
1.1421e-17
0
4.96133e-18
1.64349e-17
5.6987e-19
1.08086e-17
1.10015e-17
1.56527e-22
3.43758e-21
1.32283e-21
3.01557e-24
4.36058e-22
6.06249e-22
1.37632e-22
3.24458e-21
1.24121e-21
5.55956e-22
3.47986e-21
1.08035e-21
3.03069e-24
1.58036e-22
2.14608e-23
4.707e-22
3.28837e-21
9.79949e-22
1.27377e-22
2.37455e-27
2.1144e-32
1.40447e-22
1.25462e-27
1.15521e-32
1.22929e-22
2.29462e-27
2.04512e-32
1.66544e-26
1.15947e-30
5.75966e-35
1.01046e-26
4.48308e-29
1.2588e-33
1.56001e-26
1.25344e-30
5.93994e-35
9.42965e-26
4.40701e-30
1.07057e-34
1.1341e-27
9.53752e-31
2.06073e-34
8.47735e-26
3.95505e-30
9.76896e-35
1.04081e-33
1.16128e-28
1.17528e-23
2.23502e-34
1.45852e-29
0
1.12359e-33
6.22412e-29
6.27474e-24
2.54195e-35
4.78031e-31
2.78604e-27
2.7598e-35
1.12037e-30
2.57214e-29
3.20866e-35
6.36507e-31
4.34435e-27
4.5622e-35
2.18509e-30
4.7727e-26
4.67463e-36
2.56277e-32
1.32044e-28
5.55675e-35
2.66194e-30
4.03574e-26
2.49579e-47
1.15079e-42
2.68146e-38
7.78021e-47
5.41982e-43
5.7706e-39
9.32036e-47
1.2566e-42
2.92257e-38
2.79734e-48
4.64836e-44
1.01773e-39
2.40698e-47
1.79486e-44
4.23882e-40
1.97431e-47
3.39593e-44
1.17284e-39
3.96984e-48
1.61387e-44
7.53896e-40
3.10296e-47
3.55224e-44
1.39668e-40
1.89753e-47
1.72454e-44
9.49269e-40
6.53332e-48
5.47058e-47
2.4301e-45
4.15068e-47
1.79517e-43
2.23239e-42
1.86819e-47
1.64396e-46
4.9739e-45
1.82065e-49
2.45691e-48
1.157e-47
2.17896e-44
3.0084e-43
1.50655e-42
1.45388e-49
3.05736e-48
9.58262e-48
5.82076e-50
7.87694e-49
3.44504e-48
1.09205e-44
1.46436e-43
6.45309e-43
5.82102e-50
7.87702e-49
3.44528e-48
2.87685e-37
1.21434e-41
7.07091e-46
1.72484e-37
4.62949e-42
7.43252e-46
5.18671e-37
1.20548e-41
7.60688e-46
2.02364e-39
6.28591e-44
1.68731e-47
1.57134e-38
3.85052e-43
2.42575e-46
2.10612e-39
5.4669e-44
6.69544e-47
1.8366e-39
2.81562e-44
1.90302e-47
3.5249e-39
7.64567e-43
3.69759e-46
1.65461e-39
3.04654e-44
6.56996e-47
6.31044e-45
1.87392e-46
2.42888e-47
5.07434e-41
4.05482e-42
5.73055e-46
9.3794e-45
5.70863e-46
6.51808e-47
1.89038e-46
5.60097e-47
3.01983e-48
3.42942e-41
6.90171e-42
5.03339e-43
2.1766e-46
4.5612e-47
3.37001e-48
7.87048e-47
1.77435e-47
1.35066e-48
1.47558e-41
3.30013e-42
2.52963e-43
7.87056e-47
1.77434e-47
1.34707e-48
)
;

boundaryField
{
    fuel
    {
        type            fixedValue;
        value           uniform 0;
    }
    primary_air
    {
        type            fixedValue;
        value           uniform 0.23;
    }
    Secondary_air_RHS
    {
        type            fixedValue;
        value           uniform 0.23;
    }
    Secondary_air_LHS
    {
        type            fixedValue;
        value           uniform 0.23;
    }
    outlet
    {
        type            inletOutlet;
        inletValue      uniform 0;
        value           nonuniform List<scalar> 
18
(
0
1.47558e-41
0
0
3.30013e-42
0
0
2.52963e-43
0
0
1.09205e-44
0
0
1.46436e-43
0
0
6.45309e-43
0
)
;
    }
    stove_body
    {
        type            fixedValue;
        value           uniform 0;
    }
    frontAndBack
    {
        type            empty;
    }
}


// ************************************************************************* //
