/*--------------------------------*- C++ -*----------------------------------*\
  =========                 |
  \\      /  F ield         | OpenFOAM: The Open Source CFD Toolbox
   \\    /   O peration     | Website:  https://openfoam.org
    \\  /    A nd           | Version:  6
     \\/     M anipulation  |
\*---------------------------------------------------------------------------*/
FoamFile
{
    version     2.0;
    format      ascii;
    class       volScalarField;
    location    "1";
    object      p;
}
// * * * * * * * * * * * * * * * * * * * * * * * * * * * * * * * * * * * * * //

dimensions      [1 -1 -2 0 0 0 0];

internalField   nonuniform List<scalar> 
297
(
104306
104305
104304
173803
173802
173802
104306
104305
104304
104306
104305
104304
173804
173803
173802
104306
104305
104304
104306
104305
104304
173805
173804
173803
104306
104305
104304
96345.8
96434.6
96396.4
159876
160012
159953
96274.2
96356.8
96322.3
96734.8
96318.8
96728.5
159594
160213
159572
96655.5
96184.6
96610.1
92658.7
92892.8
92940.6
149258
155357
149794
92927.6
93177.8
93172.4
89700.4
92923.2
89243.9
153397
153345
153196
89784.1
92966
89344.2
94920.6
95407.4
94697.6
158325
157979
158361
94881
95323.8
94672.8
94854.7
95493.5
94744.9
157731
158867
158016
94848.4
95473.4
94730.9
69924.8
90329
70169.4
112467
149716
112976
71033.4
92846.2
71470.6
68956.5
90176.4
69020.2
109835
149106
110276
69922.8
92412.5
70182
70810.1
90452.9
70718
113035
149335
113092
71582
92325.8
71648.5
95902.8
96114.6
95879.9
159388
159906
159386
95898.2
96107.7
95873.9
96076.9
96107.1
96051.4
159843
160060
159804
96073.4
96102.5
96047.6
96091.4
96101
96072.8
160056
160106
160001
96087.6
96096.7
96069
96305.5
96661
97476.8
159693
159911
160354
96301.7
96657.8
97474.6
96145.1
96282.4
96803.9
159744
159787
159962
96141.4
96278.6
96801.1
96017.5
95843.7
95646.6
159910
159792
159691
96013.6
95839.6
95642.4
97483.2
96674
96322.1
160386
159948
159729
97478.5
96670
96317.8
96815.6
96297.4
96161.8
159999
159828
159788
96812.4
96293.9
96158
95669.5
95864.2
96035.5
159732
159836
159958
95667.2
95861.5
96032.1
99268.9
98928.4
98341.6
161993
161679
161087
99250.2
98914.2
98333.2
98780.7
98392.6
97767.1
161405
161119
160553
98766
98382.8
97762.3
98149.7
97743.7
97004.3
160656
160322
159895
98138.4
97736.6
97000.9
95193.3
95064.9
94845.5
157295
157144
157021
95195.2
95067.5
94848.6
88378.1
88436.5
88501.4
146417
146407
146403
88382.5
88440
88504.7
80856.7
80856.5
80858.1
130289
130259
130236
80858.5
80858.3
80859.9
98342
98932.5
99274.8
161065
161664
161982
98339.2
98927.4
99267.6
97763.4
98392.7
98782.5
160525
161099
161388
97761.3
98389.4
98777.1
96993.1
97737.6
98145.6
159860
160294
160631
96990.9
97735
98141.5
94815
95035.7
95164.7
156961
157085
157238
94815.3
95036.1
95165.2
88449.1
88384.2
88325.8
146311
146315
146326
88449.7
88384.7
88326.4
80801.2
80799.6
80799.6
130148
130172
130203
80801.6
80799.9
80800.2
)
;

boundaryField
{
    fuel
    {
        type            zeroGradient;
    }
    primary_air
    {
        type            zeroGradient;
    }
    Secondary_air_RHS
    {
        type            zeroGradient;
    }
    Secondary_air_LHS
    {
        type            zeroGradient;
    }
    outlet
    {
        type            totalPressure;
        rho             rho;
        psi             none;
        gamma           1;
        p0              uniform 100000;
        value           nonuniform List<scalar> 
18
(
84566.4
100000
84566.8
84520.8
100000
84522.4
84499.9
100000
84499.4
84553.1
100000
84556.4
84575.8
100000
84578.6
84620.9
100000
84623.6
)
;
    }
    stove_body
    {
        type            zeroGradient;
    }
    frontAndBack
    {
        type            empty;
    }
}


// ************************************************************************* //
