/*--------------------------------*- C++ -*----------------------------------*\
  =========                 |
  \\      /  F ield         | OpenFOAM: The Open Source CFD Toolbox
   \\    /   O peration     | Website:  https://openfoam.org
    \\  /    A nd           | Version:  6
     \\/     M anipulation  |
\*---------------------------------------------------------------------------*/
FoamFile
{
    version     2.0;
    format      ascii;
    class       surfaceScalarField;
    location    "1";
    object      phi;
}
// * * * * * * * * * * * * * * * * * * * * * * * * * * * * * * * * * * * * * //

dimensions      [1 0 -1 0 0 0 0];

internalField   nonuniform List<scalar> 
675
(
-1.01323e-06
-6.43539e-05
0.00011041
1.27143e-06
-7.06403e-05
0.000113061
-6.46912e-05
0.000110409
4.05691e-06
6.43539e-05
-5.9546e-05
-3.9569e-06
7.06403e-05
-6.04655e-05
6.46914e-05
-6.02318e-05
-1.01321e-06
0.000110411
1.27153e-06
0.000113061
0.00011041
-8.50067e-07
2.98725e-06
0.00010888
1.08386e-06
1.92628e-07
0.000111146
2.82215e-06
0.000108829
4.35627e-06
-2.98632e-06
-5.87725e-05
-4.57943e-06
-1.91736e-07
-5.18578e-05
-2.82209e-06
-5.93006e-05
-8.50085e-07
0.000108881
1.08406e-06
0.000111147
0.00010883
-3.58083e-06
6.86088e-05
3.68565e-06
5.94295e-05
6.83587e-05
3.4582e-06
-6.86097e-05
-4.31495e-06
-5.94303e-05
-6.83594e-05
-3.58064e-06
3.68586e-06
0.00783871
0.00844148
-0.0161461
-0.00221543
0.0102415
-3.68558e-05
0.00909444
-0.011153
0.00442525
-0.00693474
0.0112831
-0.00278465
-0.00835061
0.026099
-0.00785387
0.0144526
0.00865877
-0.0154579
-0.0024301
0.00289072
-0.0101269
0.0248609
0.0201131
-0.0611101
-0.0194198
-0.00509959
0.0493814
0.0208283
-0.0513706
0.00923372
-0.0190934
0.0413766
-0.0119367
0.00977111
0.0324994
-0.0191337
0.0425538
0.0247186
-0.0592625
-0.0205778
0.0579978
-0.0498103
0.00198013
0.0416288
-0.104704
-0.00536924
-0.00846272
0.0652357
0.0384836
-0.0952048
-0.0821554
-0.0437018
0.20894
0.0825827
-0.000184168
-0.140389
-0.0403579
0.204004
0.000303259
-0.103249
-0.00334624
0.0615342
-0.0934879
-0.0496927
-0.0483375
-0.042733
0.140791
0.0447018
0.00858969
-0.0519876
-0.05102
-0.0502247
-0.0366338
0.131605
0.0109498
0.0476536
0.0431924
-0.149991
0.00324993
-0.00951466
-0.13906
0.164956
0.0494584
0.0510033
-0.147324
-0.0490654
-0.0424697
0.13921
0.0435209
-0.0583582
-0.0437524
-0.037079
0.130092
0.00462248
-0.0166341
-0.0307671
-0.01798
0.0114701
-0.040945
-0.0273842
-0.0272367
0.0397623
0.018326
-0.0313917
-0.0210991
-0.00906125
-0.0574997
0.0278971
-0.0252594
0.00682953
-0.0310102
-0.0184281
-0.0422549
-0.0276104
-0.00834813
0.00635835
-0.0287316
-0.0215935
0.00139387
-0.0290561
-0.0191391
-0.0296627
0.0281855
-0.0061937
-0.0470924
0.0222825
-0.000654291
-0.0495975
0.0198547
-0.0420498
-0.00842611
-0.0287328
-0.0220393
-0.0292589
-0.0297665
-0.00218614
-0.000396526
-0.116744
0.00204988
9.92384e-06
0.0609877
-0.000412393
-0.107416
-0.00474802
0.000282384
0.189487
0.00534165
-0.00132794
-0.149132
0.000281415
0.185028
-0.00318414
-0.114638
0.00296556
0.0540574
-0.105187
-0.00247473
0.000193497
-0.128883
0.00236863
-0.000534867
0.0566772
0.000159172
-0.119641
-0.00283811
-0.000250444
0.169795
0.00378089
0.000239053
-0.156516
-0.000250456
0.166159
-0.00276246
-0.126749
0.00264025
0.048895
-0.117474
-0.00334357
0.000442836
0.00325777
-0.000945833
0.00043347
-0.00289089
-0.000502974
0.00387013
0.000742032
-0.000509258
-0.00301158
0.00287463
0.0107308
-0.0013858
-0.0137207
-0.0243437
-0.00972343
-0.00148924
-0.00709964
-0.00152102
-0.0134412
-0.0244141
0.0113337
0.0013985
-0.0282971
-0.0329351
-0.0147297
0.00151715
-0.0265657
0.00154173
-0.0268248
-0.0330393
0.0107209
-0.0137574
-0.0242857
-0.00970808
-0.00729979
-0.0135175
-0.0244057
0.00417312
1.86429e-05
-0.00270206
-0.0151986
-0.00482036
0.000250769
0.00165678
-5.12706e-05
-0.00305024
-0.0151502
0.0079071
8.80016e-06
-0.0113002
-0.0249167
-0.00833344
-0.000183458
-0.00991923
9.39434e-05
-0.0101089
-0.0252169
0.00414947
-0.0027069
-0.0151794
-0.00485091
0.00153085
-0.0031105
-0.0151541
-0.000438224
6.31819e-05
-0.00231545
0.00100333
0.000229199
0.000189612
-0.0022266
0.00385497
-2.8999e-05
-0.0150857
-0.00567605
-0.000188514
-0.000143157
-0.0154748
-0.000388796
-0.00233556
0.00096754
-0.00227632
-0.0223791
-0.000140092
-0.00189104
-0.0229583
0.00273918
-0.0021564
0.00338696
-0.00811381
-0.0182278
-0.0314701
0.000144772
-0.00186292
-0.0279195
-0.0027335
0.00191337
-0.00338387
0.00373989
-0.0248969
-0.022363
-0.00189417
-0.0229486
-0.00214434
-0.00812354
-0.0182053
-0.0161013
-0.000161134
-0.000774953
-0.01607
0.00187676
-0.00406078
0.000736532
-0.008946
-0.0159706
-0.0267807
0.000169924
-0.000638767
-0.0225015
-0.00186874
0.00137126
-0.000729443
0.00489101
-0.0221948
-0.0161109
-0.000763716
-0.0160779
-0.00404245
-0.00895884
-0.0159684
-0.00307422
7.64821e-05
-0.00643387
-0.000697447
-0.00175729
-0.0136189
-0.0159801
-6.53765e-05
-0.0160195
0.000705039
0.00176223
-0.014656
-0.00310168
-0.00643549
-0.0136284
0.0228913
0.00336662
-0.00808174
-0.0181728
0.0223132
0.00271683
-0.00213527
-0.000147411
-0.00187918
0.0277602
-0.00336042
0.00371611
-0.0247578
0.031266
-0.00270921
0.0019114
0.000151424
-0.0019768
0.0228338
-0.00808786
-0.018103
0.022252
-0.00212403
-0.00187845
0.0160491
0.00072469
-0.00892984
-0.0159223
0.0160902
0.00184535
-0.00401833
-0.000185877
-0.000797848
0.0223618
-0.000713649
0.00485416
-0.0220699
0.0265851
-0.00183777
0.00136267
0.000192994
-0.000696106
0.0160265
-0.00894077
-0.0158838
0.0160709
-0.00400286
-0.000790153
0.0064193
-0.00176285
-0.0135829
0.00312967
-0.00072532
2.01342e-05
0.0158599
0.0017653
-0.0145422
0.0157594
0.000729455
-1.08899e-05
0.00640295
-0.0135751
0.00313288
0.00805793
0.00287048
-0.0109257
0.0121563
0.0027021
-0.00679781
0.0029596
-0.00897342
0.0114977
-0.00285767
-0.00577561
0.01873
-0.00269065
-0.00184567
-0.00294922
-0.000125232
0.00800187
-0.0108569
0.0120789
-0.00676506
-0.00897075
0.00591339
0.00241031
-0.0192468
0.0106822
0.00236931
-0.0139332
0.00159232
-0.0158032
0.00863197
-0.00240036
-0.00960294
0.0164455
-0.00235917
-0.00493683
-0.00157314
-0.00259032
0.00588379
-0.0191384
0.0106403
-0.0138781
-0.0157848
0.00722787
0.00477784
-0.03125
0.00750388
0.00260117
-0.0168079
0.00120951
-0.0230893
0.00908611
-0.00476018
-0.00915706
0.0151463
-0.00260365
-0.00579806
-0.00120753
0.000424828
0.00717997
-0.031076
0.0074734
-0.0167727
-0.0230916
-0.00878425
0.0144622
-0.0369157
-0.00169779
0.0122283
-0.0361098
0.011294
-0.0360681
0.000751007
-0.0144682
0.0189972
-0.00218873
-0.0122684
0.0216126
-0.0113287
0.0208326
-0.00869006
-0.0368418
-0.00163509
-0.0360835
-0.0360426
0.000190971
0.00459811
-0.041691
0.00071983
0.0051417
-0.0417665
0.00593314
-0.0412675
-0.00438758
-0.00463684
0.0326014
-0.0042166
-0.00517155
0.0317366
-0.005958
0.028489
0.000213628
-0.0416784
0.0007287
-0.0417562
-0.041258
2.73918e-06
0.0162747
-0.000152929
0.0163243
0.0164476
0.000970442
-0.0162813
0.00140411
-0.0163307
-0.0164539
3.88456e-06
-0.000152093
-0.012181
0.0029736
-0.0090177
-0.00807664
0.00270791
-0.00680948
0.00287494
-0.0109489
-0.0188179
-0.00296905
-0.000142469
-0.0115511
-0.00270377
-0.00186099
-0.00287052
-0.00581154
-0.01215
-0.00902167
-0.00805008
-0.00680101
-0.0109179
-0.0107083
0.00159164
-0.015869
-0.00592808
0.00237554
-0.0139626
0.00241686
-0.0192912
-0.0165406
-0.00158417
-0.00262677
-0.00868002
-0.00237313
-0.00497874
-0.00241367
-0.00966689
-0.0106998
-0.0158718
-0.00591439
-0.0139569
-0.0192433
-0.00751622
0.00121755
-0.0231866
-0.00723905
0.00261534
-0.0168525
0.00479401
-0.0313217
-0.0152419
-0.00121253
0.000383518
-0.00913384
-0.00261839
-0.00585876
-0.00478646
-0.00922615
-0.00751289
-0.0231973
-0.00721739
-0.0168682
-0.0312446
0.00167354
0.0113401
-0.0361873
0.00876671
0.0122849
-0.0362178
0.014514
-0.0370565
0.00218028
-0.0113451
0.0208627
-0.000737245
-0.0123017
0.0216197
-0.0145162
0.0190411
0.00164467
-0.0361741
0.00874065
-0.0362532
-0.0370076
-0.000725482
0.00593943
-0.0413874
-0.000193527
0.00514308
-0.0418791
0.0045969
-0.0418331
0.00429036
-0.00594393
0.0284378
0.00441644
-0.00514995
0.0317685
-0.00460603
0.0326419
-0.000719171
-0.0413851
-0.000211708
-0.0418967
-0.0418115
0.000155014
0.0164092
1.25394e-05
0.0162827
0.0162292
-0.00144629
-0.0164106
-0.000982574
-0.0162801
-0.0162346
0.000155417
-4.4817e-06
)
;

boundaryField
{
    fuel
    {
        type            calculated;
        value           nonuniform List<scalar> 
36
(
4.41815e-05
7.36196e-05
4.41815e-05
4.41812e-05
7.36192e-05
4.41812e-05
4.41809e-05
7.36188e-05
4.41809e-05
-4.41814e-05
-7.3619e-05
-4.41814e-05
-4.41812e-05
-7.36187e-05
-4.41812e-05
-4.41809e-05
-7.36185e-05
-4.41809e-05
0
0
0
0
0
0
0
0
0
0
0
0
0
0
0
0
0
0
)
;
    }
    primary_air
    {
        type            calculated;
        value           nonuniform List<scalar> 9(-0.000126729 -0.000210294 -0.000126635 -0.000126846 -0.000210473 -0.000126744 -0.000126796 -0.000210395 -0.000126698);
    }
    Secondary_air_RHS
    {
        type            calculated;
        value           nonuniform List<scalar> 9(0.0146753 0.023628 0.0149475 0.014435 0.0230634 0.014678 0.0147901 0.0236522 0.0149847);
    }
    Secondary_air_LHS
    {
        type            calculated;
        value           nonuniform List<scalar> 9(0.0146242 0.0235216 0.0148561 0.0144217 0.0229711 0.0146238 0.0148093 0.0236402 0.0149708);
    }
    outlet
    {
        type            calculated;
        value           nonuniform List<scalar> 
18
(
-0.0579435
0.0626854
-0.0579429
-0.0580111
0.0638493
-0.0580088
-0.0580416
0.0641049
-0.0580424
-0.0579602
0.0641687
-0.0579553
-0.0579269
0.0639397
-0.0579227
-0.0578598
0.0627762
-0.0578558
)
;
    }
    stove_body
    {
        type            calculated;
        value           uniform 0;
    }
    frontAndBack
    {
        type            empty;
        value           nonuniform 0();
    }
}


// ************************************************************************* //
