/*--------------------------------*- C++ -*----------------------------------*\
  =========                 |
  \\      /  F ield         | OpenFOAM: The Open Source CFD Toolbox
   \\    /   O peration     | Website:  https://openfoam.org
    \\  /    A nd           | Version:  6
     \\/     M anipulation  |
\*---------------------------------------------------------------------------*/
FoamFile
{
    version     2.0;
    format      ascii;
    class       volScalarField;
    location    "1";
    object      Qdot;
}
// * * * * * * * * * * * * * * * * * * * * * * * * * * * * * * * * * * * * * //

dimensions      [1 -1 -3 0 0 0 0];

internalField   nonuniform List<scalar> 
297
(
0
-4.10186e-05
-4.10186e-05
-0.000124405
0
0
0
0
0
0
0
-0.000124405
0
0
-1.02546e-05
0
0
0
5.98919e-10
0
-6.22023e-05
0
0
-2.01603e-07
0
5.98919e-10
5.98919e-10
1.19784e-09
0
0
1.19234e-09
1.19784e-09
-5.50241e-12
0
0
0
0
0
0
0
0
0
1.19784e-09
1.19749e-09
0
0
0
0
0
0
0
0
0
0
-1.07469e-14
-1.7195e-13
0
0
0
0
0
0
0
0
0
0
0
2.39568e-09
0
0
0
0
2.39568e-09
0
0
0
2.39568e-09
2.39568e-09
0
-3.20282e-22
0
0
0
5.98919e-10
0
0
0
0
0
5.98919e-10
5.98919e-10
-1.7195e-13
0
1.19784e-09
0
0
0
0
0
0
0
5.98919e-10
0
2.39568e-09
0
0
0
0
-1.22178e-27
2.39568e-09
-9.77424e-27
0
0
0
2.39568e-09
-9.77424e-27
-9.77424e-27
0
0
0
0
0
-1.19314e-30
0
0
0
0
0
2.39568e-09
0
0
-3.72857e-32
0
0
-1.19314e-30
2.39568e-09
0
0
0
0
0
-1.49143e-31
0
2.39568e-09
2.39568e-09
0
2.39568e-09
0
0
0
2.39568e-09
2.39568e-09
-6.78224e-44
-7.28237e-35
-4.44481e-39
0
-2.27574e-36
0
2.39568e-09
-7.28237e-35
0
2.39568e-09
0
0
0
0
0
0
0
-7.11169e-38
2.39568e-09
2.39568e-09
0
-2.27574e-36
0
0
0
0
2.39568e-09
0
-3.39112e-44
0
2.39568e-09
0
2.39568e-09
0
0
-2.2224e-39
0
0
2.39568e-09
0
0
0
-8.2791e-48
0
0
-3.31164e-47
0
0
0
0
0
0
-1.5421e-56
2.39568e-09
0
-3.85526e-57
2.39568e-09
0
0
0
0
2.39568e-09
0
0
2.39568e-09
2.39568e-09
0
0
2.39568e-09
2.39568e-09
-1.5421e-56
-1.23368e-55
-3.94778e-54
0
0
0
0
0
0
0
0
0
-6.02384e-59
0
-3.85526e-57
0
0
2.39568e-09
-6.02384e-59
0
0
0
-1.61701e-50
2.39568e-09
0
0
0
0
0
0
0
0
0
-3.31164e-47
0
-4.93473e-55
0
-6.31645e-53
0
0
0
2.39568e-09
0
0
0
0
0
2.39568e-09
2.39568e-09
0
2.39568e-09
2.39568e-09
0
2.39568e-09
0
0
0
0
0
0
2.39568e-09
-8.08506e-51
0
2.39568e-09
0
0
0
0
-9.63814e-58
0
-4.04253e-51
2.39568e-09
-6.16841e-56
0
0
)
;

boundaryField
{
    fuel
    {
        type            calculated;
        value           uniform 0;
    }
    primary_air
    {
        type            calculated;
        value           uniform 0;
    }
    Secondary_air_RHS
    {
        type            calculated;
        value           uniform 0;
    }
    Secondary_air_LHS
    {
        type            calculated;
        value           uniform 0;
    }
    outlet
    {
        type            calculated;
        value           uniform 0;
    }
    stove_body
    {
        type            calculated;
        value           uniform 0;
    }
    frontAndBack
    {
        type            empty;
    }
}


// ************************************************************************* //
