/*--------------------------------*- C++ -*----------------------------------*\
  =========                 |
  \\      /  F ield         | OpenFOAM: The Open Source CFD Toolbox
   \\    /   O peration     | Website:  https://openfoam.org
    \\  /    A nd           | Version:  6
     \\/     M anipulation  |
\*---------------------------------------------------------------------------*/
FoamFile
{
    version     2.0;
    format      ascii;
    class       volScalarField;
    location    "1";
    object      T;
}
// * * * * * * * * * * * * * * * * * * * * * * * * * * * * * * * * * * * * * //

dimensions      [0 0 0 1 0 0 0];

internalField   nonuniform List<scalar> 
297
(
295.051
296.201
295.051
296.866
299.546
296.858
295.051
296.201
295.051
295.121
296.288
295.119
305.267
317.353
305.222
295.121
296.288
295.119
297.241
300.129
297.22
306.436
320.32
306.37
297.241
300.129
297.22
638.849
649.852
718.768
633.32
638.868
711.01
642.215
649.546
720.859
642.985
676.087
725.76
634.183
660.001
714.404
646.628
677.559
728.685
643.64
664.631
727.326
569.016
497.43
613.506
647.462
678.996
730.404
518.505
504.115
572.158
708.67
449.572
766.945
518.202
496.119
570.44
380.197
353.153
455.503
538.704
426.194
615.025
385.727
354.748
456.218
305.861
306.201
306.147
306.486
306.467
306.778
306.09
306.29
306.221
609.883
651.856
689.052
592.235
451.555
640.88
613.811
678.268
697.175
569.594
651.053
620.628
608.657
448.953
678.446
572.318
677.318
621.662
542.49
649.42
602.633
674.981
448.799
735.076
542.89
675.523
602.293
304.883
306.644
305.128
306.134
307.264
306.259
305.156
306.854
305.255
306.112
306.506
306.354
306.961
307.451
306.986
306.287
306.615
306.433
306.403
306.457
306.452
307.834
307.841
307.816
306.462
306.559
306.49
304.829
304.971
305.342
305.846
305.906
306.222
304.994
305.145
305.526
306.208
305.974
306.062
306.7
306.704
306.937
306.284
306.058
306.161
306.846
306.68
306.364
307.859
307.82
307.792
306.853
306.685
306.366
305.021
304.667
304.54
306.041
305.725
305.641
305.466
305.09
304.941
305.91
305.796
306.046
306.83
306.614
306.651
306.102
305.997
306.234
306.258
306.592
306.756
307.813
307.837
307.883
306.312
306.642
306.806
305.677
305.872
305.363
307.472
307.142
306.528
306.689
306.648
305.917
305.724
305.999
305.65
308.06
307.737
307.303
306.502
306.496
305.899
305.363
305.586
305.44
308.641
308.231
307.995
306.103
305.87
305.501
305.091
305.39
305.206
309.795
308.414
308.483
305.664
305.352
305.207
300.865
300.974
300.894
304.584
304.763
307.248
300.844
300.972
300.889
292.898
292.898
292.898
295.544
295.539
295.851
292.898
292.898
292.898
305.765
306.457
306.412
306.713
307.318
307.588
305.986
306.727
306.769
305.813
306.406
306.376
307.401
307.803
308.038
305.964
306.575
306.58
305.553
305.916
306.047
307.955
308.084
308.443
305.555
305.942
306.17
305.26
305.432
305.613
308.561
308.491
309.422
305.254
305.424
305.729
300.845
300.994
300.525
307.316
304.801
304.287
300.852
300.777
300.736
292.898
292.898
292.898
295.942
295.632
295.47
292.898
292.898
292.898
)
;

boundaryField
{
    fuel
    {
        type            fixedValue;
        value           uniform 293;
    }
    primary_air
    {
        type            fixedValue;
        value           uniform 293;
    }
    Secondary_air_RHS
    {
        type            fixedValue;
        value           uniform 293;
    }
    Secondary_air_LHS
    {
        type            fixedValue;
        value           uniform 293;
    }
    outlet
    {
        type            inletOutlet;
        inletValue      uniform 293;
        value           nonuniform List<scalar> 
18
(
293
295.942
293
293
295.631
293
293
295.469
293
293
295.544
293
293
295.538
293
293
295.851
293
)
;
    }
    stove_body
    {
        type            fixedValue;
        value           uniform 293;
    }
    frontAndBack
    {
        type            empty;
    }
}


// ************************************************************************* //
