/*--------------------------------*- C++ -*----------------------------------*\
  =========                 |
  \\      /  F ield         | OpenFOAM: The Open Source CFD Toolbox
   \\    /   O peration     | Website:  https://openfoam.org
    \\  /    A nd           | Version:  6
     \\/     M anipulation  |
\*---------------------------------------------------------------------------*/
FoamFile
{
    version     2.0;
    format      ascii;
    class       volVectorField;
    location    "1";
    object      U;
}
// * * * * * * * * * * * * * * * * * * * * * * * * * * * * * * * * * * * * * //

dimensions      [0 1 -1 0 0 0 0];

internalField   nonuniform List<vector> 
297
(
(68.7974 -0.0119805 0.185039)
(68.7976 -0.000237709 0.171472)
(68.7975 0.0119738 0.185022)
(1.53307e-05 0.0259045 0.305682)
(1.5681e-05 -0.000781669 0.296202)
(1.53236e-05 -0.0239081 0.304597)
(-68.7975 -0.0116235 0.184749)
(-68.7978 -0.000213832 0.16989)
(-68.7975 0.0116119 0.184837)
(68.8612 -0.0451963 0.24358)
(68.9872 -0.000916478 0.25401)
(68.8605 0.0438766 0.24257)
(1.53505e-05 0.0663692 0.217192)
(1.66884e-05 0.00603668 0.329345)
(1.54053e-05 -0.0726374 0.23519)
(-68.8719 -0.0451875 0.243432)
(-69.0131 -0.000995603 0.256352)
(-68.8713 0.0438092 0.242282)
(71.9038 -0.192577 0.47309)
(68.4775 -0.0030629 0.40416)
(71.9069 0.190232 0.472724)
(1.44831e-05 0.0260942 0.194421)
(1.61932e-05 0.0346694 -0.272795)
(1.4576e-05 -0.0391439 0.18947)
(-72.0829 -0.19556 0.472271)
(-68.6117 -0.00237941 0.396392)
(-72.0756 0.19326 0.471798)
(63.5156 7.07774 -7.54659)
(61.8424 6.42557 -3.8261)
(54.8705 3.36752 2.87226)
(-0.000686068 1.86411 4.31182)
(-0.000550098 -0.371452 4.07829)
(-0.000382491 0.359321 6.22365)
(-63.5476 7.05843 -7.60973)
(-61.9427 6.56978 -3.74133)
(-54.9813 3.44703 3.23503)
(69.6892 11.5425 -14.2023)
(69.864 10.0342 -10.145)
(64.1407 10.9467 11.4328)
(-0.00213308 11.2571 38.2543)
(-0.00213521 1.42351 29.0365)
(-0.00140664 0.344087 35.9577)
(-69.7213 11.4466 -14.5592)
(-70.1966 10.3407 -10.4086)
(-64.0186 11.1562 11.2544)
(68.761 9.05255 -19.2703)
(70.2959 -11.2622 -3.49409)
(90.6338 -16.6065 34.1818)
(0.000558443 -8.28181 54.172)
(-0.00341451 -4.55715 13.0995)
(-0.00335513 10.3632 56.978)
(-68.8488 8.80868 -19.5949)
(-72.7429 -11.7944 -3.58646)
(-92.4015 -16.2086 35.796)
(62.5834 -0.683678 -53.6221)
(59.326 -5.82799 -30.7328)
(70.7771 -0.471268 -38.6613)
(0.00276691 0.860626 -1.20658)
(0.00545895 8.37083 -37.1186)
(0.00788268 -5.45262 31.9217)
(-62.3666 -0.887796 -53.2721)
(-59.8941 -6.28641 -30.5629)
(-71.981 -0.325467 -37.9712)
(58.0159 20.8989 -38.7358)
(59.2934 -4.72538 -38.5902)
(68.5657 -9.77703 -22.5647)
(0.00257884 -1.64577 -11.0092)
(0.00262316 3.2593 -16.9088)
(0.00876292 -8.18442 23.0908)
(-57.5179 21.1404 -38.1984)
(-60.0103 -4.72387 -38.481)
(-71.6044 -7.47168 -22.175)
(49.8887 22.6417 -30.8004)
(56.0296 -15.2517 -30.0989)
(62.4506 -24.3186 -24.2323)
(0.00105382 0.666633 -3.88198)
(1.46244e-05 2.80688 -21.5459)
(0.00194872 -4.90409 21.9126)
(-49.2677 23.0315 -30.5462)
(-54.6415 -16.2309 -29.0782)
(-63.6923 -21.5904 -24.3971)
(58.0871 11.7247 -64.5793)
(58.8687 -18.4742 -16.5742)
(90.6012 -40.9666 -31.4579)
(-0.0122302 -6.09072 75.0422)
(0.00111689 -3.47059 -39.3193)
(0.00424956 1.09247 76.3234)
(-58.2229 11.5283 -64.1779)
(-61.009 -19.8842 -16.2526)
(-94.4412 -43.3246 -30.339)
(58.1958 6.77099 -67.7803)
(56.8312 -13.0826 -15.5162)
(74.3292 -15.2433 -41.8582)
(-0.010657 -4.40282 83.8838)
(0.00159277 0.562336 -41.0176)
(0.00463299 1.44276 83.3092)
(-58.2592 6.53578 -67.3656)
(-58.0447 -13.9969 -15.078)
(-76.4397 -15.849 -41.7007)
(59.8065 3.19715 -64.2785)
(58.2544 -10.397 -20.4319)
(66.9748 -8.96462 -40.6037)
(-0.00969047 -2.65926 83.1911)
(0.00212735 2.72776 -39.6662)
(0.00464551 -5.47227 90.0001)
(-59.5197 2.91739 -63.7823)
(-59.4876 -11.0549 -19.9277)
(-68.6274 -9.07934 -40.0285)
(47.0967 38.0128 -8.12713)
(49.5046 -0.59835 -9.58286)
(50.1654 -40.1732 -9.02219)
(-0.00434109 -3.60881 -4.70736)
(0.000806795 -8.2021 -5.77674)
(0.00727362 -2.42955 15.6553)
(-46.7465 40.3424 -9.80255)
(-50.5305 -4.89243 -10.7354)
(-51.4917 -36.9336 -7.02288)
(47.1579 29.7185 -0.541742)
(48.5104 -4.9341 -1.83427)
(49.3625 -30.0687 3.03423)
(-0.000142473 0.255268 -3.28294)
(-0.000711247 -7.52623 -5.26077)
(0.00375975 -0.315752 7.37978)
(-46.9747 28.113 3.69295)
(-49.7974 -14.9787 -2.37443)
(-50.8459 -29.9237 -0.270789)
(46.8124 2.09593 2.40895)
(48.6538 -1.76888 0.303324)
(49.6361 2.54851 -1.69237)
(0.000731371 -8.1891 -1.58112)
(-6.64929e-05 -6.83062 -0.676886)
(0.00300538 2.50397 -0.45783)
(-48.5515 -8.13803 -2.59873)
(-50.1557 -9.91171 1.91373)
(-50.2466 -5.54971 4.06584)
(46.1446 -45.3198 -4.66253)
(45.99 -50.3388 -8.48195)
(45.8138 -53.6341 -9.52561)
(0.0315233 -2.27693 -1.64309)
(0.0349262 -13.0177 -3.02252)
(0.0737662 -18.3359 -3.29734)
(-45.2214 -39.4837 -2.95905)
(-46.4606 -45.2765 -7.56011)
(-46.8417 -41.367 -14.1347)
(49.0134 -32.5966 7.51979)
(47.3984 -34.8322 7.08785)
(46.5625 -41.2144 5.04994)
(0.0218881 7.66596 1.47471)
(0.036645 17.0449 4.84309)
(0.0777622 -7.27804 10.3121)
(-48.7522 -30.9605 4.08668)
(-46.9108 -34.8785 -1.44736)
(-47.0039 -26.6821 -10.1608)
(49.5761 1.85989 8.68238)
(48.5448 7.60709 9.74874)
(48.8512 18.5969 11.8529)
(0.0122767 9.20353 -1.6954)
(0.031302 18.6707 0.985799)
(0.0718568 25.6341 4.89916)
(-49.5385 -9.17714 12.6704)
(-47.1879 1.30068 12.9388)
(-47.0765 -15.8037 -15.3939)
(46.855 42.6218 -14.5308)
(46.4762 46.9658 -7.91522)
(45.4214 41.3901 -2.95999)
(-0.0728194 18.7372 -3.07109)
(-0.0336539 12.416 -4.07124)
(-0.0317743 4.85327 0.312043)
(-45.6031 53.5216 -9.59481)
(-45.7764 50.0625 -8.56203)
(-46.044 45.7349 -5.1501)
(47.0146 27.5896 -10.8723)
(46.8702 35.9161 -1.82857)
(46.3263 31.8474 3.29961)
(-0.0732151 8.04894 9.76373)
(-0.0231233 -14.9343 1.88836)
(-0.0119947 -4.50657 -1.6013)
(-46.5641 41.2363 5.47674)
(-46.7561 35.1423 7.6736)
(-46.664 32.9579 8.19591)
(47.1095 14.9137 -16.3617)
(47.2186 -1.45246 14.4878)
(47.2738 8.1992 12.2084)
(-0.0587035 -22.3292 5.35509)
(-0.0222554 -13.0108 1.3697)
(-0.00601037 -8.41453 -0.215557)
(-47.1529 -20.0977 9.00637)
(-47.5 -11.3611 5.1198)
(-47.5948 -6.97639 3.31476)
(46.5763 7.98737 -24.4697)
(46.6516 20.4423 -23.0084)
(46.6239 32.4517 -17.6903)
(0.0160166 13.076 -9.49869)
(-0.0301423 14.773 -6.38067)
(-0.0855849 20.5206 -2.95709)
(-45.0425 24.1704 -31.7188)
(-44.8005 31.0481 -23.4536)
(-46.1658 51.279 -17.7457)
(46.2456 5.41796 -37.0081)
(46.2954 13.5998 -32.482)
(46.7233 22.6451 -24.1214)
(-0.0439019 7.27979 -8.46056)
(-0.102299 10.8893 2.77302)
(-0.120315 15.4565 12.1854)
(-45.5059 5.96379 -54.9203)
(-45.6287 21.8746 -30.048)
(-46.8556 39.347 -4.75889)
(47.5261 -0.497516 -48.7971)
(47.0061 7.99093 -44.2468)
(47.3063 9.51443 -32.7335)
(-0.106108 4.56984 -18.1661)
(-0.135953 -5.92521 16.4199)
(-0.13009 -17.9047 19.3755)
(-47.3249 3.44476 -71.409)
(-45.959 20.5882 -21.602)
(-46.119 -15.5118 22.1385)
(46.5755 -4.19349 -78.0745)
(46.2931 -6.48019 -71.6512)
(46.2617 -3.86608 -72.5005)
(-0.321099 -2.63029 34.3173)
(-0.325311 -0.355813 48.1528)
(-0.333804 -10.8469 44.0786)
(-47.0491 -8.72013 -103.635)
(-46.8164 11.4323 14.6727)
(-47.0077 -3.04177 68.9085)
(45.7554 1.07181 -137.732)
(45.7134 0.442125 -136.976)
(45.6031 0.782973 -136.563)
(-0.139273 1.09797 71.9334)
(-0.149884 3.55064 78.0417)
(-0.166033 -1.69843 75.9039)
(-45.7034 2.69892 -138.173)
(-45.7286 -5.4273 -76.0239)
(-45.6751 1.58262 111.922)
(43.857 -0.163832 -167.072)
(43.835 -0.0488918 -166.784)
(43.73 -0.113424 -166.537)
(0.300311 -1.17518 162.776)
(0.316286 0.597695 173.52)
(0.337119 -0.884498 199.139)
(-43.0448 -5.51832 -156.468)
(-42.812 -7.56728 -112.344)
(-43.8623 -3.67503 -3.40443)
(46.2867 -51.3816 -17.5969)
(44.917 -31.2017 -23.5159)
(45.3276 -24.4217 -31.8029)
(0.0842388 -20.2313 -2.88234)
(0.0257686 -14.523 -6.21808)
(-0.0205713 -12.8174 -9.46176)
(-46.6182 -31.3007 -17.1564)
(-46.632 -20.3243 -22.0702)
(-46.5721 -6.97413 -24.1524)
(46.8652 -39.7959 -4.83092)
(45.6333 -21.8235 -30.1471)
(45.6913 -6.2595 -55.0329)
(0.123273 -15.0363 12.4257)
(0.102893 -10.9129 2.74529)
(0.0416725 -7.26518 -8.45327)
(-46.723 -21.0715 -23.8033)
(-46.3138 -13.4714 -30.9147)
(-46.2468 -5.16014 -35.7788)
(47.5124 13.0024 23.4138)
(45.913 -20.6359 -21.852)
(47.4816 -3.55638 -71.3683)
(0.146864 20.593 19.4398)
(0.143982 7.22736 17.1339)
(0.10608 -4.57141 -17.9706)
(-47.2684 -8.47184 -32.059)
(-46.9898 -7.46255 -42.9628)
(-47.5017 0.919783 -47.4904)
(47.4894 1.8084 69.1539)
(46.9995 -10.222 16.0868)
(46.8968 8.82224 -103.018)
(0.354488 11.629 44.3695)
(0.338707 0.257742 48.7494)
(0.326042 1.93503 34.671)
(-46.2345 3.63664 -71.7811)
(-46.2753 6.30817 -70.0407)
(-46.5386 3.71148 -75.9069)
(46.4469 -2.3977 112.111)
(45.9349 5.83994 -75.4776)
(45.7651 -2.61656 -137.424)
(0.172249 1.7306 76.5284)
(0.154211 -3.74599 77.7387)
(0.143846 -1.38315 70.9088)
(-45.3262 -0.701747 -135.177)
(-45.6926 -0.481886 -135.591)
(-45.7522 -0.825868 -136.369)
(44.5217 3.16258 -3.55374)
(43.0045 7.60667 -112.174)
(43.0909 5.55161 -155.748)
(-0.338856 0.768526 201.844)
(-0.313486 -0.601616 174.019)
(-0.295155 1.11477 162.691)
(-43.683 0.0935727 -164.86)
(-43.8166 0.0697767 -165.598)
(-43.8432 0.133226 -165.909)
)
;

boundaryField
{
    fuel
    {
        type            fixedValue;
        value           uniform (0 0 0.25);
    }
    primary_air
    {
        type            fixedValue;
        value           uniform (0 0 2.5);
    }
    Secondary_air_RHS
    {
        type            fixedValue;
        value           uniform (0 50 0);
    }
    Secondary_air_LHS
    {
        type            fixedValue;
        value           uniform (0 -50 0);
    }
    outlet
    {
        type            pressureInletOutletVelocity;
        value           nonuniform List<vector> 
18
(
(0 0 -3.55374)
(-0.338856 0.768526 201.844)
(0 0 -164.86)
(0 0 -112.174)
(-0.313486 -0.601616 174.019)
(0 0 -165.598)
(0 0 -155.748)
(-0.295155 1.11477 162.691)
(0 0 -165.909)
(0 0 -167.072)
(0.300311 -1.17518 162.776)
(0 0 -156.468)
(0 0 -166.784)
(0.316286 0.597695 173.52)
(0 0 -112.344)
(0 0 -166.537)
(0.337119 -0.884498 199.139)
(0 0 -3.40443)
)
;
    }
    stove_body
    {
        type            noSlip;
    }
    frontAndBack
    {
        type            empty;
    }
}


// ************************************************************************* //
