/*--------------------------------*- C++ -*----------------------------------*\
  =========                 |
  \\      /  F ield         | OpenFOAM: The Open Source CFD Toolbox
   \\    /   O peration     | Website:  https://openfoam.org
    \\  /    A nd           | Version:  6
     \\/     M anipulation  |
\*---------------------------------------------------------------------------*/
FoamFile
{
    version     2.0;
    format      ascii;
    class       volVectorField;
    location    "1";
    object      U;
}
// * * * * * * * * * * * * * * * * * * * * * * * * * * * * * * * * * * * * * //

dimensions      [0 1 -1 0 0 0 0];

internalField   nonuniform List<vector> 
297
(
(21.7029 -0.00121225 0.125754)
(21.8225 0.00114012 0.129268)
(21.7063 0.00139788 0.125673)
(7.65414e-08 0.0471907 -0.068179)
(5.51714e-08 0.000991742 -0.068741)
(1.54878e-08 -0.0483535 -0.0691287)
(-21.7029 -0.0012121 0.125754)
(-21.8225 0.00114044 0.129268)
(-21.7063 0.00139805 0.125673)
(21.3566 -0.00935687 0.205176)
(21.3594 0.000980766 0.205512)
(21.361 0.00937036 0.205097)
(5.28921e-08 0.0149995 -0.134003)
(3.05541e-08 0.000692106 -0.142725)
(2.86849e-09 -0.017541 -0.134894)
(-21.3565 -0.00935714 0.205177)
(-21.3593 0.000981269 0.205513)
(-21.3609 0.00937093 0.205098)
(19.2344 -0.0404622 0.337778)
(19.4013 0.000688819 0.353264)
(19.2595 0.0397439 0.33846)
(4.01769e-08 -0.0364932 0.203332)
(1.92686e-08 -0.000250571 0.220963)
(-8.43107e-09 0.0333011 0.204106)
(-19.2341 -0.0404602 0.337776)
(-19.401 0.000689865 0.353262)
(-19.2594 0.0397431 0.338459)
(31.39 21.6641 -2.55132)
(31.9449 7.20805 5.73869)
(35.3308 -23.7998 5.77926)
(-0.00524042 12.7441 1.29486)
(-0.00573414 3.54262 0.301256)
(-0.00608943 -17.2206 4.34611)
(-31.5725 22.184 -2.91678)
(-31.9425 8.19109 4.94081)
(-35.4552 -25.046 6.19631)
(31.4284 26.5246 10.8516)
(33.2263 5.98757 49.4533)
(35.5042 -26.8851 22.4324)
(-0.00582175 42.0359 110.726)
(-0.010192 -1.61519 106.782)
(-0.00979841 -48.4421 120.516)
(-31.6253 26.9379 10.8118)
(-33.3059 4.36003 52.5243)
(-35.6748 -28.1629 22.0932)
(30.7769 16.0629 -50.0886)
(32.9917 -0.638267 80.6485)
(34.7681 -18.1055 -31.0034)
(0.0188833 -24.1854 168.029)
(0.0167027 2.37489 -24.2311)
(0.0174825 24.0276 182.118)
(-30.9058 14.5677 -46.2606)
(-33.6622 0.0564824 70.5208)
(-34.8665 -17.8938 -28.6342)
(25.8858 -24.4328 -170.295)
(24.4418 -6.35146 -26.833)
(28.6356 27.9311 -171.697)
(0.00706197 9.17898 -12.8591)
(0.00233565 7.03715 -99.4867)
(0.00916332 -10.0178 3.29033)
(-25.8553 -23.2037 -165.918)
(-24.0485 -6.58171 -23.678)
(-28.5276 26.1017 -167.044)
(18.7442 49.2662 -97.3694)
(17.2918 -16.2507 -82.7415)
(22.4731 -41.8648 -99.3071)
(-0.00248996 27.6066 -81.329)
(-0.00416539 6.40323 -77.2334)
(-0.00177213 -22.6782 -76.4396)
(-19.0183 48.7978 -96.996)
(-17.3737 -14.5425 -82.2801)
(-22.5103 -42.2733 -98.622)
(15.0563 35.2603 -32.9451)
(15.0664 -16.77 -25.9627)
(15.0868 -37.7925 -32.5931)
(-0.000225804 35.3649 -30.2503)
(-0.000715839 13.9111 -32.271)
(-0.000503859 -25.4565 -29.3034)
(-15.0684 35.2376 -33.1032)
(-15.0727 -17.1232 -26.7864)
(-15.0913 -37.6653 -32.8051)
(25.7735 20.9608 -280.082)
(31.5251 -2.46798 116.08)
(29.0149 -20.0571 -287.82)
(0.104965 -9.06116 239.267)
(0.125729 6.60343 -119.745)
(0.132254 7.09592 256.151)
(-25.591 20.1865 -270.793)
(-33.5923 -2.42432 91.3101)
(-28.9163 -20.7508 -277.32)
(25.743 -2.4265 -265.314)
(28.7699 -2.57995 114.331)
(28.0563 5.34707 -271.277)
(0.0881452 -5.07486 272.329)
(0.110361 6.73297 -123.609)
(0.118859 5.25211 290.783)
(-25.4667 -1.66219 -261.411)
(-30.0444 -2.74857 97.6664)
(-27.6548 3.76034 -265.738)
(25.7593 -0.0174966 -236.91)
(29.0728 -2.02265 108.306)
(28.6145 2.86441 -241.573)
(0.0712528 11.5728 272.811)
(0.102514 6.86565 -124.302)
(0.0943304 -13.4133 293.544)
(-25.5326 -0.69341 -231.838)
(-29.254 -2.62632 95.9167)
(-28.2739 2.78395 -235.447)
(14.8696 65.3138 -17.2968)
(15.0058 2.73026 -18.0385)
(14.8831 -65.2896 -17.8207)
(-0.000161031 51.8358 -19.1054)
(-0.000241891 -5.36443 -20.0565)
(-0.000211186 -52.7061 -17.3199)
(-14.8834 65.2392 -17.3186)
(-15.0165 2.77846 -18.0883)
(-14.8896 -65.2628 -17.8923)
(15.0594 32.6587 -6.97368)
(15.1209 -2.9018 -1.38899)
(15.0704 -31.2836 -7.08114)
(-0.000122508 35.6759 -7.84733)
(-0.000165783 -0.33161 -9.48902)
(-0.000134898 -36.7272 -7.37694)
(-15.0684 32.6412 -6.98169)
(-15.1265 -3.10883 -1.69217)
(-15.0743 -31.157 -7.10728)
(15.119 -5.76681 -5.66258)
(15.1303 0.569791 3.0394)
(15.1173 6.24972 -5.33922)
(-0.000135558 19.876 -5.35163)
(-0.000154303 -3.86486 -4.68463)
(-0.000133574 -20.6813 -4.33352)
(-15.1224 -5.70577 -5.74452)
(-15.1362 0.65116 2.85779)
(-15.1195 6.13598 -5.48436)
(14.8501 -70.0614 -7.8174)
(14.9776 -63.1226 -11.3327)
(14.9223 -54.0585 -15.0963)
(-0.000134623 -56.7942 -6.36312)
(-0.000113533 -53.2602 -6.04933)
(-7.84683e-05 -45.4918 -6.30502)
(-14.8584 -70.0782 -7.80095)
(-14.9865 -63.1097 -11.3125)
(-14.9315 -54.0331 -15.0932)
(14.9974 -49.0233 -4.16583)
(15.062 -50.9384 -12.8266)
(14.8864 -44.2073 -24.0858)
(-0.000127774 -46.5661 0.610242)
(-0.000134478 -46.2655 2.4867)
(-0.000100676 -39.6854 4.56884)
(-15.0012 -49.0969 -4.18176)
(-15.0666 -50.9694 -12.8327)
(-14.8913 -44.2222 -24.1394)
(15.1393 -1.67151 -3.2536)
(15.1148 -22.4904 -22.571)
(14.9558 -37.1179 -34.3453)
(-0.000139909 -27.2623 3.23324)
(-0.000143604 -28.874 4.47598)
(-0.000149943 -29.8465 4.25533)
(-15.1401 -1.82022 -3.21678)
(-15.1157 -22.5169 -22.511)
(-14.9564 -37.1487 -34.3722)
(14.9081 53.8155 -15.0433)
(14.9637 62.8781 -11.3003)
(14.8371 69.7458 -7.78204)
(-0.00016234 45.2839 -6.30358)
(-0.000142279 52.8625 -5.99595)
(-0.000153257 56.5915 -6.39797)
(-14.9303 53.6934 -15.0173)
(-14.9849 62.7758 -11.2625)
(-14.8573 69.6724 -7.75106)
(14.8811 44.0222 -24.0088)
(15.0544 50.8788 -12.8199)
(14.9909 48.8681 -4.17222)
(-0.000114637 39.4342 4.53069)
(-0.00012381 45.9642 2.52636)
(-0.000133899 46.2517 0.530418)
(-14.8902 43.9493 -24.0479)
(-15.0647 50.8337 -12.8267)
(-15.0005 48.8557 -4.19991)
(14.9522 37.0173 -34.2439)
(15.1119 22.4467 -22.2634)
(15.136 1.94794 -3.2813)
(-8.04204e-05 29.572 4.27966)
(-9.41427e-05 28.5643 4.4873)
(-0.000119986 26.8789 3.23955)
(-14.9553 36.9926 -34.2546)
(-15.1149 22.4 -22.1963)
(-15.1389 2.00456 -3.21475)
(14.8106 16.5972 -27.0601)
(14.8225 25.1837 -18.3012)
(14.8626 38.9036 -21.7145)
(-0.000652068 15.264 -13.6628)
(-0.000497986 22.593 -6.98322)
(-0.000293595 34.1003 -7.94535)
(-14.8616 16.5388 -26.9455)
(-14.8615 25.1317 -18.1909)
(-14.8902 38.7843 -21.654)
(14.8463 6.22052 -41.9694)
(14.8738 21.6575 -29.1856)
(14.8131 36.5 -36.663)
(-0.000514202 11.0193 -11.8506)
(-0.000345745 18.2504 -5.39328)
(-0.000169889 30.4675 -2.40332)
(-14.8856 6.23349 -41.8275)
(-14.8988 21.665 -29.0958)
(-14.8243 36.4286 -36.6329)
(15.0011 5.39112 -52.8957)
(14.895 23.1949 -46.4973)
(14.8539 20.7847 -57.293)
(-0.000396528 8.88593 -19.634)
(-0.000252781 18.352 -12.9669)
(-0.000123445 25.0576 -2.9396)
(-15.0383 5.40657 -52.7552)
(-14.9102 23.1622 -46.4436)
(-14.8573 20.7452 -57.292)
(14.9859 -7.3371 -84.4398)
(14.9845 -5.61611 -77.4487)
(15.0019 -10.6671 -81.5845)
(6.97691e-05 -7.42688 -2.55366)
(9.38733e-05 0.910183 8.86879)
(0.000112102 -6.73871 12.5985)
(-15.0138 -7.2605 -84.3343)
(-14.9826 -5.5534 -77.4308)
(-15.0017 -10.6745 -81.5507)
(14.7312 3.18001 -146.869)
(14.723 -1.0825 -147.328)
(14.7127 4.3123 -146.137)
(0.000168462 -4.63132 74.4243)
(0.000135647 0.0220979 72.1919)
(0.000125653 -2.47745 61.6401)
(-14.7297 3.14972 -146.827)
(-14.7226 -1.07711 -147.294)
(-14.7121 4.32513 -146.099)
(14.0428 -0.041168 -178.254)
(14.0408 -0.00679295 -178.099)
(14.0394 -0.0819621 -177.791)
(7.46073e-05 -0.993834 167.772)
(7.412e-05 1.00198 167.168)
(7.3611e-05 -0.324955 164.282)
(-14.0426 -0.0404204 -178.231)
(-14.0406 -0.00646351 -178.08)
(-14.0392 -0.0817644 -177.773)
(14.8806 -39.0344 -21.8028)
(14.8492 -25.3122 -18.3375)
(14.8446 -16.6623 -27.1632)
(-0.000100936 -34.3425 -7.99506)
(-0.000178338 -22.6745 -6.99401)
(-0.000254327 -15.4368 -13.6889)
(-14.8915 -38.9868 -21.7774)
(-14.8628 -25.2908 -18.2807)
(-14.8627 -16.6341 -27.0942)
(14.8178 -36.6157 -36.8232)
(14.8919 -21.7762 -29.2879)
(14.8765 -6.25084 -42.1679)
(-7.38013e-05 -30.6484 -2.46343)
(-0.00011543 -18.3708 -5.44113)
(-0.000186961 -11.0813 -11.9406)
(-14.8249 -36.617 -36.8559)
(-14.9005 -21.7854 -29.2795)
(-14.8871 -6.26093 -42.082)
(14.8575 -20.8499 -57.5855)
(14.9101 -23.2775 -46.7075)
(15.0341 -5.42581 -53.1719)
(-8.17297e-05 -25.1799 -3.0489)
(-9.03746e-05 -18.4757 -13.0683)
(-0.00014379 -8.93026 -19.7674)
(-14.8576 -20.8475 -57.6093)
(-14.912 -23.2837 -46.7503)
(-15.0404 -5.43144 -53.0909)
(15.0039 10.6784 -81.9676)
(14.9859 5.61472 -77.7884)
(15.0109 7.3491 -84.9066)
(1.19722e-05 6.74984 12.4872)
(1.78083e-05 -0.905964 8.47054)
(1.51536e-05 7.46656 -2.75533)
(-15.0036 10.6766 -81.9361)
(-14.9856 5.60704 -77.9307)
(-15.0165 7.31534 -84.8547)
(14.7096 -4.31129 -146.548)
(14.7234 1.08534 -147.73)
(14.714 -3.18092 -147.287)
(2.09514e-05 2.51842 61.5886)
(1.69132e-05 -0.00584952 72.3819)
(2.51312e-05 4.65767 74.5307)
(-14.7099 -4.30488 -146.541)
(-14.7127 1.07102 -147.744)
(-14.7243 -3.17203 -147.264)
(14.0394 0.0827849 -178.163)
(14.0409 0.0113734 -178.474)
(14.0428 0.0439934 -178.616)
(1.40267e-05 0.322424 164.097)
(1.50059e-05 -1.01435 166.986)
(2.5363e-05 0.999863 167.566)
(-14.0394 0.0823434 -178.161)
(-14.0408 0.00731389 -178.464)
(-14.0428 0.0404262 -178.62)
)
;

boundaryField
{
    fuel
    {
        type            fixedValue;
        value           uniform (0 0 0.1);
    }
    primary_air
    {
        type            fixedValue;
        value           uniform (0 0 0.1);
    }
    Secondary_air_RHS
    {
        type            fixedValue;
        value           uniform (0 159 0);
    }
    Secondary_air_LHS
    {
        type            fixedValue;
        value           uniform (0 -159 0);
    }
    outlet
    {
        type            pressureInletOutletVelocity;
        value           nonuniform List<vector> 
18
(
(0 0 -178.163)
(1.40267e-05 0.322424 164.097)
(0 0 -178.161)
(0 0 -178.474)
(1.50059e-05 -1.01435 166.986)
(0 0 -178.464)
(0 0 -178.616)
(2.5363e-05 0.999863 167.566)
(0 0 -178.62)
(0 0 -178.254)
(7.46073e-05 -0.993834 167.772)
(0 0 -178.231)
(0 0 -178.099)
(7.412e-05 1.00198 167.168)
(0 0 -178.08)
(0 0 -177.791)
(7.3611e-05 -0.324955 164.282)
(0 0 -177.773)
)
;
    }
    stove_body
    {
        type            noSlip;
    }
    frontAndBack
    {
        type            empty;
    }
}


// ************************************************************************* //
