/*--------------------------------*- C++ -*----------------------------------*\
  =========                 |
  \\      /  F ield         | OpenFOAM: The Open Source CFD Toolbox
   \\    /   O peration     | Website:  https://openfoam.org
    \\  /    A nd           | Version:  6
     \\/     M anipulation  |
\*---------------------------------------------------------------------------*/
FoamFile
{
    version     2.0;
    format      ascii;
    class       volScalarField;
    location    "3";
    object      O2;
}
// * * * * * * * * * * * * * * * * * * * * * * * * * * * * * * * * * * * * * //

dimensions      [0 0 0 0 0 0 0];

internalField   nonuniform List<scalar> 
297
(
0
0
0
0
0
0
0
0
0
0
0
0
0
0
0
0
0
0
0
0
0
0
0
0
0
0
0
0.0299757
0.0770992
0.0472739
0.0942198
0.134982
0.116311
0.0300062
0.0771734
0.0473
0
0.0133787
0
0.0153056
0.0659586
0.0303175
0
0.013404
0
0
0.0103061
0
0.012289
0.0158318
0.0152517
0
0.0103275
0
0.00208592
0.00619334
0.0020808
0
0.000827758
0
0.00209067
0.00620864
0.00208594
0
2.11837e-08
0
0
0
0
0
2.12218e-08
0
2.37821e-14
8.12348e-14
0
0
0
0
9.69388e-15
8.1583e-14
0
0
0.0103048
0
0
0.000855051
0
0
0.0103275
0
0
0.0102719
0
0
0.000827049
0
0
0.0102844
0
0
0.0102004
0
0
0.000827501
0
0
0.010225
0
5.18169e-19
2.47972e-18
0
0
3.43745e-20
0
1.52241e-19
2.44436e-18
0
6.98423e-23
4.8786e-22
3.21738e-24
6.39389e-24
1.87262e-22
4.77627e-24
2.20344e-23
4.69057e-22
1.71168e-23
2.8102e-23
4.86798e-22
2.68355e-23
6.41544e-24
2.75801e-22
4.66575e-24
2.36254e-23
4.67303e-22
2.48162e-23
0
4.2903e-34
9.78394e-38
0
3.82561e-31
7.26184e-36
0
0
2.81663e-37
6.98809e-29
1.25956e-32
9.04163e-37
7.08967e-29
1.09405e-31
3.05261e-36
1.9357e-28
1.74008e-32
9.22952e-37
1.74763e-27
7.37665e-32
1.66148e-36
1.3981e-28
1.02943e-32
9.7697e-37
1.62242e-27
6.87828e-32
1.56138e-36
8.08727e-34
7.71753e-29
6.62986e-24
1.42478e-34
8.24299e-30
0
4.83101e-34
2.28821e-29
1.9554e-24
1.82785e-36
5.16426e-32
1.61991e-27
1.70447e-35
5.26539e-31
6.5242e-29
1.67277e-36
3.39239e-32
5.50796e-28
2.03299e-36
8.09644e-32
1.88026e-27
3.14382e-36
2.12064e-32
1.89157e-28
2.60692e-36
1.07452e-31
1.57997e-27
3.33018e-47
1.22752e-42
2.43798e-38
5.04813e-47
4.20604e-43
4.09275e-39
5.29032e-47
7.44063e-43
1.46598e-38
2.04869e-49
2.94865e-45
5.71158e-41
9.83802e-49
6.15983e-45
2.61462e-40
7.42603e-49
2.99895e-45
7.31797e-41
2.80503e-49
1.0493e-45
4.09785e-41
7.75023e-49
1.51486e-45
6.61554e-41
8.94035e-49
1.03814e-45
5.02681e-41
4.15716e-49
2.52851e-48
1.42855e-46
7.34855e-49
9.21884e-47
9.34962e-46
8.69295e-49
8.08724e-48
2.97258e-46
7.87677e-53
7.75299e-52
5.0879e-51
9.17499e-48
9.10326e-47
5.94298e-46
6.74731e-53
1.0236e-51
4.59558e-51
2.47381e-53
2.41967e-52
1.42547e-51
4.40852e-48
4.2394e-47
2.55539e-46
2.47315e-53
2.4194e-52
1.42565e-51
9.03648e-42
1.12781e-45
5.66779e-49
1.75545e-40
6.75639e-45
1.43714e-48
2.53759e-41
1.20726e-45
9.67032e-49
3.96885e-41
2.2405e-45
5.79151e-49
6.48813e-41
1.95055e-45
7.75807e-49
4.10909e-41
2.0766e-45
8.29075e-49
3.35179e-41
8.67421e-46
5.03456e-49
2.13754e-41
5.14345e-46
6.93367e-49
3.01459e-41
6.1589e-46
7.74673e-49
1.57063e-46
2.79342e-48
4.67075e-49
3.80157e-46
4.16397e-47
6.71043e-49
1.75558e-46
7.12437e-48
7.62194e-49
1.62912e-51
3.53246e-52
2.25988e-53
2.42096e-46
4.11192e-47
3.53217e-48
1.95317e-51
3.06414e-52
2.65467e-53
5.81304e-52
1.08863e-52
9.46475e-54
1.04216e-46
1.9141e-47
1.6976e-48
5.81395e-52
1.08954e-52
9.36632e-54
)
;

boundaryField
{
    fuel
    {
        type            fixedValue;
        value           uniform 0;
    }
    primary_air
    {
        type            fixedValue;
        value           uniform 0.23;
    }
    Secondary_air_RHS
    {
        type            fixedValue;
        value           uniform 0.23;
    }
    Secondary_air_LHS
    {
        type            fixedValue;
        value           uniform 0.23;
    }
    outlet
    {
        type            inletOutlet;
        inletValue      uniform 0;
        value           nonuniform List<scalar> 
18
(
0
1.04216e-46
0
0
1.9141e-47
0
0
1.6976e-48
0
0
4.40852e-48
0
0
4.2394e-47
0
0
2.55539e-46
0
)
;
    }
    stove_body
    {
        type            fixedValue;
        value           uniform 0;
    }
    frontAndBack
    {
        type            empty;
    }
}


// ************************************************************************* //
