/*--------------------------------*- C++ -*----------------------------------*\
  =========                 |
  \\      /  F ield         | OpenFOAM: The Open Source CFD Toolbox
   \\    /   O peration     | Website:  https://openfoam.org
    \\  /    A nd           | Version:  6
     \\/     M anipulation  |
\*---------------------------------------------------------------------------*/
FoamFile
{
    version     2.0;
    format      ascii;
    class       surfaceScalarField;
    location    "3";
    object      phi;
}
// * * * * * * * * * * * * * * * * * * * * * * * * * * * * * * * * * * * * * //

dimensions      [1 0 -1 0 0 0 0];

internalField   nonuniform List<scalar> 
675
(
1.56637e-06
-4.71163e-05
0.000166296
1.74769e-06
-4.46e-05
0.000165155
-4.46582e-05
0.000167123
-3.22289e-06
4.71687e-05
0.000116892
7.91119e-07
4.45848e-05
0.000114793
4.46418e-05
0.000119453
1.60144e-06
0.000166326
1.76062e-06
0.000165172
0.000167127
8.81907e-07
-7.45531e-05
0.000237945
4.47351e-07
-7.54254e-05
0.000239004
-7.05446e-05
0.000236077
4.66905e-07
7.45939e-05
-2.90237e-05
-1.23919e-05
7.53975e-05
-1.93669e-05
7.05168e-05
-3.0294e-05
9.07655e-07
0.000238001
4.5948e-07
0.000239014
0.000236071
1.21123e-07
0.000113034
1.0844e-06
0.000113283
0.000112364
-2.14712e-06
-0.000113066
4.68392e-06
-0.000113306
-0.000112383
1.52718e-07
1.10857e-06
0.0127986
0.0116771
-0.0212314
-0.00222107
0.0125149
0.00575151
0.0133231
-0.0123045
0.00887772
-0.0116601
0.0196342
-0.00320138
-0.0124877
0.0422872
-0.0133061
0.0286038
0.0127961
-0.0212277
-0.00224018
0.00574716
-0.0123133
0.0385938
0.028229
-0.0881821
-0.0364274
-0.0130073
0.0935763
0.0283712
-0.0772239
0.0165781
-0.0282495
0.0596168
-0.0201071
0.0130111
0.053132
-0.0283846
0.0653436
0.0385949
-0.0880899
-0.0364326
0.0936237
-0.0771624
0.00691721
0.0653045
-0.160385
-0.00670626
0.00238228
0.104999
0.0683108
-0.152232
-0.118417
-0.0652789
0.308618
0.11613
-0.00234169
-0.176068
-0.0682774
0.318068
0.0069718
-0.160342
-0.00676519
0.104863
-0.152226
-0.0653461
-0.0732814
-0.0517239
0.190392
0.0628038
0.01427
-0.0554178
-0.0872405
-0.0750601
-0.0452812
0.183217
0.00965821
0.073289
0.0952
-0.251441
0.00502223
-0.0142914
-0.174779
0.206728
0.0750435
0.11748
-0.262586
-0.0653795
-0.0516704
0.190353
0.0628487
-0.0553344
-0.0873601
-0.045252
0.183217
0.00589805
-0.0273891
-0.0300488
-0.0206658
0.0108527
-0.0397303
-0.040102
-0.0256893
0.0598427
0.0274651
-0.0195499
-0.0458929
-0.0108329
-0.0477114
0.0400945
-0.00869487
0.00588846
-0.0300057
-0.0206031
-0.0396724
-0.0256849
-0.00934547
0.00367266
-0.0243702
-0.0226637
-0.000456732
-0.0259392
-0.0233189
-0.0250107
0.0283762
-0.00363154
-0.0406898
0.0199912
0.000492115
-0.0403461
0.0232272
-0.0353251
-0.00928151
-0.0243306
-0.0225186
-0.0258892
-0.0249547
-0.00227812
-0.00160164
-0.170358
0.00230524
0.000400608
0.100022
-0.00148634
-0.162479
-0.00699472
0.00160143
0.28963
0.0074628
-0.000403385
-0.189446
0.00148635
0.2997
-0.0022815
-0.170311
0.00230836
0.100135
-0.162468
-0.00218674
-0.000606428
-0.18112
0.00214619
-0.000585624
0.0962855
-0.000498083
-0.173563
-0.0031432
0.000606243
0.269562
0.00352214
0.000584001
-0.196998
0.000498093
0.280171
-0.00218711
-0.181073
0.0021456
0.0964562
-0.173554
-0.0051616
0.000424915
0.00502778
-0.00112653
0.000532358
-0.00359615
-0.000425183
0.00394171
0.00112529
-0.000532469
-0.0051534
0.00501893
0.00913336
-0.0020525
-0.010679
-0.020773
-0.00870742
-0.00145205
-0.00663447
-0.00237905
-0.0104047
-0.0209306
0.00878054
0.00205713
-0.0268555
-0.0267336
-0.0116507
0.00145916
-0.022817
0.00237846
-0.0251011
-0.0266405
0.00910844
-0.0106881
-0.0206933
-0.00865782
-0.00664867
-0.0103956
-0.0208372
0.00511643
0.000203835
-0.00159463
-0.0144054
-0.00617677
0.00173459
0.00293789
-8.0756e-05
-0.00192719
-0.0145709
0.00517839
-0.000181742
-0.0123265
-0.0193296
-0.00518485
-0.00172531
-0.00897949
8.71631e-05
-0.0110223
-0.019438
0.00511208
-0.00161262
-0.0143692
-0.00614481
0.00289912
-0.00192983
-0.0145226
-0.000196482
0.00171143
-0.00311025
0.0001959
0.00256005
0.00154123
-0.00327006
0.00140036
-0.00169459
-0.0103276
-0.00244949
-0.00255256
-0.00152908
-0.0104061
-0.000173504
-0.00313367
0.000189893
-0.00326806
-0.0190242
-0.000601724
-0.00130568
-0.019657
0.00222544
-0.00159429
0.00269581
-0.00682921
-0.0155245
-0.0257321
0.000602544
-0.00211777
-0.0226482
-0.00221724
0.00135461
-0.00268581
0.00313549
-0.0204036
-0.018934
-0.00130276
-0.0195633
-0.00158966
-0.00681204
-0.0154372
-0.0144988
-0.000681335
-0.000698439
-0.0146587
0.00149272
-0.00292967
0.000213325
-0.00762891
-0.0140731
-0.0215756
0.000682393
-0.00134835
-0.0178678
-0.00148738
0.000623831
-0.000208909
0.00395102
-0.0182618
-0.0144515
-0.000693483
-0.0146128
-0.00291748
-0.00761248
-0.0140214
-0.00408832
0.000118197
-0.00668334
-0.000336485
-0.00209012
-0.0122229
-0.0115254
-0.000115087
-0.011576
0.0003342
0.00208849
-0.0118054
-0.00407853
-0.00666356
-0.0121879
0.0194829
0.00267838
-0.00677613
-0.0153848
0.0188681
0.00222443
-0.00161085
-0.000570649
-0.00133595
0.0224822
-0.00266858
0.0030827
-0.0202193
0.0255641
-0.0022156
0.00135438
0.000573195
-0.00231824
0.0194043
-0.00676504
-0.0153078
0.018789
-0.00160205
-0.00133325
0.0145438
0.000211495
-0.00756269
-0.0139685
0.0143872
0.00150207
-0.00295756
-0.000635064
-0.000720809
0.017738
-0.000203503
0.00388549
-0.0181273
0.0214728
-0.00149463
0.000612398
0.000644436
-0.0014593
0.0145084
-0.00755287
-0.0139241
0.0143518
-0.00294185
-0.000708404
0.0066449
-0.00207176
-0.0121359
0.00398309
-0.000297047
0.000150277
0.0114852
0.00207283
-0.0117461
0.0114974
0.000299188
-0.000144058
0.00663268
-0.0121129
0.00398823
0.00672318
0.00222049
-0.00894106
0.0103872
0.00196611
-0.00562801
0.00229105
-0.00728725
0.00946669
-0.00220665
-0.00503683
0.0153017
-0.001954
-0.00191284
-0.00227859
-0.00034712
0.00666843
-0.00887209
0.010318
-0.00560114
-0.00726692
0.00501081
0.00192585
-0.0158755
0.00931581
0.00178686
-0.0117179
0.00123925
-0.0131781
0.00710885
-0.00191511
-0.00830243
0.0134327
-0.00177877
-0.00466939
-0.00122867
-0.00257326
0.00497916
-0.0157636
0.00927867
-0.0116773
-0.0131397
0.00604655
0.00413252
-0.0260528
0.00659762
0.00206012
-0.0143277
0.000864381
-0.0195799
0.00776876
-0.00411305
-0.00782416
0.0124301
-0.0020602
-0.00520939
-0.000862467
-0.000162376
0.0060039
-0.0258782
0.00657599
-0.0143076
-0.019538
-0.00731295
0.0131414
-0.0318789
-0.00122632
0.0110665
-0.0314785
0.0107985
-0.0316032
0.00177634
-0.0131406
0.0166714
-0.00240351
-0.0111038
0.0211302
-0.0108204
0.0190427
-0.00722783
-0.0317916
-0.00119002
-0.03145
-0.0315494
0.000165184
0.00559887
-0.0376413
0.000707054
0.00568352
-0.0377022
0.00630264
-0.0371971
-0.00297463
-0.00563979
0.0308806
-0.00193315
-0.0057246
0.0314918
-0.00633815
0.0297464
0.000188238
-0.0376158
0.000703267
-0.0376858
-0.0371804
-0.000101204
0.0176691
-0.000266329
0.0176502
0.0176443
-0.000449956
-0.0176807
0.000206688
-0.0176614
-0.0176555
-9.60772e-05
-0.000263993
-0.0104774
0.00230247
-0.00734953
-0.00678604
0.00197395
-0.00566478
0.00223949
-0.00902348
-0.0154472
-0.00228951
-0.000363075
-0.00956438
-0.00196171
-0.00194398
-0.00222532
-0.00509654
-0.0104034
-0.00732193
-0.00672552
-0.00563721
-0.00894787
-0.00938421
0.00124752
-0.0132853
-0.00505465
0.0018004
-0.0117933
0.0019423
-0.0160185
-0.0135554
-0.00124063
-0.00258028
-0.00717767
-0.00179337
-0.00472578
-0.00193135
-0.00839794
-0.0093457
-0.0132371
-0.00501938
-0.0117547
-0.0158959
-0.0066428
0.000861531
-0.0197264
-0.0060961
0.00207751
-0.0144162
0.00416266
-0.0262756
-0.0125551
-0.000862353
-0.000106561
-0.00784397
-0.00207821
-0.00528002
-0.0041408
-0.00793677
-0.00661946
-0.0196667
-0.00604966
-0.0144009
-0.0260839
0.00123469
0.0108197
-0.0317786
0.00736978
0.0110994
-0.0316482
0.0132075
-0.0321107
0.0024372
-0.0108402
0.0191057
-0.0017865
-0.0111365
0.0211695
-0.0132006
0.0166751
0.00120374
-0.0317125
0.0072857
-0.0316209
-0.0320002
-0.00069934
0.00628255
-0.0373599
-0.000139308
0.00565884
-0.0378653
0.00557149
-0.0378196
0.00200999
-0.0063254
0.0297008
0.00308382
-0.00570852
0.0314581
-0.00562123
0.0309487
-0.000694259
-0.0373396
-0.000173708
-0.0378458
-0.0377911
0.00026904
0.0175948
0.000106272
0.017601
0.0176132
-0.000239385
-0.0176078
0.000377248
-0.0176141
-0.0176266
0.00026713
0.000101318
)
;

boundaryField
{
    fuel
    {
        type            calculated;
        value           nonuniform List<scalar> 
36
(
0.000122766
0.000204318
0.000122766
0.000122766
0.000204318
0.000122766
0.000122767
0.000204318
0.000122767
-0.000122766
-0.000204318
-0.000122766
-0.000122767
-0.000204318
-0.000122767
-0.000122767
-0.000204318
-0.000122767
0
0
0
0
0
0
0
0
0
0
0
0
0
0
0
0
0
0
)
;
    }
    primary_air
    {
        type            calculated;
        value           nonuniform List<scalar> 9(-0.00318247 -0.00528304 -0.0031825 -0.00318296 -0.00528508 -0.00318296 -0.00318261 -0.00528512 -0.00318265);
    }
    Secondary_air_RHS
    {
        type            calculated;
        value           nonuniform List<scalar> 9(0.0140376 0.0228813 0.0140377 0.0137335 0.0220726 0.0137337 0.0141568 0.0226028 0.0141572);
    }
    Secondary_air_LHS
    {
        type            calculated;
        value           nonuniform List<scalar> 9(0.0138538 0.0227999 0.0138545 0.0135598 0.0220141 0.0135607 0.014017 0.0225757 0.014018);
    }
    outlet
    {
        type            calculated;
        value           nonuniform List<scalar> 
18
(
-0.055223
0.0651409
-0.0552143
-0.0553028
0.066057
-0.055294
-0.0553258
0.066564
-0.0553162
-0.0552085
0.0666802
-0.0552002
-0.0551867
0.0661466
-0.0551792
-0.0551071
0.0652525
-0.0550998
)
;
    }
    stove_body
    {
        type            calculated;
        value           uniform 0;
    }
    frontAndBack
    {
        type            empty;
        value           nonuniform 0();
    }
}


// ************************************************************************* //
