/*--------------------------------*- C++ -*----------------------------------*\
  =========                 |
  \\      /  F ield         | OpenFOAM: The Open Source CFD Toolbox
   \\    /   O peration     | Website:  https://openfoam.org
    \\  /    A nd           | Version:  6
     \\/     M anipulation  |
\*---------------------------------------------------------------------------*/
FoamFile
{
    version     2.0;
    format      ascii;
    class       volScalarField;
    location    "3";
    object      Qdot;
}
// * * * * * * * * * * * * * * * * * * * * * * * * * * * * * * * * * * * * * //

dimensions      [1 -1 -3 0 0 0 0];

internalField   nonuniform List<scalar> 
297
(
0.000129237
0.000129237
5.13572e-05
0.000258475
0.000102714
0
0.000207118
0.000129237
7.78802e-05
0.000129237
5.13572e-05
0.000129237
0.00015576
0.000102714
0
7.78802e-05
0.000129237
5.13572e-05
5.13572e-05
0.000129237
0.000129237
1.28393e-05
1.60491e-06
-1.49975e-09
0.000129237
7.78802e-05
7.78802e-05
-1.47219e-09
0
-1.47219e-09
-1.38952e-09
2.20456e-10
0
2.75571e-11
-1.44463e-09
2.75571e-11
-1.49975e-09
-1.48597e-09
-1.49975e-09
0
-2.9995e-09
2.75571e-11
-1.49975e-09
0
-1.49975e-09
-1.49975e-09
0
0
0
0
0
0
-1.49975e-09
0
0
0
-1.49975e-09
0
-2.9995e-09
-2.9995e-09
-1.49975e-09
6.88927e-12
-1.49803e-09
-1.49975e-09
-1.49975e-09
0
0
-2.9995e-09
-2.9995e-09
-1.49975e-09
-1.49975e-09
0
1.25315e-23
5.0126e-23
-1.49975e-09
-2.9995e-09
-2.9995e-09
-2.9995e-09
0
5.0126e-23
-1.49975e-09
0
6.88927e-12
0
-1.49975e-09
0
-1.49975e-09
-1.49975e-09
0
-1.49975e-09
-7.49874e-10
-1.49975e-09
-1.49975e-09
0
-1.49889e-09
-1.49975e-09
-1.49975e-09
-1.49975e-09
0
0
6.88927e-12
0
0
-1.49975e-09
-1.49975e-09
-1.49975e-09
-1.49975e-09
-1.49975e-09
-1.49975e-09
1.52972e-27
0
0
0
-2.9995e-09
-1.49975e-09
0
-1.49975e-09
-1.49975e-09
-1.49975e-09
-1.49975e-09
5.83543e-33
1.86734e-31
5.83543e-33
-1.49975e-09
-1.49975e-09
0
2.33417e-32
-1.49975e-09
0
-2.9995e-09
-2.9995e-09
-2.9995e-09
-1.49975e-09
0
2.33417e-32
-1.49975e-09
3.39667e-43
0
-2.9995e-09
0
1.06146e-44
-1.49975e-09
0
1.65853e-46
0
0
0
8.90417e-38
0
-2.9995e-09
0
0
-1.49975e-09
0
0
-1.49975e-09
-2.9995e-09
1.08693e-41
0
1.42467e-36
-1.49975e-09
0
6.79334e-43
4.45208e-38
-1.49975e-09
-2.9995e-09
-2.9995e-09
0
3.39667e-43
0
1.45886e-33
0
4.34774e-41
0
0
6.95638e-40
0
-1.49975e-09
-1.49975e-09
3.56167e-37
-1.49975e-09
-1.49975e-09
-1.49975e-09
-2.9995e-09
2.17387e-41
1.78083e-37
-1.49975e-09
-1.49975e-09
-1.49975e-09
-1.49975e-09
-1.49975e-09
0
-2.9995e-09
-2.9995e-09
5.18291e-48
-1.49975e-09
-1.49975e-09
-1.49975e-09
1.50842e-58
2.4714e-54
-1.49975e-09
0
-2.9995e-09
3.23932e-49
-1.49975e-09
0
-1.49975e-09
0
-1.49975e-09
0
0
-2.9995e-09
8.09829e-50
0
-1.49975e-09
-1.49975e-09
-1.49975e-09
-1.49975e-09
7.72313e-56
-1.49975e-09
7.72313e-56
-2.9995e-09
-1.49975e-09
0
-1.49975e-09
3.68268e-62
0
2.35691e-60
0
0
-1.49975e-09
-1.49975e-09
5.89228e-61
0
0
1.47307e-61
0
4.82696e-57
-1.49975e-09
-1.49975e-09
1.84134e-62
0
1.17846e-60
5.06143e-51
0
3.01685e-58
-2.9995e-09
0
1.20674e-57
-1.49975e-09
-1.49975e-09
-1.49975e-09
2.02457e-50
1.2357e-54
-1.49975e-09
8.09829e-50
0
0
2.02457e-50
-1.49975e-09
0
-1.49975e-09
6.17851e-55
-1.49975e-09
0
6.17851e-55
0
2.02457e-50
-1.49975e-09
6.0337e-58
-1.49975e-09
-1.49975e-09
0
3.08925e-55
-1.49975e-09
-1.49975e-09
-1.49975e-09
-1.49975e-09
-1.49975e-09
-1.49975e-09
-1.49975e-09
1.84134e-62
-1.49975e-09
3.86157e-56
0
-1.49975e-09
1.47307e-61
0
-1.49975e-09
-1.49975e-09
0
-1.49975e-09
0
-1.49975e-09
0
-1.49975e-09
-1.49975e-09
)
;

boundaryField
{
    fuel
    {
        type            calculated;
        value           uniform 0;
    }
    primary_air
    {
        type            calculated;
        value           uniform 0;
    }
    Secondary_air_RHS
    {
        type            calculated;
        value           uniform 0;
    }
    Secondary_air_LHS
    {
        type            calculated;
        value           uniform 0;
    }
    outlet
    {
        type            calculated;
        value           uniform 0;
    }
    stove_body
    {
        type            calculated;
        value           uniform 0;
    }
    frontAndBack
    {
        type            empty;
    }
}


// ************************************************************************* //
