/*--------------------------------*- C++ -*----------------------------------*\
  =========                 |
  \\      /  F ield         | OpenFOAM: The Open Source CFD Toolbox
   \\    /   O peration     | Website:  https://openfoam.org
    \\  /    A nd           | Version:  6
     \\/     M anipulation  |
\*---------------------------------------------------------------------------*/
FoamFile
{
    version     2.0;
    format      ascii;
    class       volScalarField;
    location    "3";
    object      T;
}
// * * * * * * * * * * * * * * * * * * * * * * * * * * * * * * * * * * * * * //

dimensions      [0 0 0 1 0 0 0];

internalField   nonuniform List<scalar> 
297
(
292.682
292.689
292.682
292.989
293.003
292.99
292.682
292.689
292.682
292.707
293.192
292.723
293.14
294.787
293.228
292.707
293.192
292.723
292.765
293.671
292.79
291.245
313.673
292.113
292.764
293.671
292.79
280.769
283.408
279.465
286.489
290.615
287.799
280.908
283.515
279.551
278.966
278.12
275.964
277.18
280.269
274.787
279.123
278.27
276.067
279.295
277.176
276.625
274.937
287.536
272.939
279.441
277.212
276.719
274.389
286.351
273.238
276.952
286.258
276.264
274.536
286.546
273.35
289.346
295.685
284.307
283.095
288.164
277.657
289.583
295.989
284.418
303.847
303.936
304.033
304.654
304.472
304.755
304.349
304.364
304.332
265.243
275.796
264.045
268.888
285.164
266.38
265.413
276.152
264.162
265.98
275.905
266.126
265.74
285.213
262.409
266.139
275.97
266.23
269.619
276.203
268.801
264.313
285.589
261.569
269.768
276.117
268.902
303.057
304.357
303.09
304.6
305.061
304.685
303.6
304.908
303.677
303.83
304.269
304.09
305.293
305.149
305.273
304.293
304.732
304.53
304.313
304.247
304.268
305.592
305.091
305.591
304.641
304.685
304.678
302.778
302.847
303.124
304.249
304.267
304.507
303.467
303.589
303.872
303.986
303.772
303.854
305.08
304.998
305.182
304.448
304.227
304.316
304.447
304.324
304.049
305.785
305.793
305.745
304.853
304.729
304.474
303.065
302.824
302.756
304.386
304.148
304.116
303.803
303.546
303.444
303.748
303.634
303.854
305.188
304.986
305.07
304.253
304.135
304.329
304.094
304.354
304.473
305.816
305.859
305.841
304.417
304.667
304.79
303.374
303.61
303.274
305.473
305.222
304.753
304.633
304.61
304.11
303.519
303.828
303.522
306
305.819
305.532
304.518
304.52
304.119
303.423
303.801
303.524
306.242
305.984
305.913
304.294
304.158
303.903
303.358
303.777
303.343
307.077
306.034
306.457
303.999
303.808
303.718
300.049
300.129
300.127
303.59
303.416
305.231
300.048
300.125
300.125
292.644
292.677
292.724
292.76
292.821
293.15
292.643
292.677
292.724
303.405
303.79
303.59
304.883
305.352
305.555
304.19
304.707
304.756
303.619
304.12
303.715
305.505
305.796
306.097
304.188
304.583
304.563
303.477
303.95
303.629
305.828
305.963
306.299
303.975
304.238
304.363
303.176
303.763
303.005
306.79
306.208
307.071
303.785
303.877
304.071
300.169
300.172
300.086
305.512
303.582
303.582
300.166
300.167
300.084
292.741
292.694
292.663
293.311
292.941
292.844
292.741
292.693
292.662
)
;

boundaryField
{
    fuel
    {
        type            fixedValue;
        value           uniform 293;
    }
    primary_air
    {
        type            fixedValue;
        value           uniform 293;
    }
    Secondary_air_RHS
    {
        type            fixedValue;
        value           uniform 293;
    }
    Secondary_air_LHS
    {
        type            fixedValue;
        value           uniform 293;
    }
    outlet
    {
        type            inletOutlet;
        inletValue      uniform 293;
        value           nonuniform List<scalar> 
18
(
293
293.311
293
293
292.941
293
293
292.844
293
293
292.76
293
293
292.821
293
293
293.15
293
)
;
    }
    stove_body
    {
        type            fixedValue;
        value           uniform 293;
    }
    frontAndBack
    {
        type            empty;
    }
}


// ************************************************************************* //
