/*--------------------------------*- C++ -*----------------------------------*\
  =========                 |
  \\      /  F ield         | OpenFOAM: The Open Source CFD Toolbox
   \\    /   O peration     | Website:  https://openfoam.org
    \\  /    A nd           | Version:  6
     \\/     M anipulation  |
\*---------------------------------------------------------------------------*/
FoamFile
{
    version     2.0;
    format      ascii;
    class       volScalarField;
    location    "4";
    object      O2;
}
// * * * * * * * * * * * * * * * * * * * * * * * * * * * * * * * * * * * * * //

dimensions      [0 0 0 0 0 0 0];

internalField   nonuniform List<scalar> 
297
(
0
0
0
0
0
0
0
0
0
0
0
0
0
0
0
0
0
0
0
0
0
0
0
0
0
0
0
0.0427673
0.0538779
0.103804
0.0174504
0.0264129
0.079383
0.0425148
0.054014
0.105687
0
0.00594017
0.0585599
0
0.000295269
0.0464914
0
0.00537577
0.0560705
0
0.000674102
0.041359
0
0.00024845
0.0416148
0
0.000917168
0.0387067
0
0
0
1.24962e-05
3.42231e-05
0
1.08323e-05
0
0
0
0
0
0
0
0
0
0
0
0
0
0
0
0
0
0
0
0
0
0.000231171
0.00668033
0
0.000247509
0.0232564
0
4.66403e-06
0.00461169
0
1.36457e-06
0
0
0.000245498
0.00226109
0
2.813e-06
0
0
7.21181e-07
0
0
0.000242631
0
0
1.46865e-06
0
0
0
0
0
0
0
0
0
0
0
0
0
0
0
0
0
0
0
0
0
0
1.05242e-25
0
0
0
0
0
0
1.42626e-23
7.63324e-28
1.20923e-19
2.18454e-23
9.80296e-28
0
2.67246e-22
6.47991e-27
0
2.58024e-24
8.18432e-29
3.51784e-21
1.16523e-24
1.23691e-28
3.41989e-20
1.39714e-24
4.84053e-29
1.49775e-20
1.26916e-24
4.3134e-29
8.73596e-22
4.85988e-26
1.50241e-29
9.31049e-27
2.82447e-27
1.62443e-30
1.86497e-28
1.01686e-27
6.7973e-26
6.79581e-28
1.23604e-27
3.67026e-24
2.60059e-27
2.68625e-27
7.5106e-25
1.25819e-27
1.37824e-26
9.74329e-27
6.17706e-26
9.92421e-26
6.74783e-26
9.72547e-27
9.39602e-27
2.9004e-25
2.21232e-28
1.01248e-26
8.46468e-27
5.36309e-26
6.38555e-26
1.14936e-25
5.35626e-25
8.31539e-25
7.45507e-25
1.32717e-31
7.23016e-32
1.58778e-31
4.50715e-29
5.91287e-28
6.8575e-28
1.78152e-28
2.16878e-27
2.49193e-27
1.30321e-31
5.76905e-32
1.77733e-31
1.36912e-28
6.71022e-28
4.22369e-27
7.00104e-28
4.06369e-27
5.40786e-27
1.34897e-31
5.43641e-32
1.75203e-31
1.62622e-27
8.24202e-27
2.96638e-26
1.16167e-27
5.46592e-27
4.07715e-25
6.02024e-32
4.72982e-32
9.71245e-32
1.5364e-27
3.83021e-27
9.00643e-27
1.60495e-27
1.3262e-26
1.19774e-25
1.2716e-32
4.63592e-32
1.12933e-31
1.33829e-27
4.32416e-27
6.74493e-27
1.89414e-27
1.43174e-26
5.72379e-26
4.2805e-33
2.1466e-32
5.16804e-32
1.10323e-27
5.68934e-27
1.46212e-26
1.13804e-27
1.10483e-26
4.48648e-26
3.82811e-32
5.59565e-36
1.87844e-36
8.1085e-32
2.3741e-35
2.00146e-35
4.36298e-31
4.9337e-35
4.39244e-35
2.64336e-33
1.16318e-37
1.68364e-37
3.46195e-33
2.80557e-37
1.35093e-35
1.0072e-33
2.84564e-38
7.33782e-36
1.02693e-33
1.69412e-38
7.36719e-39
6.05677e-34
3.16361e-38
7.78662e-36
3.22269e-35
6.54658e-40
1.8085e-39
5.54645e-39
2.23541e-40
4.59959e-40
5.88965e-39
1.40922e-39
2.68404e-36
1.79736e-40
6.9664e-41
1.86377e-40
5.4502e-43
5.29413e-42
1.43282e-41
3.02282e-38
3.4023e-37
1.87433e-36
5.51015e-43
4.2059e-42
1.74227e-41
7.83994e-44
7.28551e-43
3.17673e-42
2.23606e-38
2.02912e-37
9.092e-37
1.38846e-43
1.30624e-42
5.58232e-42
)
;

boundaryField
{
    fuel
    {
        type            fixedValue;
        value           uniform 0;
    }
    primary_air
    {
        type            fixedValue;
        value           uniform 0.23;
    }
    Secondary_air_RHS
    {
        type            fixedValue;
        value           uniform 0.23;
    }
    Secondary_air_LHS
    {
        type            fixedValue;
        value           uniform 0.23;
    }
    outlet
    {
        type            inletOutlet;
        inletValue      uniform 0;
        value           nonuniform List<scalar> 
18
(
0
2.23606e-38
0
0
2.02912e-37
0
0
9.092e-37
0
0
1.10323e-27
0
0
5.68934e-27
0
0
1.46212e-26
0
)
;
    }
    stove_body
    {
        type            fixedValue;
        value           uniform 0;
    }
    frontAndBack
    {
        type            empty;
    }
}


// ************************************************************************* //
