/*--------------------------------*- C++ -*----------------------------------*\
  =========                 |
  \\      /  F ield         | OpenFOAM: The Open Source CFD Toolbox
   \\    /   O peration     | Website:  https://openfoam.org
    \\  /    A nd           | Version:  6
     \\/     M anipulation  |
\*---------------------------------------------------------------------------*/
FoamFile
{
    version     2.0;
    format      ascii;
    class       volScalarField;
    location    "4";
    object      p;
}
// * * * * * * * * * * * * * * * * * * * * * * * * * * * * * * * * * * * * * //

dimensions      [1 -1 -2 0 0 0 0];

internalField   nonuniform List<scalar> 
297
(
118268
118268
118268
197716
197716
197716
118268
118268
118268
118268
118268
118268
197703
197703
197703
118268
118268
118268
118269
118269
118269
197694
197695
197694
118269
118269
118269
98146.9
97267.8
97274.2
164079
162410
163070
98430.7
97042
97160
97133.7
96030.9
94719.3
161016
159522
157314
96636.7
96278.3
94738.6
92898.5
91005.4
90656.9
155491
152364
152394
95694.1
92845.5
89911.9
94793.9
92198.9
94109.2
152884
153101
157837
88287.9
90503.9
95405.9
92989.8
95162.8
97552
160891
160597
162308
94179.6
95678.6
97547.7
97393.3
97759.6
98144.3
162037
161901
162032
97549.8
97798.5
97927.3
88195.8
88617.4
85217.5
136536
145295
150267
90067.5
89143.5
86216.7
87909.6
88565
85076
135260
144795
149133
89645.6
88827.9
86267
88196.3
88829
85597.5
135485
145208
149008
89709.8
88786
86885.6
97883.5
97773
97858.3
162797
162447
162446
97804.9
97698.2
97781.6
97830.1
97669.2
97572.1
162952
162690
162741
97793.3
97473.6
97653.5
97780.3
97537.9
97207.1
163036
162869
162981
97753.4
97295.3
97581.2
97863.7
97998.5
98338.5
162669
162790
163188
97660.3
97894.5
98430.2
97613.6
97736.2
97995.4
162756
162768
163015
97517.3
97685.1
98074.4
97406.2
97506.8
97577.1
162883
162809
162893
97424
97488.8
97646.9
98180.8
98079.8
98084
163144
163212
163185
97686.6
97859.5
97973.8
98076
98045.4
97979.5
163056
163181
163155
97468.1
97753.8
97917.1
97980.9
98017.8
97938.2
162924
163147
163148
97361.7
97727.6
97905.7
98501.1
98603
98455.5
162856
162915
163015
99047.7
98540.5
97887.3
98264.7
98339.8
98243.4
162512
162539
162753
98433.5
97757.1
97379.8
97969.2
98020.1
97965.8
161963
161985
162216
97734.3
97192.6
96977
96527.9
96516
96540.7
158636
158616
158499
94539.3
94522.8
94471.2
91580.4
91544.6
91530
151278
151254
151201
90737.7
90717.3
90611.6
85383.8
85376.6
85372
138945
138903
138839
87183.4
87315.1
87450.8
98702.9
98912.5
98972.7
163859
164335
164537
98793.3
98891.5
98847.4
98422.6
98746
98842.8
163564
164002
164197
98491.6
98711.5
98706.4
98146.1
98550.3
98615.3
163178
163542
163644
98195.2
98509.2
98485.4
96890.3
96953.3
97015.8
161016
161128
161137
96892.4
96932.6
96976.2
92545.1
92531.3
92572.7
153610
153616
153625
92556.1
92542.2
92584.9
85816.6
85815.8
85822.2
138349
138364
138377
85791.5
85791.1
85797.9
)
;

boundaryField
{
    fuel
    {
        type            zeroGradient;
    }
    primary_air
    {
        type            zeroGradient;
    }
    Secondary_air_RHS
    {
        type            zeroGradient;
    }
    Secondary_air_LHS
    {
        type            zeroGradient;
    }
    outlet
    {
        type            totalPressure;
        rho             rho;
        psi             none;
        gamma           1;
        p0              uniform 100000;
        value           nonuniform List<scalar> 
18
(
89271.1
100000
89251.1
89253.5
100000
89233
89289.3
100000
89269.1
88577
100000
89654.4
88544.8
100000
93683.5
88539
100000
99998.3
)
;
    }
    stove_body
    {
        type            zeroGradient;
    }
    frontAndBack
    {
        type            empty;
    }
}


// ************************************************************************* //
