/*--------------------------------*- C++ -*----------------------------------*\
  =========                 |
  \\      /  F ield         | OpenFOAM: The Open Source CFD Toolbox
   \\    /   O peration     | Website:  https://openfoam.org
    \\  /    A nd           | Version:  6
     \\/     M anipulation  |
\*---------------------------------------------------------------------------*/
FoamFile
{
    version     2.0;
    format      ascii;
    class       surfaceScalarField;
    location    "4";
    object      phi;
}
// * * * * * * * * * * * * * * * * * * * * * * * * * * * * * * * * * * * * * //

dimensions      [1 0 -1 0 0 0 0];

internalField   nonuniform List<scalar> 
675
(
5.66545e-07
-2.49447e-05
0.00015406
5.45767e-08
-2.40217e-05
0.000154272
-2.36234e-05
0.000153376
-4.51652e-07
2.49452e-05
0.000152555
-1.29721e-07
2.40216e-05
0.000153341
2.36235e-05
0.000154587
5.66692e-07
0.00015406
5.45115e-08
0.000154272
0.000153376
5.81934e-07
-3.37396e-05
0.000191393
-3.87847e-07
-3.23134e-05
0.00019169
-3.1883e-05
0.000189044
9.71862e-08
3.37399e-05
8.08996e-05
-3.67908e-06
3.2313e-05
8.82087e-05
3.18829e-05
8.29222e-05
5.82026e-07
0.000191394
-3.87857e-07
0.00019169
0.000189044
-5.39778e-07
7.03161e-05
2.03016e-06
6.73453e-05
6.94186e-05
-4.34899e-07
-7.03163e-05
4.36787e-07
-6.73456e-05
-6.9419e-05
-5.39377e-07
2.03031e-06
0.0247816
-0.0199531
-0.0041443
0.0255513
-0.00996611
0.00938009
0.00121489
0.0277708
0.0362225
0.0187693
-0.0653431
0.0397725
0.00886318
-0.0161477
-0.0017434
0.0497243
0.0254025
-0.00280107
0.0263444
0.0100281
0.0255472
0.0268916
-0.0123872
-0.0169979
0.0213435
1.20572e-06
0.0154808
0.00820665
0.0383909
0.0401118
0.0138377
-0.13118
0.0274532
-0.000789796
-0.00347818
-0.011853
0.0986506
0.0277165
-0.023837
0.0195073
0.0126325
0.0381309
0.0153989
0.00419104
-0.0348391
0.0329461
0.00956281
-0.0113838
0.0139036
0.0569752
0.0369266
-0.00752117
-0.146658
0.025985
-0.0121363
0.0381789
-0.0125741
0.146844
0.0190285
-0.046933
0.0396032
-0.0132264
0.0579975
-0.0195932
0.0145066
-0.0715438
0.0577096
-0.0213
-0.0136636
-0.0121597
0.0219241
-0.00515909
0.0439979
-0.06028
-0.0391973
-0.0117093
-0.060039
0.133336
-0.031988
0.00939862
-0.00930854
-0.0179304
0.00314928
0.0551408
-0.0891969
-0.0243177
-0.0764527
0.0698529
-0.0217915
-0.0152521
0.0226495
0.0442487
-0.0603876
-0.0234012
-0.0184738
-0.0306084
-0.0213487
-0.00689538
-0.00574241
0.00316963
0.0211509
-0.0420595
0.0194373
-0.0534491
-0.0401195
0.00499675
-0.0238706
-0.00213211
0.0173136
-0.0211546
-0.0333244
-0.0218848
-0.00965354
0.0173
-0.0140066
0.000101633
-0.0166177
-0.0140139
-0.00243695
-0.00351574
0.00416492
0.00273839
-0.0239317
0.00207003
-0.028854
-0.0320401
-0.00105929
-0.0161696
-0.00430076
-0.00796167
-0.0117485
-0.021804
-0.0128955
-0.00765142
0.00063961
-0.00196552
0.00023517
-0.039126
0.00267067
-0.000156286
-0.0161931
-0.0145022
0.0682622
-0.00118921
-0.000406484
-0.153553
0.00484951
0.000266341
0.031927
0.0144465
0.112475
-0.00188745
-0.0511277
0.00232867
-0.0172872
0.068651
-0.00213138
0.000416851
-0.0435409
0.000424245
-0.000133602
-0.0190266
-0.00217379
0.0649915
-0.00182738
-0.000753423
-0.158925
0.00235685
0.000273459
0.02754
0.00222389
0.10031
-0.00195947
-0.0546157
0.000525061
-0.0196698
0.0652944
-0.00259512
0.0103206
4.38551e-05
-0.000241007
-0.00116498
-0.00816604
-0.0147765
0.00124291
8.70632e-05
0.00112693
-0.00274905
6.68136e-05
-0.00391437
-0.000767355
-0.00441715
-0.00745311
-0.00742516
0.00017955
-5.06141e-05
0.000200573
0.00526329
-0.0103367
-0.0124522
0.000322112
-0.0130297
-0.0039433
-0.0167572
-0.00118968
-0.00995269
-0.000111774
-0.00707325
-0.0171514
-0.00165807
-0.00629811
-0.013518
-0.0104534
0.000738926
0.00234076
-0.0121445
-0.00900096
0.00124133
-0.00276868
0.00626775
-0.00955991
0.000547385
3.07459e-05
0.000405727
0.00425136
-0.00895465
-0.00773616
-0.00227574
-0.00576432
0.00426398
-0.0109877
-0.00185323
-0.00419026
-4.75011e-05
-0.00418448
-0.0130037
-0.00437277
0.00366507
-0.0074925
-0.00970566
0.00453813
0.00244205
-0.00979635
-0.00389634
0.00237671
-0.000908125
-0.00538947
0.0018701
0.00110881
-0.00215265
-0.00393589
-0.0033086
0.00394708
-0.00346592
-0.00309643
-0.00171885
-0.00414079
-0.00297534
0.00392682
-0.00162404
-0.00115557
-0.0109989
0.0004287
0.000257187
-0.0117314
0.00169076
-0.00109309
0.00154459
-0.0051885
-0.00832608
-0.0158556
-0.000223013
-0.000823777
-0.0133774
-0.0015885
0.000683633
-0.0015121
0.00146233
-0.0117171
-0.011969
-0.000365337
-0.0123689
-0.00116321
-0.00530434
-0.00858115
-0.00916457
0.000377048
0.000162446
-0.0090364
0.00108378
-0.00229301
0.000119754
-0.00583329
-0.00862782
-0.0130866
-0.000136611
-0.000361865
-0.0104992
-0.000973715
5.88504e-05
9.07868e-07
0.0019798
-0.0108345
-0.00989481
-0.000448164
-0.00965385
-0.00240365
-0.00608501
-0.00890387
-0.00201217
0.000328417
-0.00401141
-0.000153129
-0.00136884
-0.00850158
-0.00404069
-0.000244802
-0.00454504
0.000316492
0.00148313
-0.00535817
-0.00197057
-0.00413533
-0.00880348
0.00748081
0.00178656
-0.00234028
-0.00696772
0.00754755
0.000842383
-0.000906191
0.00019441
-8.15636e-05
0.00421296
0.0008225
0.00137868
-0.00468245
0.00394149
0.000709916
0.000350505
0.000252155
-0.000105889
0.0143385
0.000805267
-0.0144447
0.0139897
0.00101642
0.000753994
-0.000907865
0.00164044
0.00101767
-0.00405602
-0.00467191
0.000864625
0.00201845
0.00116549
0.000396904
-0.00471797
0.000681366
0.00591562
0.00108699
-0.00588642
-0.000171899
0.00248354
-4.18867e-05
-0.000619188
0.00885637
0.00171721
-0.00918524
0.0085447
0.00114926
0.00185578
0.000225617
0.00145621
-0.00064397
0.00137072
0.000960349
0.000947651
-0.00718065
0.000937628
0.0135389
-0.00416104
0.000294748
3.56289e-05
-0.00743132
0.010017
-0.00595281
-0.00290704
0.00240502
0.00043625
0.00265788
0.00211615
-0.00774183
0.00177918
-0.0061367
0.0033045
-0.00223816
0.00116629
0.00411308
-0.000926081
0.0020949
-0.00094932
0.00206522
0.00958728
-0.0119905
0.0148801
-0.00636611
-0.000639542
-0.00238415
0.00227682
0.000489478
0.00169564
0.0020004
-0.0138717
0.00162363
-0.0101529
0.00304788
-0.00193915
0.00217481
0.00204078
-0.000502536
0.0054763
-0.000512421
0.00724922
0.0076113
-0.0216962
0.0105083
-0.00990274
5.81792e-05
-0.00263333
0.00169985
0.00138232
0.00355596
0.00309401
-0.0231958
0.00133664
-0.00859486
-0.002581
-0.00394641
0.0102634
-0.0079884
-0.00024782
0.0141207
0.000467615
0.0136126
0.00869286
-0.0344844
0.000150023
-0.00171977
0.010617
0.00756859
0.014899
-0.0212377
-0.00395253
0.0169082
-0.0286958
0.0164919
-0.0291266
-0.00815257
0.00138029
0.0318267
-0.00467842
0.00479528
0.0226383
0.00362099
0.0217363
0.00640028
-0.0392698
0.0155043
-0.00580304
0.0300171
0.00448975
0.00876342
-0.0343158
0.00240115
0.00862505
-0.0350668
0.00870563
-0.0352758
0.00690601
-0.00141853
0.035075
0.00953746
-0.00372334
0.0323246
-0.00121422
0.0410695
-0.0017977
-0.0388791
0.00559592
-0.0169266
0.0344002
0.000543772
0.0162231
0.00029651
0.0163239
0.0161745
0.00179273
-0.0216806
0.00215971
-0.0233464
-0.0226939
-0.0116395
-0.0127548
-0.00279593
0.00153986
-0.0071874
0.00196106
0.00182915
-0.00660512
0.00166764
0.000345765
-0.00540778
-0.00154699
-0.00315817
0.00169111
-0.00183964
-0.00343055
-0.0016667
0.0049619
-0.00280175
-0.00737818
0.00212463
-0.00684316
0.000361895
-0.00508107
0.00110571
-0.0119059
0.000831049
0.00156918
-0.014092
0.00167086
-0.00043282
-0.00600329
-0.00107687
-0.00575052
0.000220462
-0.00157917
-0.00651271
-0.00166225
0.00846011
-0.00528876
-0.0121269
0.000821402
-0.0146157
-0.000565584
-0.00747876
0.00172128
-0.0146833
0.00344906
0.00425956
-0.0292926
0.00147629
0.00159869
-0.00529612
-0.00163163
-0.00241336
0.000431276
-0.00437511
-0.00361918
-0.00147266
0.011802
-0.0077153
-0.0149224
0.0035185
-0.0303215
0.00141081
0.00238098
0.0103583
-0.0276116
-0.0118372
0.0107094
-0.0260232
0.00837448
-0.0188868
0.00441928
-0.010196
0.0137637
0.0024053
-0.010717
0.0197721
-0.00837156
0.0308329
0.00260725
-0.0277423
-0.0120972
-0.0263287
-0.0190201
-0.00392246
0.00709789
-0.0306471
-0.00450695
0.00639919
-0.0317212
0.00697954
-0.0302785
-0.00416004
-0.00693476
0.0319622
-0.00675731
-0.0062216
0.0349687
-0.00679699
0.0377883
-0.00389308
-0.0307703
-0.00459265
-0.0318317
-0.0303872
0.00013873
0.018933
-0.000613846
0.0187886
0.0187966
-0.00311205
-0.0188721
-0.00377918
-0.0187285
-0.0187363
0.000132541
-0.000616305
)
;

boundaryField
{
    fuel
    {
        type            calculated;
        value           nonuniform List<scalar> 
36
(
0.000125241
0.000209346
0.000125241
0.00012524
0.000209348
0.00012524
0.000125241
0.000209347
0.000125241
-0.000125239
-0.00020937
-0.000125239
-0.000125239
-0.00020937
-0.000125239
-0.000125239
-0.00020937
-0.000125239
0
0
0
0
0
0
0
0
0
0
0
0
0
0
0
0
0
0
)
;
    }
    primary_air
    {
        type            calculated;
        value           nonuniform List<scalar> 9(-0.00322746 -0.00539558 -0.0032368 -0.00319853 -0.00534067 -0.00319113 -0.00319876 -0.00536237 -0.00319499);
    }
    Secondary_air_RHS
    {
        type            calculated;
        value           nonuniform List<scalar> 9(0.0059159 0.0104317 0.0059851 0.00590609 0.0103529 0.00598856 0.00594234 0.0103443 0.00603159);
    }
    Secondary_air_LHS
    {
        type            calculated;
        value           nonuniform List<scalar> 9(0.0061219 0.0094791 0.00625434 0.00610244 0.00939225 0.0062254 0.00612232 0.00940763 0.00622821);
    }
    outlet
    {
        type            calculated;
        value           nonuniform List<scalar> 
18
(
-0.0496281
0.0727169
-0.0496692
-0.0496633
0.072988
-0.0497053
-0.0495919
0.0713844
-0.0496333
-0.0509923
0.0710636
-0.0487804
-0.0510536
0.0714867
-0.0390763
-0.0510644
0.0818696
-0.00102639
)
;
    }
    stove_body
    {
        type            calculated;
        value           uniform 0;
    }
    frontAndBack
    {
        type            empty;
        value           nonuniform 0();
    }
}


// ************************************************************************* //
