/*--------------------------------*- C++ -*----------------------------------*\
  =========                 |
  \\      /  F ield         | OpenFOAM: The Open Source CFD Toolbox
   \\    /   O peration     | Website:  https://openfoam.org
    \\  /    A nd           | Version:  6
     \\/     M anipulation  |
\*---------------------------------------------------------------------------*/
FoamFile
{
    version     2.0;
    format      ascii;
    class       volScalarField;
    location    "4";
    object      T;
}
// * * * * * * * * * * * * * * * * * * * * * * * * * * * * * * * * * * * * * //

dimensions      [0 0 0 1 0 0 0];

internalField   nonuniform List<scalar> 
297
(
292.786
292.786
292.787
293.147
293.147
293.147
292.786
292.786
292.787
292.802
292.802
292.803
293.204
293.204
293.208
292.802
292.802
292.803
292.903
292.905
292.912
295.545
295.556
296.083
292.903
292.905
292.912
972.43
913.377
760.643
1036.49
1006.61
857.351
959.346
914.149
759.63
1217.66
1162
884.553
1089.99
1099.87
924.19
1111.96
1078.95
890.214
1299.04
1264.2
1050.26
1082.85
1143.8
969.03
1120.77
1159.55
982.89
995.19
1273.28
1313.39
904.031
1171.93
1202.77
857.652
1225.71
1266.4
911.048
1289.66
1325.59
772.478
1128.61
1214.54
773.107
1215
1269.44
552.2
1222.41
1327.44
469.645
831.995
1042.01
482.95
1050.3
1269.17
1294.4
1270
1136.55
1036.88
1144.12
1033.76
1077.21
1229.29
1084.73
1170.84
1271.19
1214
994.998
1143.41
1068.58
986.931
1228.92
1163.75
1069.07
1271.81
1295.01
957.868
1143.32
1185.56
911.413
1228.25
1244.36
377.183
550.301
558.347
312.53
308.581
302.487
303.113
344.834
363.881
370.245
377.719
375.516
319.147
308.244
302.731
305.396
310.433
308.153
344.114
338.293
336.292
319.744
315.793
305.573
306.524
307.881
304.79
300.277
300.38
300.543
300.845
300.91
301.165
300.432
300.584
300.938
300.521
300.573
300.671
301.176
301.181
301.361
300.745
300.777
301.038
300.632
300.696
300.692
301.552
301.557
301.602
300.867
300.936
301.036
302.574
310.454
310.613
301.138
301.699
302.247
299.018
299.179
299.329
310.741
369.259
369.812
323.407
333.046
329.024
301.847
302.049
301.886
306.055
357.081
359.598
329.967
333.673
326.111
307.408
305.859
305.471
301.973
301.781
301.474
300.865
301.293
301.197
298.694
299.413
298.991
302.032
301.555
301.246
301.015
301.385
302.058
298.599
300.279
300.332
302.05
301.246
300.859
301.88
307.424
318.769
298.454
300.934
307.511
300.973
300.95
300.353
300.121
305.229
308.971
298.154
300.664
303.412
298.218
298.012
297.268
298.924
303.27
304.623
294.972
294.986
297.977
292.109
292.076
291.345
287.904
288.207
286.093
291.053
291.197
302.593
300.675
300.918
301.085
301.525
301.768
301.736
301.056
301.162
301.223
300.657
300.939
301.182
301.653
301.821
301.617
300.995
301.099
301.194
300.452
300.703
301.25
301.755
301.698
301.467
300.814
300.885
301.144
299.929
300.408
300.361
302.016
301.051
299.095
300.308
300.515
300.397
297.912
297.751
297.899
300.092
298.964
298.467
297.92
297.69
297.871
291.668
291.665
291.787
287.631
287.356
287.582
291.668
291.665
291.786
)
;

boundaryField
{
    fuel
    {
        type            fixedValue;
        value           uniform 293;
    }
    primary_air
    {
        type            fixedValue;
        value           uniform 293;
    }
    Secondary_air_RHS
    {
        type            fixedValue;
        value           uniform 293;
    }
    Secondary_air_LHS
    {
        type            fixedValue;
        value           uniform 293;
    }
    outlet
    {
        type            inletOutlet;
        inletValue      uniform 293;
        value           nonuniform List<scalar> 
18
(
293
287.63
293
293
287.354
293
293
287.581
293
293
287.905
293
293
288.207
293
293
286.093
293
)
;
    }
    stove_body
    {
        type            fixedValue;
        value           uniform 293;
    }
    frontAndBack
    {
        type            empty;
    }
}


// ************************************************************************* //
