/*--------------------------------*- C++ -*----------------------------------*\
  =========                 |
  \\      /  F ield         | OpenFOAM: The Open Source CFD Toolbox
   \\    /   O peration     | Website:  https://openfoam.org
    \\  /    A nd           | Version:  6
     \\/     M anipulation  |
\*---------------------------------------------------------------------------*/
FoamFile
{
    version     2.0;
    format      ascii;
    class       volVectorField;
    location    "4";
    object      U;
}
// * * * * * * * * * * * * * * * * * * * * * * * * * * * * * * * * * * * * * //

dimensions      [0 1 -1 0 0 0 0];

internalField   nonuniform List<vector> 
297
(
(19.8404 -0.00623115 0.260213)
(19.8404 0.00128238 0.25949)
(19.8404 0.00746127 0.258327)
(7.73843e-09 0.00999904 0.256759)
(1.28196e-08 -0.00101675 0.256071)
(1.6519e-08 -0.010761 0.256381)
(-19.8404 -0.00623097 0.260214)
(-19.8404 0.0012825 0.259489)
(-19.8404 0.00746125 0.258327)
(19.8402 -0.00408768 0.278907)
(19.8403 0.00016118 0.278999)
(19.8403 0.00472429 0.277268)
(7.96427e-09 0.0281425 0.0821027)
(1.30821e-08 -0.00744151 0.0949031)
(1.68425e-08 -0.0319779 0.0926035)
(-19.8402 -0.00408748 0.278908)
(-19.8403 0.000161378 0.278999)
(-19.8403 0.0047243 0.277269)
(19.8487 -0.0258209 0.469391)
(19.8489 0.00378937 0.471737)
(19.8493 0.0330066 0.466098)
(6.48423e-09 0.0613227 0.226158)
(1.06577e-08 -0.022481 0.218222)
(1.36267e-08 0.00716746 0.216672)
(-19.8487 -0.0258187 0.469393)
(-19.8489 0.00379111 0.471738)
(-19.8493 0.0330063 0.4661)
(43.2565 23.6616 -31.8048)
(40.5662 36.1328 -15.4453)
(33.7551 47.8521 24.6843)
(0.0299286 6.42095 -86.9644)
(-0.0233775 37.4222 -53.1106)
(-0.00997814 51.3115 22.9214)
(-42.5932 24.1734 -29.0461)
(-40.6573 37.4086 -13.4887)
(-33.73 48.0485 22.768)
(54.1239 12.947 -6.4173)
(51.6091 61.5151 68.8285)
(39.2066 29.9159 99.1637)
(-0.0563251 -24.5678 -149.804)
(0.0286099 55.4385 -24.6712)
(0.00188689 34.3926 93.167)
(-49.6501 13.6421 -9.8065)
(-47.9287 56.3768 59.2945)
(-39.4403 29.2625 97.7566)
(57.9659 -35.3094 -24.8334)
(56.4372 42.412 37.751)
(47.2706 93.7083 210.299)
(0.322898 -42.8369 -187.502)
(0.231167 69.7187 31.067)
(-0.0794946 67.3484 128.912)
(-49.0565 -19.7389 -40.4875)
(-51.051 47.8611 23.7223)
(-44.512 87.9816 206.01)
(43.8896 -56.2331 -139.88)
(56.9619 -89.0577 -58.1891)
(58.4238 57.9549 124.518)
(-0.650309 -23.9874 -281.096)
(-0.217142 -71.6095 -41.9154)
(0.164472 41.3131 111.381)
(-39.2005 -54.7502 -126.928)
(-55.1341 -95.7969 -61.7821)
(-55.8607 57.4332 114.664)
(41.8035 -41.3496 -120.003)
(58.0381 -64.4676 -28.4567)
(59.1629 19.5044 64.2256)
(0.0957892 -50.5284 -96.3512)
(0.060729 -50.6116 -67.9028)
(-0.00053443 -4.01874 21.2871)
(-35.1669 -19.2331 -118.911)
(-54.5589 -62.4231 -40.4882)
(-56.7089 18.134 51.6131)
(24.691 -9.54704 -36.116)
(54.366 -39.0766 -31.505)
(59.0296 -6.53805 43.0344)
(0.00761894 -4.89866 -42.156)
(0.00335219 -32.7931 -33.4033)
(-0.0234156 -23.1586 2.45539)
(-21.5769 7.7559 -35.1916)
(-46.7289 -38.3232 -37.7062)
(-56.5257 -7.6241 31.7952)
(50.1412 -80.6002 -156.205)
(55.0843 -61.2549 -62.5046)
(54.9025 71.272 237.356)
(0.206098 -63.6172 -316.191)
(0.068123 34.2964 60.869)
(0.118093 62.4204 171.833)
(-42.3319 -55.1331 -173.32)
(-52.9245 -62.6666 -62.6361)
(-52.2105 71.5262 229.428)
(46.2293 -76.1648 -140.166)
(54.431 -70.8585 -69.9806)
(53.9514 70.5878 247.407)
(0.197612 -58.6879 -301.763)
(0.0338401 18.009 55.9153)
(0.139936 60.5964 186.004)
(-38.2918 -52.5677 -141.99)
(-52.6435 -66.4325 -71.0408)
(-51.7297 69.8726 238.104)
(45.08 -70.6547 -136.918)
(56.5625 -82.7585 -70.7623)
(52.7735 77.2685 265.181)
(0.187106 -58.1604 -293.472)
(-0.00554119 -11.3884 69.2093)
(0.156756 56.1811 214.703)
(-32.0514 -53.4041 -126.825)
(-50.44 -81.5133 -71.5455)
(-50.7442 75.8813 251.007)
(16.7865 -0.183231 -12.1618)
(24.5365 -36.3962 -4.67131)
(24.8545 -33.9964 2.51036)
(-0.00252697 -13.0582 -10.3745)
(-0.00238278 -27.4264 -8.06378)
(-0.00239606 -28.9197 -6.86227)
(-13.5038 24.0102 -14.7826)
(-15.3898 -35.7403 -4.61066)
(-16.2211 -35.8986 -1.89057)
(16.553 -25.7244 -2.83962)
(16.8785 -32.5923 1.30746)
(16.7923 -31.1527 5.4711)
(-0.00120979 -8.37387 -6.02453)
(-0.00622846 -16.7888 -2.57207)
(0.0025446 -19.2579 1.12059)
(-13.6613 1.37641 2.63616)
(-13.8977 -29.5106 2.23592)
(-13.782 -29.3071 3.01277)
(15.415 -2.89952 -0.434544)
(15.1605 -15.9129 0.933744)
(15.1111 -15.4445 4.65019)
(-0.000884448 -8.6277 -1.83772)
(-0.00790703 -6.99854 -2.45789)
(0.0117859 -3.70406 -2.8378)
(-13.734 -12.5544 0.191991)
(-13.8348 -12.2812 3.54223)
(-13.6815 -2.67364 3.46036)
(13.3997 -34.5679 -6.99774)
(13.4315 -31.0149 -9.7892)
(13.4037 -24.7197 -14.2996)
(-0.00631366 -28.5523 -6.15409)
(-0.00322943 -25.9861 -7.29124)
(0.00284284 -20.3738 -7.5331)
(-13.4228 -37.2534 -8.10998)
(-13.4495 -32.8594 -10.1633)
(-13.4116 -25.544 -14.8993)
(13.4584 -27.368 0.648368)
(13.4622 -27.7113 -5.11903)
(13.3922 -24.1501 -13.709)
(-0.00298736 -22.2871 1.91741)
(-0.00158816 -22.2826 1.86159)
(0.00245491 -17.4582 1.75028)
(-13.476 -28.3385 -0.309165)
(-13.4785 -30.6021 -5.95281)
(-13.4 -24.6125 -14.0884)
(13.4963 -1.56258 -1.09188)
(13.4847 -14.0114 -14.4007)
(13.4073 -20.4269 -19.8588)
(0.000555153 -5.70111 0.248186)
(-0.000559899 -8.8428 2.12669)
(0.00217126 -11.2951 0.789084)
(-13.5153 0.428195 -2.93666)
(-13.5031 -14.6576 -13.9451)
(-13.417 -21.4295 -20.5954)
(13.5245 22.7204 -12.3227)
(13.8742 21.9657 -9.23103)
(13.8463 26.2983 -6.73849)
(-0.0153192 8.2209 -3.53709)
(-0.00683587 6.60923 -2.58735)
(-0.00342422 9.64387 -0.52471)
(-13.3481 44.2042 -10.6427)
(-13.3537 41.0226 -9.72322)
(-13.3521 38.868 -7.25928)
(13.8951 12.5149 -3.91689)
(16.5049 -12.4672 4.45789)
(16.5477 -20.9322 1.12131)
(-0.0202378 -6.24567 5.60157)
(-0.00998201 -12.6653 2.32786)
(-0.00211135 -9.90782 -2.85773)
(-13.5504 33.2755 4.00366)
(-13.552 26.6487 6.63213)
(-13.4934 25.487 7.3117)
(13.6967 9.99013 2.12063)
(15.9683 -2.76994 5.24014)
(16.0959 5.61634 5.3908)
(-0.0210029 -21.6078 5.6002)
(-0.00995965 -10.8192 2.52141)
(-0.00108947 -7.61499 1.13544)
(-13.776 -22.471 4.58001)
(-13.7012 -17.6318 2.59016)
(-13.6452 -12.8993 2.20183)
(13.4383 -5.34013 -6.9119)
(13.4187 1.54936 -19.9929)
(13.4301 7.05134 -17.6811)
(0.0169359 5.82557 -6.92137)
(-0.00193598 5.30795 -4.69573)
(-0.0176072 8.23885 -4.26954)
(-13.2035 19.6895 -29.7346)
(-13.2332 25.4278 -22.6404)
(-13.3681 42.5389 -17.2606)
(13.4463 -4.77573 2.22369)
(13.4134 1.36889 -29.734)
(13.4286 2.84369 -22.5471)
(0.0052442 0.66895 6.77896)
(-0.0181249 4.74117 6.75474)
(-0.0268806 5.37719 11.1311)
(-13.2478 5.1427 -46.2619)
(-13.349 19.0065 -26.8877)
(-13.4817 33.014 -5.43786)
(13.4396 -2.27795 4.64537)
(13.4888 1.12261 -37.1602)
(13.4455 0.0387855 -26.8938)
(-0.00732154 -0.942956 5.18688)
(-0.0262371 -10.6144 16.7508)
(-0.0323035 -18.8612 17.3773)
(-13.4189 1.86763 -57.5662)
(-13.423 17.077 -18.4224)
(-13.7083 -21.366 17.0487)
(13.3535 1.81512 -16.7428)
(13.3723 1.29189 -56.0565)
(13.3258 -0.426606 -57.8969)
(-0.0631587 0.112854 51.6231)
(-0.0643633 -2.50224 33.1806)
(-0.0677167 -7.3478 33.2825)
(-13.4399 -10.3211 -86.2085)
(-13.5303 14.5715 34.1744)
(-13.6541 -6.70517 64.6344)
(13.2385 0.836019 -115.569)
(13.2365 1.66204 -120.228)
(13.2019 1.06508 -120.649)
(-0.0279534 1.83493 77.9554)
(-0.0278251 2.75118 64.1011)
(-0.0310458 0.30533 66.2688)
(-13.1714 2.68459 -123.121)
(-13.204 -1.74401 -66.1808)
(-13.3262 -0.318747 102.056)
(12.821 0.123197 -149.765)
(12.8167 0.195359 -150.003)
(12.7815 0.0725855 -150.046)
(0.062236 0.425096 180.84)
(0.0671199 0.425574 182.118)
(0.0714166 -0.198003 207.235)
(-12.601 -2.92392 -141.669)
(-12.6077 -6.17113 -108.289)
(-13.0764 -3.85508 -1.71733)
(13.4297 -14.7099 -23.3145)
(13.4576 -3.47927 -20.6124)
(13.4685 4.75474 -8.11453)
(0.00279146 -12.5203 -10.2659)
(-0.000645558 -3.62091 -9.30659)
(-0.0038542 4.05498 0.554189)
(-13.4336 -15.357 -24.0242)
(-13.4706 -3.09447 -21.3428)
(-13.4863 4.80699 -8.62067)
(13.4216 -16.9356 -26.1314)
(13.4531 -4.84187 -23.6593)
(13.4601 -0.712726 6.61078)
(0.0021377 -12.335 -6.59099)
(-0.00106341 -5.03707 -7.09675)
(-0.00420569 2.09704 11.7789)
(-13.4262 -17.6237 -26.692)
(-13.4636 -5.41567 -24.5748)
(-13.4724 -0.857089 6.87674)
(13.4584 -11.484 -32.4574)
(13.5499 -3.52994 -27.2014)
(13.4406 -2.53267 -0.898012)
(0.00152304 -7.06429 -7.67945)
(-0.00126631 -5.21363 -11.6279)
(-0.00400967 2.07601 15.9582)
(-13.4688 -11.8598 -33.4159)
(-13.5661 -4.2199 -28.2985)
(-13.4476 -2.73901 -1.62329)
(13.4252 10.0198 -54.3648)
(13.4492 -1.97116 -37.6412)
(13.4194 -4.80068 -4.76651)
(6.42127e-05 11.7256 15.2966)
(-0.000650749 -1.66902 25.1999)
(-0.00123672 -2.05865 48.9294)
(-13.4415 9.88056 -54.5459)
(-13.4564 -1.38913 -38.5851)
(-13.4244 -5.20814 -5.25841)
(13.2753 -6.1059 -106.951)
(13.2663 -0.531823 -111.522)
(13.2734 -0.331325 -105.3)
(0.000362432 -0.563188 55.3141)
(0.000354161 -1.92366 63.3823)
(0.000399066 -1.66934 74.3019)
(-13.275 -6.09848 -107.438)
(-13.2629 -0.636785 -111.862)
(-13.2712 -0.235742 -105.578)
(12.7301 0.0466156 -144.578)
(12.73 -0.119523 -144.711)
(12.7369 -0.13012 -144.441)
(-0.000871898 -0.475979 184.98)
(-0.000855914 -1.28815 185.496)
(-0.000842071 -0.997286 181.535)
(-12.7322 0.0458413 -144.729)
(-12.7321 -0.121364 -144.866)
(-12.739 -0.131367 -144.593)
)
;

boundaryField
{
    fuel
    {
        type            fixedValue;
        value           uniform (0 0 0.25);
    }
    primary_air
    {
        type            fixedValue;
        value           uniform (0 0 2.5);
    }
    Secondary_air_RHS
    {
        type            fixedValue;
        value           uniform (0 52.7778 0);
    }
    Secondary_air_LHS
    {
        type            fixedValue;
        value           uniform (0 -52.7778 0);
    }
    outlet
    {
        type            pressureInletOutletVelocity;
        value           nonuniform List<vector> 
18
(
(0 0 -144.578)
(-0.000871898 -0.475979 184.98)
(0 0 -144.729)
(0 0 -144.711)
(-0.000855914 -1.28815 185.496)
(0 0 -144.866)
(0 0 -144.441)
(-0.000842071 -0.997286 181.535)
(0 0 -144.593)
(0 0 -149.765)
(0.062236 0.425096 180.84)
(0 0 -141.669)
(0 0 -150.003)
(0.0671199 0.425574 182.118)
(0 0 -108.289)
(0 0 -150.046)
(0.0714166 -0.198003 207.235)
(0 0 -1.71733)
)
;
    }
    stove_body
    {
        type            noSlip;
    }
    frontAndBack
    {
        type            empty;
    }
}


// ************************************************************************* //
