/*--------------------------------*- C++ -*----------------------------------*\
  =========                 |
  \\      /  F ield         | OpenFOAM: The Open Source CFD Toolbox
   \\    /   O peration     | Website:  https://openfoam.org
    \\  /    A nd           | Version:  6
     \\/     M anipulation  |
\*---------------------------------------------------------------------------*/
FoamFile
{
    version     2.0;
    format      ascii;
    class       volScalarField;
    location    "0.005";
    object      O2;
}
// * * * * * * * * * * * * * * * * * * * * * * * * * * * * * * * * * * * * * //

dimensions      [0 0 0 0 0 0 0];

internalField   nonuniform List<scalar> 
3773
(
0
0
0
0
0
0
0
0
0
0
0
0
0
0
0
0
0
0
0
0
0
0
0
0
0
0
0
0
0
0
0
0
0
0
0
0
0
0
0
0
0
0
0
0
0
0
0
0
0
0
0
0
0
0
0
0
0
0
0
0
0
0
0
0
0
0
0
0
0
0
0
0
0
0
0
0
0
0
0
0
0
0
0
0
0
0
0
0
0
0
0
0
0
0
0
0
0
0
0
0
0
0
0
0
0
0
0
0
0
0
0
0
0
0
0
0
0
0
0
0
0
0
0
0
0
0
0
0
0
0
0
0
0
0
0
0
0
0
0
0
0
0
0
0
0
0
0
0
0
0
0
0
0
0
0
0
0
0
0
0
0
0
0
0
0
0
0
0
0
0
0
0
0
0
0
0
0
0
0
0
0
0
0
0
0
0
0
0
0
0
0
0
0
0
0
0
0
0
0
0
0
0
0
0
0
0
0
0
0
0
0
0
0
0
0
0
0
0
0
0
0
0
0
0
0
0
0
0
0
0
0
0
0
0
0
0
0
0
0
0
0
0
0
0
0
0
0
0
0
0
0
0
0
0
0
0
0
0
0
0
0
0
0
0
0
0
0
0
0
0
0
0
0
0
0
0
0
0
0
0
0
0
0
0
0
0
0
0
0
0
0
0
0
0
0
0
0
0
0
0
0
0
0
0
0
0
0
0
0
0
0
0
0
0
0
0
0
0
0
0
0
0
0
0
0
0
0
0
0
0
0
0
0
0
0
0
0
0
0
0
0
0
0
0.00298448
0.00291857
0.00274973
0.00265615
0.00277526
0.00293871
0.00300699
0.00412327
0.0040855
0.00401086
0.0039746
0.00402349
0.00410224
0.00414467
0.00517203
0.00516981
0.00516553
0.00516183
0.00516624
0.00517256
0.00517446
0.00561944
0.00559925
0.00558608
0.00561136
0.00559274
0.00558838
0.00562394
0.00517628
0.00517316
0.00516777
0.00516332
0.00516606
0.00517215
0.00517224
0.00412767
0.00408136
0.00400575
0.00395797
0.00400218
0.00408152
0.00412602
0.00299169
0.0029183
0.00274608
0.00264591
0.00274662
0.00291545
0.00299036
5.65822e-06
5.24972e-06
3.74314e-06
3.18226e-06
3.93963e-06
5.22984e-06
5.98112e-06
4.69461e-05
4.5228e-05
4.09777e-05
4.01197e-05
4.2279e-05
4.56816e-05
4.79807e-05
0.00048253
0.000477912
0.00047336
0.000474688
0.000477626
0.00048445
0.000493075
0.000615191
0.000634618
0.000648702
0.000632063
0.000648197
0.000648362
0.000615667
0.000507841
0.000499249
0.000492357
0.000488947
0.00049053
0.000496653
0.00049514
4.94549e-05
4.82358e-05
4.50819e-05
4.1977e-05
4.45785e-05
4.81074e-05
4.98964e-05
3.72058e-06
5.87553e-06
4.30178e-06
3.61583e-06
4.32194e-06
5.9597e-06
6.99789e-06
7.11754e-09
5.46207e-09
1.85181e-09
1.229e-09
2.07631e-09
5.31871e-09
8.39242e-09
1.39044e-06
1.22748e-06
1.15596e-06
1.17592e-06
1.13044e-06
1.25994e-06
1.43198e-06
4.00445e-05
3.92981e-05
3.92077e-05
3.91836e-05
3.95994e-05
3.95234e-05
3.94618e-05
5.66128e-05
6.11172e-05
6.32506e-05
6.02385e-05
6.11068e-05
6.07466e-05
5.5075e-05
3.3077e-05
3.1891e-05
3.15632e-05
3.13203e-05
3.1453e-05
3.16537e-05
3.88451e-05
1.60634e-06
1.40694e-06
1.29377e-06
1.24285e-06
1.26624e-06
1.39199e-06
1.54677e-06
6.13572e-09
7.6315e-09
2.7256e-09
1.77381e-09
2.84699e-09
7.81428e-09
1.26303e-08
8.35818e-12
2.0442e-11
1.78472e-11
1.69218e-11
3.27391e-12
9.06932e-12
6.61815e-12
5.96765e-08
3.31263e-08
4.31145e-08
2.91933e-08
2.48727e-08
4.11503e-08
6.90041e-08
4.90519e-06
3.45121e-06
4.77862e-06
3.54172e-06
3.67734e-06
3.72192e-06
4.35108e-06
8.36232e-06
7.84402e-06
9.28818e-06
8.46963e-06
7.01168e-06
7.08622e-06
7.83495e-06
2.31393e-06
2.39436e-06
2.26065e-06
2.26818e-06
2.24506e-06
2.38798e-06
4.2129e-06
4.40663e-08
4.40962e-08
3.67065e-08
3.29564e-08
2.89558e-08
3.36673e-08
6.99793e-08
5.50035e-12
1.14287e-11
1.66821e-11
5.58255e-12
7.3469e-12
9.84728e-12
7.4421e-12
1.1725e-11
8.37825e-11
4.31116e-11
3.25235e-11
3.73201e-12
3.91282e-11
3.16004e-12
2.0432e-09
1.00362e-09
9.99111e-10
5.82572e-10
6.14487e-10
1.1542e-09
2.88911e-09
6.00935e-07
3.48992e-07
5.52066e-07
3.32437e-07
4.70609e-07
4.30455e-07
4.92051e-07
9.10262e-07
1.20893e-06
1.34926e-06
9.9914e-07
9.56666e-07
9.76195e-07
1.09768e-06
2.24618e-07
2.46367e-07
2.18284e-07
2.03745e-07
2.12934e-07
2.47375e-07
4.2081e-07
1.85966e-09
1.50401e-09
9.23533e-10
6.8362e-10
7.39548e-10
1.02012e-09
2.73849e-09
4.56589e-12
3.39799e-11
4.5953e-11
1.00426e-11
1.89755e-11
2.87853e-11
4.34451e-12
1.32003e-11
1.65912e-10
2.0515e-11
1.78535e-11
6.71588e-12
1.01606e-10
0
4.00784e-11
5.65966e-11
7.49092e-11
9.91121e-11
3.22119e-11
4.64445e-11
3.30074e-11
8.94637e-08
6.88993e-08
8.53109e-08
5.55121e-08
6.30661e-08
8.90425e-08
7.18793e-08
1.33332e-07
2.15738e-07
2.36413e-07
1.71546e-07
1.51027e-07
1.5268e-07
1.77343e-07
2.86761e-08
4.14984e-08
2.40257e-08
2.90325e-08
2.91724e-08
4.98995e-08
5.17243e-08
4.32404e-11
7.10835e-11
2.14556e-11
4.16688e-11
2.52135e-11
5.08546e-11
5.16512e-11
2.4623e-12
5.64854e-11
4.62596e-12
8.62198e-12
6.59916e-12
4.0133e-11
4.38814e-13
2.6201e-11
2.7101e-10
3.81838e-11
2.74082e-11
9.37513e-12
1.73006e-10
0
0
1.30791e-10
2.76495e-10
2.97895e-10
7.99632e-11
7.4022e-11
0
4.71173e-08
1.5121e-08
1.98799e-08
8.03318e-09
1.22556e-08
1.85968e-08
1.58647e-08
8.88796e-08
5.71344e-08
4.4557e-08
3.26421e-08
2.93821e-08
3.6909e-08
1.07255e-07
1.38958e-08
8.22697e-09
3.38696e-09
4.41641e-09
5.56873e-09
1.05266e-08
2.16689e-08
0
5.33811e-11
4.16713e-11
1.0413e-10
6.0187e-11
6.44737e-11
0
0
8.42333e-11
4.58503e-12
1.08445e-11
7.47189e-12
4.12372e-11
0
0
7.73934e-14
2.5834e-13
2.15597e-13
1.15306e-14
0
0
0
1.83367e-12
9.5086e-12
9.67638e-12
2.51825e-12
1.72119e-12
0
0
6.60835e-11
4.61524e-10
4.72885e-10
1.98638e-10
0
0
0
0
2.6185e-09
3.0828e-09
2.55748e-09
0
0
0
0
1.79971e-10
2.98028e-10
1.99832e-10
0
0
0
2.1339e-12
3.83702e-12
4.17846e-13
6.0957e-12
5.79955e-12
0
0
5.61385e-14
1.86538e-14
2.66436e-14
1.90303e-14
0
0
3.93948e-15
7.70106e-14
2.33534e-13
2.31063e-13
1.47119e-14
1.00449e-16
1.64282e-16
7.84895e-14
9.78724e-13
1.74929e-12
1.93096e-12
6.26336e-13
1.07953e-13
7.25281e-15
6.51845e-13
3.47396e-11
3.03123e-11
3.61433e-11
1.23248e-11
4.02504e-12
4.94672e-14
1.26138e-14
3.69108e-13
3.0256e-10
3.80181e-10
2.86059e-10
3.39194e-13
7.25064e-15
1.35673e-13
3.40104e-12
1.11987e-11
2.18457e-11
1.31331e-11
6.44533e-12
8.99963e-14
2.14448e-13
5.22565e-13
3.76762e-13
8.26644e-13
7.7625e-13
2.03161e-13
2.07237e-14
8.49106e-15
6.24441e-14
2.93216e-14
4.21224e-14
2.61761e-14
1.25552e-14
4.52838e-16
5.11442e-15
9.65458e-14
2.54542e-14
5.0549e-15
1.00409e-15
4.90289e-17
1.82827e-17
8.97969e-14
9.29386e-13
1.56241e-13
4.97585e-14
3.17268e-14
1.01645e-13
3.8164e-15
5.13921e-13
7.40234e-12
2.54108e-12
1.72207e-12
6.60874e-13
2.376e-12
3.80578e-14
2.1531e-14
5.65539e-13
2.33418e-11
3.3089e-11
2.44624e-11
3.42392e-13
8.39774e-15
1.90812e-13
1.77513e-12
5.69834e-13
4.727e-13
6.79399e-13
2.48775e-12
1.14383e-13
1.57615e-13
2.598e-13
1.65433e-14
8.64132e-15
3.44923e-14
2.33919e-13
2.2429e-14
7.15916e-15
2.53987e-14
1.52569e-15
1.64435e-16
2.81461e-16
1.29205e-14
4.35132e-16
4.31937e-15
6.37806e-14
3.02277e-15
4.30572e-16
1.44505e-16
4.11555e-17
7.12877e-18
6.38972e-14
4.56411e-13
3.18283e-15
5.01996e-16
1.43476e-15
1.20264e-14
1.21497e-15
3.66939e-13
1.78581e-12
4.73265e-15
1.00157e-15
9.10179e-15
7.51327e-13
2.67559e-14
3.7006e-14
3.68059e-13
2.50778e-12
4.48561e-12
2.74819e-12
1.53296e-13
8.17457e-15
1.95378e-13
6.46807e-13
9.07548e-16
6.9151e-16
5.68473e-16
5.70553e-13
9.48121e-14
9.23711e-14
1.77771e-13
2.17827e-16
4.32958e-17
2.25745e-16
9.21992e-14
1.23627e-14
5.16663e-15
3.42788e-14
4.6169e-16
6.94694e-17
1.89782e-16
9.62228e-15
3.49493e-16
2.57673e-15
1.93384e-14
3.08408e-15
5.01444e-16
9.15981e-17
4.20149e-17
8.61947e-18
3.15879e-14
8.41976e-14
7.00343e-15
5.77499e-16
9.32993e-17
4.07877e-16
3.71149e-16
1.06456e-13
1.93782e-13
3.11992e-15
6.94356e-16
9.22948e-15
9.86778e-14
1.27897e-14
2.45301e-14
1.70339e-13
6.41456e-13
1.0489e-12
6.70794e-13
5.60107e-14
4.24348e-15
1.0826e-13
1.16533e-13
9.57068e-16
3.25063e-15
4.44521e-16
4.85696e-14
2.91741e-14
4.36442e-14
3.83351e-14
2.13402e-16
5.0551e-17
4.93374e-16
9.93979e-15
4.0371e-15
3.18589e-15
1.0497e-14
1.02437e-15
1.22847e-16
2.1402e-17
7.57896e-16
1.57494e-16
1.25398e-15
4.99856e-15
1.47599e-15
3.10502e-16
6.69202e-17
2.59812e-17
4.97763e-18
9.36687e-15
1.18608e-14
3.48479e-15
8.57506e-16
2.24745e-16
6.35825e-17
1.01386e-16
2.58256e-14
1.78179e-14
6.16288e-15
9.55222e-16
3.72442e-15
5.66529e-15
2.74999e-15
1.16942e-14
5.07961e-14
1.07615e-13
1.96564e-13
1.22486e-13
1.81776e-14
1.86098e-15
3.76405e-14
1.14956e-14
3.31607e-15
3.06402e-15
1.7059e-15
9.64674e-16
6.25075e-15
1.32774e-14
6.45511e-15
4.42521e-16
3.99536e-17
5.91621e-17
6.72843e-16
9.18598e-16
1.4024e-15
2.04696e-15
4.71313e-16
1.28808e-16
1.53321e-17
2.13295e-17
5.32315e-17
5.23403e-16
2.62584e-16
9.84537e-17
5.77539e-17
3.30279e-17
4.83068e-18
1.71897e-18
2.44689e-15
1.47087e-15
4.82703e-16
1.83738e-16
1.02311e-16
4.23614e-17
2.82309e-17
4.69257e-15
9.83544e-16
7.47411e-16
4.44456e-16
1.34654e-16
3.3005e-16
9.44274e-16
2.88487e-15
6.41257e-15
8.72666e-15
2.53881e-14
1.05136e-14
2.93949e-15
5.87021e-16
9.50386e-15
9.99466e-16
3.72184e-16
9.56496e-16
5.57168e-16
1.17312e-16
1.47835e-15
3.01714e-15
1.58305e-15
3.6869e-16
7.38829e-17
2.67464e-17
6.73361e-17
2.18477e-16
6.62597e-16
3.8938e-16
1.90449e-16
3.73948e-17
6.20858e-18
1.72805e-17
3.70181e-17
0
3.10426e-10
3.8288e-11
1.3919e-11
8.56692e-12
2.97018e-10
0
0
6.86179e-10
6.7595e-10
2.90585e-10
2.10376e-10
2.1395e-10
0
0
4.76058e-09
1.57459e-08
5.71508e-09
1.00661e-08
4.03239e-09
0
0
3.80556e-09
2.20204e-08
2.58651e-08
1.64081e-08
0
0
0
2.88611e-09
2.98007e-09
3.31944e-09
4.50895e-09
2.75459e-09
0
0
1.50848e-10
1.16929e-10
1.2147e-10
1.82824e-10
2.0618e-10
0
0
7.92935e-11
5.10859e-12
4.62692e-12
8.42519e-12
6.84398e-11
0
0
8.57289e-11
1.76931e-11
7.14126e-12
4.06653e-12
1.39189e-10
0
0
5.1597e-10
4.97788e-10
2.29866e-10
1.30646e-10
2.25886e-10
0
0
0
1.48183e-08
5.42677e-09
8.62894e-09
0
0
0
0
2.01154e-08
2.17003e-08
1.55259e-08
0
0
0
0
2.73604e-09
2.86757e-09
3.86555e-09
0
0
0
1.28948e-10
7.94124e-11
8.47372e-11
1.27983e-10
0
0
0
3.32165e-11
2.3606e-12
2.88271e-12
4.08807e-12
0
0
0
4.94734e-11
1.13719e-11
4.97768e-12
3.12026e-12
0
0
0
3.45281e-10
3.31164e-10
1.87643e-10
1.07836e-10
0
0
0
0
1.36007e-08
5.23571e-09
7.51157e-09
0
0
0
0
1.90787e-08
1.86201e-08
1.46812e-08
0
0
0
0
2.66293e-09
2.75249e-09
3.4143e-09
0
0
0
6.65443e-11
6.5526e-11
7.28596e-11
8.62852e-11
0
0
0
8.41391e-12
1.60305e-12
2.27113e-12
2.72143e-12
0
0
0
4.23249e-11
8.25282e-12
3.57488e-12
1.9357e-12
0
0
0
2.57769e-10
2.27701e-10
1.33911e-10
8.45063e-11
0
0
0
0
1.23545e-08
5.05924e-09
6.33286e-09
0
0
0
0
1.69702e-08
1.70686e-08
1.30384e-08
0
0
0
0
2.54948e-09
2.76209e-09
3.13831e-09
0
0
0
5.98009e-11
5.35608e-11
5.06547e-11
6.4846e-11
0
0
0
9.42441e-12
1.35065e-12
1.49783e-12
1.94424e-12
0
0
0
3.47307e-11
5.67806e-12
2.35614e-12
2.36902e-13
0
0
0
1.28558e-10
1.22266e-10
7.18538e-11
4.18454e-11
0
0
0
0
9.24819e-09
4.57269e-09
4.32511e-09
0
0
0
0
1.40573e-08
1.53247e-08
1.12222e-08
0
0
0
0
2.28179e-09
2.69718e-09
2.4888e-09
0
0
0
0
3.53463e-11
4.02946e-11
3.37744e-11
0
0
0
0
1.35659e-12
7.39317e-13
7.50607e-13
0
0
0
8.00528e-12
1.92638e-12
1.11991e-12
0
0
0
0
7.51055e-11
7.51396e-11
4.09819e-11
2.67794e-11
0
0
0
0
6.43075e-09
4.17089e-09
3.2571e-09
0
0
0
0
1.20148e-08
1.29941e-08
1.04545e-08
0
0
0
0
2.07644e-09
2.57011e-09
2.14605e-09
0
0
0
0
1.9437e-11
2.24579e-11
2.80131e-11
0
0
0
0
3.93597e-13
4.05922e-13
4.44158e-13
0
0
0
0
8.29255e-13
5.11028e-13
0
0
0
0
1.19029e-10
3.31068e-11
2.87188e-11
9.84093e-12
0
0
0
0
3.72111e-09
2.92505e-09
1.74173e-09
0
0
0
0
1.08388e-08
1.10465e-08
9.55438e-09
0
0
0
0
1.42414e-09
2.0045e-09
1.37432e-09
0
0
0
0
1.35175e-11
1.18476e-11
1.71872e-11
0
0
0
0
1.8762e-13
1.18621e-13
1.25592e-13
0
0
1.44575e-19
2.36139e-19
4.22616e-19
1.37582e-18
1.89429e-18
1.34043e-18
6.67948e-19
1.35026e-17
1.26978e-17
9.40377e-18
8.74834e-18
7.98489e-18
1.01385e-17
9.42708e-18
3.29006e-16
1.68678e-16
3.86645e-17
5.11446e-17
2.61887e-17
2.66276e-16
8.39493e-16
2.23743e-15
2.94359e-17
9.61985e-17
3.25704e-15
1.75394e-15
1.08596e-15
4.83585e-16
6.65679e-15
2.87008e-16
4.21289e-17
1.35524e-16
9.59784e-17
7.85779e-17
1.07269e-15
2.47216e-16
2.24161e-16
1.90477e-16
1.23095e-16
2.87158e-17
3.51957e-17
3.73674e-17
1.29702e-17
1.99029e-17
2.11239e-17
1.69709e-17
1.9326e-18
2.13441e-18
2.18777e-18
1.24904e-20
3.84437e-19
7.73049e-19
9.39562e-19
9.96406e-19
7.81173e-19
2.54803e-19
5.21762e-18
6.77353e-18
5.75805e-18
4.8912e-18
6.12887e-18
6.04704e-18
2.766e-18
1.13662e-16
9.06165e-17
2.67597e-17
6.17339e-18
1.34778e-17
1.42196e-16
6.89432e-16
1.73298e-15
7.03856e-19
9.37682e-20
1.05416e-17
3.57114e-17
1.35997e-16
3.26918e-16
5.03736e-15
8.08049e-17
4.40874e-17
3.1531e-17
8.85054e-18
9.16177e-18
8.70487e-16
2.17691e-16
1.9678e-16
1.72163e-16
1.25018e-16
3.33297e-17
2.84819e-17
3.243e-17
9.13224e-18
1.60996e-17
1.5967e-17
1.43286e-17
2.17454e-18
1.6302e-18
1.79031e-18
1.97569e-19
8.13301e-19
1.14211e-18
1.4834e-18
1.51727e-18
1.36682e-18
1.1869e-18
6.99543e-18
7.39831e-18
4.94143e-18
6.40433e-18
7.8697e-18
9.95752e-18
1.38678e-17
9.48468e-17
5.60117e-17
7.46705e-18
2.44715e-18
6.60655e-18
7.6413e-17
5.88382e-16
1.20647e-15
2.46407e-18
7.10362e-19
7.85954e-20
2.30475e-19
3.56367e-19
2.15537e-16
3.15875e-15
2.45109e-17
3.68291e-17
2.65784e-17
5.23785e-18
2.655e-18
5.99377e-16
1.81322e-16
1.67559e-16
1.4665e-16
1.11623e-16
2.14833e-17
2.64553e-17
2.92003e-17
1.80503e-17
2.62693e-17
2.80384e-17
1.95587e-17
2.72934e-18
1.81567e-18
2.28027e-18
7.70377e-19
1.3894e-18
2.2662e-18
2.97847e-18
3.21492e-18
3.61912e-18
4.31288e-18
1.03476e-17
4.89739e-18
5.65462e-18
1.02102e-17
1.46197e-17
2.45364e-17
3.75883e-17
1.23687e-16
2.54771e-17
1.95428e-18
1.57424e-18
1.64942e-18
2.73945e-17
4.18699e-16
8.2482e-16
3.05356e-18
2.40906e-18
4.40503e-19
1.76806e-19
4.38418e-19
1.03057e-16
2.41302e-15
2.72686e-17
3.74743e-17
1.56949e-17
4.81618e-18
2.91581e-18
3.50549e-16
2.8698e-16
2.15352e-16
1.16631e-16
5.69177e-17
1.93188e-17
2.77113e-17
3.65302e-17
1.34258e-17
1.79657e-17
1.961e-17
1.78528e-17
4.50284e-18
2.69768e-18
4.4986e-18
1.09333e-18
1.68297e-18
2.2857e-18
2.88597e-18
2.7414e-18
3.26242e-18
5.68482e-18
7.07083e-18
3.40348e-18
5.36858e-18
1.15473e-17
1.74649e-17
3.26566e-17
6.33531e-17
1.22982e-16
4.02492e-19
9.25541e-19
1.46576e-18
2.07705e-18
6.64762e-18
3.27009e-16
4.32243e-16
1.35453e-18
2.4533e-18
6.22336e-19
3.40923e-19
2.79657e-19
5.79921e-17
1.4832e-15
2.01442e-17
2.01401e-17
8.55335e-18
3.98217e-18
2.64253e-18
2.60286e-16
3.73355e-16
8.54162e-17
4.75776e-17
3.66449e-17
1.56461e-17
1.7342e-17
4.9642e-17
1.20183e-17
8.96576e-18
1.17755e-17
1.46567e-17
4.90566e-18
2.36694e-18
5.33393e-18
1.06392e-18
1.5108e-18
1.83655e-18
2.09185e-18
1.52749e-18
1.55392e-18
4.78713e-18
2.91224e-18
2.66224e-18
4.43632e-18
9.24119e-18
1.23983e-17
2.16055e-17
5.91992e-17
9.32886e-17
2.19111e-19
5.86955e-19
1.57197e-18
2.09605e-18
1.23838e-18
1.98545e-16
2.37302e-16
4.83554e-19
1.01515e-18
3.10612e-19
2.35722e-19
9.83366e-20
3.36329e-17
8.94889e-16
6.82704e-18
1.05384e-17
4.35688e-18
2.6283e-18
9.45567e-19
1.48351e-16
2.35592e-16
2.93078e-17
2.27501e-17
1.8237e-17
1.03185e-17
7.70028e-18
2.69331e-17
6.39064e-18
4.49739e-18
5.98219e-18
9.4703e-18
3.66226e-18
2.02969e-18
2.34741e-18
7.09516e-19
8.22143e-19
7.64573e-19
8.41761e-19
5.63459e-19
4.73358e-19
4.89423e-19
9.02213e-19
1.11839e-18
1.85061e-18
4.21791e-18
4.94965e-18
4.02564e-18
2.02177e-17
3.30308e-17
1.73715e-19
3.9824e-19
8.35413e-19
1.08008e-18
4.42657e-19
8.30873e-17
8.51094e-17
3.2159e-19
5.54836e-19
2.94192e-19
1.78472e-19
7.65876e-20
1.81154e-17
2.86378e-16
2.44778e-18
3.44406e-18
2.61212e-18
1.15257e-18
5.28371e-19
4.65942e-17
4.91088e-17
6.9587e-18
8.0589e-18
7.78318e-18
3.62883e-18
2.16535e-18
7.62644e-18
2.2267e-18
2.15318e-18
3.02823e-18
4.52995e-18
2.35866e-18
1.50088e-18
9.09357e-19
4.73376e-20
1.83263e-21
2.25947e-21
3.15758e-21
3.49662e-21
3.95782e-21
2.95728e-21
2.09459e-18
6.00729e-22
5.07576e-22
5.195e-22
4.97594e-22
5.24062e-22
3.45323e-22
2.57012e-16
1.45738e-20
9.52957e-21
2.04317e-20
2.84057e-20
4.38592e-20
6.60035e-20
1.74216e-16
6.03538e-17
1.65188e-17
8.9518e-18
5.28017e-18
4.17164e-18
2.74449e-18
2.97096e-18
4.77674e-21
9.44924e-21
1.75006e-20
2.56099e-20
3.89076e-20
7.78184e-20
4.44655e-20
1.57354e-21
1.89956e-21
2.47448e-21
2.74661e-21
3.05417e-21
3.13e-21
4.81966e-21
4.56516e-21
5.30115e-21
6.26736e-21
6.57021e-21
6.60074e-21
4.91503e-21
7.59086e-20
8.97789e-21
1.22031e-20
1.4606e-20
1.62338e-20
1.64852e-20
1.14703e-20
1.99609e-18
1.43451e-21
1.89017e-21
2.23867e-21
3.15426e-21
3.42841e-21
3.50973e-21
2.02457e-16
1.25177e-20
9.61617e-21
1.57807e-20
3.09315e-20
6.19199e-20
1.13041e-19
1.88048e-16
8.25669e-17
4.847e-17
1.75475e-17
1.07551e-17
8.39534e-18
5.511e-18
8.98729e-19
4.92034e-21
8.95967e-21
1.6551e-20
2.52602e-20
4.06595e-20
6.91587e-20
2.11904e-20
1.18639e-20
1.49234e-20
2.04061e-20
2.30668e-20
2.72425e-20
2.79384e-20
2.27353e-20
2.65726e-20
2.85446e-20
2.79158e-20
2.67249e-20
1.91018e-20
1.5208e-20
2.18222e-19
2.82434e-20
4.3149e-20
4.87891e-20
5.68701e-20
4.9444e-20
4.51857e-20
4.23314e-18
4.0041e-20
6.84042e-21
9.65307e-21
1.71768e-20
2.10924e-20
2.78558e-20
2.44594e-16
2.87813e-18
6.80722e-21
1.45651e-20
2.28523e-20
4.29543e-20
8.10967e-20
1.69862e-16
9.46975e-17
5.57396e-17
2.95073e-17
1.80929e-17
1.32125e-17
7.26728e-18
5.11806e-17
7.70855e-21
7.9789e-21
1.83204e-20
2.84487e-20
4.17118e-20
6.94816e-20
7.49558e-19
6.67596e-20
8.86522e-20
1.30057e-19
1.537e-19
1.80055e-19
1.98994e-19
1.13833e-19
1.30523e-19
1.45101e-19
1.5591e-19
1.4208e-19
6.91354e-20
3.81937e-20
9.06516e-19
8.99909e-20
6.72944e-20
1.08307e-19
1.63277e-19
1.39924e-19
7.77965e-20
9.02883e-18
1.18747e-18
1.04563e-19
3.73411e-20
8.09835e-20
9.82675e-20
9.4701e-20
2.50858e-16
6.39265e-17
5.17364e-18
6.52775e-21
1.31923e-20
2.08039e-20
3.95223e-20
1.03839e-16
8.52691e-17
5.74335e-17
3.52253e-17
2.44444e-17
1.70959e-17
1.15141e-17
1.70043e-16
2.60497e-17
4.51691e-20
3.89682e-20
8.11589e-20
1.19543e-19
1.05409e-19
6.63745e-18
8.30013e-19
3.03445e-19
5.19965e-19
8.87246e-19
1.05777e-18
7.37544e-19
4.91634e-19
3.48774e-19
4.34899e-19
3.81457e-19
3.66087e-19
2.08316e-19
9.6909e-20
3.23554e-18
1.8384e-18
5.64493e-19
3.66281e-19
4.726e-19
3.57299e-19
1.76749e-19
2.86878e-17
1.29905e-17
4.97608e-18
1.67722e-18
9.57096e-19
6.17158e-19
1.8886e-19
2.30111e-16
1.29126e-16
5.84685e-17
2.40498e-17
5.10264e-18
1.37606e-18
1.04032e-19
5.7794e-17
5.24902e-17
4.23658e-17
3.28496e-17
2.4242e-17
1.69197e-17
1.155e-17
1.93009e-16
1.06605e-16
6.3257e-17
4.00334e-17
1.55937e-17
5.01812e-18
1.96104e-18
3.88499e-17
2.26356e-17
1.57178e-17
9.79827e-18
7.57197e-18
5.07225e-18
2.44951e-18
4.7069e-18
3.47992e-18
1.8311e-18
1.01696e-18
8.30577e-19
4.74854e-19
1.36343e-19
2.94803e-18
3.96579e-18
2.89077e-18
1.63671e-18
1.13885e-18
7.32493e-19
3.55948e-19
5.3358e-17
4.44861e-17
2.89155e-17
1.79096e-17
1.15232e-17
8.29627e-18
4.26731e-18
1.75256e-16
1.2896e-16
7.98605e-17
5.91615e-17
3.49326e-17
1.72003e-17
8.20532e-18
3.48955e-17
2.99569e-17
2.40316e-17
2.06398e-17
1.80128e-17
1.45504e-17
1.19964e-17
1.45675e-16
1.17251e-16
9.25066e-17
6.95659e-17
5.42478e-17
3.28847e-17
2.39414e-17
2.69881e-17
2.54506e-17
2.02732e-17
1.59455e-17
1.34613e-17
1.05289e-17
7.51228e-18
2.47078e-18
1.87594e-18
1.4579e-18
1.3178e-18
1.21232e-18
6.84844e-19
2.54733e-19
3.41912e-19
8.63008e-19
1.12142e-18
9.97632e-19
6.74004e-19
5.06643e-19
4.71559e-19
1.95339e-17
1.87381e-17
1.55914e-17
1.33431e-17
8.31927e-18
6.71824e-18
4.51478e-18
8.41681e-17
7.28703e-17
5.9069e-17
4.48411e-17
3.69836e-17
2.34911e-17
1.65575e-17
1.90478e-17
1.73743e-17
1.66396e-17
1.49994e-17
1.40052e-17
1.29358e-17
1.21206e-17
5.98051e-17
6.02912e-17
5.53417e-17
5.05569e-17
4.52383e-17
3.27049e-17
2.97263e-17
7.91926e-18
8.60893e-18
8.27102e-18
6.82231e-18
5.88489e-18
4.85638e-18
3.42313e-18
7.61349e-19
8.2196e-19
7.11023e-19
5.58366e-19
4.63269e-19
2.63421e-19
1.61744e-19
1.44425e-22
2.43471e-22
3.70161e-22
6.31619e-22
6.61096e-22
5.97525e-22
6.53048e-22
1.95365e-21
2.15863e-21
2.77916e-21
3.48299e-21
3.38992e-21
3.41686e-21
3.69569e-21
1.4312e-19
8.91237e-20
7.85758e-20
6.09522e-20
5.0689e-20
4.15939e-20
4.40221e-20
1.22687e-17
1.80363e-17
2.2056e-17
3.45701e-17
1.01296e-16
3.89808e-16
1.29224e-15
4.22243e-19
3.01211e-19
1.74786e-19
1.08054e-19
7.5279e-20
4.48621e-20
2.55685e-19
2.47099e-20
2.39236e-20
2.2613e-20
1.84664e-20
1.52487e-20
1.23505e-20
1.6695e-20
4.91217e-20
5.35123e-20
5.72959e-20
5.58022e-20
5.08047e-20
4.41945e-20
3.78881e-20
8.71516e-22
3.14111e-21
8.78131e-21
9.84534e-21
1.04575e-20
1.06697e-20
1.04222e-20
2.07443e-20
2.52402e-20
3.5433e-20
6.79647e-20
7.38064e-20
7.2552e-20
6.4135e-20
1.1845e-19
8.15832e-20
5.44507e-20
4.91047e-20
3.93524e-20
3.19821e-20
2.96822e-20
2.88334e-17
3.54258e-17
4.24391e-17
8.74932e-17
2.03618e-16
5.63298e-16
1.18523e-15
4.30439e-19
2.89864e-19
1.70551e-19
1.02812e-19
7.28333e-20
4.78465e-20
1.89589e-19
2.48858e-19
2.56753e-19
2.27133e-19
1.99875e-19
1.3455e-19
1.11352e-19
8.12721e-20
1.8244e-19
2.98953e-19
3.00624e-19
2.96063e-19
2.81521e-19
2.70628e-19
2.21449e-19
3.83588e-21
2.00907e-20
4.20718e-20
6.41716e-20
6.32319e-20
5.37606e-20
3.69132e-20
9.7545e-20
1.92124e-19
3.00774e-19
4.70883e-19
4.71826e-19
4.64929e-19
4.07374e-19
1.05379e-19
8.12e-20
7.37193e-20
8.71584e-20
1.54258e-19
8.19554e-20
1.968e-19
5.37144e-17
7.70884e-17
1.09376e-16
1.62705e-16
3.63803e-16
6.64933e-16
1.00794e-15
4.62827e-19
3.73295e-19
2.71123e-19
1.75994e-19
7.24243e-20
3.51566e-20
5.32429e-19
1.5169e-18
2.27652e-18
2.1947e-18
1.7569e-18
1.18105e-18
8.80241e-19
5.66036e-19
4.92061e-19
7.35366e-19
1.27078e-18
1.31725e-18
1.12856e-18
1.01341e-18
6.77727e-19
2.16024e-20
8.49055e-20
2.07998e-19
2.78834e-19
3.78047e-19
3.74115e-19
3.45224e-19
3.39118e-19
7.67714e-19
1.62457e-18
2.38462e-18
3.5664e-18
8.05791e-18
9.27735e-18
1.00293e-19
1.34996e-19
2.47301e-19
4.43228e-19
2.12326e-18
7.32687e-18
8.0849e-18
8.33782e-17
1.42965e-16
1.99862e-16
2.78983e-16
3.85279e-16
6.4997e-16
7.46323e-16
1.02695e-18
1.31321e-18
8.45173e-19
3.15156e-19
2.01042e-19
3.78248e-18
4.38447e-16
7.80605e-18
1.23223e-17
1.13742e-17
6.59155e-18
3.15447e-18
1.58572e-18
1.47503e-17
8.86964e-19
2.2579e-18
3.60788e-18
3.40771e-18
2.5117e-18
1.44974e-18
1.435e-18
4.37695e-20
1.79968e-19
2.92544e-19
3.86655e-19
4.62709e-19
5.09336e-19
5.83351e-19
7.70272e-19
2.04895e-18
3.9312e-18
5.06848e-18
5.88716e-18
6.8554e-18
7.03241e-18
5.52778e-18
1.05878e-17
2.1228e-17
3.68327e-17
6.52675e-17
9.25996e-17
9.50167e-17
1.2174e-16
1.69042e-16
2.2259e-16
2.73562e-16
3.52369e-16
4.3697e-16
4.54672e-16
1.72964e-17
2.68402e-17
5.34157e-17
9.9673e-17
1.94609e-16
3.90361e-16
9.4773e-16
2.88766e-17
4.66214e-17
6.48847e-17
8.81448e-17
1.15167e-16
1.55386e-16
2.33915e-16
1.92178e-18
5.80886e-18
7.55917e-18
7.69751e-18
1.15861e-17
1.27554e-17
1.35042e-17
6.41588e-20
1.9748e-19
3.14472e-19
4.79958e-19
5.34485e-19
6.07789e-19
7.03935e-19
4.84585e-19
6.90188e-19
1.16295e-18
1.51511e-18
1.84347e-18
2.58646e-18
2.78941e-18
1.62442e-17
2.70963e-17
3.49014e-17
4.67145e-17
6.00521e-17
8.11762e-17
8.80013e-17
1.13321e-16
1.27098e-16
1.39861e-16
1.69324e-16
1.83393e-16
2.16561e-16
2.33351e-16
1.26037e-16
1.74457e-16
2.52697e-16
3.61485e-16
5.16033e-16
7.05458e-16
8.16573e-16
6.7864e-17
8.82635e-17
1.19096e-16
1.41889e-16
1.71433e-16
2.04714e-16
2.33695e-16
2.93962e-18
7.07139e-18
1.01224e-17
8.52179e-18
7.9376e-18
1.00367e-17
1.09236e-17
4.82881e-20
1.41842e-19
2.12871e-19
3.47169e-19
3.93256e-19
4.56614e-19
5.14078e-19
1.07183e-19
1.68632e-19
2.16438e-19
2.87497e-19
3.39883e-19
4.23578e-19
6.06611e-19
1.35722e-17
1.57001e-17
2.15031e-17
2.71994e-17
3.02802e-17
3.25122e-17
3.39871e-17
5.86671e-17
5.56703e-17
5.97578e-17
6.40537e-17
6.96096e-17
7.3834e-17
7.43465e-17
1.67788e-16
1.94654e-16
2.62311e-16
3.00197e-16
3.60761e-16
3.95379e-16
3.88252e-16
2.68262e-17
3.30542e-17
3.82973e-17
4.45668e-17
5.24285e-17
5.61524e-17
5.32941e-17
1.45165e-18
2.53761e-18
2.88012e-18
3.33462e-18
3.26037e-18
3.06625e-18
2.41182e-18
1.28549e-27
2.6961e-27
1.90435e-25
8.61867e-25
4.19839e-24
5.63343e-24
1.52946e-23
2.15378e-24
3.16771e-24
1.03377e-23
4.7206e-23
1.86351e-22
3.22297e-22
5.23901e-22
2.35107e-19
4.84289e-19
5.96154e-19
5.14911e-19
2.93791e-19
2.26316e-19
1.71652e-19
2.065e-18
3.77907e-18
5.64821e-18
6.49396e-18
7.95835e-18
9.07336e-18
1.12486e-17
3.17644e-19
5.74407e-19
7.47207e-19
7.12649e-19
5.67501e-19
5.06679e-19
5.50937e-19
2.26571e-24
4.99389e-24
1.15059e-22
1.02263e-21
2.81891e-21
1.23456e-20
2.18094e-20
1.25251e-25
3.01401e-25
1.1466e-22
2.68329e-22
1.50206e-21
4.98176e-21
1.16322e-20
1.25085e-27
5.55086e-27
4.34597e-25
2.94231e-24
8.7056e-24
2.6148e-23
1.32929e-22
1.80611e-24
3.5903e-24
3.9946e-23
1.67538e-22
1.10197e-21
2.05833e-21
6.61843e-21
3.01263e-19
4.75447e-19
7.07182e-19
6.2977e-19
4.40388e-19
2.68363e-19
1.85772e-19
2.05553e-18
4.48901e-18
7.55716e-18
1.06321e-17
1.32163e-17
1.85681e-17
2.05516e-17
3.47455e-19
5.90046e-19
9.04737e-19
9.02411e-19
8.96179e-19
9.12103e-19
7.00134e-19
2.03794e-24
7.29502e-24
4.41881e-22
7.36808e-21
2.67552e-20
1.32655e-19
1.69348e-19
9.43693e-26
6.87251e-25
2.26443e-22
1.13092e-21
5.92371e-21
2.5253e-20
5.57737e-20
2.28085e-27
7.17439e-27
5.17011e-25
3.7645e-24
2.08598e-23
9.96799e-23
3.79108e-22
3.08029e-24
4.98695e-24
1.31052e-22
8.60967e-22
6.93344e-21
1.90424e-20
6.1938e-20
3.54181e-19
6.68852e-19
1.02616e-18
6.44584e-19
3.98798e-19
2.48967e-19
1.53577e-19
2.69356e-18
7.73558e-18
1.267e-17
1.88903e-17
2.91836e-17
3.46599e-17
4.50556e-17
4.1958e-19
8.20174e-19
1.44904e-18
1.34501e-18
8.00149e-19
6.35121e-19
5.24126e-19
3.95905e-24
1.88298e-23
1.84061e-21
3.4418e-20
1.31394e-19
8.90306e-19
1.28285e-18
9.76962e-26
8.9889e-25
4.93338e-22
2.89318e-21
1.71678e-20
4.98474e-20
1.6418e-19
4.60566e-27
9.92022e-27
7.74059e-25
8.78876e-24
3.76242e-23
1.79037e-22
1.26308e-21
3.31725e-24
5.43688e-24
3.6035e-22
3.87633e-21
2.18121e-20
6.72926e-20
1.87546e-19
3.54042e-19
6.96223e-19
9.59326e-19
5.69067e-19
2.71437e-19
1.25762e-19
1.00128e-19
2.61142e-18
7.85449e-18
1.30179e-17
2.12416e-17
3.03199e-17
3.7034e-17
5.09179e-17
4.22741e-19
8.19351e-19
1.34068e-18
9.60814e-19
6.37292e-19
6.50403e-19
6.7605e-19
5.38347e-24
3.97524e-23
7.08141e-21
2.17413e-19
8.49764e-19
3.08719e-18
4.25068e-18
3.11257e-25
1.34388e-24
6.70701e-22
5.26721e-21
2.52979e-20
8.08593e-20
2.35096e-19
8.74461e-27
1.28935e-26
1.5302e-24
1.04791e-23
6.23003e-23
2.33699e-22
1.84724e-21
3.45963e-24
6.41749e-24
1.36489e-21
7.67958e-21
4.42953e-20
2.04541e-19
4.2463e-19
4.13074e-19
7.51165e-19
7.5328e-19
3.79116e-19
1.56293e-19
5.06053e-19
2.73967e-18
3.24068e-18
9.49894e-18
1.82108e-17
3.53547e-17
4.5695e-17
6.11955e-17
9.13787e-17
4.71107e-19
9.33529e-19
1.28042e-18
7.82021e-19
6.98113e-19
1.24102e-18
4.37097e-18
7.23489e-24
8.60192e-23
2.54683e-20
7.01204e-19
3.53693e-18
1.0795e-17
1.80695e-17
5.98065e-25
2.94416e-24
9.71759e-22
6.25565e-21
3.97987e-20
1.20439e-19
3.22538e-19
1.04327e-26
1.2351e-26
1.85919e-24
1.29678e-23
9.98348e-23
2.89878e-22
2.9479e-21
3.43834e-24
6.70055e-24
2.37661e-21
1.33133e-20
7.71386e-20
2.46163e-19
3.83459e-19
4.96698e-19
9.07675e-19
7.71445e-19
3.3446e-19
5.71427e-19
5.55006e-18
1.07944e-17
3.43471e-18
1.12531e-17
2.59663e-17
4.26562e-17
5.13164e-17
6.55757e-17
8.3008e-17
5.36836e-19
1.10024e-18
1.32779e-18
7.67356e-19
1.56161e-18
2.62464e-17
8.74379e-17
1.6465e-23
1.85903e-22
6.71033e-20
1.33482e-18
6.15317e-18
2.06084e-17
4.24962e-17
8.38118e-25
3.74809e-24
1.41119e-21
8.94435e-21
5.06568e-20
1.71188e-19
4.14114e-19
1.09983e-26
1.31484e-26
2.37869e-24
1.46539e-23
1.19794e-22
3.64841e-22
4.63706e-21
3.14187e-24
6.15858e-24
1.50199e-21
5.52431e-21
3.20336e-20
7.74388e-20
1.11938e-19
5.20055e-19
1.15554e-18
7.57446e-19
1.22757e-18
4.85363e-18
8.20375e-18
1.06838e-17
5.69621e-18
1.88535e-17
3.45381e-17
4.52075e-17
5.17316e-17
5.70247e-17
5.7886e-17
5.65262e-19
1.428e-18
3.02324e-18
1.71322e-17
4.9649e-17
9.63602e-17
1.37597e-16
2.22413e-23
2.90241e-22
8.68729e-20
1.42809e-18
7.62798e-18
1.63958e-17
2.36952e-17
9.45251e-25
3.87882e-24
1.57055e-21
9.42149e-21
5.51487e-20
1.82761e-19
5.12609e-19
1.19494e-26
2.17535e-26
2.89132e-26
1.79899e-23
9.91025e-23
4.37777e-22
1.63184e-21
2.80938e-24
3.53913e-24
1.35034e-23
1.94942e-23
5.02913e-21
2.78603e-21
2.04307e-20
4.36198e-19
4.70102e-19
3.79206e-19
4.88063e-19
1.59783e-18
2.51227e-18
2.88237e-18
5.38725e-18
1.4143e-17
1.8942e-17
2.10438e-17
2.40613e-17
2.47628e-17
2.15609e-17
5.47349e-19
5.71781e-19
9.33394e-19
5.09784e-18
1.86159e-17
3.64286e-17
4.03201e-17
2.71279e-23
4.10721e-22
3.66296e-21
6.39965e-20
6.50256e-19
4.74738e-19
4.57016e-18
4.11744e-26
3.87041e-24
2.54829e-23
9.72008e-21
3.75322e-20
1.90974e-19
6.55022e-19
1.80084e-26
2.91449e-26
3.83688e-26
3.33065e-26
1.33319e-25
7.72471e-26
1.39174e-25
6.43245e-25
8.33034e-25
9.74591e-25
1.36839e-24
3.71109e-24
4.72164e-24
6.28711e-24
1.18667e-19
1.52568e-19
1.48257e-19
1.6671e-19
4.85654e-19
7.65435e-19
8.43622e-19
2.8219e-18
5.67921e-18
6.88692e-18
7.11163e-18
8.59442e-18
9.47237e-18
1.15344e-17
1.64239e-19
1.93752e-19
2.58953e-19
1.013e-18
5.43283e-18
1.14179e-17
1.67136e-17
9.81048e-25
1.18153e-24
2.8641e-24
1.37985e-23
4.47804e-23
8.16948e-23
1.47362e-22
2.52022e-26
2.34045e-26
6.79854e-26
3.03865e-25
9.29512e-25
1.35775e-24
2.50055e-24
3.17339e-29
6.85861e-30
1.21402e-28
1.2686e-27
3.85091e-27
2.97765e-27
6.68383e-27
3.52529e-25
3.74832e-25
3.3239e-25
4.15624e-25
1.05462e-24
1.75306e-24
2.74103e-24
3.9408e-20
4.3021e-20
5.5971e-20
6.31628e-20
1.90887e-19
3.15282e-19
4.925e-19
1.55665e-18
2.93108e-18
3.22719e-18
3.28148e-18
4.14511e-18
4.84462e-18
6.91325e-18
1.10224e-19
6.65223e-20
8.19961e-20
3.07853e-19
2.17806e-18
4.94759e-18
1.00452e-17
6.97183e-25
5.08273e-25
5.74964e-25
2.20027e-24
1.25195e-23
2.88727e-23
5.867e-23
2.84614e-29
4.7951e-29
6.34021e-28
3.08394e-27
1.71668e-27
1.4108e-26
3.38894e-26
2.34144e-29
5.90039e-30
1.9023e-28
6.43011e-28
1.23474e-27
2.83346e-27
3.6077e-27
3.08517e-25
3.41051e-25
1.58386e-25
1.80701e-25
4.35213e-25
7.18355e-25
1.13248e-24
4.49728e-20
4.93639e-20
2.78621e-20
3.55363e-20
8.76775e-20
1.54352e-19
2.36811e-19
7.63399e-19
1.59006e-18
1.73554e-18
1.79915e-18
2.25489e-18