/*--------------------------------*- C++ -*----------------------------------*\
  =========                 |
  \\      /  F ield         | OpenFOAM: The Open Source CFD Toolbox
   \\    /   O peration     | Website:  https://openfoam.org
    \\  /    A nd           | Version:  6
     \\/     M anipulation  |
\*---------------------------------------------------------------------------*/
FoamFile
{
    version     2.0;
    format      ascii;
    class       volScalarField;
    location    "0.005";
    object      p;
}
// * * * * * * * * * * * * * * * * * * * * * * * * * * * * * * * * * * * * * //

dimensions      [1 -1 -2 0 0 0 0];

internalField   nonuniform List<scalar> 
3773
(
41344.1
41343.7
41343.9
41344.3
41344.3
41344
41344.1
99630.9
99631.1
99631.6
99632.2
99632.2
99631.8
99631.6
134489
134489
134490
134491
134491
134490
134490
146110
146110
146111
146112
146111
146111
146111
134489
134489
134490
134490
134490
134490
134489
99631.3
99631.3
99631.5
99631.5
99631.2
99631.1
99630.7
41344.2
41344
41343.5
41343.5
41343.3
41342.9
41342.9
41343.7
41343.4
41343.6
41344
41344
41343.7
41343.7
99630.2
99630.4
99631.1
99631.6
99631.6
99631.2
99630.9
134489
134489
134490
134490
134490
134490
134490
146110
146110
146111
146112
146112
146111
146111
134488
134489
134489
134490
134490
134489
134489
99630.6
99630.5
99630.8
99630.8
99630.6
99630.4
99630
41343.9
41343.7
41343.3
41343.3
41343.1
41342.6
41342.6
41343.2
41342.9
41343
41343.4
41343.5
41343.2
41343.1
99629.2
99629.5
99630.2
99630.7
99630.7
99630.2
99629.9
134488
134489
134490
134490
134490
134490
134489
146110
146111
146111
146112
146112
146111
146111
134488
134489
134489
134489
134489
134489
134489
99629.5
99629.5
99629.8
99629.8
99629.6
99629.4
99628.9
41343.3
41343.2
41342.7
41342.7
41342.5
41342.1
41342
41342.6
41342.3
41342.4
41342.7
41343
41342.6
41342.5
99628.1
99628.5
99629.2
99629.8
99629.7
99629.2
99628.8
134488
134488
134489
134490
134490
134489
134489
146110
146111
146111
146112
146112
146111
146111
134488
134488
134489
134489
134489
134489
134488
99628.3
99628.3
99628.8
99628.7
99628.5
99628.3
99627.8
41342.7
41342.6
41342
41342.2
41342
41341.6
41341.4
41342
41341.8
41341.8
41342.2
41342.5
41342.2
41342.1
99627.1
99627.5
99628.2
99628.7
99628.6
99628.1
99627.7
134487
134488
134489
134489
134489
134489
134489
146110
146111
146112
146112
146112
146112
146111
134487
134488
134488
134489
134488
134488
134488
99627.2
99627.3
99627.7
99627.6
99627.5
99627.2
99626.6
41342.2
41342.1
41341.7
41341.8
41341.5
41341.2
41340.9
41341.6
41341.4
41341.5
41341.9
41342.2
41341.9
41341.8
99626.2
99626.6
99627.3
99627.8
99627.8
99627.3
99626.8
134487
134488
134488
134489
134489
134489
134488
146111
146111
146112
146112
146112
146112
146111
134487
134487
134488
134488
134488
134488
134487
99626.2
99626.5
99626.7
99626.8
99626.7
99626.3
99625.8
41341.8
41341.7
41341.4
41341.4
41341.2
41340.9
41340.6
41341.4
41341.2
41341.3
41341.8
41342
41341.8
41341.6
99625.7
99626.1
99626.9
99627.3
99627.3
99626.8
99626.4
134487
134487
134488
134489
134489
134488
134488
146111
146111
146112
146112
146112
146112
146112
134487
134487
134487
134488
134488
134487
134487
99625.7
99626
99626.3
99626.3
99626.2
99625.9
99625.3
41341.7
41341.5
41341.2
41341.3
41341
41340.7
41340.4
62790.2
62885
63050.8
63133.5
63059.9
62936.6
62878.7
149534
149591
149675
149728
149736
149701
149671
200669
200680
200698
200733
200780
200800
200804
217708
217712
217727
217761
217800
217819
217819
200924
200953
201005
201048
201061
201037
201005
149962
150055
150212
150294
150240
150105
150001
63113.7
63232.7
63475.5
63608
63487.6
63244.4
63103.9
62985.6
63083.1
63359.2
63458.3
63304.4
62973.3
62851.4
149494
149504
149552
149593
149570
149477
149412
200307
200276
200263
200289
200335
200369
200385
217164
217147
217144
217174
217235
217299
217341
200352
200371
200403
200445
200494
200540
200572
149575
149703
149890
150002
149980
149867
149786
63084.6
63302.8
63742.3
63938.9
63787.6
63377.9
63195.1
62689.5
62776.8
62866.9
62912
62836
62636.1
62511.4
148785
148724
148566
148543
148609
148664
148651
199404
199348
199311
199306
199347
199427
199479
216234
216208
216210
216222
216274
216367
216454
199491
199452
199397
199422
199498
199653
199774
148887
148905
148816
148902
148963
149078
149139
62781.1
62963.3
63149
63369.1
63256.1
62999.3
62916.8
62001.3
62000.2
61929.1
61860
61810.3
61837.4
61848.8
147526
147427
147205
147311
147340
147394
147418
198065
198028
198029
198047
198082
198082
198057
215005
214990
215023
215011
215049
215077
215072
198420
198354
198270
198267
198321
198443
198524
148002
147935
147475
147614
147628
147893
148091
62283.1
62386.1
62082.2
62152.6
62201.7
62164
62299.7
61423.4
61232.7
61088.4
61023.3
60830.3
60803.6
61067.4
146264
146110
146176
146168
145993
145915
146067
196586
196560
196515
196473
196468
196484
196491
213572
213512
213411
213356
213407
213457
213475
197180
197061
196947
196909
196948
196993
197053
147111
146903
146800
146911
146791
146794
146964
61834.4
61734.4
61575.2
61470
61450.6
61581.8
61766.9
60655.4
60458.6
60348.4
60436
60086.4
60184.7
60530.1
144927
144842
144750
144387
144251
144480
144773
194976
194828
194612
194395
194420
194604
194730
211810
211598
211395
211260
211307
211383
211469
195401
195240
195111
194897
194923
195027
195059
145528
145382
145397
145236
145183
145141
145216
60955
60764.7
60762.1
60788.6
60661
60679.8
60801.4
59830.2
59563.8
59433.7
59714.2
59650.8
59665.8
59938.9
143421
143130
142718
142554
142396
142873
143319
193011
192744
192493
192354
192458
192680
192845
209603
209484
209302
209214
209244
209299
209372
193337
193194
192893
192700
192692
192829
192943
143881
143530
143220
143214
143019
143192
143429
60100.1
59868.9
59824.3
60215
59884.8
59755.8
59911.6
58715.6
58685.4
58718.5
58840.2
59488.3
59882.8
59871.9
141390
141407
141456
141512
141586
142061
142464
190642
190602
190684
190775
190913
191056
191212
207140
207141
207191
207228
207237
207259
207293
190948
190935
190876
190799
190653
190636
190682
141814
141643
141652
141710
141266
141183
141173
59038.4
58899.8
59044.3
59598.9
59145.7
58619.1
58587.5
58155.8
58089.1
58030
58154.2
58850.9
59312.6
59545.6
140189
140127
140266
140501
140724
141064
141537
189257
189240
189363
189532
189674
189861
190031
205683
205735
205827
205875
205900
205924
205972
189584
189662
189718
189647
189521
189429
189436
140696
140663
140852
140724
140322
140172
140206
58421.5
58280.6
58336.8
58805.2
58343.6
57925.2
58093.6
57591.2
57577.7
57602.6
57867.8
58474.6
58949
59562
138988
139001
139234
139721
140123
140626
140909
187916
187995
188201
188333
188496
188752
188890
204272
204358
204506
204576
204557
204586
204640
188261
188424
188666
188709
188587
188340
188220
139625
139698
139979
140039
139694
139332
139331
57902.6
57879
57870.4
58331.4
58181.6
57624.4
57826.6
57059.9
56977.4
56881.6
57266.3
58161.6
58997.3
59715.2
137883
137794
137639
138091
139163
140296
140597
186600
186586
186613
186712
187027
187590
187911
202922
202847
202864
202955
202975
203062
203197
186975
186896
187080
187338
187154
186905
186845
138577
138458
138701
139118
138833
138436
138548
57465.6
57384
57380
57929.1
58094.9
57685.8
57819.1
56653.8
56557.6
56447.9
56903.9
58133.5
59189.6
59701.2
137044
136805
136219
136286
138232
140415
140987
185257
185081
184898
185100
185754
186685
187224
201475
201387
201328
201364
201387
201547
201836
185668
185483
185399
185762
185428
185281
185523
137590
137402
137343
138194
137920
137547
137867
57174.9
57071.5
56845.1
57516.4
58199.4
57827.5
57732.2
56650.1
56567
56729.6
57428.2
58315.7
59108.8
59623.5
136544
136294
135929
135883
137416
140457
141878
184526
184215
183983
184233
184949
186050
186739
200689
200701
200560
200486
200498
200543
200675
184845
184820
184679
184974
184572
184247
184424
136925
136765
136568
138049
137603
136903
137088
56933.6
56961.2
56780.6
57930.3
58454.3
57552.8
57243.3
56320.4
57880.5
58774.8
58023.7
57842.6
58808
59437.1
136769
137257
137152
136624
137193
138848
140692
185289
184900
184284
183872
184151
184621
184505
200599
200661
200343
200160
200075
199849
199362
184238
184346
184532
185635
185367
184373
184272
136649
136556
137600
142000
141234
137349
136602
56639.6
57291.4
58777.2
62720.6
62288.1
57972.4
56686.5
59472.8
59363.5
59421.5
60183.3
60286
60377.5
59823.3
142604
142557
142185
142477
141996
142862
143003
191994
191825
191696
191757
191817
192043
192200
208556
208491
208478
208444
208478
208455
208515
192375
192285
192039
192045
191835
191931
192020
143079
142876
142300
143400
142085
142472
142511
59762.9
59699.3
59907.2
61350.1
60025.8
59471.2
59471.8
59428.7
59343.2
59415
60195
60351.1
60468.4
59814.7
142510
142499
142155
142451
141984
142862
142972
191876
191713
191621
191682
191737
191962
192122
208446
208382
208382
208345
208381
208360
208422
192266
192182
191945
191962
191736
191828
191917
142975
142783
142226
143374
142005
142375
142395
59718.6
59667.2
59908.3
61471.2
60056.4
59418.6
59416.3
59388.4
59329.8
59423.1
60198.9
60446.4
60525.3
59817.5
142427
142449
142140
142419
141974
142860
142944
191767
191615
191553
191608
191666
191888
192048
208341
208277
208287
208250
208286
208269
208331
192156
192081
191860
191878
191646
191729
191813
142881
142706
142187
143302
141969
142263
142290
59678.1
59626.7
59901.2
61618.9
60085.4
59368.3
59369.2
59352.8
59306.9
59447.8
60249
60564.5
60522.4
59822.9
142347
142408
142108
142394
141949
142877
142913
191657
191532
191478
191541
191600
191819
191972
208232
208169
208192
208166
208190
208177
208238
192041
191982
191773
191798
191561
191634
191705
142796
142628
142150
143217
141935
142167
142196
59647.9
59584.6
59924.5
61806.3
60147.7
59325.9
59333.9
59318.2
59269.2
59469.5
60375.5
60640.6
60477.7
59824.8
142259
142357
142043
142376
141911
142887
142879
191548
191451
191406
191475
191536
191745
191893
208127
208070
208096
208085
208093
208090
208145
191927
191884
191683
191715
191476
191541
191597
142705
142567
142088
143132
141875
142101
142099
59622.1
59548
60007.3
62034.5
60252.6
59296.6
59296.1
59274.2
59215.2
59471.2
60460.3
60606.6
60393.5
59826.2
142168
142281
141973
142353
141854
142865
142842
191440
191359
191328
191407
191471
191660
191815
208025
207977
208004
208004
208001
208007
208054
191817
191778
191590
191622
191386
191443
191490
142610
142501
142007
143106
141786
142040
142000
59590.3
59525.8
60061.8
62123.4
60295.7
59284.8
59245.8
59216.2
59146.6
59406.7
60322.3
60456
60259.7
59832.1
142078
142186
141914
142275
141829
142802
142801
191336
191262
191249
191337
191405
191581
191740
207921
207880
207914
207922
207917
207921
207965
191709
191673
191503
191530
191298
191344
191386
142519
142414
141938
143040
141698
141954
141904
59540
59489.7
59998.2
61874.6
60191.7
59249.8
59180.1
62675.1
62412.4
61530.1
59746.7
57805.1
58509.7
59025.6
139699
140887
140731
138055
136792
137843
139251
185548
186224
185176
183814
183224
183640
183336
199770
200640
200294
200040
199769
199788
198517
184756
184786
184952
187062
186273
184548
183801
137874
138276
140589
148295
148121
139905
136467
58267.5
58619.8
61389.8
68024.1
68016.6
60604.7
57704.4
64209.3
63707.4
61497.4
59788.1
57980.8
58001.6
57756.4
140289
142227
141787
138568
136441
137308
137826
185495
186561
185543
183869
183024
183293
182886
199713
200551
200233
199950
199610
199727
198658
184823
184932
185111
187291
186458
184646
183793
138127
138787
141090
148986
149304
140720
136358
58310.7
58908.4
61470.9
68041
68324.4
61152.1
57490.9
64275.3
63484.7
61582.1
59840.6
58165.1
57269.4
56433.5
140787
142998
142209
139133
136781
136733
136273
185364
186895
185809
183903
183033
183248
182678
199716
200405
200163
199821
199443
199542
198865
184688
185001
185223
187127
186392
184628
183902
138273
139194
140851
147853
148677
140655
136236
58179.7
58973.7
61073.1
67010.5
67472.6
60967.7
57183
64075.5
62758
61392.6
59913.8
58213.4
56856.6
55804.3
141141
143035
142441
139558
137078
136235
135193
185342
187034
185877
184012
183052
183322
182695
199735
200302
200142
199737
199300
199348
199084
184435
185053
185532
187035
186142
184576
184153
138249
139392
140484
145957
146648
140090
136365
58019
58793.9
60658
65619
66481.4
60782.7
57104.7
64161.5
62330.4
61155.2
59974.7
58234.7
56759
55690.6
141504
142922
142575
139864
137333
136070
134949
185668
186911
185901
184227
183123
183318
182963
199838
200257
200152
199692
199216
199226
199342
184348
185070
185874
187166
186091
184691
184523
138123
139362
140856
145658
145137
140113
136874
57912.6
58592.4
60410.3
65023.9
66190.1
60937.4
57168.4
64679
62382.7
61033
59966.7
58201.2
56686.7
55575
142064
142947
142697
140167
137534
136121
135048
186007
186704
185953
184449
183277
183284
183290
200035
200258
200204
199694
199193
199183
199545
184307
185124
186187
187397
186251
184890
185000
137970
139317
141559
146633
145361
140607
137349
57800.3
58411.7
60461.7
65309
66542.4
61457.7
57369.6
65287.4
62713.6
61098.1
59955.9
58149.7
56660
55509.6
142532
143099
142866
140452
137734
136225
135227
186261
186702
186112
184662
183453
183313
183807
200234
200316
200304
199752
199256
199196
199703
184261
185361
186457
187658
186469
185128
185371
137856
139447
142106
147570
146383
141134
137659
57715.5
58376.2
60801.6
65812
67177.8
62180.4
57602.3
58848.2
58125.1
57607.2
58268.2
61822.6
68808
78514.8
137821
136121
134973
134392
134719
137216
141961
181409
180882
179717
178122
176119
174067
172349
194092
193313
191955
189898
187133
183991
181275
181951
180641
178977
177234
175599
174108
172903
135977
135618
135662
136216
137951
141369
146303
58599.1
58481.5
58674.1
60321.9
64516.6
71694.1
81309.8
57380
56870.2
56453.2
56831.8
59198.7
64806.3
73840.6
136456
135228
134087
133347
133631
135623
139586
181371
180540
179391
177854
175987
173956
172099
195380
193840
192127
190012
187429
184362
181516
181886
180525
178877
177136
175518
174018
172668
135247
134793
134604
135042
136535
139366
143411
57122.1
56974.7
57338.7
58776
61881.3
67595.4
76172.4
55958.9
55738
55505.8
55512.8
56455.9
59625.9
66527.9
134741
133884
132887
132194
132112
133134
135766
180954
179976
178869
177394
175668
173760
171883
196159
194341
192396
190251
187739
184874
182018
181976
180583
178804
177038
175473
174083
172704
134644
134094
133842
134037
134932
136810
139637
56168.4
56012.6
56457.8
57566.7
59409.6
62718.9
68852.1
55412.5
55199.7
55000.9
54890.6
55186.1
56385.9
60254.1
133706
132889
132018
131306
130960
131256
132386
180641
179352
178219
176777
175164
173512
171771
196706
194834
192739
190542
188058
185347
182536
182069
180568
178713
176976
175471
174254
173121
134652
134013
133645
133686
134187
135401
137267
56002
55883
56276.5
57188.3
58439.9
60131.1
63457.3
55181.4
54907.8
54675.2
54520.4
54671.3
55361.6
57278.1
133489
132505
131507
130683
130188
130294
130860
180689
179119
177611
176139
174582
173141
171601
197078
195260
193107
190829
188238
185361
182408
182428
180726
178895
177144
175604
174439
173540
135124
134434
133967
133925
134409
135404
136808
56149
55965
56286.5
57140.2
58303
59556.6
61181.2
55007.3
54686.4
54402
54257.9
54476.1
55297.9
56500.4
133458
132363
131202
130258
129716
129790
130231
180977
179327
177510
175750
174131
172531
170868
197438
195678
193488
191033
188272
184779
180880
182924
181282
179470
177644
175959
174493
173148
135566
134864
134348
134174
134761
135691
136620
56357
56110.8
56409.3
57342.9
58619.8
59897.7
61030
54938.7
54605.6
54386.3
54332.9
54631.9
55403.9
56412.1
133610
132394
131080
130054
129557
129552
129799
181475
179683
177764
175897
174149
172371
169667
197632
195948
193713
191192
188283
184399
178464
183440
181783
179981
178262
176472
174605
171820
136077
135318
134758
134712
135316
136015
136338
56524.7
56458.6
56756.7
57767.8
59174
60395.6
61556.2
83682
74634.1
67889.3
63885.8
62463.2
62504.6
63062.3
152332
147308
143712
141526
140293
140092
140369
178494
178978
179797
180864
181880
182715
183703
186287
188229
190403
192475
194092
195235
196159
176317
177158
178197
179535
181133
182753
183923
145021
140282
137472
136465
136705
137395
138048
78192.2
69231.5
62972.5
59804.8
58944
59207.7
59596.8
79083.3
71036.1
65568.2
62371.5
60941.3
60915.6
61848.9
150116
145445
142206
140139
138922
138571
138788
178562
179050
179810
180661
181309
181925
183033
186306
188339
190502
192466
194143
195539
196917
175840
176813
177861
179254
180910
182491
183646
142574
138684
136172
135325
135745
136686
137515
74240
65918.7
60806.4
58442.8
57839.6
58085.1
58441.5
73591.5
67754.3
63814.3
61211.6
60055
60352.3
61744.9
147916
143931
141080
139010
137758
137552
138296
178975
179377
179976
180609
181011
181366
182363
186516
188584
190644
192598
194287
195835
197350
175436
176456
177493
178867
180526
182138
183319
139489
136459
134730
134242
134749
135794
136843
68413.4
61979.1
58733.5
57316.3
56978.3
57173.7
57589.3
70783.2
67028.7
63598
61002.2
59856.5
60411.1
61923.4
147232
143870
140967
138707
137303
137156
138354
179542
179879
180284
180737
181055
181382
182309
186663
188811
190888
192849
194549
196171
197700
175209
176083
177026
178364
179972
181569
182831
137237
135054
133832
133600
134175
135212
136402
63997.4
59897.8
57865.1
56923.9
56761.2
56990.7
57344.3
70459.5
67756
64551.7
61892.3
60512.6
60832
62216.6
147372
144441
141485
138890
137540
137673
138951
179837
180217
180564
180966
181436
181946
182979
186339
188677
190999
193109
194889
196542
198025
174912
175593
176553
177964
179535
181071
182505
136308
134389
133437
133372
134057
135174
136376
61997.9
59289.6
57548.7
56756
56667.9
56976.8
57366.5
70909.8
68640.9
65731.3
63217.3
61688.8
61789.4
63018.9
147283
144939
142019
139230
137970
138636
140009
179106
180084
180658
181077
181719
182656
183976
184605
188025
190991
193258
195172
196908
198357
173883
174952
176188
177765
179494
181131
182515
135468
133757
132874
133045
133982
135198
136403
61511.3
59292.3
57450
56667.2
56619.1
56930.7
57357.5
71314.1
69294.1
66557.3
64175.9
62777.1
62792.5
63776.1
147125
145599
142875
140350
139039
139557
140654
177391
179912
180753
181188
181921
183177
184587
181961
187369
190924
193357
195238
197081
198569
172160
174599
176083
177756
179571
181317
182679
134771
133771
133089
133169
134107
135462
136658
61326.8
59558.4
57981.6
57119.2
56896.7
57021.6
57331.6
102389
104690
104629
103229
100416
96432.4
91341
170475
171127
170619
168715
165668
161745
157455
182570
181850
180804
179865
179180
178668
178439
188960
187598
185748
184283
183596
183772
184723
179391
178617
177545
176560
175850
175597
175799
162990
163807
163514
161618
158466
154472
150118
96149.4
98835
99317.3
98140.7
95389.3
91269.6
85960.4
98412.8
99555.1
100393
99397.9
96654.3
92711.8
87016.7
168128
167542
167049
165459
162610
159045
154985
181664
180752
179930
179259
178754
178440
178386
188326
187003
185150
183753
183221
183622
184735
178178
177178
176299
175514
174969
174842
175150
161538
160950
160234
158340
155115
151392
147419
94039.9
95195.6
96308.2
95441.3
92518.7
88235.3
82414.4
96103
95568.4
94968.1
93757.7
91284.1
87246
80916.8
167052
165002
163293
161473
158976
155818
152137
180431
179501
178819
178450
178353
178469
178688
187382
185834
184036
182891
182623
183282
184655
176627
175697
174828
174068
173768
174003
174574
161787
159423
156839
154186
150744
147107
143347
93548.1
93203.5
92551.4
91339.4
88348.8
83631.6
76852.6
93975.9
92219.5
90389.7
88511.8
85756
81730.4
76068.8
165192
162315
159726
157842
155836
153324
150493
178781
177984
177476
177507
178029
178678
179131
186002
184438
182630
181711
181819
182893
184599
174590
173744
172865
172401
172634
173433
174303
160158
156865
153225
150134
146652
143291
140041
91660.5
90286.5
88222.3
86015.7
82617.8
77886.4
71101.7
91053.8
89204.9
87142.9
84926.3
82136.6
78507.2
74002.3
161536
158886
156500
155058
153587
151738
149749
176485
175953
175785
176288
177436
178530
179329
184469
182882
180911
180014
180455
182087
184218
171741
171130
170552
170602
171534
172825
173992
155772
152630
149302
146768
143635
140835
138498
87196.2
85915
83681.9
80956.7
77365.8
72753.7
67167.6
87381
86658.5
84873.1
83121.6
80554.4
77756.6
73685.1
156635
154958
153285
152971
151821
150598
148873
173717
173177
173377
174309
175877
177095
178115
182475
180924
178761
177678
177978
179382
181569
168440
167871
167861
168532
170132
171743
172857
149420
147380
145276
143819
141791
139594
137262
81095.3
80870.6
79027
76651
73402
69721.7
65228.9
81933.4
83014.6
81376.3
80359.7
78227.3
76541.8
72621.4
150573
150239
148804
149739
148457
148497
146415
170428
169755
170243
171605
172773
172625
172798
180016
178449
176055
174384
173611
173258
174813
165192
164435
164892
166126
167702
167925
167939
142574
141934
140364
140234
139185
138179
135091
74669.7
76031.7
74378.8
72799.8
70170.1
67662.9
63657.6
58526
58645.9
58871.6
58382.8
58067.5
57310
57059.6
130287
129994
129567
129006
128462
128134
127183
157314
156930
156317
155422
153552
150636
147310
165032
163593
161279
158521
155161
151101
146243
153021
152480
151755
150648
148792
145940
142518
124278
123804
123133
122392
121798
121293
120522
56515.3
56051.7
56075.6
55621.6
55728.7
55197.9
55254.4
48322.1
48135.9
48175.5
48286
48537.8
48810.2
49215.2
110179
110225
110343
110492
110843
110748
110915
138488
138464
138472
138599
138808
138907
138747
146856
146476
145922
145465
145138
144877
144373
135921
135793
135694
135703
135805
135844
135651
104935
105067
105261
105516
105855
106022
106241
45299.7
45110.1
45112.2
45234.2
45529.4
45863
46284.3
41417.4
41515.5
41585.1
41623.8
41726.6
41813.1
41808
95510.6
95773.6
96132.3
96471.4
96775.8
97027.6
97204.4
124771
124934
125330
125945
126619
127119
127234
134058
134043
134259
134720
135326
135923
136137
123252
123329
123575
124052
124604
125010
125099
92752.7
92985.8
93323.2
93682.1
94016.3
94297.9
94458.6
40052
40106.7
40189.8
40252.3
40349.9
40412.6
40437.7
38822.2
38776.5
38733.6
38719
38713.4
38715.7
38754.5
88188.6
88179.8
88262.9
88377.5
88500.5
88601.5
88678.5
116558
116521
116576
116743
116949
117110
117084
126051
125929
125880
126024
126214
126360
126358
115855
115831
115851
115942
116092
116231
116218
87413.5
87403.1
87435.4
87456.5
87489.3
87535.9
87566.9
38472
38415.9
38325
38316.3
38334.4
38311.4
38253.2
38080.7
38103.3
38153.1
38237.2
38264.6
38235.5
38280.7
86334.1
86305.2
86268.2
86229.7
86221.7
86234.8
86224.8
113029
112914
112824
112733
112676
112679
112605
121709
121451
121144
120969
120890
120740
120465
112764
112649
112543
112439
112382
112391
112289
86038.5
86022.5
86003.7
85983.9
85995.4
86008.9
85991.5
37938
37959.3
38013.5
38053
38038.8
38050
38103
39327.3
39376
39491.2
39653.7
39706.5
39699.1
39767.3
87432.7
87431.2
87437.8
87461.6
87494.3
87520.4
87540
111193
111146
111172
111193
111179
111219
111196
118413
118237
118059
117868
117799
117839
117495
111052
111008
111029
111033
111007
111035
111000
87262.1
87253.9
87252.1
87276.9
87314.7
87319.1
87324.9
39274.3
39343.1
39454.1
39528.3
39502.9
39518.7
39601.2
49364.6
49356.9
49327.8
49270.3
49242.8
49245.4
49218.5
87034.1
87065.6
87126.4
87204.6
87256
87275.8
87302.7
106730
106750
106856
106986
107035
107083
107107
113068
112950
112925
112818
112760
112976
112620
106622
106643
106737
106845
106883
106923
106937
86876.1
86914
86981.3
87066.6
87123.8
87140.7
87171.3
49395.3
49376.1
49344.8
49313.7
49316.5
49311.8
49283.9
85922.7
90794.5
94391.8
96697.8
98252.3
101193
104340
147040
151068
154935
158575
162777
168274
171849
171498
171187
171533
172692
174586
176693
177749
179904
179348
179443
180347
182078
184079
185415
172400
172371
173025
174338
175820
177162
178095
151467
156064
160691
164544
166981
167646
167160
89021.9
94438.9
98931.1
102317
104061
103980
101304
82101.1
87600.5
91512.2
94558.9
96183.8
97544
99512.5
144429
148426
152192
155790
159314
163459
166763
170951
170450
170680
171681
173147
174825
175978
179816
178909
178827
179776
181580
183712
185215
171919
171747
172236
173318
174574
175879
177137
148063
152379
156605
160301
162748
163882
164896
84110
89826.1
94338.1
97757.3
99183.2
98540.2
97592
75561.5
81899.9
86362.4
89931.7
91873.7
92384.5
92702.9
139806
143621
147329
150912
154124
157128
159348
170476
169616
169509
170168
171307
172536
173556
179790
178275
177809
178691
180560
182903
184754
171733
171219
171242
171963
173164
174536
175789
143380
147293
151143
154771
157776
160635
163372
76747.9
82985.8
87572.6
90847.6
92733.4
93893
94934.7
68464.7
75000.3
79675.6
83372.1
85610.1
86033.5
85802.5
134996
138077
141376
144783
147669
150043
151776
170239
168983
168169
168224
168944
169779
170591
179893
177700
176674
177242
179159
181738
183651
172092
171159
170422
170498
171437
172752
173836
139841
142900
146228
149558
152260
155879
159675
69855.8
76217.4
80598.1
84001.3
86601.9
88982.9
91241.8
63030.4
68476.4
73045.8
76756.5
79276.9
80143.8
80125.3
132187
134113
136653
139661
142050
143792
145048
169987
168392
166828
166020
166180
166775
167383
179742
177360
175698
175551
177190
179952
182077
172474
171172
169780
168940
169190
170162
171155
138395
140379
142905
145522
147540
150463
153880
65740.4
71470.8
75730.8
79076.6
81925.3
84664.8
86356.7
59969.9
63696.5
67825.9
71712.1
73704.3
75183.1
76739.7
130861
132058
134247
136824
138071
139076
139913
169317
167652
165584
163942
163566
164009
164169
177425
175066
173580
173513
175282
178217
180233
171958
170705
168859
167087
166535
167121
168158
137612
139413
141026
142484
143640
145366
147234
64563.2
69645.7
73410.1
76506.9
78774.5
81179.7
80768.3
58371.3
60986.8
64523.6
68336.7
68815.7
70387.3
73725.8
129875
131125
133139
134995
134838
135303
135985
165313
164502
163738
162135
161148
161307
161384
171121
169252
169462
170606
173021
176218
178216
167502
167359
166887
164994
163692
163716
164835
135899
138118
138630
139328
139462
140619
140886
63815
68148.2
70948
73856.8
75396.2
77423.1
75209.1
55411.9
55543
55920.1
56368.7
57194.4
57533.6
57557.9
120658
121115
121701
122158
122713
123329
123796
141887
144790
147615
149561
150689
151519
152089
144004
148834
152894
156136
158881
161444
163146
143627
146936
149443
150911
151628
152144
152578
120893
121459
121873
122404
123015
123600
124061
53490.5
53654
54457.9
54902.5
55523.2
55313.5
55581.7
46195.1
45979.8
45641.8
45174.3
44919.6
44762.3
44453.8
105263
105223
105107
104886
104630
104335
104157
133529
133716
133963
134136
134277
134427
134607
141049
141545
141863
142255
142794
143420
143890
133881
134057
133998
133783
133610
133583
133651
105668
105462
105285
105030
104812
104539
104330
46553
46142.8
45721.8
45277.8
45045.8
44949.2
44993.4
39832.3
39876.8
39887.4
39943.4
39960.2
39938
39974.6
92558.3
92489.1
92393.1
92244.6
92026.6
91788
91606.2
122789
122634
122292
121823
121384
121128
121068
132960
132745
132218
131623
131160
130933
130886
123235
123085
122589
121943
121386
121020
120890
93127.2
92987.8
92766.8
92516.9
92269.7
92011.9
91794.6
39953.1
39976.3
39971.9
39955.8
39956.5
39905
39849.4
37797.8
37841.1
37895.6
37872
37905.3
37947.5
37971.3
86319.7
86256
86171.9
86118.4
86090.3
86058.9
86040.5
114371
114266
114112
113920
113785
113752
113742
123866
123840
123666
123413
123201
123233
123389
114484
114462
114299
114131
113923
113870
113892
86567.7
86530.7
86473.3
86426.4
86400.6
86368.7
86384.4
37894.3
37942.2
37982.1
38007.2
38055.4
38142.6
38180.2
37552.7
37504.8
37476.6
37480.8
37417.8
37388.9
37367.1
84972.8
84962.9
84939.8
84907.3
84890.6
84889.5
84876.9
110983
111009
111009
110993
111023
111096
111155
118757
119034
119151
119205
119357
119640
119876
111047
111125
111121
111184
111305
111400
111503
85118.5
85141.6
85140.3
85137.5
85171.1
85185.1
85198.4
37707.4
37663.7
37660
37671.8
37597.9
37556.2
37537.7
39276.4
39188.7
39140.2
39158.2
39065.6
38990
38954.6
86533.2
86515.4
86495.8
86466.3
86440
86431.4
86421.6
109962
109944
109918
109892
109845
109831
109840
116167
116498
116454
116517
116689
116848
117009
109992
110004
109964
109970
109955
109933
109975
86710.6
86696.3
86680.9
86634.6
86604.1
86596.1
86594.2
39410.3
39330.2
39301.2
39295.3
39170.3
39070.4
39024.4
49389.6
49409.4
49412.5
49400.2
49422.8
49430.7
49436
86536
86496.3
86469.2
86451.7
86400.5
86357.9
86340.8
105870
105828
105793
105775
105690
105633
105614
111301
111640
111465
111553
111678
111735
111875
106021
105990
105951
105907
105792
105709
105694
86740.4
86709.5
86692.5
86637.4
86556.6
86495.1
86461.7
49367.1
49397.4
49399.7
49397.4
49429.6
49446.2
49449.1
)
;

boundaryField
{
    fuel
    {
        type            zeroGradient;
    }
    primary_air
    {
        type            zeroGradient;
    }
    Secondary_air_RHS
    {
        type            zeroGradient;
    }
    Secondary_air_LHS
    {
        type            zeroGradient;
    }
    outlet
    {
        type            totalPressure;
        rho             rho;
        psi             none;
        gamma           1;
        p0              uniform 100000;
        value           nonuniform List<scalar> 
98
(
44613.9
75299.8
100000
100000
100000
75462.4
44787.6
44762.5
75336.9
100000
100000
100000
75521
44845.9
44732.6
75268.7
100000
100000
100000
75406.5
44852.3
44538.6
75210.1
100000
100000
100000
75293.7
44613.3
44702.8
75231
100000
100000
100000
75378.9
44765.5
44722.6
75136.2
100000
100000
100000
75256.7
44734.4
44705.9
75104.1
100000
100000
100000
75145.8
44762.2
44867.4
75786.1
100000
100000
100000
75577.4
44823
44850.2
75874
100000
100000
100000
75700.6
44851.4
44850.6
76024.3
100000
100000
100000
75862.1
44756.6
44710
75873.3
100000
100000
100000
75680.5
44703.9
44797.3
75897.3
100000
100000
100000
75758.4
44907.4
45004.4
76169.5
100000
100000
100000
75916.2
44900.3
44841.8
76014.4
100000
100000
100000
75837.2
44741.9
)
;
    }
    stove_body
    {
        type            zeroGradient;
    }
    frontAndBack
    {
        type            empty;
    }
}


// ************************************************************************* //
