/*--------------------------------*- C++ -*----------------------------------*\
  =========                 |
  \\      /  F ield         | OpenFOAM: The Open Source CFD Toolbox
   \\    /   O peration     | Website:  https://openfoam.org
    \\  /    A nd           | Version:  6
     \\/     M anipulation  |
\*---------------------------------------------------------------------------*/
FoamFile
{
    version     2.0;
    format      ascii;
    class       volScalarField;
    location    "0.005";
    object      T;
}
// * * * * * * * * * * * * * * * * * * * * * * * * * * * * * * * * * * * * * //

dimensions      [0 0 0 1 0 0 0];

internalField   nonuniform List<scalar> 
3773
(
240.687
238.266
237.846
238.179
238.383
238.495
241.455
283.878
283.502
283.67
283.413
283.334
283.562
283.875
310.369
311.108
311.149
311.103
311.09
311.118
310.375
318.263
318.412
318.447
318.433
318.435
318.456
318.279
310.439
311.147
311.222
311.18
311.163
311.198
310.458
284.121
283.703
283.88
283.578
283.586
283.796
284.065
241.547
238.56
238.795
239.126
238.916
238.824
241.933
219.67
218.575
217.971
218.018
218.472
218.877
219.199
271.897
276.222
276.228
276.272
276.326
276.486
272.902
313.778
311.408
311.424
311.65
311.63
311.432
313.878
324.339
324.363
324.314
324.374
324.364
324.228
324.878
314.056
312.459
311.901
311.873
311.876
311.615
314.124
272.491
274.005
276.366
276.279
276.164
276.713
272.662
219.653
219.101
218.679
218.89
218.579
218.978
219.452
214.392
214.903
214.22
213.927
214.463
215.056
214.303
267.82
272.214
273.179
270.757
270.779
271.776
267.973
314.074
311.563
311.869
313.968
312.447
311.288
313.805
325.063
324.156
324.383
324.85
324.634
324.068
325.025
313.956
311.677
312.324
312.674
312.87
311.595
313.857
268.005
271.513
272.15
270.063
271.311
272.227
268.092
214.301
215.07
214.21
213.506
214.037
215
214.339
213.435
214.774
215.567
215.652
214.343
214.564
213.511
267.934
273.429
273.631
273.535
269.496
272.123
267.949
314.093
311.435
312.178
312.434
313.734
310.757
313.9
325.075
324.247
324.565
324.932
325.058
324.439
325.013
314.049
310.882
313.166
314.271
313.793
310.819
313.943
268.051
272.279
272.184
269.482
270.834
272.514
268.036
213.407
214.596
215.389
212.849
214.413
214.557
213.49
213.34
214.701
215.183
215.153
214.219
214.264
213.323
268.06
273.34
273.855
274.801
272.948
273.113
268.24
314.175
311.42
311.329
311.698
311.807
310.048
314.194
325.103
324.263
324.636
324.535
324.503
324.526
325.095
314.14
310.798
312.056
313.038
313.084
310.423
314.19
268.303
273.185
272.948
271.895
272.052
273.042
268.262
213.379
214.547
214.714
213.747
214.336
214.303
213.331
213.571
214.963
213.059
215.414
215.028
214.595
213.495
269.365
274.271
276.115
274.947
274.453
274.18
269.226
314.576
311.302
311.222
310.59
310.418
310.407
314.418
325.186
324.259
324.201
324.474
324.017
324.793
325.165
314.489
311.508
310.758
311.097
310.69
311.51
314.451
269.54
275.157
274.482
276.222
274.802
273.433
269.319
213.608
213.68
214.721
212.959
215.669
214.307
213.52
213.266
210.622
212.767
213.02
213.009
213.181
213.286
272.323
274.296
272.937
272.515
272.546
272.905
272.274
312.002
312.347
311.213
311.647
310.977
311.64
311.275
326.736
327.579
327.351
327.37
327.752
326.678
327.787
312.015
315.71
311.767
311.174
316.497
311.866
311.32
272.491
266.517
272.808
272.987
268.375
272.932
272.395
213.473
212.283
213.154
212.899
210.348
213.224
213.402
241.092
241.35
242.639
244.244
242.574
241.543
241.214
290.861
290.779
290.207
290.214
290.516
290.982
291.249
345.089
344.913
344.919
344.814
344.884
344.989
345.038
361.593
361.591
361.588
361.611
361.614
361.629
361.631
345.375
345.262
345.155
345.099
345.127
345.246
345.336
291.132
291.055
290.759
290.602
290.808
291.19
291.307
241
241.74
243.23
245.039
243.29
241.75
241.439
242.48
244.623
255.966
266.092
254.688
244.825
242.307
292.072
291.944
291.057
291.989
291.72
292.309
293.034
340.719
339.987
339.999
339.843
339.767
339.968
340.479
360.849
360.903
361.011
360.85
361.02
361.067
360.908
341.273
340.481
340.12
340.065
340.036
340.354
340.89
292.477
292.273
292.003
292.632
292.022
292.369
292.504
242.109
244.923
257.238
269.105
257.422
245.393
242.62
245.692
256.328
291.172
308.342
288.98
256.17
244.831
288.471
287.706
290.08
293.629
290.186
288.411
289.414
336.897
335.643
335.996
335.836
335.672
335.868
336.75
360.623
360.447
360.565
360.67
360.516
360.514
360.569
337.239
336.217
336.03
335.919
335.951
336.455
337.171
289.065
288.571
291.321
295.275
290.929
288.43
288.904
246.579
257.545
294.416
317.962
294.446
258.742
245.285
254.458
276.886
318.943
329.232
320.341
277.429
252.656
288.133
287.988
296.089
301.847
295.788
289.201
288.752
333.334
331.578
333.068
333.611
332.451
331.959
332.919
359.18
359.609
359.236
359.937
359.668
359.765
359.392
332.993
332.181
333.19
333.712
332.673
332.258
333.228
288.299
289.355
297.098
304.654
296.55
289.833
288.31
255.26
280.366
323.299
342.691
323.302
281.242
253.548
271.75
308.725
324.972
330.006
331.5
302.257
265.848
291.96
295.476
304.587
315.95
304.375
295.557
291.926
330.75
330.084
332.135
333.281
332.037
330.304
330.142
357.936
358.051
357.963
358.93
358.387
358.488
358.559
330.606
330.578
332.72
333.515
332.143
330.886
330.256
291.456
296.033
304.882
318.434
304.558
296.897
291.86
272.206
309.3
328.164
342.756
329.097
309.579
270.632
285.045
316.648
325.172
329.367
331.031
310.486
277.354
298.37
302.543
316.359
333.705
314.373
303.482
297.131
330.721
330.559
332.156
334.318
332.133
330.777
329.755
356.637
356.664
356.084
356.654
356.892
356.951
357.254
329.823
331.026
332.361
334.455
332.466
331.775
330.021
297.235
303.882
315.646
338.799
315.844
304.128
297.625
284.962
316.464
327.921
339.69
328.107
317.058
283.653
291.434
316.994
326.484
328.37
329.054
310.676
284.362
298.941
309.971
334.924
339.846
325.837
307.418
296.893
328.093
329.38
332.533
334.658
331.836
329.451
327.261
353.759
354.707
355.055
356.665
355.985
355.484
353.841
326.305
329.672
331.541
334.529
332.029
330.502
327.844
297.734
308.658
330.808
348.663
331.724
308.205
297.658
290.865
315.133
327.939
338.279
329.142
316.981
289.682
280.816
313.846
324.956
325.532
325.479
320.261
270.219
288.246
308.474
336.337
336.594
325.294
297.647
280.122
323.68
325.202
329.597
333.843
326.53
323.69
322.945
352.632
350.19
352.659
354.371
353.429
351.333
351.992
322.359
322.428
327.489
334.028
328.184
325.715
326.09
286.156
300.114
335.553
346.642
334.136
300.153
280.556
277.713
309.315
324.838
333.301
327.367
313.312
279.59
272.589
301.704
323.669
323.74
323.799
326.205
271.396
283.578
313.471
335.419
335.877
324.411
303.195
276.107
320.3
318.53
322.282
327.901
319.674
317.77
317.63
350.023
345.822
347.763
351.02
348.409
346.9
348.229
316.82
316.671
320.667
327.88
321.608
319.416
322.182
284.093
304.94
336.944
344.085
333.491
305.65
277.646
268.91
301.973
322.855
328.759
324.591
305.886
270.904
264.74
297.133
322.093
322.195
325.761
326.148
281.31
283.311
315.564
335.553
337.835
332.991
314.677
278.176
320.343
317.905
322.653
328.666
319.479
316.744
314.869
347.182
341.883
345.65
349.84
346.231
343.486
345.481
317.497
316.858
322.463
331.044
323.414
319.021
321.338
282.762
313.267
339.006
343.637
334.556
313.925
279.017
263.724
301.197
321.86
324.785
324.481
300.007
264.436
262.963
297.443
320.275
319.012
326.83
326.032
298.483
286.94
321.328
336.43
340.411
342.052
327.99
284.464
321.843
324.209
336.244
339.295
330.622
319.926
315.552
345.449
340.704
342.934
346.664
342.934
341.247
343.694
322.179
323.786
335.964
343.545
336.917
325.178
323.856
287.15
324.576
340.714
342.776
336.927
324.005
286.621
260.268
304.429
320.754
323.382
325.731
300.931
262.149
263.066
300.886
309.515
314.967
327.453
326.336
306.315
300.199
329.15
335.051
338.077
344.124
335.412
301.236
325.474
333.509
342.629
343.752
336.541
328.985
319.987
345.543
341.918
343.684
346.67
343.417
341.933
343.281
324.838
333.017
341.967
348.827
341.97
333.356
326.362
301.714
330.741
340.453
341.77
337.855
329.409
294.285
260.74
303.614
317.168
318.233
325.747
299.794
262.521
265.847
297.963
307.752
321.418
331.058
326.533
295.797
307.087
330.366
332.513
335.921
342.227
342.097
311.558
332.139
343.258
344.412
345.801
341.36
338.609
325.849
347.812
346.715
346.98
348.74
346.225
345.929
345.476
331.818
341.578
343.527
349.408
342.747
339.668
329.949
304.405
330.217
338.983
342.147
337.825
327.529
300.457
265.661
294.465
310.935
314.154
329.283
298.775
264.763
306.059
315.917
319.049
329.584
333.495
306.102
279.345
328.273
335.935
336.528
339.028
342.051
343.075
314.178
334.838
345.304
345.022
345.896
344.5
340.743
325.452
348.174
348.599
347.317
348.286
346.763
347.983
347.278
332.429
343.972
344.785
349.38
346.154
342.966
330.786
309.74
323.108
337.219
345.46
338.118
323.582
307.113
293.251
302.763
311.004
329.68
335.86
307.028
295.359
299.287
314.576
326.354
326.659
327.418
310.94
289.738
302.093
313.841
336.864
337.59
325.746
304.523
299.571
328.781
329.827
332.811
335.011
332.063
329.851
328.085
353.873
352.662
354.145
356.514
355.074
354.128
354.023
326.916
330.122
331.701
334.627
332.123
330.935
328.75
300.836
311.483
334.871
347.623
335.076
306.265
299.002
296.922
309.963
326.681
334.667
328.429
313.892
296.61
294.555
313.836
325.928
326.497
327.308
312.539
280.761
303.7
312.302
336.794
337.563
325.127
301.295
299.491
329.25
330.678
332.948
335.181
332.354
330.79
328.728
353.978
352.386
354.05
356.395
354.96
354.083
354.203
327.727
330.787
331.894
334.831
332.295
332.003
329.865
301.474
309.058
335.16
347.542
334.876
304.173
299.155
289.332
309.215
326.341
334.41
328.114
313.986
288.381
290.632
313.623
325.827
326.258
327.218
313.359
278.652
303.151
310.093
336.778
337.577
324.981
300.502
296.277
331.062
331.158
333.311
335.646
332.954
331.884
329.535
354.054
352.305
353.849
356.281
354.724
354.11
354.317
328.538
331.643
332.5
335.525
332.726
333.278
331.054
300.016
305.859
335.315
347.398
334.837
302.919
298.6
283.119
309.009
326.087
334.256
327.944
313.457
283.013
289.083
313.445
325.796
326.195
327.225
314.359
280.287
300.51
309.049
336.758
337.377
324.973
299.69
296.024
332.456
332.891
334.267
336.441
334.41
332.827
331.821
354.106
352.29
353.527
356.135
354.422
354.238
354.359
329.664
332.542
334.094
336.482
334
333.946
332.279
297.998
302.762
335.427
347.323
334.752
302.023
297.398
280.046
308.913
325.983
334.252
327.875
313.214
280.025
291.052
313.44
325.849
326.37
327.14
315.392
284.442
299.291
308.187
336.69
337.304
325.047
299.455
294.433
333.055
334.006
335.586
337.111
335.608
333.959
333.278
354.137
352.674
353.275
355.781
354.238
354.448
354.348
330.755
333.214
334.891
336.923
335.306
335.54
333.048
296.012
301.227
335.428
347.111
334.668
301.754
295.725
280.764
308.92
326.037
334.471
327.95
312.762
284.283
293.283
313.648
325.67
326.41
327.111
316.585
284.439
298.86
308.208
336.612
337.194
325.169
299.318
293.87
334.368
334.882
336.402
338.611
336.955
334.241
334.647
354.148
353.251
353.187
355.29
354.207
354.689
354.194
331.311
334.123
336.12
338.168
336.229
336.149
333.887
295.5
300.978
335.421
346.955
334.473
301.759
294.453
284.246
308.785
325.843
334.552
327.952
312.701
288.998
293.884
313.843
325.248
326.047
326.76
316.836
273.829
299.855
308.408
336.563
337.026
325.183
299.077
295.954
334.79
335.421
338.519
339.918
338.793
335.066
336.256
354.146
353.802
353.278
355.079
354.356
354.916
354.102
332.944
334.473
337.75
339.156
337.995
336.788
334.984
296.896
301.151
335.505
346.891
334.412
300.82
294.803
290.253
309.085
325.429
334.102
327.676
313.032
290.821
318.065
330.748
339.182
321.824
319.354
316.12
315.311
338.274
340.146
340.569
347.219
346.709
336.444
335.95
353.885
349.629
345.238
345.765
346.023
339.009
326.271
347.977
338.524
337.53
341.85
340.176
345.267
347.015
334.728
342.407
346.147
350.684
347.071
343.73
331.503
338.784
338.953
342.296
353.582
345.287
340.011
338.074
319.1
320.806
328.969
341.096
332.692
326.991
318.018
333.541
350.894
330.711
326.874
326.796
327.386
327.653
343.126
343.835
344.392
344.309
339.598
336.098
340.882
355.328
351.171
345.904
346.715
344.986
338.449
327.082
347.604
337.791
337.574
337.415
338.348
338.586
346.3
336.772
341.733
346.803
350.848
347.911
343.967
333.402
341.236
341.633
344.468
348.952
351.55
343.857
340.927
328.992
330.354
335.002
339.334
348.538
335.081
328.247
350.259
340.069
333.941
332.825
332.192
331.971
331.913
344.446
347.481
348.587
342.368
339.681
339.49
342.909
355.118
350.654
346.331
347.988
346.304
338.505
327.629
346.612
338.912
341.399
340.911
340.127
337.003
345.62
339.467
344.589
347.698
352.516
348.512
346.513
334.617
345.182
345.11
345.534
351.495
349.121
347.373
344.782
336.915
337.433
341.294
343.931
349.756
340.331
335.617
349.922
339.799
338.272
338.116
337.568
337.251
337.827
348.91
348.997
349.579
343.935
342.487
342.687
343.034
353.633
348.857
348.009
349.035
347.145
339.697
329.602
345.573
340.435
343.755
346.021
341.089
336.813
343.98
339.904
347.311
347.834
353.603
349.31
346.502
336.454
344.521
343.08
343.397
354.195
349.194
346.035
344.363
338.886
337.759
340.176
343.891
350.203
342.583
339.23
347.437
339.605
338.618
340.151
339.736
338.685
338.118
348.142
348.93
350.087
345.267
343.365
342.565
342.043
350.916
349.529
349.844
348.755
346.924
343.448
331.423
345.28
343.588
345.747
347.403
342.015
337.823
343.035
340.357
347.2
348.582
353.619
349.254
345.439
337.072
342.744
342.868
346.362
352.379
349.798
344.713
342.349
338.611
338.95
340.091
345.855
348.755
344.458
339.697
345.799
339.12
338.096
340.117
338.953
337.959
337.684
346.579
348.056
349.216
345.079
342.956
342.28
339.439
349.623
351.665
351.318
348.179
346.256
344.579
332.745
344.28
345.572
348.411
348.962
344.492
339.967
340.026
341.937
350.058
350.507
353.935
349.827
346.96
339.074
342.8
344.613
348.766
351.529
351.069
344.919
342.104
339.28
340.053
343.39
348.286
348.461
345.341
339.779
341.21
337.02
337.443
338.172
335.541
334.483
333.092
342.608
345.167
346.517
346.309
344.183
343.872
340.997
348.238
350.926
350.65
349.868
347.252
347.143
337.673
345.22
348.771
350.922
351.391
347.055
344.103
340.737
347.539
350.986
351.832
353.458
351.451
349.886
344.417
342.976
345.255
348.612
351.173
351.593
347.131
344.548
338.058
339.262
343.848
347.811
349.637
347.916
340.476
316.655
316.258
315.399
316.2
318.951
326.399
341.763
340.001
338.289
336.867
336.189
336.552
338.545
344.021
345.321
356.176
355.717
355.195
354.846
354.384
354.467
349.386
353.081
354.981
354.989
354.526
354.057
353.688
356.346
355.003
353.901
353.525
353.336
353.508
354.444
337.364
336.975
336.93
337.384
338.925
341.533
345.154
316.465
316.298
315.918
318.407
322.073
328.971
342.945
328.909
326.229
326.835
326.873
330.128
334.274
340.208
342.656
341.872
340.061
339.505
340.144
342.442
344.319
345.897
354.88
354.029
353.456
353.442
353.736
353.752
348.003
351.438
352.227
353.097
353.092
352.483
351.815
355.454
353.982
352.757
352.53
352.555
353.046
353.118
338.956
338.455
338.132
339.248
340.927
342.515
345.182
322.901
323.097
322.315
324.899
326.283
336.004
342.757
333.174
332.011
331.861
331.626
332.635
335.491
336.793
344.674
344.102
344.155
343.713
344.606
345.178
347.181
342.043
354.895
353.869
352.723
352.636
352.762
353.081
346.901
348.888
349.819
350.583
350.573
350.091
350.034
354.219
354.634
353.423
352.232
351.969
352.029
352.472
342.897
342.194
342.216
342.562
343.455
345.769
347.453
332.607
331.471
331.445
333.161
334.389
337.506
340.907
336.87
336
335.344
334.864
335.404
335.792
333.925
343.934
343.704
343.312
342.976
343.673
344.273
347.19
338.089
350.614
352.814
351.896
351.788
351.713
351.778
344.893
345.635
347.084
347.389
347.145
347.204
347.51
346.133
353.748
352.726
351.105
350.827
350.979
352.249
343.733
343.345
342.787
342.926
344.028
344.709
347.716
337.033
336.833
336.987
338.213
340.75
341.466
339.281
337.228
336.576
334.697
332.924
333.645
334.19
335.005
342.287
343.073
342.901
342.388
340.715
337.522
339.128
335.923
342.41
346.979
349.632
350.874
350.593
348.902
344.082
344.274
344.28
343.983
343.997
344.182
344.256
339.894
345.097
346.867
347.963
349.529
350.042
349.93
342.048
342.003
341.789
341.687
342.045
342.607
343.153
338.209
337.6
337.611
338.176
339.344
341.018
338.848
336.637
336.242
335.786
334.845
334.254
334.433
337.088
338.209
338.272
338.438
338.426
338.621
339.462
340.18
334.069
336.833
339.421
340.379
342.234
344.72
345.817
340.037
339.81
339.21
337.933
337.507
336.407
335.924
338.757
340.462
341.445
342.451
342.872
343.307
344.897
341.367
341.131
340.769
340.898
341.361
342.215
343.216
338.889
338.444
338.75
339.978
341.074
341.995
342.056
332.203
331.916
331.568
331.672
331.959
332.785
334.739
339.74
339.137
338.269
337.955
337.726
337.878
338.08
336.577
336.666
336.715
336.722
336.637
336.405
335.672
339.895
338.777
337.965
337.066
334.581
333.443
330.151
342.402
341.527
340.974
340.727
340.296
339.437
337.922
343.999
343.116
342.719
342.453
342.603
342.901
343.024
339.255
338.621
339.073
340.581
341.761
343.339
342.915
344.828
335.373
326.323
317.816
316.605
317.434
317.353
346.764
344.13
339.523
338.007
337.226
336.883
337.044
354.878
352.549
351.853
351.834
352.007
353.246
354.764
355.561
355.686
355.874
356.308
356.118
354.483
350.428
355.9
354.847
354.272
354.41
354.612
355.338
356.466
344.686
340.91
339.183
338.043
338.014
338.582
339.145
336.256
331.868
320.208
316.774
316.727
318.828
319.705
343.415
338.386
332.13
329.551
329.184
330.423
333.042
350.702
347.462
343.669
342.538
341.248
341.18
341.639
354.612
353.616
353.46
353.037
352.178
352.271
353.396
354.795
355.062
355.257
355.197
354.313
352.274
349.814
354.883
354.085
353.734
353.741
353.995
354.482
355.31
346.265
342.237
341.313
340.473
339.577
339.983
340.779
341.248
332.175
327.968
326.267
325.684
327.415
328.54
343.986
341.992
341.408
342.237
342.176
343.09
343.724
352.059
349.293
347.281
346.242
344.21
343.678
343.384
355.586
354.668
353.558
352.744
352.274
352.512
353.824
353.13
352.868
352.911
353.077
351.739
350.053
348.666
353.893
353.007
352.933
353.215
353.616
354.569
355.456
348.601
345.24
344.005
343.214
343.314
343.807
344.77
337.684
336.214
335.277
334.629
334.363
335.213
336.388
345.962
353.042
353.226
348.367
345.843
349.359
353.456
353.364
350.782
348.582
343.66
340.995
343.441
347.281
355.506
354.586
352.512
347.738
347.931
351.505
354.988
350.688
349.439
349.051
348.704
348.432
347.382
346.755
353.218
351.796
351.515
351.782
352.249
354.204
353.414
349.039
345.975
344.664
344.224
344.513
344.581
344.918
339.052
342.339
341.156
339.762
338.923
339.12
339.115
348.998
354.99
355.716
353.876
351.885
351.42
351.755
352.723
350.524
348.816
346.861
346.379
346.45
347.205
351.06
350.329
349.597
349.363
350.023
350.421
350.998
345.322
345.476
345.807
345.991
346.025
345.948
345.725
350.159
350.341
350.284
350.64
350.45
350.602
344.534
344.376
343.115
342.183
341.746
342.151
342.575
343.173
340.429
341.776
339.344
338.305
338.629
338.891
339.008
349.883
353.701
354.381
350.692
347.273
346.634
347.058
352.147
347.67
345.912
343.733
343.044
343.437
344.838
347.599
346.623
346.369
346.474
346.882
348.037
349.032
340.149
340.827
341.595
341.951
342.43
343.361
343.847
344.973
344.634
344.179
344.058
343.576
342.818
342.436
344.367
342.541
341.307
341.057
341.283
341.767
342.211
343.302
341.596
339.917
338.754
338.803
338.744
339.168
343.496
346.916
347.011
344.364
341.498
341.051
341.197
349.72
344.852
342.914
340.312
339.265
339.011
340.345
344.885
345.574
346.32
346.432
346.656
346.846
347.179
334.173
336.927
339.871
341.615
342.688
343.525
344.865
339.82
341.241
341.982
342.389
342.923
343.454
344.457
343.69
342.65
342.064
341.423
341.615
341.952
342.307
342.779
340.248
339.003
337.642
337.044
337.142
337.574
365.872
365.379
365.82
362.641
358.833
355.545
349.428
362.361
361.105
361.303
358.899
357.389
355.574
351.489
359.225
359.29
359.079
358.399
357.219
356.769
355.814
358.473
358.376
356.511
355.912
354.987
354.849
355.061
359.732
359.237
359.068
358.537
357.489
356.919
356.312
360.598
358.056
358.767
356.534
354.527
353.07
348.497
361.832
361.52
362.234
359.461
355.865
351.075
346.341
365.689
361.142
362.146
358.692
358.044
353.619
348.684
363.365
357.635
357.235
356.878
356.474
354.564
353.146
359.936
358.1
357.498
357.242
356.705
355.961
355.059
357.896
357.443
355.29
354.505
354.207
354.348
354.67
359.287
357.609
356.692
356.311
355.719
355.292
355.113
360.219
352.498
351.531
350.597
350.546
350.087
348.522
360.888
355.32
359.941
356.369
354.556
349.454
344.833
362.459
358.816
359.041
354.797
352.87
348.44
345.73
356.104
354.317
354.901
356.654
357.592
357.254
356.07
358.776
357.454
356.049
356.04
356.258
356.202
356.048
356.957
355.979
354.178
353.602
353.408
353.089
353.022
357.045
355.703
354.1
353.827
354.164
354.089
354.168
350.941
345.722
345.96
347.819
350.009
350.457
350.105
356.764
352.27
351.783
348.233
346.741
342.671
337.725
362.082
353.808
352.736
345.531
350.575
344.621
344.552
351.196
349.388
354.195
357.4
359.694
359.05
356.82
355.712
355.283
354.958
355.281
355.956
356.926
356.747
355.793
354.518
353.05
352.527
351.68
351.06
350.851
353.37
352.733
352.594
352.615
352.872
353.583
353.662
343.703
340.984
344.838
348.862
352.964
353.725
352.122
354.186
351.583
349.265
346.153
345.342
341.743
337.739
359.05
348.922
349.663
341.836
346.426
336.113
343.123
347.966
347.834
357.271
357.813
360.62
357.669
354.715
354.498
353.345
354.31
355.449
356.996
355.787
352.475
354.023
353.335
351.269
350.128
348.562
346.446
345.616
350.257
350.513
350.1
351.745
353.173
353.433
350.849
337.776
338.687
344.781
349.541
354.944
353.59
347.701
351.841
347.676
348.461
344.834
342.429
338.532
335.772
352.561
344.903
347.119
337.45
345.23
334.229
344.202
339.029
346.38
358.225
356.571
360.798
356.964
354.277
350.965
352.166
352.908
353.218
354.921
351.043
347.378
352.693
352.048
349.16
345.105
342.34
340.222
339.386
348.574
348.843
348.008
349.163
350.695
349.016
344.551
333.501
335.711
341.303
349.418
356.329
350.774
346.441
350.425
344.362
345.786
339.549
340.742
334.883
337.892
348.553
340.736
343.243
334.699
343.457
331.636
343.492
335.338
340.177
355.268
351.532
360.486
356.899
352.329
346.41
348.036
351.573
349.395
347.271
343.706
343.633
348.946
345.236
340.107
336.928
335.689
333.955
333.071
343.826
344.397
345.479
345.587
344.557
341.126
339.552
331.173
333.731
339.149
347.348
356.089
351.697
345.475
345.069
338.053
342.723
334.253
338.118
331.326
336.985
329.608
322.456
337.595
331.861
330.076
329.97
330.04
323.256
327.35
330.133
334.163
338.691
337.682
338.305
336.248
336.076
335.113
336.535
337.844
336.716
332.728
336.552
334.775
333.987
333.651
332.791
330.609
324.386
336.851
336.815
333.717
333.522
332.882
330.241
325.062
324.231
328.041
326.962
331
333.095
330.372
333.257
335.309
332.242
334.269
329.611
331.512
327.596
331.051
308.451
308.194
306.542
305.109
305.371
309.251
306.452
317.712
318.732
319.049
318.577
320.096
321.31
320.623
332.003
331.648
330.234
329.011
328.909
330.17
327.803
330.758
328.159
327.423
326.687
326.821
326.194
323.228
327.555
331.251
329.958
328.541
328.018
328.252
326.096
316.39
315.981
316.236
317.632
319.192
319.367
318.045
304.042
301.873
301.092
301.207
300.705
303.333
300.969
291.847
292.22
290.849
290.127
291.093
292.021
291.71
309.28
310.315
309.622
309.998
311.122
310.525
311.077
321.85
324.766
326.937
326.469
326.298
327.049
325.889
324.839
322.041
321.868
321.927
322.154
321.514
319.534
322.899
326.209
326.354
325.882
325.016
325.801
323.972
306.893
308.027
308.562
309.687
309.701
309.475
310.018
288.515
287.566
287.231
287.527
288.617
288.552
289.17
280.642
280.003
281.61
281.732
281.81
280.578
282.236
305.039
303.478
303.92
305.174
305.477
306.192
305.75
315.967
318.793
320.346
320.603
321.259
319.518
321.976
307.216
308.602
308.954
310.982
311.672
311.383
310.316
314.517
318.305
317.537
319.988
321.602
320.942
318.773
303.84
302.171
303.003
304.452
304.555
304.604
304.905
279.578
280.155
279.961
280.602
280.35
280.579
279.527
278.56
278.201
278.15
278.649
278.36
278.082
278.522
301.45
301.492
301.676
303.316
303.364
302.114
303.382
314.741
316.239
316.948
315.306
317.094
318.217
319.016
301.522
301.009
301.869
303.818
306.141
307.476
308.945
314.83
315.845
315.736
314.666
316.561
318.805
317.426
301.671
300.666
301.418
303.11
302.861
301.895
303.194
278.023
277.745
278.257
278.047
277.762
277.684
278.316
278.69
278.514
278.697
279.556
279.574
278.964
279.61
302.124
302.106
302.096
303.051
303.091
302.051
303.075
315.716
315.844
316.653
314.739
316.548
318.927
319.002
297.636
298.594
299.754
301.585
304.204
306.128
308.171
316.997
315.961
316.298
314.251
315.632
318.377
318.447
301.931
301.899
301.936
302.961
302.953
301.986
302.82
278.298
278.472
279.127
279.287
278.552
278.727
279.427
292.693
292.685
292.675
292.201
292.202
292.197
292.199
305.22
305.213
305.183
305.303
305.331
305.082
305.342
309.093
308.05
308.684
307.684
308.872
309.859
311.544
281.288
285.084
286.807
288.637
291.256
293.252
297.289
311.059
308.613
309.096
307.633
307.841
308.398
311.77
305.146
305.104
305.024
305.259
305.246
305.09
305.281
292.691
292.24
292.244
292.222
292.223
292.219
292.213
346.48
352.285
358.5
360.038
361.167
364.291
364.825
345.712
350.067
351.341
352.928
353.958
355.728
356.188
354.453
354.301
354.475
354.834
355.864
356.255
356.213
353.437
353.431
353.582
354.103
354.785
356.81
356.996
354.861
355.238
356.661
357.14
358.006
358.386
359.039
350.786
352.405
356.748
358.11
360.694
360.166
363.431
347.82
353.049
359.986
362.493
365.776
365.694
366.734
347.583
351.959
357.406
358.843
363.183
364.484
359.615
347.645
350.071
351.482
351.712
352.421
352.144
352.849
353.792
353.705
353.99
354.21
355.043
355.424
355.59
351.597
351.656
351.994
352.957
353.817
355.973
356.974
353.659
353.871
354.775
355.194
356.188
357.172
358.678
349.568
350.924
352.027
352.4
352.656
354.353
361.837
348.202
353.123
356.848
359.719
362.772
362.602
364.486
338.083
345.527
349.09
347.874
356.232
357.301
352.898
348.744
349.871
349.743
347.858
347.447
344.507
342.573
353.14
352.464
352.214
352.464
352.85
352.675
351.953
349.717
349.641
349.666
350.381
351.33
353.565
355.605
353.145
353.188
353.128
353.124
353.638
354.398
354.888
350.554
351.296
351.534
350.327
348.391
346.55
349.588
341.723
346.52
351.257
351.88
355.656
355.173
357.706
331.148
335.752
340.206
343.658
347.05
347.501
345.844
350.079
350.835
350.926
347.511
343.206
338.876
336.199
351.947
351.082
350.581
349.911
349.064
348.885
349.773
347.366
347.379
347.764
348.67
350.46
353.181
354.776
352.675
352.468
351.844
351.599
351.262
351.787
353.351
351.695
353.349
353.578
351.472
347.754
342.968
345.947
336.701
340.973
343.156
345.353
352.269
350.181
355.451
326.246
331.993
335.317
336.644
342.415
342.809
341.825
348.947
351.315
350.815
347.009
340.503
331.817
331.403
350.924
351.144
350.387
349.249
347.55
346.886
348.618
344.48
345.095
345.79
347.268
348.903
351.642
353.931
350.319
352.517
352.309
351.236
350.583
350.059
351.416
346.772
352.091
354.115
349.446
347.804
339.099
338.33
330.737
330.006
337.895
333.041
343.394
346.192
352.045
325.011
327.987
333.718
334.121
341.023
341.504
341.248
341.132
342.781
348.521
347.439
339.699
329.165
329.789
346.07
347.375
347.986
346.261
344.521
343.89
345.589
335.824
336.753
339.87
341.139
344.6
348.338
350.969
346.055
349.175
350.003
348.849
347.847
347.077
346.929
345.026
349.15
354.176
347.958
346.877
335.52
333.897
329.86
326.237
332.534
329.891
340.26
334.547
345.12
322.43
322.382
329.889
331.205
338.011
339.684
339.912
338.649
340.034
345.508
344.893
336.956
327.981
327.953
335.977
337.988
342.614
343.716
342.862
341.517
343.559
328.716
329.21
331.756
335.386
337.816
342.664
347.32
337.081
339.027
343.957
345.501
345.449
344.084
344.15
343.635
349.126
353.414
344.436
342.354
332.083
329.81
329.848
325.478
331.802
330.123
336.933
330.432
338.285
317.614
320.817
327.783
328.716
332.912
333.504
336.815
329.938
331.429
333.79
330.707
328.354
323.807
325.126
327.804
333.035
333.184
332.93
333.09
334.311
338.981
324.745
328.92
330.928
332.698
332.532
332.921
334.709
324.392
331.061
333.362
333.788
333.35
335.925
337.933
331.625
330.112
332.55
331.085
327.897
327.915
324.614
324.786
323.861
328.983
328.927
334.358
327.262
334.695
303.321
304.589
303.552
303.237
301.679
301.859
305.845
319.154
317.927
318.21
317.349
317.711
315.401
315.357
328.441
329.593
328.431
328.242
329.304
329.346
328.779
318.54
323.867
324.203
325.003
326.09
326.381
328.703
325.106
327.658
327.136
327
327.857
329.107
327.539
317.339
318.903
317.674
317.379
317.998
317.325
315.914
302.44
305.593
302.504
302.025
302.104
302.901
304.079
289.195
288.232
287.634
287.845
288.532
287.825
288.414
308.69
308.488
309.193
308.213
309.033
307.403
305.75
325.368
326.526
325.298
325.354
325.798
324.921
325.395
315.436
318.807
318.734
319.262
319.208
318.745
321.558
321.399
325.065
324.499
324.426
325.672
325.777
323.883
311.839
308.437
307.914
307.928
308.804
308.791
309.229
288.026
288.537
288.865
287.338
287.908
288.304
288.397
280.1
279.385
278.295
278.627
279.644
280.298
280.163
304.882
303.885
303.966
303.597
303.182
302.298
302.388
316.56
319.449
320.716
319.228
317.286
316.572
316.571
308.212
308.297
308.07
307.397
306.496
305.649
303.84
318.915
319.108
319.836
320.416
319.799
316.877
315.562
304.474
304.518
303.651
303.998
302.83
302.171
302.798
279.903
280.125
280.373
280.147
280.079
278.663
279.024
277.598
276.673
276.515
277.211
276.649
277.735
276.838
302.449
301.296
302.33
302.286
301.107
300.752
300.458
315.618
316.878
315.794
314.571
315.222
315.161
314.821
306.95
304.928
303.817
302.359
301.403
299.897
300.281
317.441
317.802
316.389
315.671
316.543
315.14
315.478
302.77
301.479
302.107
302.766
301.017
300.562
301.095
277.592
276.966
277.143
277.6
277.228
277.105
277.391
279.084
277.932
277.769
278.704
277.921
278.212
277.862
302.415
301.659
302.561
302.503
301.507
301.786
301.468
317.001
316.782
315.139
314.368
315.66
315.782
315.688
306.151
303.731
302.33
300.849
299.734
297.978
293.739
317.973
318.061
316.075
315.053
316.28
315.331
316.86
302.657
301.729
302.64
302.689
301.769