/*--------------------------------*- C++ -*----------------------------------*\
  =========                 |
  \\      /  F ield         | OpenFOAM: The Open Source CFD Toolbox
   \\    /   O peration     | Website:  https://openfoam.org
    \\  /    A nd           | Version:  6
     \\/     M anipulation  |
\*---------------------------------------------------------------------------*/
FoamFile
{
    version     2.0;
    format      ascii;
    class       volVectorField;
    location    "0.005";
    object      U;
}
// * * * * * * * * * * * * * * * * * * * * * * * * * * * * * * * * * * * * * //

dimensions      [0 1 -1 0 0 0 0];

internalField   nonuniform List<vector> 
3773
(
(30.458 -0.0677303 0.247021)
(30.0527 -0.0139729 0.23459)
(29.9879 0.0101425 0.202023)
(30.0361 0.0240854 0.203813)
(30.0688 0.0323443 0.222221)
(30.0884 0.018954 0.226553)
(30.5816 0.0535768 0.247597)
(9.78757 0.0182937 0.00159253)
(9.75785 -0.0347849 0.00835106)
(9.76924 -0.0258745 0.0299218)
(9.75726 0.00733853 0.0279136)
(9.75133 0.00741326 0.0255012)
(9.76139 0.0214002 0.0448179)
(9.78783 -0.00624038 0.049334)
(3.97492 0.0366987 0.0371482)
(3.9699 -0.00743551 0.0432805)
(3.97042 -0.0292546 0.0549253)
(3.96981 0.0103307 0.0505474)
(3.96959 0.0238099 0.0529352)
(3.97002 0.0127291 0.0697728)
(3.97497 -0.0151691 0.0593613)
(-6.34432e-06 0.0042446 0.0493994)
(-1.37244e-05 0.0115979 0.0474508)
(-3.75444e-05 0.0154755 0.0460912)
(-5.63122e-05 -0.0110333 0.0487866)
(-6.46125e-05 -0.0319168 0.0445495)
(-5.52249e-05 -0.028579 0.0341018)
(-5.00053e-05 -0.0147412 0.0403539)
(-3.97598 0.0294484 0.0401739)
(-3.97026 -0.0141495 0.0433086)
(-3.97147 -0.0311155 0.0481676)
(-3.97095 0.00638064 0.0478734)
(-3.97069 0.0182713 0.048686)
(-3.97117 0.00933311 0.0642111)
(-3.97606 -0.0142843 0.0538598)
(-9.79628 0.0134343 -0.00759227)
(-9.76577 -0.0388693 0.00933617)
(-9.77679 -0.0246336 0.0311456)
(-9.76208 0.0082146 0.024287)
(-9.76156 0.00931803 0.0274788)
(-9.77007 0.0247711 0.0450403)
(-9.79436 -0.00388137 0.0489219)
(-30.5853 -0.0491574 0.257188)
(-30.0896 -0.012748 0.231583)
(-30.1279 -0.00250333 0.217258)
(-30.1778 0.00648009 0.225363)
(-30.1454 0.012046 0.221344)
(-30.1341 0.00885654 0.233108)
(-30.6497 0.0423586 0.261241)
(25.9537 -0.0808604 0.56325)
(25.712 -0.0303854 0.549615)
(25.6193 -0.00405464 0.489597)
(25.6306 0.0315079 0.489829)
(25.6989 0.043555 0.528884)
(25.7541 0.0270013 0.534475)
(25.899 0.0659682 0.557982)
(8.67797 0.0105185 -0.039136)
(8.80391 -0.0367757 -0.030705)
(8.80976 -0.0274754 0.0162555)
(8.80795 0.00916064 0.0109231)
(8.80703 0.0208167 -0.00943511)
(8.8141 0.0375264 0.0159894)
(8.7089 0.00413752 0.0094224)
(3.7024 0.0412982 0.0473403)
(3.67679 -0.00089013 0.0486189)
(3.67939 -0.0298589 0.0717424)
(3.67988 0.0108544 0.0633171)
(3.67946 0.0363111 0.0630838)
(3.68083 0.0194549 0.0883119)
(3.70327 -0.0190659 0.0689512)
(-5.84616e-06 0.00302876 0.0482383)
(-9.29217e-06 0.0141385 0.0408215)
(-3.34635e-05 0.0200643 0.0368773)
(-5.37205e-05 -0.013647 0.0421818)
(-6.24996e-05 -0.0407212 0.035092)
(-5.42116e-05 -0.0319626 0.0171361)
(-4.97004e-05 -0.0131067 0.0309133)
(-3.70554 0.0327477 0.0478197)
(-3.68988 -0.0140073 0.0501647)
(-3.68382 -0.0332412 0.0622238)
(-3.68276 0.0079404 0.0593606)
(-3.6819 0.0298133 0.0571394)
(-3.68224 0.0150522 0.0807213)
(-3.70606 -0.0185932 0.0614514)
(-8.69646 0.0138936 -0.049715)
(-8.73066 -0.0373184 -0.0256173)
(-8.81333 -0.0298544 0.0177941)
(-8.80625 0.00913222 -0.00473754)
(-8.80153 0.0229051 0.000486545)
(-8.8215 0.0388623 0.0182695)
(-8.70079 0.00410976 0.0056507)
(-25.9659 -0.0588219 0.578243)
(-25.7913 -0.0286342 0.544158)
(-25.7278 -0.0142332 0.509888)
(-25.7641 0.00788349 0.523861)
(-25.719 0.0158373 0.519984)
(-25.7636 0.0150881 0.541867)
(-25.9383 0.0516704 0.576904)
(24.9716 -0.0905229 0.556896)
(24.945 -0.0567631 0.546294)
(24.8506 -0.0222687 0.457215)
(24.818 0.0481973 0.455938)
(24.8908 0.061095 0.52204)
(24.9696 0.0391691 0.552631)
(24.9623 0.0783479 0.573654)
(8.52472 0.00572144 0.017594)
(8.6478 -0.0250705 0.020077)
(8.67857 -0.0157869 0.0619561)
(8.6014 -4.99519e-05 0.0592146)
(8.60213 0.0146672 0.0250971)
(8.63398 0.0350072 0.0319247)
(8.52956 0.00499269 0.00713472)
(3.69441 0.0396156 0.0853924)
(3.6593 0.00048009 0.0698996)
(3.66321 -0.0279747 0.0935755)
(3.68744 0.00746522 0.0847353)
(3.66969 0.0394982 0.0802901)
(3.65606 0.021981 0.0932916)
(3.69138 -0.0223567 0.0766359)
(-8.72837e-06 0.00243966 0.0454741)
(-1.04963e-05 0.0107426 0.0424698)
(-3.48333e-05 0.0181121 0.0327589)
(-5.53797e-05 -0.0138171 0.0297202)
(-6.66626e-05 -0.0440681 0.0314717)
(-5.93342e-05 -0.0311315 0.0233123)
(-5.4616e-05 -0.010978 0.0367665)
(-3.69325 0.0324319 0.0807309)
(-3.66048 -0.0126646 0.0721785)
(-3.66845 -0.0332539 0.0879501)
(-3.67249 0.00527978 0.0816962)
(-3.67471 0.0326633 0.0742782)
(-3.65997 0.0172806 0.0879746)
(-3.69215 -0.0220028 0.0720862)
(-8.53041 0.0083312 0.0187625)
(-8.62549 -0.0258743 0.024932)
(-8.64589 -0.0244059 0.0629132)
(-8.57952 0.00191988 0.0445627)
(-8.61912 0.0221764 0.0290482)
(-8.64837 0.031656 0.0327493)
(-8.53343 0.00246068 0.00268501)
(-24.9621 -0.0754984 0.582003)
(-24.9695 -0.0537249 0.553178)
(-24.854 -0.0192456 0.480615)
(-24.7843 0.0110614 0.516294)
(-24.8344 0.0184487 0.509032)
(-24.9627 0.0336455 0.550681)
(-24.97 0.068017 0.59235)
(24.8054 -0.0938137 0.397617)
(24.8874 -0.0666025 0.405611)
(24.9677 -0.0311262 0.368997)
(24.9774 0.0541427 0.365068)
(24.8357 0.0718766 0.382826)
(24.8606 0.0445577 0.402286)
(24.815 0.084401 0.411863)
(8.52743 0.00559819 0.0318519)
(8.68542 -0.0130894 0.027466)
(8.69178 -0.00653746 0.0589657)
(8.68864 -0.00962459 0.0539269)
(8.56013 0.00736943 0.0324304)
(8.64379 0.0287588 0.0342071)
(8.5279 0.000597637 0.0136726)
(3.69444 0.0363012 0.0839126)
(3.65698 0.00115851 0.0650443)
(3.66556 -0.0238297 0.0920657)
(3.66874 0.00573999 0.0881385)
(3.68381 0.0399302 0.0844618)
(3.64922 0.0219995 0.0861941)
(3.69212 -0.0243211 0.0768778)
(-1.37456e-05 0.00524779 0.0485233)
(-1.06687e-05 0.00959157 0.0501092)
(-3.94417e-05 0.0129393 0.0324848)
(-5.60798e-05 -0.0140604 0.0214904)
(-7.13213e-05 -0.0439962 0.0315802)
(-6.61254e-05 -0.0293325 0.0436409)
(-6.14645e-05 -0.0094666 0.0512587)
(-3.69393 0.0301868 0.0799867)
(-3.65072 -0.0102163 0.0671801)
(-3.67721 -0.029836 0.0895878)
(-3.69024 0.00248984 0.0828604)
(-3.68465 0.0328718 0.075607)
(-3.65006 0.0189943 0.08118)
(-3.69271 -0.0239004 0.0715949)
(-8.5311 0.00846152 0.0289356)
(-8.64879 -0.014764 0.0278192)
(-8.64556 -0.0190589 0.0521446)
(-8.55978 -0.00624218 0.0531298)
(-8.60293 0.0195145 0.0246086)
(-8.65628 0.0254305 0.0359735)
(-8.53084 -0.00285033 0.013303)
(-24.8024 -0.0851858 0.42124)
(-24.8636 -0.0657645 0.416227)
(-24.9469 -0.0242215 0.387203)
(-24.6569 0.0179666 0.359308)
(-24.8389 0.0240331 0.41433)
(-24.86 0.0398022 0.404577)
(-24.8134 0.0767917 0.428386)
(24.7894 -0.0884786 0.27749)
(24.8724 -0.0650989 0.297613)
(24.9218 -0.0324448 0.313018)
(24.9188 0.0487779 0.30839)
(24.8157 0.0749724 0.272163)
(24.8207 0.0503826 0.289566)
(24.7878 0.085605 0.287987)
(8.53139 0.0067351 0.0528655)
(8.68257 -0.00869945 0.0461175)
(8.69893 -0.00401069 0.0547951)
(8.72892 -0.014629 0.0492467)
(8.66982 0.00568142 0.0512126)
(8.67539 0.0248116 0.0523574)
(8.5372 -0.00428654 0.0391481)
(3.69551 0.0320011 0.0815122)
(3.65692 0.00324314 0.0665189)
(3.65584 -0.0193804 0.0932541)
(3.66029 0.00488394 0.0866787)
(3.66143 0.0396029 0.0859005)
(3.64082 0.0193072 0.0829085)
(3.69571 -0.0251846 0.0786312)
(-1.99679e-05 0.00489078 0.0540167)
(-1.88137e-05 0.00501314 0.047282)
(-4.32403e-05 0.00600842 0.0298418)
(-5.56543e-05 -0.0135071 0.0206143)
(-7.539e-05 -0.0362076 0.0286544)
(-7.2803e-05 -0.0238555 0.0528468)
(-6.90546e-05 -0.00745017 0.0536183)
(-3.69511 0.0267652 0.0790674)
(-3.64972 -0.008597 0.0687695)
(-3.66444 -0.026783 0.0910089)
(-3.67601 0.000203979 0.0856913)
(-3.67648 0.0315494 0.0766178)
(-3.64533 0.0156101 0.0782052)
(-3.69575 -0.0250597 0.0734715)
(-8.53909 0.00983817 0.0463188)
(-8.67767 -0.00946559 0.0345623)
(-8.66994 -0.0132366 0.0555969)
(-8.63658 -0.0103656 0.0613548)
(-8.64157 0.0145087 0.0443578)
(-8.67321 0.0226377 0.0553136)
(-8.53806 -0.00787844 0.0397818)
(-24.7947 -0.0819492 0.295382)
(-24.8534 -0.0630048 0.308011)
(-24.8683 -0.0331822 0.32621)
(-24.7548 0.0168325 0.270055)
(-24.8283 0.0325561 0.30068)
(-24.8256 0.0401983 0.290053)
(-24.7895 0.0802289 0.301251)
(24.8139 -0.0837189 0.146192)
(24.8996 -0.0525033 0.173052)
(24.6798 -0.0261873 0.205592)
(24.9506 0.0399306 0.207702)
(24.9072 0.0631323 0.162122)
(24.8575 0.050838 0.165896)
(24.8056 0.0849045 0.151189)
(8.5727 0.00647531 0.078244)
(8.71208 -0.00921403 0.0818921)
(8.77043 -0.00351362 0.0872959)
(8.73337 -0.0119183 0.0872463)
(8.71779 0.00372588 0.0980953)
(8.70919 0.0214983 0.1027)
(8.56832 -0.00757317 0.0907879)
(3.7001 0.0293044 0.0939178)
(3.6556 0.00649052 0.0795516)
(3.65467 -0.0154823 0.100462)
(3.6472 0.0028065 0.0960458)
(3.64522 0.0377956 0.0972811)
(3.64496 0.0176893 0.09482)
(3.6983 -0.0258352 0.0931044)
(-2.41233e-05 0.00124024 0.0486774)
(-2.7631e-05 -0.00131513 0.043825)
(-4.25998e-05 0.00203179 0.0356615)
(-5.43624e-05 -0.0135568 0.0294337)
(-7.81154e-05 -0.029604 0.0335491)
(-7.74252e-05 -0.0203339 0.0443851)
(-7.5301e-05 -0.00691451 0.0443475)
(-3.69911 0.0250275 0.0878494)
(-3.65801 -0.00564844 0.0744514)
(-3.6493 -0.0232795 0.0981812)
(-3.65331 -0.00299883 0.0953628)
(-3.64846 0.0290003 0.0916959)
(-3.65802 0.0131567 0.0932266)
(-3.6988 -0.0259118 0.0921847)
(-8.57828 0.00687987 0.0726423)
(-8.74011 -0.00561627 0.0700158)
(-8.71862 -0.0074849 0.0929584)
(-8.77413 -0.0112184 0.0938886)
(-8.72903 0.0156042 0.0915242)
(-8.68552 0.0205015 0.099806)
(-8.57142 -0.0111936 0.0830203)
(-24.8187 -0.0776684 0.163961)
(-24.7529 -0.0529666 0.198127)
(-24.8712 -0.0384127 0.199091)
(-24.6645 0.0116009 0.182373)
(-24.9801 0.0323923 0.188343)
(-24.8241 0.0376271 0.160359)
(-24.8092 0.0827296 0.159154)
(24.7033 -0.0840219 0.164273)
(24.3969 -0.0420814 0.177515)
(24.648 -0.0206945 0.196423)
(24.6747 0.0333735 0.194446)
(24.6735 0.0568616 0.174446)
(24.6932 0.0519601 0.181684)
(24.7057 0.0858687 0.169237)
(8.65043 0.00870498 0.0216941)
(8.71301 -0.00496449 0.0289548)
(8.66985 -0.00168203 0.0409269)
(8.65652 -0.00971246 0.0391688)
(8.6574 0.0111206 0.0429129)
(8.66877 0.0267336 0.0532301)
(8.64883 -0.00942215 0.044494)
(3.66404 0.0287232 0.0391593)
(3.66811 0.00716546 0.0272153)
(3.65474 -0.0132083 0.0377792)
(3.65983 0.0040663 0.0387741)
(3.65194 0.0421623 0.0391348)
(3.65976 0.0190957 0.0388149)
(3.6555 -0.0292202 0.0383277)
(-2.58398e-05 0.00178743 0.00197468)
(-3.15244e-05 -0.00183269 0.00335204)
(-4.68108e-05 0.000828533 0.000445972)
(-5.34508e-05 -0.0148257 -0.00237745)
(-8.10285e-05 -0.032648 -0.00034248)
(-8.11356e-05 -0.0224034 -0.00138936)
(-7.95087e-05 -0.00866842 -0.000560228)
(-3.66422 0.0232065 0.0328424)
(-3.70763 -0.0056299 0.0187541)
(-3.66132 -0.0202528 0.036188)
(-3.65438 -0.00268347 0.0352094)
(-3.71689 0.0343046 0.0359982)
(-3.66252 0.017858 0.0396966)
(-3.65615 -0.0285696 0.0402387)
(-8.6557 0.00898372 0.0197231)
(-8.4658 -0.00534809 0.0332348)
(-8.66577 -0.00463738 0.0399075)
(-8.67157 -0.0111153 0.0407193)
(-8.525 0.0206616 0.0396832)
(-8.66973 0.0223008 0.0465669)
(-8.65281 -0.0156023 0.0337661)
(-24.7273 -0.0745509 0.175901)
(-24.5908 -0.0522013 0.202284)
(-24.6901 -0.0411854 0.191593)
(-24.6608 0.0115453 0.191112)
(-24.3648 0.0243444 0.189366)
(-24.6988 0.0330425 0.175372)
(-24.7197 0.0863641 0.171936)
(27.6576 -1.07218 -4.40519)
(27.667 -2.72095 -5.33512)
(27.7707 -2.42454 -7.81281)
(27.9339 0.927253 -9.24707)
(27.771 3.76349 -7.48215)
(27.69 3.27496 -5.13021)
(27.6598 1.19119 -4.25796)
(9.10229 -0.340696 -0.753978)
(9.09127 -0.785586 -1.0088)
(9.05933 -0.495548 -1.49951)
(9.05325 0.601234 -1.7619)
(9.06908 1.48718 -1.48693)
(9.09479 1.35186 -0.997529)
(9.10995 0.5155 -0.714)
(3.98093 0.00190064 1.8265)
(3.97555 0.0301937 1.80934)
(3.97121 0.175842 1.79783)
(3.96829 0.368051 1.7739)
(3.96986 0.446059 1.75113)
(3.97376 0.358272 1.75994)
(3.97618 0.132908 1.7868)
(0.0143574 0.0454477 2.44728)
(0.0153669 0.148256 2.48107)
(0.0172839 0.21099 2.52601)
(0.0177843 0.173409 2.54018)
(0.0158769 0.0985426 2.51047)
(0.0133616 0.0486648 2.46845)
(0.011313 0.0152897 2.44967)
(-3.95425 -0.0943118 1.63466)
(-3.94717 -0.226092 1.62435)
(-3.93674 -0.175381 1.62282)
(-3.93239 0.03654 1.62815)
(-3.93793 0.239471 1.6505)
(-3.94864 0.274657 1.68086)
(-3.95637 0.1157 1.70692)
(-9.08024 -0.521144 -1.14017)
(-9.06606 -1.35712 -1.43854)
(-9.03679 -1.27488 -1.95206)
(-9.02075 -0.0511436 -2.22463)
(-9.03942 1.13041 -1.8741)
(-9.07264 1.2388 -1.30164)
(-9.08941 0.497486 -0.983421)
(-27.5989 -1.30995 -5.01563)
(-27.6677 -3.57514 -6.00774)
(-27.7785 -3.65908 -8.71439)
(-27.95 -0.0864694 -10.2547)
(-27.7845 3.40278 -8.54754)
(-27.6703 3.36522 -5.79892)
(-27.6589 1.26557 -4.72723)
(27.7405 -2.70159 -11.6129)
(27.9689 -7.71572 -14.2461)
(29.1504 -7.6904 -23.7857)
(30.2461 1.38074 -30.8716)
(29.0223 9.24692 -22.3475)
(28.0257 8.14552 -13.5781)
(27.7444 2.78994 -11.0425)
(9.10947 -0.75375 -1.62394)
(9.09486 -1.94249 -2.25521)
(9.0462 -1.68848 -3.63149)
(9.0674 0.627977 -4.50677)
(9.07432 2.68843 -3.63966)
(9.12322 2.55172 -2.19634)
(9.15951 0.973962 -1.48612)
(3.9108 -0.0267091 5.63207)
(3.90145 -0.0182635 5.61556)
(3.8989 0.114951 5.63956)
(3.89598 0.294104 5.60154)
(3.8991 0.426011 5.50647)
(3.90966 0.413802 5.45902)
(3.92144 0.175216 5.47975)
(0.00251838 0.0953322 7.48769)
(0.00536879 0.265809 7.56184)
(0.00789549 0.300237 7.65987)
(0.00878666 0.150545 7.67523)
(0.0090008 -0.00816364 7.59168)
(0.00962336 -0.040603 7.4568)
(0.0105592 -0.0117377 7.36772)
(-3.91159 -0.113083 5.23909)
(-3.89379 -0.251189 5.21726)
(-3.87824 -0.177408 5.23548)
(-3.872 0.0762058 5.2265)
(-3.87555 0.320275 5.2337)
(-3.88837 0.360838 5.21206)
(-3.90105 0.156184 5.22147)
(-9.11324 -0.99633 -2.43166)
(-9.0847 -2.62666 -3.18964)
(-9.03904 -2.55223 -4.79577)
(-9.04082 0.0677376 -5.90098)
(-9.03745 2.59723 -4.71561)
(-9.08391 2.62742 -3.08778)
(-9.10925 1.00896 -2.31369)
(-27.6726 -3.09585 -12.7446)
(-27.9613 -9.06135 -15.7809)
(-29.2138 -9.5344 -26.4227)
(-30.4845 0.114658 -34.1146)
(-29.2332 9.57206 -26.0491)
(-28.0138 9.04471 -15.5477)
(-27.7146 3.17777 -12.5182)
(28.1062 -5.30282 -14.0093)
(29.2837 -14.5451 -20.8643)
(33.0186 -11.1596 -60.2295)
(34.8854 0.65181 -82.9385)
(32.8765 12.7982 -50.59)
(29.3071 15.4744 -18.4768)
(28.0347 5.28748 -12.3533)
(9.00134 -1.23327 -0.764465)
(8.96907 -3.26121 -1.89206)
(9.0437 -2.90889 -5.60963)
(9.15111 0.403111 -8.36096)
(9.04785 3.89173 -5.22289)
(9.01008 4.14648 -1.51781)
(9.05589 1.51374 -0.242167)
(3.87205 0.000665076 9.77881)
(3.86072 0.0586528 9.78479)
(3.87454 0.145501 9.85444)
(3.87481 0.162746 9.7931)
(3.8714 0.228287 9.73697)
(3.8742 0.290724 9.65233)
(3.88904 0.137452 9.64152)
(0.00495791 0.156254 12.6881)
(0.005903 0.401161 12.7166)
(0.00486203 0.382396 12.7727)
(0.00654476 0.0718755 12.7798)
(0.0085213 -0.235101 12.6646)
(0.0127929 -0.283032 12.5097)
(0.0166855 -0.113793 12.4075)
(-3.86828 -0.096811 9.6081)
(-3.85481 -0.198333 9.6025)
(-3.85908 -0.154902 9.63084)
(-3.85306 0.0348935 9.5155)
(-3.85143 0.210701 9.51601)
(-3.85292 0.229693 9.38653)
(-3.86028 0.107307 9.32658)
(-9.0129 -1.5957 -0.935975)
(-8.97912 -4.3547 -2.25394)
(-9.04918 -4.29336 -6.59059)
(-9.15352 0.0413027 -10.3677)
(-9.028 4.27551 -6.63504)
(-8.97402 4.29292 -2.49906)
(-9.0026 1.59999 -1.21137)
(-28.1862 -6.00706 -13.9818)
(-29.3793 -17.1953 -21.6454)
(-33.2826 -14.1444 -65.1466)
(-35.836 -0.232568 -90.5207)
(-33.2766 14.2829 -64.0491)
(-29.5296 17.1522 -21.6346)
(-28.0183 5.99806 -14.3807)
(29.175 -6.81663 -13.3492)
(31.657 -16.1067 -35.8263)
(36.0524 -6.72459 -105.247)
(37.4795 -0.450096 -123.476)
(36.6587 4.56128 -105.25)
(31.8122 17.1278 -28.8195)
(28.9984 6.52834 -10.2799)
(9.0243 -1.20249 1.127)
(9.02248 -3.38329 -1.86333)
(9.29678 -2.63586 -10.0235)
(9.47463 0.0326734 -14.3079)
(9.2876 3.68956 -10.0774)
(9.07673 4.71358 -0.440687)
(9.06056 1.60823 2.35799)
(3.85874 0.101034 13.8928)
(3.84393 0.253538 13.7299)
(3.87563 0.2664 13.6175)
(3.87486 0.0834649 13.5006)
(3.8613 0.0189639 13.6174)
(3.85417 0.0791255 13.8056)
(3.86408 0.035208 13.9207)
(0.0201974 0.165128 17.6751)
(0.0185005 0.390387 17.7277)
(0.0136614 0.356442 17.6998)
(0.0124816 -0.0036461 17.7464)
(0.0135586 -0.378026 17.6276)
(0.0205147 -0.425109 17.5439)
(0.026482 -0.1839 17.4552)
(-3.82081 0.00964613 14.1057)
(-3.81564 0.0125456 14.0401)
(-3.85679 -0.0715663 13.895)
(-3.8543 -0.0879118 13.536)
(-3.8426 -0.0988001 13.6933)
(-3.82202 -0.132054 13.7838)
(-3.82014 -0.043531 13.7902)
(-9.00516 -1.61107 1.99484)
(-9.02848 -4.56137 -0.921314)
(-9.31149 -4.11936 -10.408)
(-9.53175 -0.200592 -18.4252)
(-9.2805 3.81233 -10.3885)
(-9.0665 4.29224 -1.34977)
(-9.0056 1.53121 1.49389)
(-29.2386 -7.75052 -11.5944)
(-32.0129 -19.2722 -33.7766)
(-36.5089 -7.8798 -116.318)
(-38.8476 -1.48937 -150.896)
(-36.4687 8.30248 -115.465)
(-32.2137 18.7168 -33.9172)
(-29.0476 7.11186 -12.4624)
(31.1748 -7.06954 -12.9611)
(35.2709 -16.6308 -55.8272)
(37.1096 -6.07494 -110.273)
(37.9718 -1.86539 -128.908)
(38.2657 -5.31855 -124.377)
(34.8602 14.5601 -46.1629)
(30.5814 5.48733 -9.39049)
(9.1629 -1.30016 2.06632)
(9.29568 -4.46861 -3.33473)
(9.58322 -4.01574 -12.7583)
(9.93004 0.60542 -22.3006)
(9.60261 5.57601 -12.815)
(9.33479 5.38093 -0.819187)
(9.19261 1.51448 4.03983)
(3.84804 0.137354 17.204)
(3.8461 0.150374 16.9796)
(3.86124 0.11957 16.7475)
(3.8725 0.214856 16.7979)
(3.87124 0.292774 17.0627)
(3.85812 0.209729 17.3545)
(3.84855 0.0380227 17.467)
(0.0338392 0.157471 21.7508)
(0.0285943 0.38958 21.8023)
(0.0246303 0.388291 22.0517)
(0.0248916 -0.0600233 22.3147)
(0.0273891 -0.509299 22.0381)
(0.0290488 -0.485679 21.8532)
(0.0320964 -0.191696 21.7719)
(-3.78655 0.0811177 17.7609)
(-3.79679 0.00950435 17.6167)
(-3.82355 -0.294275 17.4144)
(-3.82375 -0.222992 16.9763)
(-3.81727 -0.030733 17.305)
(-3.80451 -0.188062 17.513)
(-3.78759 -0.143574 17.618)
(-9.10621 -1.4827 3.85596)
(-9.26197 -5.05674 -1.43355)
(-9.54467 -5.31262 -11.3012)
(-9.96057 -0.218187 -26.888)
(-9.54531 4.79636 -11.4305)
(-9.30153 4.66554 -1.93197)
(-9.12355 1.38929 3.29603)
(-31.2072 -7.49328 -10.4092)
(-35.3108 -19.6644 -50.7802)
(-37.049 -5.0026 -121.604)
(-39.293 -2.36132 -164.601)
(-37.53 5.47339 -121.521)
(-35.4284 17.5829 -52.8087)
(-31.0247 6.78767 -11.5114)
(32.7873 -8.30131 -11.3107)
(36.3532 -20.8664 -62.0852)
(37.4807 -11.2544 -110.387)
(37.6281 -8.46528 -129.637)
(37.8375 -16.2328 -130.812)
(35.7022 20.2192 -59.9915)
(31.9103 4.87554 -10.1427)
(9.39234 -2.29944 3.32764)
(9.53116 -7.60848 -4.39397)
(9.94001 -5.67198 -33.3206)
(10.4505 -0.895731 -62.6819)
(9.9382 7.72922 -27.8897)
(9.59172 6.67696 -0.85334)
(9.35245 1.41742 4.62106)
(3.85514 0.111619 20.3894)
(3.84866 0.154174 20.7417)
(3.85852 0.571118 20.3437)
(3.90121 0.541291 20.4126)
(3.88629 0.107636 20.8366)
(3.858 -0.159193 21.1813)
(3.83198 -0.229552 20.8434)
(0.0242866 0.273312 26.1385)
(0.0236014 0.765396 26.4845)
(0.0285649 0.816356 27.1921)
(0.0287978 -0.0868284 27.3876)
(0.0288712 -0.933686 27.1386)
(0.0242627 -0.798551 26.3647)
(0.0189099 -0.299536 26.0224)
(-3.80188 0.186521 21.1838)
(-3.80877 0.0542851 21.4748)
(-3.81424 -0.11101 20.6098)
(-3.84392 -0.0929264 19.8912)
(-3.82605 -0.199421 21.0323)
(-3.82913 -0.303379 21.6709)
(-3.809 -0.217213 21.2359)
(-9.32345 -2.15107 5.36562)
(-9.54843 -7.88532 -1.20302)
(-9.888 -7.74992 -30.5328)
(-10.5626 0.635562 -70.5836)
(-9.90163 7.78672 -28.0946)
(-9.56219 7.02883 -1.75968)
(-9.34406 1.92897 5.0317)
(-32.7563 -8.39193 -8.50325)
(-36.3288 -24.2324 -58.0093)
(-37.4216 -6.532 -122.66)
(-38.5793 -4.91195 -169.133)
(-37.4699 8.31236 -122.48)
(-36.4139 23.5232 -62.2728)
(-32.612 8.38129 -10.2194)
(33.611 -12.6417 -5.60645)
(36.5563 -27.393 -56.9566)
(37.4954 -15.9546 -102.352)
(37.2187 -12.0311 -128.694)
(37.036 -19.1385 -139.847)
(35.5132 24.5741 -66.2497)
(32.7218 9.38977 -9.48581)
(9.4292 -4.60458 4.24966)
(9.77792 -13.6159 -15.1593)
(10.5196 -3.46152 -65.5491)
(10.6262 -5.44591 -77.7879)
(10.2797 -4.97622 -56.5817)
(9.71709 10.2879 -12.4944)
(9.34765 1.55856 0.812073)
(3.82825 0.360047 22.4967)
(3.85732 0.481869 21.3633)
(3.89607 1.20386 19.3407)
(3.93466 0.443459 19.8138)
(3.91429 -0.77088 19.3129)
(3.85717 -0.93763 19.9623)
(3.80749 -0.717456 19.9987)
(0.0186524 0.540378 29.8574)
(0.0257924 1.80194 29.8175)
(0.0229958 1.947 30.3038)
(0.0199829 -0.277702 31.0796)
(0.0134613 -2.1499 29.8902)
(0.00859685 -1.89806 29.4659)
(0.00561753 -0.614306 29.2784)
(-3.76299 0.306115 21.8951)
(-3.81175 -0.035103 21.2745)
(-3.85817 0.051325 19.2171)
(-3.88658 0.0938505 19.4755)
(-3.87649 -0.242722 20.1133)
(-3.84401 -0.382389 21.8366)
(-3.80085 -0.51317 22.5449)
(-9.35979 -3.57856 4.97918)
(-9.73593 -14.3746 -11.3118)
(-10.374 -2.27125 -65.2734)
(-10.8189 -0.289217 -101.112)
(-10.401 4.50464 -58.3702)
(-9.72721 13.1255 -10.6451)
(-9.37342 3.31973 5.0472)
(-33.5185 -12.2144 -4.58447)
(-36.2748 -26.5701 -56.3243)
(-37.4972 -6.74379 -120.819)
(-37.7879 -4.20487 -174.21)
(-37.2266 9.41182 -124.98)
(-36.4518 27.9276 -61.0504)
(-33.3732 12.8267 -5.41777)
(32.4759 -14.8947 21.3806)
(36.397 -13.4182 -32.3353)
(37.7293 1.18851 -74.0009)
(37.7942 2.10817 -107.282)
(37.468 -14.2358 -138.308)
(36.6085 -1.15455 -99.3746)
(30.9948 13.2435 -11.2594)
(9.12764 -8.37681 14.2589)
(9.75332 -13.225 -19.1963)
(10.5866 -7.34581 -67.8922)
(10.5887 -15.9741 -72.0018)
(10.2444 -26.9496 -59.4265)
(9.31001 5.13391 -17.5775)
(8.76712 3.47846 3.82962)
(3.78045 -0.558761 20.3212)
(3.80498 -1.34241 17.8679)
(3.85321 -0.997959 14.2667)
(3.89892 -1.36953 12.5483)
(3.80874 -1.37707 12.2708)
(3.74714 -1.16769 14.9183)
(3.71507 -0.777029 15.3842)
(0.0176429 0.285879 22.9359)
(0.0191363 1.32942 22.6373)
(0.0111073 1.58504 22.1708)
(0.00143868 -0.663143 22.0944)
(-0.0150602 -2.42082 21.964)
(-0.0241184 -1.86448 21.9442)
(-0.0305543 -0.561454 21.8678)
(-3.736 -0.32667 18.1896)
(-3.75309 -1.35041 16.1477)
(-3.81318 -1.5043 12.7305)
(-3.88538 0.400951 7.70952)
(-3.84997 1.57092 13.9176)
(-3.83074 0.911699 17.1832)
(-3.83002 0.388625 19.0503)
(-9.02493 -6.04459 11.2837)
(-9.48879 -11.9404 -13.5239)
(-10.4856 8.51777 -70.5488)
(-10.8271 -4.40449 -109.576)
(-10.4651 -2.88541 -64.0861)
(-9.52314 11.1443 -12.017)
(-8.89881 6.35869 12.5462)
(-32.0756 -12.9601 16.21)
(-35.6834 -17.9205 -35.8471)
(-37.4108 9.6313 -100.228)
(-37.8424 2.25318 -167.374)
(-37.8776 -9.98854 -116.344)
(-36.1884 19.6682 -40.6561)
(-32.3621 14.1352 16.8761)
(31.574 -8.81626 23.8462)
(34.9433 -6.71938 -13.6718)
(37.51 2.03931 -48.7813)
(37.5102 6.99845 -110.48)
(36.8747 9.11789 -136.677)
(37.3081 -5.82369 -120.435)
(31.0924 5.40183 -18.289)
(9.00851 -6.6975 17.4375)
(9.95669 -11.8444 -18.2416)
(10.6281 -11.8684 -55.6186)
(10.519 -20.2029 -64.7517)
(10.1908 -26.315 -42.661)
(9.52094 1.64657 -25.9913)
(8.64087 0.618661 2.55639)
(3.75651 -0.848643 21.5458)
(3.74883 -2.80082 18.0973)
(3.78703 -2.8217 13.9169)
(3.83766 -2.55719 11.8757)
(3.72682 -2.15831 11.2679)
(3.68274 -2.08256 13.6735)
(3.65367 -1.04602 14.8859)
(0.0188468 -0.0579112 22.546)
(0.0240914 0.18703 21.6026)
(0.0203244 0.940406 20.3948)
(0.00666895 -0.951883 20.1415)
(-0.00880136 -2.49968 20.0832)
(-0.0246303 -1.41774 20.5614)
(-0.0341352 -0.468884 20.9909)
(-3.67997 -0.64357 18.7092)
(-3.68664 -2.04654 15.3988)
(-3.72712 -1.23226 11.2979)
(-3.81873 0.84417 9.43238)
(-3.77566 1.78392 12.3576)
(-3.76246 1.81527 16.4526)
(-3.78957 0.686061 19.4713)
(-8.98744 -4.81544 13.5558)
(-9.6671 -11.0484 -13.6192)
(-10.6123 9.52363 -62.589)
(-10.835 -10.5164 -109.144)
(-10.547 -1.75255 -49.6924)
(-9.73427 9.3534 -12.5514)
(-8.82584 5.19018 14.6805)
(-31.1361 -7.0787 17.7579)
(-35.0239 -14.3854 -26.2177)
(-37.4574 14.5308 -90.2943)
(-37.3331 5.49475 -174.667)
(-37.5484 -18.467 -122.517)
(-35.5271 16.0522 -33.5854)
(-31.4165 8.6094 18.0682)
(30.6918 -5.69807 27.8481)
(34.4325 -8.27801 0.00799503)
(37.2922 -3.05495 -30.5772)
(37.3331 18.4977 -97.944)
(37.3247 15.4599 -123.166)
(37.4793 8.02063 -131.705)
(32.0365 0.731983 -34.9103)
(9.0252 -6.14848 23.3551)
(10.0505 -12.241 -5.77391)
(10.6525 -12.1204 -45.3334)
(10.6016 -20.9348 -66.3087)
(10.4598 -30.4823 -53.6177)
(9.85428 4.73499 -31.9583)
(8.66508 -0.270432 0.581631)
(3.77857 -2.02176 25.6107)
(3.74938 -5.3104 21.5847)
(3.79513 -9.05128 14.6914)
(3.83979 -6.05339 9.0976)
(3.70517 -0.599345 11.2337)
(3.64044 -2.0377 15.6166)
(3.60389 -0.881266 16.7809)
(0.0198704 -0.748487 25.6012)
(0.024324 -0.698264 23.6586)
(0.0266254 -0.266891 22.9769)
(0.0218029 -1.26192 23.1392)
(0.00526473 -2.03913 22.3278)
(-0.0234587 -1.26662 22.2343)
(-0.0383788 -0.017969 23.2747)
(-3.70028 -1.74004 22.3755)
(-3.68912 -4.59768 18.1351)
(-3.7424 -6.32379 10.4606)
(-3.84098 1.42127 4.18095)
(-3.7732 7.31097 10.6762)
(-3.74979 4.56553 18.7527)
(-3.784 1.7993 22.6214)
(-8.96893 -5.55869 17.6931)
(-9.94032 -15.1884 -11.1938)
(-10.7497 8.85088 -66.5817)
(-10.8323 -14.4676 -121.257)
(-10.6037 -3.49731 -48.1229)
(-9.99951 13.2813 -11.1027)
(-8.87213 5.47764 17.9666)
(-30.5639 -4.87421 20.6725)
(-34.9318 -17.9581 -16.8658)
(-37.3854 14.2065 -78.8284)
(-37.5183 17.4428 -169.347)
(-37.3813 -47.2142 -123.044)
(-34.8031 22.2268 -17.199)
(-30.6275 4.62061 19.1999)
(30.5063 -3.94394 30.1555)
(34.5247 -7.95843 9.93417)
(37.1065 -3.66542 -19.1992)
(36.9649 29.6871 -98.259)
(37.5666 23.0314 -123.783)
(37.2434 27.1497 -123.626)
(33.7167 7.28328 -50.7326)
(9.15723 -3.8725 26.8569)
(10.2658 -11.0557 14.1917)
(10.7566 -2.16395 -30.8661)
(10.8129 -3.4254 -72.0618)
(10.7409 -28.3667 -77.158)
(10.1927 5.38227 -36.8156)
(8.80549 1.51179 -2.00881)
(3.81126 -2.03561 30.5797)
(3.83152 -13.0423 23.6859)
(3.97689 -16.2242 -10.4572)
(3.98871 -13.4604 -22.0187)
(3.82878 -4.98196 -2.09691)
(3.63068 -0.160047 18.835)
(3.57127 -1.54724 19.4133)
(0.0217114 -1.10964 29.2557)
(0.017665 -2.37056 29.519)
(0.0267994 -3.28081 27.2023)
(0.0363265 -2.27429 25.1728)
(0.00727311 -1.08997 26.5561)
(-0.0390745 -0.649719 27.503)
(-0.0612665 -0.231574 26.6598)
(-3.76723 -1.93945 27.5507)
(-3.78538 -10.8238 21.571)
(-3.90463 -9.49791 -16.4829)
(-3.96262 1.11077 -34.7438)
(-3.91283 11.1126 -19.6865)
(-3.81471 11.4365 20.4883)
(-3.80743 2.11995 27.2893)
(-9.11692 -5.3393 21.245)
(-10.3101 -16.7951 0.751055)
(-10.7715 11.7694 -75.4712)
(-10.8225 -15.6354 -125.9)
(-10.641 -18.2341 -51.4912)
(-10.2713 15.9478 1.46854)
(-9.06678 4.62967 20.0784)
(-30.1533 -4.44913 23.467)
(-35.2954 -17.368 -7.23018)
(-36.996 6.5249 -66.2232)
(-37.3328 28.7146 -154.569)
(-37.2407 -62.7588 -138.119)
(-34.7451 31.4344 -13.3528)
(-30.2005 3.38631 18.0998)
(30.5129 -2.02025 32.0004)
(34.8315 -3.23896 21.2796)
(35.8347 6.00281 -14.9239)
(36.1068 57.1331 -103.239)
(37.257 43.0876 -120.448)
(37.1386 37.6782 -109.368)
(34.754 18.9327 -49.9261)
(9.56707 -3.51325 31.4714)
(10.4746 -7.12391 15.258)
(10.7127 7.12462 -19.627)
(10.8037 32.0417 -71.5052)
(10.779 11.0775 -89.4217)
(10.3192 3.15254 -53.1541)
(9.25272 5.99355 -2.02401)
(3.83536 -4.22009 31.4882)
(3.93947 -12.9706 5.66837)
(4.07647 -8.59175 -34.5587)
(4.08963 -16.3864 -38.7042)
(3.87594 -21.1318 -21.9034)
(3.65233 -0.220755 13.6618)
(3.53166 -1.05785 23.0608)
(0.0238638 -0.407383 35.2576)
(0.0231232 -3.71448 33.3933)
(0.0289742 -3.99516 28.4167)
(0.0385853 -3.42948 28.7595)
(-0.0188373 -1.75576 26.2592)
(-0.0808874 -0.868051 31.8476)
(-0.098264 -1.26818 33.3801)
(-3.79763 -4.51779 29.3437)
(-3.8977 -11.7023 6.85022)
(-3.99465 -2.6812 -38.5958)
(-3.99791 0.355876 -57.734)
(-3.96256 1.66218 -46.0656)
(-3.90546 12.301 2.27231)
(-3.82354 4.61481 29.264)
(-9.56505 -5.57576 27.68)
(-10.4927 -16.2618 3.30099)
(-10.7694 16.7001 -80.9037)
(-10.7584 -14.767 -130.028)
(-10.548 -46.2196 -66.9571)
(-10.3583 20.2661 2.27849)
(-9.2638 4.8698 25.0057)
(-30.154 -0.786507 27.5402)
(-35.0647 -10.4947 8.20054)
(-36.4371 6.40076 -51.0005)
(-36.7633 63.6486 -153.055)
(-36.7193 -57.5131 -155.481)
(-34.3253 36.1269 -15.8476)
(-30.156 2.16773 20.7892)
(30.656 3.93506 37.0893)
(34.2864 -12.159 2.15654)
(35.1497 77.3842 -77.461)
(36.1547 75.4595 -113.323)
(37.3719 55.4089 -115.903)
(37.3263 37.9724 -86.4355)
(33.9466 17.4588 -16.1854)
(9.73121 1.29517 33.8936)
(10.4681 -3.31867 8.73772)
(10.5525 24.8516 -20.4685)
(10.6308 59.6533 -57.0605)
(10.5788 76.8335 -67.9659)
(10.3725 40.4426 -62.7599)
(9.4601 10.6215 1.2757)
(3.90278 -2.32153 29.7935)
(4.06858 -1.47947 2.92855)
(4.10247 13.3166 -27.7052)
(4.10583 -5.70454 -38.5651)
(3.94029 -25.5019 -21.7217)
(3.71105 -0.418349 3.42243)
(3.48061 3.96705 30.5759)
(0.0186761 -1.03755 34.4519)
(0.0353503 -3.78386 30.3595)
(0.0407045 -3.81821 26.2881)
(0.0435774 -2.90179 28.571)
(-0.0220304 -1.13747 26.9729)
(-0.105433 1.14347 34.084)
(-0.135325 -1.34149 38.3129)
(-3.88042 -4.53132 30.0565)
(-4.00932 -6.36737 -3.03388)
(-4.03789 10.8338 -33.3141)
(-3.98628 2.23417 -62.3161)
(-3.96308 -15.4991 -46.1608)
(-3.98383 8.59104 -8.67181)
(-3.86253 5.03771 31.4081)
(-9.64292 -1.80309 28.5937)
(-10.4614 -10.277 4.1378)
(-10.7611 22.4273 -78.2296)
(-10.6585 -5.60364 -131.088)
(-10.449 -59.9617 -97.0603)
(-10.2738 21.7813 -5.69912)
(-9.46208 1.31744 27.0231)
(-30.6482 2.99229 28.9953)
(-33.932 -3.58484 5.29247)
(-35.7533 1.58981 -54.0586)
(-35.9432 102.299 -146.148)
(-36.8821 -40.4783 -157.331)
(-34.1453 31.6526 -47.7146)
(-30.465 3.19648 22.7759)
(35.3666 75.3117 -39.2348)
(35.936 137.247 -69.2077)
(35.3536 135.383 -100.984)
(36.7406 84.5861 -106.466)
(38.1475 54.203 -100.319)
(34.8308 -5.99174 39.1784)
(31.872 -7.91664 53.8105)
(10.4669 34.4351 6.50507)
(10.5184 55.1496 -24.1741)
(10.4174 108.049 -50.6691)
(10.4211 123.632 -63.4564)
(10.4452 108.081 -65.062)
(10.4464 62.777 -49.153)
(9.428 5.52125 41.7369)
(3.91046 -1.19634 20.8648)
(4.01027 0.073413 -12.7617)
(4.006 24.4281 -20.4669)
(4.04114 31.4764 -31.4973)
(3.98449 -3.23046 -22.8563)
(3.81126 8.76213 5.58576)
(3.51376 -1.16757 48.3078)
(-0.0616173 -2.45644 40.9697)
(-0.0325481 -4.86383 16.7186)
(0.0145893 -1.33992 14.0589)
(0.103983 -0.68625 17.9984)
(0.0714224 2.63212 18.0957)
(-0.0146098 6.53761 25.5394)
(-0.0137412 1.85454 50.0169)
(-3.90152 -2.09551 36.2775)