/*--------------------------------*- C++ -*----------------------------------*\
  =========                 |
  \\      /  F ield         | OpenFOAM: The Open Source CFD Toolbox
   \\    /   O peration     | Website:  https://openfoam.org
    \\  /    A nd           | Version:  6
     \\/     M anipulation  |
\*---------------------------------------------------------------------------*/
FoamFile
{
    version     2.0;
    format      ascii;
    class       volScalarField;
    location    "1.5";
    object      O2;
}
// * * * * * * * * * * * * * * * * * * * * * * * * * * * * * * * * * * * * * //

dimensions      [0 0 0 0 0 0 0];

internalField   nonuniform List<scalar> 
297
(
0
0
0
0
0
0
0
0
0
0
0
0
0
0
0
0
0
0
0
0
0
0
0
0
0
0
0
0.10294
0.176807
0.109817
0.195359
0.218518
0.197944
0.102719
0.176884
0.110311
0
0.0491507
0
0.0399336
0.165585
0.0431399
0
0.0491736
0
0
0.0465911
0
0.0259918
0.0403354
0.0264849
0
0.0466028
0
0.00713678
0.0193224
0.00709216
0
0.00314485
0
0.00724825
0.0193172
0.00720784
4.21123e-07
3.84114e-07
7.69233e-07
1.09676e-06
3.08792e-07
2.16372e-06
4.2428e-07
3.85137e-07
7.73641e-07
7.13285e-12
1.53884e-11
1.90585e-11
1.99399e-11
1.27479e-11
4.05419e-11
7.18669e-12
1.54406e-11
1.91324e-11
0
0.0457127
0
0
0.00314568
0
0
0.0457213
0
0
0.0452874
0
0
0.00314511
0
0
0.0452951
0
0
0.0438889
0
0
0.00314494
0
0
0.0438959
0
2.10249e-16
9.7253e-16
5.95839e-16
3.9833e-16
3.71816e-16
8.25811e-16
2.32781e-16
9.42341e-16
6.10648e-16
3.41078e-20
2.69241e-19
1.01693e-19
3.46669e-20
6.94901e-20
4.57047e-20
2.32429e-20
3.90217e-19
8.47094e-20
2.80455e-23
9.6495e-20
8.146e-23
9.86409e-24
3.02709e-20
1.52452e-23
2.35794e-23
1.4066e-19
7.54739e-23
1.11736e-20
3.56042e-25
5.43043e-30
1.1487e-20
1.74814e-25
2.83782e-30
1.14455e-20
3.6472e-25
5.56333e-30
1.77193e-24
7.48121e-29
3.81447e-33
1.28799e-24
6.72607e-27
2.94035e-31
1.47656e-24
7.69281e-29
4.12243e-33
6.90581e-27
1.7704e-29
4.2993e-33
8.56397e-28
2.72617e-28
5.24353e-32
6.42046e-27
1.77486e-29
4.30956e-33
1.02755e-30
6.71226e-26
3.96666e-21
1.16798e-30
7.62603e-26
5.55231e-21
2.29066e-30
7.46471e-26
4.39153e-21
1.20836e-33
2.23905e-29
6.02875e-25
1.22567e-31
2.94176e-27
8.15978e-25
1.71553e-33
3.42206e-29
8.16321e-25
1.56713e-33
4.44776e-30
2.37623e-27
2.02175e-32
6.9689e-29
4.99212e-28
1.64435e-33
7.0527e-30
2.08006e-27
1.09544e-43
1.68265e-39
4.5184e-35
6.36222e-43
3.46182e-39
3.10721e-35
7.34493e-43
7.19331e-39
1.0073e-34
3.35322e-46
2.55351e-42
5.92971e-38
8.03128e-45
8.21702e-41
2.51431e-36
2.12536e-45
3.70295e-42
9.00016e-38
3.1215e-46
7.99483e-43
3.49462e-38
3.82765e-45
1.90488e-41
5.47712e-37
2.08493e-45
1.04569e-42
3.97511e-38
3.95868e-46
5.32714e-45
1.49866e-43
4.31985e-45
1.26376e-41
6.74639e-40
2.1573e-45
1.5301e-44
2.95784e-43
5.5633e-48
1.58237e-46
1.64417e-45
6.42535e-43
1.68013e-41
2.04634e-40
5.76716e-48
2.64239e-46
1.78086e-45
1.12136e-48
3.2984e-47
3.23222e-46
3.21526e-43
8.78196e-42
8.83059e-41
1.99664e-48
6.22538e-47
6.1522e-46
1.28046e-34
9.18699e-39
9.34923e-43
7.6388e-35
3.82626e-39
9.10061e-43
2.44175e-34
9.67064e-39
9.93443e-43
1.68013e-37
7.49312e-42
1.11009e-45
5.98856e-36
1.9539e-40
2.12988e-44
2.20665e-37
7.79047e-42
6.16849e-45
1.07847e-37
2.45328e-42
1.06346e-45
1.40053e-36
5.00541e-41
1.18449e-44
1.02989e-37
2.68142e-42
6.1178e-45
4.51205e-43
1.42374e-44
1.38719e-45
4.79363e-40
4.25255e-41
1.48558e-44
7.52492e-43
4.71258e-44
6.31571e-45
4.01242e-45
5.48295e-46
1.2468e-47
5.6581e-40
5.86821e-41
2.0477e-42
6.4398e-45
5.80246e-46
1.82456e-47
1.23705e-45
1.1476e-46
3.5517e-48
3.24562e-40
3.05771e-41
1.01854e-42
2.35407e-45
2.1558e-46
6.32208e-48
)
;

boundaryField
{
    fuel
    {
        type            fixedValue;
        value           uniform 0;
    }
    primary_air
    {
        type            fixedValue;
        value           uniform 0.23;
    }
    Secondary_air_RHS
    {
        type            fixedValue;
        value           uniform 0.23;
    }
    Secondary_air_LHS
    {
        type            fixedValue;
        value           uniform 0.23;
    }
    outlet
    {
        type            inletOutlet;
        inletValue      uniform 0;
        value           nonuniform List<scalar> 
18
(
0
3.24562e-40
0
0
3.05771e-41
0
0
1.01854e-42
0
0
3.21526e-43
0
0
8.78196e-42
0
0
8.83059e-41
0
)
;
    }
    stove_body
    {
        type            fixedValue;
        value           uniform 0;
    }
    frontAndBack
    {
        type            empty;
    }
}


// ************************************************************************* //
