/*--------------------------------*- C++ -*----------------------------------*\
  =========                 |
  \\      /  F ield         | OpenFOAM: The Open Source CFD Toolbox
   \\    /   O peration     | Website:  https://openfoam.org
    \\  /    A nd           | Version:  6
     \\/     M anipulation  |
\*---------------------------------------------------------------------------*/
FoamFile
{
    version     2.0;
    format      ascii;
    class       volScalarField;
    location    "1.5";
    object      p;
}
// * * * * * * * * * * * * * * * * * * * * * * * * * * * * * * * * * * * * * //

dimensions      [1 -1 -2 0 0 0 0];

internalField   nonuniform List<scalar> 
297
(
111545
111545
111545
185868
185868
185868
111545
111545
111545
111545
111545
111545
185868
185868
185868
111545
111545
111545
111545
111545
111545
185868
185868
185868
111545
111545
111545
97593.2
97487.9
97582.7
162291
162226
162293
97593.9
97488
97581.9
97815.2
96996.1
97843.1
161698
161649
161722
97817.5
96996.7
97842.5
95200.2
94641.1
95466.7
154059
158218
154375
95203.7
94641.2
95465
92809
95087.7
92553.7
157838
156814
157732
92806.4
95088.5
92559.8
96905.8
96991.2
96830.4
161614
160766
161614
96906.5
96992
96831.3
97005.6
97227.9
96975
161556
161935
161640
97005.9
97228.2
96975.3
78099.5
92546.4
78384.9
127893
154066
127084
78075
92545.5
78379.7
78040.4
92455.9
78128.1
126629
154105
125412
78016.2
92455
78123.6
80044.6
92733.8
79984.6
128854
155072
127350
80025.9
92732.9
79981
97376.3
97461.2
97368.2
162114
162296
162113
97375.7
97461
97368.1
97446.1
97463.7
97436.2
162274
162353
162262
97445.3
97463.3
97436
97448
97459.3
97439.1
162352
162372
162334
97447
97458.8
97438.9
97512.2
97624.8
97871.3
162226
162302
162442
97512.2
97625.4
97872.5
97455.6
97485.4
97640.4
162239
162250
162308
97455.4
97485.7
97641.1
97397.5
97323.8
97254.4
162298
162253
162224
97397.3
97323.8
97254.4
97872.6
97632.7
97523.6
162466
162329
162249
97872.5
97632.3
97522.8
97649
97496.7
97467.4
162335
162278
162264
97649
97496.4
97466.7
97275
97340.1
97410.2
162254
162283
162324
97275
97339.8
97409.6
98424.1
98326.2
98135.4
162924
162835
162670
98424.3
98326.2
98135.3
98284.5
98157.7
97938.2
162739
162665
162506
98284.9
98157.9
97938.3
98122.3
97980.3
97716.7
162491
162414
162299
98122.7
97980.6
97716.8
97171.1
97112.3
97007.7
161253
161205
161116
97172.1
97113.2
97008.6
92225.8
92240.3
92278.9
152964
152970
152971
92226.2
92240.6
92279.2
85035.3
85035.1
85038.1
137115
137118
137113
85035.6
85035.4
85038.3
98135
98328.4
98431.6
162646
162812
162909
98135.4
98328.1
98431.5
97936.5
98162
98296.5
162478
162639
162723
97937.2
98162.3
98297.1
97714.7
97988.4
98139.3
162268
162386
162475
97715.3
97989.2
98140.1
97015.1
97118.6
97175.1
161118
161208
161253
97014.7
97118.2
97174.5
92262.4
92223.1
92209
152944
152943
152937
92261.9
92222.5
92208.6
85004.5
85001.3
85001.4
137059
137065
137062
85004.6
85001.4
85001.5
)
;

boundaryField
{
    fuel
    {
        type            zeroGradient;
    }
    primary_air
    {
        type            zeroGradient;
    }
    Secondary_air_RHS
    {
        type            zeroGradient;
    }
    Secondary_air_LHS
    {
        type            zeroGradient;
    }
    outlet
    {
        type            totalPressure;
        rho             rho;
        psi             none;
        gamma           1;
        p0              uniform 100000;
        value           nonuniform List<scalar> 
18
(
88627
100000
88627
88599.6
100000
88599.6
88596.9
100000
88597
88627.3
100000
88627.6
88630.1
100000
88630.4
88657.1
100000
88657.4
)
;
    }
    stove_body
    {
        type            zeroGradient;
    }
    frontAndBack
    {
        type            empty;
    }
}


// ************************************************************************* //
