/*--------------------------------*- C++ -*----------------------------------*\
  =========                 |
  \\      /  F ield         | OpenFOAM: The Open Source CFD Toolbox
   \\    /   O peration     | Website:  https://openfoam.org
    \\  /    A nd           | Version:  6
     \\/     M anipulation  |
\*---------------------------------------------------------------------------*/
FoamFile
{
    version     2.0;
    format      ascii;
    class       volScalarField;
    location    "1.5";
    object      Qdot;
}
// * * * * * * * * * * * * * * * * * * * * * * * * * * * * * * * * * * * * * //

dimensions      [1 -1 -3 0 0 0 0];

internalField   nonuniform List<scalar> 
297
(
0
0
0.000218954
0
0.000437909
0
0.000218954
0
0
0
0
0
0
0
0
0
0.000218954
0.000144387
0
0
5.27054e-10
0
-0.000109477
0
-7.21934e-05
0
0
0
7.74746e-11
0
0
0
0
0
0
0
0
9.68432e-12
0
0
0
-5.27054e-10
0
0
2.63527e-10
0
0
0
0
0
0
0
0
2.63527e-10
0
0
0
0
0
0
0
0
0
-2.95542e-16
-2.10821e-09
-1.05411e-09
0
0
0
1.05411e-09
-2.95542e-16
0
0
0
3.60769e-20
0
-3.60769e-20
0
0
0
0
0
0
0
0
0
-5.27054e-10
0
-9.68432e-12
0
-2.63527e-10
9.68432e-12
-2.63527e-10
0
0
0
0
0
0
0
0
0
0
0
0
0
9.68432e-12
0
0
0
0
0
0
-2.20196e-24
0
-4.21643e-09
0
0
0
0
0
0
0
3.35992e-29
4.21643e-09
0
0
0
0
0
0
0
0
4.21643e-09
0
0
5.12684e-34
0
0
0
0
-4.21643e-09
0
0
0
0
0
0
-1.60214e-35
0
0
0
4.21643e-09
0
-3.12917e-38
0
0
0
1.22233e-40
0
0
-7.63958e-42
0
1.28171e-34
0
0
-2.56342e-34
1.67996e-29
0
-1.28171e-34
4.21643e-09
0
0
1.02537e-33
0
0
0
0
6.25835e-38
0
0
0
0
0
0
0
0
0
4.00534e-36
2.22341e-52
4.21643e-09
4.21643e-09
-1.77873e-51
0
0
0
0
0
4.21643e-09
0
4.21643e-09
2.77926e-53
0
0
-4.21643e-09
0
0
0
0
0
0
0
0
-3.47408e-54
0
0
0
0
0
1.38963e-53
0
0
-4.21643e-09
0
0
0
0
0
1.77873e-51
0
-4.21643e-09
0
0
0
0
5.42825e-56
0
8.89365e-52
0
2.27677e-49
0
0
0
0
0
0
0
0
0
0
0
1.77873e-51
0
0
-4.21643e-09
-1.49211e-44
0
5.55853e-53
0
0
0
2.33142e-46
-3.55746e-51
0
-3.73027e-45
0
0
0
0
0
0
-2.77926e-53
0
0
0
0
0
0
0
0
0
0
0
0
0
0
0
0
0
0
0
-4.21643e-09
0
4.21643e-09
0
0
0
)
;

boundaryField
{
    fuel
    {
        type            calculated;
        value           uniform 0;
    }
    primary_air
    {
        type            calculated;
        value           uniform 0;
    }
    Secondary_air_RHS
    {
        type            calculated;
        value           uniform 0;
    }
    Secondary_air_LHS
    {
        type            calculated;
        value           uniform 0;
    }
    outlet
    {
        type            calculated;
        value           uniform 0;
    }
    stove_body
    {
        type            calculated;
        value           uniform 0;
    }
    frontAndBack
    {
        type            empty;
    }
}


// ************************************************************************* //
