/*--------------------------------*- C++ -*----------------------------------*\
  =========                 |
  \\      /  F ield         | OpenFOAM: The Open Source CFD Toolbox
   \\    /   O peration     | Website:  https://openfoam.org
    \\  /    A nd           | Version:  6
     \\/     M anipulation  |
\*---------------------------------------------------------------------------*/
FoamFile
{
    version     2.0;
    format      ascii;
    class       volVectorField;
    location    "1.5";
    object      U;
}
// * * * * * * * * * * * * * * * * * * * * * * * * * * * * * * * * * * * * * //

dimensions      [0 1 -1 0 0 0 0];

internalField   nonuniform List<vector> 
297
(
(12.3947 0.0175497 0.274058)
(12.3953 -0.000122745 0.249333)
(12.3947 -0.0177268 0.2738)
(2.36906e-08 -0.0253049 0.252437)
(1.35037e-08 0.000292343 0.249103)
(2.9866e-09 0.0255799 0.252498)
(-12.3947 0.0175597 0.274045)
(-12.3953 -0.000114377 0.249331)
(-12.3947 -0.0177186 0.273797)
(12.3943 0.0120288 0.297152)
(12.3953 -0.000284719 0.259708)
(12.3944 -0.012334 0.297268)
(2.43108e-08 -0.0757252 0.06418)
(1.32668e-08 0.000317599 0.230675)
(1.77255e-09 0.0766142 0.0675682)
(-12.3943 0.0120554 0.297153)
(-12.3953 -0.000257873 0.259704)
(-12.3944 -0.0123204 0.297257)
(11.3253 0.025274 0.44555)
(12.3805 -0.00436826 0.398582)
(11.418 -0.02676 0.44711)
(1.78687e-08 -0.0529068 0.208888)
(1.29545e-08 0.00408672 0.0374045)
(4.45919e-10 0.054663 0.206447)
(-11.3357 0.0253623 0.445721)
(-12.3805 -0.00411193 0.398572)
(-11.415 -0.0267197 0.447033)
(54.9223 -7.0535 12.5678)
(29.532 0.470798 16.9013)
(55.2177 7.19513 10.6055)
(3.61469e-05 -0.797504 16.7724)
(3.28315e-06 0.239035 10.3077)
(-3.92092e-05 0.395575 16.0259)
(-54.9978 -7.10628 12.4736)
(-29.5533 0.56714 16.8897)
(-55.3046 7.12124 10.6603)
(89.0297 -34.8551 51.8186)
(75.0155 1.89178 126.994)
(94.1484 36.253 59.0608)
(0.000401328 8.03334 210.249)
(5.05921e-05 -1.04428 130.541)
(-0.000102856 -6.95221 212.899)
(-89.027 -34.9698 51.7158)
(-75.1856 1.7932 127.144)
(-94.6405 36.1546 59.6173)
(87.1258 -88.1358 -50.7969)
(68.2809 -1.04119 167.06)
(92.0958 98.7339 -42.2127)
(0.000527467 -59.944 269.968)
(6.50369e-06 1.30158 -23.4515)
(-0.00026046 60.7707 279.602)
(-87.1211 -88.2968 -50.5096)
(-68.4175 -0.690954 167.286)
(-92.5785 98.8963 -42.457)
(54.7343 -55.4249 -213.027)
(38.0471 -3.58879 -28.5908)
(57.615 63.559 -217.452)
(-0.000574913 -106.465 -23.8178)
(5.42379e-05 0.785758 -120.609)
(0.00136522 114.461 -24.4374)
(-54.7518 -55.4252 -213.095)
(-38.0973 -3.74425 -28.6302)
(-57.6474 63.5391 -217.674)
(25.2647 46.0546 -132.302)
(15.3357 -8.58504 -89.6793)
(30.5138 -38.0803 -140.324)
(8.57235e-05 -0.892976 -115.307)
(4.87516e-05 6.46487 -100.446)
(0.000126067 7.4551 -121.867)
(-25.2417 46.0541 -132.327)
(-15.3376 -8.61874 -89.6718)
(-30.5093 -38.0707 -140.196)
(8.4553 23.2278 -21.1486)
(8.45654 -8.63506 -16.7869)
(8.45916 -22.0124 -21.534)
(5.84776e-06 20.6022 -19.5773)
(5.8585e-06 7.90021 -22.1102)
(5.5635e-06 -16.5263 -18.1816)
(-8.45708 23.2023 -21.1422)
(-8.45651 -8.64264 -16.7835)
(-8.45993 -22.0192 -21.5312)
(76.9821 -85.7244 -516.328)
(65.1957 -5.34668 211.688)
(80.2987 100.621 -519.764)
(-0.0048024 -80.6745 401.876)
(-5.52073e-05 5.43033 -151.043)
(-0.0010568 85.3992 422.992)
(-76.8621 -85.9422 -516.307)
(-65.3256 -5.31774 211.912)
(-80.821 100.736 -521.615)
(68.9666 -64.0661 -412.138)
(59.1651 -5.47127 206.755)
(66.6474 75.2154 -414.226)
(-0.00511517 -76.4445 454.569)
(-5.74264e-05 4.84597 -152.708)
(-0.00105265 80.0015 482.354)
(-69.0059 -64.1496 -412.368)
(-59.2771 -5.47036 206.971)
(-66.9185 75.2343 -415.271)
(61.6969 -68.3689 -358.272)
(59.4656 -4.91061 189.331)
(64.2247 78.8022 -360.44)
(-0.00461065 -107.594 500.38)
(-5.99793e-05 3.7353 -143.537)
(-0.000928559 117.546 529.606)
(-61.7282 -68.516 -358.477)
(-59.577 -4.93727 189.517)
(-64.4951 78.7895 -361.217)
(8.42259 36.786 -10.4129)
(8.44827 1.76437 -10.4157)
(8.42378 -36.8146 -10.596)
(-1.08727e-05 28.538 -11.345)
(-4.89107e-06 -3.10192 -11.2608)
(-2.89805e-06 -28.9653 -10.4593)
(-8.4244 36.7884 -10.4113)
(-8.44801 1.76536 -10.4167)
(-8.4252 -36.8384 -10.596)
(8.45543 20.3915 -3.97361)
(8.467 -2.15434 -1.97949)
(8.45726 -19.491 -3.92843)
(-1.58961e-05 19.0933 -4.72136)
(-7.00426e-06 0.501826 -5.5547)
(-4.45315e-06 -19.5905 -4.50993)
(-8.45607 20.3985 -3.97447)
(-8.46734 -2.14315 -1.97601)
(-8.45756 -19.4915 -3.92123)
(8.46714 -0.8037 -4.91218)
(8.46853 0.540458 0.481227)
(8.46859 1.15889 -5.13671)
(-1.85155e-05 9.10433 -2.88509)
(-8.84368e-06 -1.86107 -2.18691)
(-5.30805e-06 -9.31142 -2.31805)
(-8.46773 -0.812436 -4.90885)
(-8.46892 0.536147 0.481331)
(-8.46842 1.17788 -5.13451)
(8.41877 -39.5979 -4.55842)
(8.44243 -35.3498 -6.70675)
(8.43329 -30.759 -9.16097)
(-9.72519e-07 -31.6243 -3.93661)
(1.20739e-05 -29.2828 -3.86903)
(2.33747e-05 -24.7309 -4.14329)
(-8.41993 -39.6225 -4.56477)
(-8.4436 -35.3447 -6.7167)
(-8.43445 -30.7144 -9.17133)
(8.44432 -29.9826 -2.29408)
(8.45795 -31.0012 -7.70627)
(8.43131 -27.3907 -14.2314)
(-2.81191e-06 -26.2975 0.236745)
(5.31852e-06 -26.1764 1.30055)
(1.44741e-05 -21.818 2.15181)
(-8.44471 -29.9992 -2.29251)
(-8.45834 -31.0142 -7.72088)
(-8.43158 -27.3789 -14.2672)
(8.47202 -6.01957 -4.25632)
(8.46945 -16.7379 -12.7536)
(8.43776 -23.5533 -20.0022)
(-2.59544e-06 -15.3365 2.26027)
(1.25951e-06 -16.098 3.24705)
(-1.48619e-06 -16.5038 3.35559)
(-8.47196 -5.99577 -4.24727)
(-8.4694 -16.6881 -12.7413)
(-8.43767 -23.5426 -20.0422)
(8.43312 30.9033 -9.07223)
(8.44172 35.1508 -6.66398)
(8.41806 39.2808 -4.54013)
(-1.75375e-06 24.8261 -4.10107)
(-7.0799e-06 28.9733 -3.78268)
(-1.54473e-05 31.5338 -3.9381)
(-8.43463 30.8823 -9.06983)
(-8.4436 35.1301 -6.66218)
(-8.41985 39.2779 -4.53923)
(8.43197 27.2519 -13.9323)
(8.45758 30.8541 -7.64989)
(8.44432 29.7365 -2.42591)
(-1.50263e-06 21.7904 1.98684)
(-6.70478e-06 25.9912 1.23969)
(-1.4066e-05 26.165 0.123032)
(-8.43241 27.248 -13.9377)
(-8.45804 30.8519 -7.65768)
(-8.4448 29.7391 -2.43135)
(8.43726 23.4471 -19.746)
(8.46914 17.0405 -12.6846)
(8.47102 5.90456 -4.38248)
(3.73843e-07 16.3713 3.50952)
(-5.43108e-06 15.9428 3.35529)
(-1.20439e-05 15.2398 2.27087)
(-8.43759 23.444 -19.7401)
(-8.46946 17.0206 -12.6793)
(-8.4715 5.89212 -4.37489)
(8.41819 9.59101 -15.4876)
(8.41781 13.9768 -11.3631)
(8.42514 22.2124 -12.8061)
(2.55721e-06 7.47237 -7.74509)
(-1.65765e-07 12.2833 -4.2974)
(-2.80708e-06 18.6442 -5.00825)
(-8.42034 9.57451 -15.4779)
(-8.4198 13.9665 -11.3517)
(-8.4265 22.2114 -12.7994)
(8.42207 4.8877 -23.088)
(8.42649 12.5939 -18.1588)
(8.42577 22.7374 -21.5903)
(6.11555e-06 5.56678 -5.29547)
(4.37825e-06 9.81204 -1.56673)
(1.48205e-06 17.5759 -1.42175)
(-8.42347 4.87446 -23.0685)
(-8.42732 12.6029 -18.1485)
(-8.42626 22.745 -21.5817)
(8.44933 4.30746 -28.1347)
(8.43312 14.1182 -26.3771)
(8.43361 15.246 -30.5216)
(7.46907e-06 5.01264 -8.48743)
(5.37628e-06 10.6349 -5.29921)
(3.36298e-06 14.188 0.71885)
(-8.45104 4.30683 -28.1242)
(-8.43365 14.143 -26.3847)
(-8.43398 15.2497 -30.5146)
(8.4431 -2.25726 -44.589)
(8.43937 -3.22671 -44.4309)
(8.4421 -9.70696 -47.9222)
(1.86616e-05 -1.79393 16.3437)
(1.7085e-05 2.84146 20.9762)
(1.79282e-05 -9.3268 20.3532)
(-8.44434 -2.23064 -44.5813)
(-8.43937 -3.22973 -44.4201)
(-8.44217 -9.70342 -47.912)
(8.34121 0.619177 -111.42)
(8.33687 -0.59833 -113.642)
(8.33937 4.31793 -110.832)
(8.01556e-06 -0.869959 61.0777)
(6.54181e-06 0.906664 62.6896)
(6.41753e-06 -1.81397 60.2092)
(-8.34101 0.611226 -111.416)
(-8.33685 -0.598288 -113.631)
(-8.33875 4.31832 -110.819)
(7.99565 0.000900928 -149.394)
(7.99601 -0.0524976 -149.372)
(7.9969 -0.0654169 -149.172)
(6.11981e-06 -0.341966 180.482)
(6.22568e-06 0.338392 180.114)
(6.13511e-06 -0.581488 178.665)
(-7.99563 0.000746685 -149.391)
(-7.99599 -0.0526614 -149.371)
(-7.99687 -0.0653941 -149.17)
(8.42518 -22.3467 -12.9345)
(8.41809 -13.9796 -11.3283)
(8.41782 -9.37425 -15.5698)
(7.74302e-06 -18.8161 -5.05954)
(-6.34849e-06 -12.4989 -4.29691)
(-3.08485e-06 -7.48903 -7.85803)
(-8.42662 -22.3368 -12.941)
(-8.42004 -13.9573 -11.314)
(-8.42026 -9.33378 -15.5636)
(8.42452 -22.9583 -21.7349)
(8.42508 -12.8495 -18.1071)
(8.42082 -4.35154 -22.9166)
(1.23049e-05 -17.6266 -1.34126)
(7.1907e-06 -10.0586 -1.41585)
(1.07959e-05 -5.37163 -5.31178)
(-8.42504 -22.9642 -21.7324)
(-8.42622 -12.8535 -18.0592)
(-8.42302 -4.28633 -22.8623)
(8.42786 -15.2041 -30.9548)
(8.4271 -14.6367 -26.6351)
(8.4496 -3.81103 -28.0205)
(1.05858e-05 -14.0372 0.518255)
(1.54553e-05 -11.0094 -5.18753)
(1.60932e-05 -4.68974 -8.54788)
(-8.42758 -15.1752 -31.0095)
(-8.4274 -14.6582 -26.6069)
(-8.45145 -3.76434 -27.9778)
(8.44278 9.6846 -48.0717)
(8.44015 3.2928 -44.7861)
(8.4437 1.91966 -44.8906)
(-7.26597e-06 9.49479 19.8736)
(-7.16993e-06 -2.9443 20.7398)
(-1.18445e-05 1.95673 16.5138)
(-8.44268 9.67476 -48.0399)
(-8.44017 3.28959 -44.8181)
(-8.44525 1.85313 -44.8921)
(8.33959 -4.35307 -110.988)
(8.33782 0.669361 -113.904)
(8.34153 -0.630997 -111.783)
(-8.9697e-06 1.78906 60.1001)
(-1.11599e-05 -0.932601 62.7677)
(-8.98621e-06 0.886895 61.2838)
(-8.33975 -4.35342 -110.983)
(-8.33718 0.671768 -113.898)
(-8.34189 -0.617707 -111.79)
(7.99734 0.069158 -149.395)
(7.99647 0.0594557 -149.599)
(7.99615 0.00278901 -149.618)
(2.47202e-06 0.565658 178.628)
(2.73624e-06 -0.351141 180.072)
(2.98498e-06 0.337708 180.383)
(-7.99733 0.0693944 -149.396)
(-7.99647 0.0598602 -149.599)
(-7.99615 0.00295422 -149.618)
)
;

boundaryField
{
    fuel
    {
        type            fixedValue;
        value           uniform (0 0 0.25);
    }
    primary_air
    {
        type            fixedValue;
        value           uniform (0 0 2.5);
    }
    Secondary_air_RHS
    {
        type            fixedValue;
        value           uniform (0 100 0);
    }
    Secondary_air_LHS
    {
        type            fixedValue;
        value           uniform (0 -100 0);
    }
    outlet
    {
        type            pressureInletOutletVelocity;
        value           nonuniform List<vector> 
18
(
(0 0 -149.395)
(2.47202e-06 0.565658 178.628)
(0 0 -149.396)
(0 0 -149.599)
(2.73624e-06 -0.351141 180.072)
(0 0 -149.599)
(0 0 -149.618)
(2.98498e-06 0.337708 180.383)
(0 0 -149.618)
(0 0 -149.394)
(6.11981e-06 -0.341966 180.482)
(0 0 -149.391)
(0 0 -149.372)
(6.22568e-06 0.338392 180.114)
(0 0 -149.371)
(0 0 -149.172)
(6.13511e-06 -0.581488 178.665)
(0 0 -149.17)
)
;
    }
    stove_body
    {
        type            noSlip;
    }
    frontAndBack
    {
        type            empty;
    }
}


// ************************************************************************* //
