/*--------------------------------*- C++ -*----------------------------------*\
  =========                 |
  \\      /  F ield         | OpenFOAM: The Open Source CFD Toolbox
   \\    /   O peration     | Website:  https://openfoam.org
    \\  /    A nd           | Version:  6
     \\/     M anipulation  |
\*---------------------------------------------------------------------------*/
FoamFile
{
    version     2.0;
    format      ascii;
    class       volScalarField;
    location    "4.5";
    object      O2;
}
// * * * * * * * * * * * * * * * * * * * * * * * * * * * * * * * * * * * * * //

dimensions      [0 0 0 0 0 0 0];

internalField   nonuniform List<scalar> 
297
(
0
0
0
0
0
0
0
0
0
0
0
0
0
0
0
0
0
0
0
0
0
0
0
0
0
0
0
0.0859372
0.152356
0.0857547
0.188943
0.209048
0.183402
0.0852052
0.152204
0.0863078
0
0.028772
0
0.036408
0.148188
0.0351666
0
0.0286568
0
0
0.030306
0
0.0236708
0.0365614
0.02346
0
0.0302189
0
0.00476019
0.0130374
0.00463853
0
0.00178063
0
0.00485586
0.0129802
0.00472725
1.57103e-07
1.78355e-07
2.87807e-07
3.32971e-07
1.21595e-07
8.37875e-07
1.59396e-07
1.78116e-07
2.89541e-07
1.83169e-12
4.39678e-12
4.5832e-12
4.60477e-12
3.06298e-12
1.07731e-11
1.86244e-12
4.40115e-12
4.60031e-12
0
0.0302143
0
0
0.0017811
0
0
0.0301268
0
0
0.0299783
0
0
0.00178074
0
0
0.0298912
0
0
0.0291094
0
0
0.00178067
0
0
0.0290242
0
3.46144e-17
2.29617e-16
1.14838e-16
7.58052e-17
6.70309e-17
1.77317e-16
4.84773e-17
2.10747e-16
1.21557e-16
4.00213e-21
6.51497e-20
1.85382e-20
5.07342e-21
1.42735e-20
8.07202e-21
4.04992e-21
5.76084e-20
1.9298e-20
5.22458e-24
3.74315e-20
8.00356e-21
9.79333e-25
9.63809e-22
1.00865e-22
4.7772e-24
3.09657e-20
6.54133e-21
1.72605e-21
4.40714e-26
5.39885e-31
1.9576e-21
2.3271e-26
2.97011e-31
1.83467e-21
4.7043e-26
5.7877e-31
2.8513e-25
1.65619e-29
8.42895e-34
1.79027e-25
8.73515e-28
2.9926e-32
2.94429e-25
1.86119e-29
8.85033e-34
7.41211e-25
4.25324e-29
1.295e-33
2.33626e-27
3.93409e-29
2.61606e-33
6.0615e-25
3.52991e-29
1.109e-33
8.51455e-32
7.01291e-27
5.22412e-22
1.12015e-31
9.15698e-27
8.4211e-22
2.44846e-31
9.96874e-27
7.33393e-22
1.13963e-34
2.0814e-30
6.246e-26
1.15046e-32
3.48324e-28
9.78576e-26
1.89334e-34
4.31285e-30
1.19221e-25
1.83705e-34
1.13796e-30
4.69041e-28
2.10618e-33
1.5826e-29
4.54216e-29
1.99097e-34
1.71989e-30
4.45947e-28
4.50651e-45
1.68747e-40
3.00606e-36
3.19948e-44
2.24854e-40
2.39702e-36
4.08719e-44
5.06034e-40
8.68518e-36
1.7446e-47
2.361e-43
4.97475e-39
3.54979e-46
5.05625e-42
1.89888e-37
9.85976e-47
2.66327e-43
7.29089e-39
2.29059e-47
8.56899e-44
3.47721e-39
1.2812e-46
1.18602e-42
4.52045e-38
8.93313e-47
9.35845e-44
4.07254e-39
3.79385e-47
2.45897e-46
1.3005e-44
7.5616e-47
2.55514e-44
4.41006e-43
8.71701e-47
7.55856e-46
2.60384e-44
1.39744e-50
2.09772e-49
2.05376e-48
1.73657e-45
2.66877e-44
2.7032e-43
1.35714e-50
3.10661e-49
2.01946e-48
2.85427e-51
4.32952e-50
3.95627e-49
8.39386e-46
1.24863e-44
1.16136e-43
4.82249e-51
7.3882e-50
6.6784e-49
1.02392e-35
5.92553e-40
4.76315e-44
6.32729e-36
2.49645e-40
4.69508e-44
2.051e-35
6.59421e-40
5.384e-44
3.51011e-38
1.75849e-42
3.16509e-46
4.89129e-37
1.30115e-41
1.31849e-45
3.62903e-38
1.17473e-42
7.78368e-46
2.86879e-38
8.6134e-43
3.06668e-46
5.79513e-38
1.65683e-42
6.77758e-46
2.34449e-38
5.42518e-43
7.40677e-46
1.07075e-43
1.99927e-45
3.12023e-46
7.58613e-43
4.74647e-44
5.9824e-46
1.49713e-43
6.38378e-45
7.28192e-46
2.58974e-48
3.81572e-49
1.93445e-50
4.65864e-43
4.81182e-44
3.39517e-45
3.64976e-48
3.77659e-49
2.74184e-50
6.80526e-49
7.79938e-50
5.56092e-51
1.99773e-43
2.25146e-44
1.63461e-45
1.14839e-48
1.32988e-49
9.38941e-51
)
;

boundaryField
{
    fuel
    {
        type            fixedValue;
        value           uniform 0;
    }
    primary_air
    {
        type            fixedValue;
        value           uniform 0.23;
    }
    Secondary_air_RHS
    {
        type            fixedValue;
        value           uniform 0.23;
    }
    Secondary_air_LHS
    {
        type            fixedValue;
        value           uniform 0.23;
    }
    outlet
    {
        type            inletOutlet;
        inletValue      uniform 0;
        value           nonuniform List<scalar> 
18
(
0
1.99773e-43
0
0
2.25146e-44
0
0
1.63461e-45
0
0
8.39386e-46
0
0
1.24863e-44
0
0
1.16136e-43
0
)
;
    }
    stove_body
    {
        type            fixedValue;
        value           uniform 0;
    }
    frontAndBack
    {
        type            empty;
    }
}


// ************************************************************************* //
