/*--------------------------------*- C++ -*----------------------------------*\
  =========                 |
  \\      /  F ield         | OpenFOAM: The Open Source CFD Toolbox
   \\    /   O peration     | Website:  https://openfoam.org
    \\  /    A nd           | Version:  6
     \\/     M anipulation  |
\*---------------------------------------------------------------------------*/
FoamFile
{
    version     2.0;
    format      ascii;
    class       volScalarField;
    location    "5";
    object      O2;
}
// * * * * * * * * * * * * * * * * * * * * * * * * * * * * * * * * * * * * * //

dimensions      [0 0 0 0 0 0 0];

internalField   nonuniform List<scalar> 
297
(
0
0
0
0
0
0
0
0
0
0
0
0
0
0
0
0
0
0
0
0
0
0
0
0
0
0
0
0.127049
0.0487743
0.126215
0.186963
0.171479
0.185276
0.127212
0.0486712
0.126695
0.0320109
0.000345571
0.0322407
0.113186
0.116087
0.112891
0.0321258
0.000299197
0.03213
0
0
0
0.0757042
0.0195292
0.0754043
0
0
0
0
2.01873e-10
0
0
0
0
0
0
0
1.86358e-17
4.13326e-15
5.65392e-17
7.39872e-19
2.84105e-14
5.14942e-19
2.3534e-15
4.82202e-15
2.39442e-15
2.68418e-15
2.14692e-15
2.77697e-15
6.07066e-15
1.94658e-14
6.19047e-15
2.71324e-15
1.96368e-15
2.76106e-15
0
0
0
0.0296495
2.2254e-07
0.0293344
0
0
0
0
0
0
0.012608
0
0.0121731
0
0
0
0
0
0
0
0
0
0
0
0
1.95744e-15
1.38728e-15
1.99263e-15
5.87175e-15
1.07119e-15
5.95384e-15
1.97699e-15
1.39718e-15
1.98926e-15
1.05459e-15
9.73824e-16
1.05932e-15
5.28945e-15
1.07073e-15
5.45169e-15
1.01858e-15
1.02033e-15
1.05915e-15
8.73355e-16
8.89303e-16
9.02172e-16
1.44175e-15
1.09452e-15
1.34881e-15
8.50956e-16
8.91426e-16
9.162e-16
1.1482e-15
6.53573e-16
2.35743e-16
5.95178e-15
5.95431e-15
5.95878e-15
1.14903e-15
6.53308e-16
2.36364e-16
1.07338e-15
2.91511e-16
1.69868e-16
4.50599e-15
4.55738e-15
5.3667e-15
1.06742e-15
2.91129e-16
1.69642e-16
8.86129e-16
2.77447e-16
1.95084e-16
1.27676e-15
1.1658e-15
3.18582e-15
9.00792e-16
2.77516e-16
1.9508e-16
3.3951e-16
5.42779e-16
1.13431e-15
5.87724e-15
5.87471e-15
5.87176e-15
2.50693e-16
4.58799e-16
1.15444e-15
1.80264e-16
2.90384e-16
1.04845e-15
5.27322e-15
4.44736e-15
4.399e-15
1.56312e-16
2.70065e-16
1.05232e-15
2.29384e-16
2.90108e-16
8.47096e-16
2.97842e-15
1.14685e-15
1.34252e-15
1.78922e-16
2.49989e-16
8.07593e-16
1.31224e-18
2.0558e-17
2.09265e-17
3.41955e-18
3.42354e-18
2.02421e-15
1.44052e-18
2.49782e-17
2.51932e-17
3.7701e-18
5.60404e-17
6.97208e-17
3.91268e-18
4.56707e-18
3.27072e-15
4.13662e-18
6.65196e-17
7.64032e-17
3.76925e-18
1.008e-16
2.11387e-16
4.09251e-18
1.37434e-15
3.22374e-15
4.13474e-18
1.21247e-16
1.7369e-16
3.76736e-18
1.85008e-17
1.08483e-16
4.08176e-18
6.07947e-16
2.03302e-15
4.13237e-18
1.29752e-17
8.77127e-17
4.29278e-18
1.99003e-17
4.30192e-17
3.69918e-17
4.96854e-16
1.3559e-15
4.44548e-18
1.37903e-17
3.4724e-17
2.9281e-22
2.12902e-21
4.14532e-21
3.78351e-17
2.43812e-16
5.48188e-16
5.37769e-22
2.11269e-21
4.12296e-21
2.23496e-17
2.2144e-17
4.28237e-18
2.07619e-15
4.60769e-18
4.51421e-18
2.2207e-17
2.20009e-17
4.58359e-18
7.11289e-17
5.79418e-17
4.2859e-18
3.34053e-15
5.03281e-18
4.54099e-18
7.04992e-17
5.69102e-17
4.58323e-18
2.0271e-16
1.05837e-16
4.28537e-18
3.27511e-15
1.39307e-15
4.55477e-18
2.07612e-16
1.02792e-16
4.58125e-18
1.03259e-16
1.61558e-17
4.28344e-18
1.80486e-15
4.61544e-16
4.52462e-18
1.05342e-16
1.61596e-17
4.5796e-18
4.0864e-17
1.83805e-17
4.29377e-18
1.41006e-15
4.34769e-16
3.58214e-17
4.17216e-17
1.8345e-17
4.5797e-18
4.42369e-21
2.11578e-21
2.8956e-22
5.89557e-16
2.33488e-16
3.68455e-17
4.4265e-21
2.11616e-21
5.34494e-22
)
;

boundaryField
{
    fuel
    {
        type            fixedValue;
        value           uniform 0;
    }
    primary_air
    {
        type            fixedValue;
        value           uniform 0.23;
    }
    Secondary_air_RHS
    {
        type            fixedValue;
        value           uniform 0.23;
    }
    Secondary_air_LHS
    {
        type            fixedValue;
        value           uniform 0.23;
    }
    outlet
    {
        type            inletOutlet;
        inletValue      uniform 0;
        value           nonuniform List<scalar> 
18
(
0
5.89557e-16
0
0
2.33488e-16
0
0
3.68455e-17
0
0
3.78351e-17
0
0
2.43812e-16
0
0
5.48188e-16
0
)
;
    }
    stove_body
    {
        type            fixedValue;
        value           uniform 0;
    }
    frontAndBack
    {
        type            empty;
    }
}


// ************************************************************************* //
