/*--------------------------------*- C++ -*----------------------------------*\
  =========                 |
  \\      /  F ield         | OpenFOAM: The Open Source CFD Toolbox
   \\    /   O peration     | Website:  https://openfoam.org
    \\  /    A nd           | Version:  6
     \\/     M anipulation  |
\*---------------------------------------------------------------------------*/
FoamFile
{
    version     2.0;
    format      ascii;
    class       volScalarField;
    location    "5";
    object      p;
}
// * * * * * * * * * * * * * * * * * * * * * * * * * * * * * * * * * * * * * //

dimensions      [1 -1 -2 0 0 0 0];

internalField   nonuniform List<scalar> 
297
(
110736
110736
110736
181660
181660
181660
110736
110736
110736
110735
110735
110735
181660
181660
181660
110735
110735
110735
110735
110735
110735
181661
181661
181661
110735
110735
110735
97263.2
97283.7
97264.2
159758
159744
159759
97263.4
97283.9
97264
97216.6
97237.1
97218
159558
159592
159557
97216.9
97235.7
97217.6
97114.5
97251.9
97121.3
158210
158961
158214
97117
97250.6
97120.4
97022.8
97143.5
97017.5
159419
159169
159415
97021
97144.8
97019.1
96986.2
97099.1
96981.6
159436
159401
159432
96985.6
97098.9
96983.2
96889.7
97085.5
96883.8
159211
159289
159208
96888.2
97085.9
96886.3
96759.8
97357.6
96757.7
155514
158402
155511
96758.6
97357.7
96757.8
96695.6
97347.4
96692.1
155219
158482
155215
96694.3
97349.3
96692.4
96661.8
97321.1
96657.5
155491
158665
155486
96660.8
97326
96658.2
97335
97395.5
97335.2
159242
159291
159244
97335.6
97396.9
97335.8
97428.3
97461.1
97430.2
159328
159311
159331
97429.5
97462.8
97430.4
97470.5
97476
97473.6
159374
159346
159377
97472.1
97477.8
97473.6
97488.4
97391
97325.3
159024
159167
159354
97483.8
97384.3
97317.8
97403.2
97255.9
97136.1
159167
159211
159350
97398.9
97249.6
97128.9
97366.9
97215.9
97105.2
159227
159188
159180
97362.5
97209.7
97098
97316.4
97381.2
97480.4
159346
159160
159018
97317.1
97382.5
97482.2
97128.5
97247.1
97395.3
159343
159205
159161
97128.7
97247.5
97396.4
97098.1
97207.3
97358.6
159174
159181
159222
97098.5
97207.5
97359.6
98600.1
98229.6
97629.7
159382
159354
159387
98603.7
98232.6
97631.2
98186.9
97707.6
97288.9
159214
159121
159249
98190.9
97710.5
97290.2
97764.8
97317.4
97040.9
158984
158794
158877
97768.7
97319.9
97042.2
96320.1
96228.4
96209
157530
157432
157372
96321.8
96229.8
96210.4
94775.3
94835.6
94907.7
153355
153343
153342
94772.9
94833.3
94905.7
91447.6
91522.6
91592.5
141607
141630
141662
91443
91517.9
91587.8
97637.9
98238.6
98609.5
159395
159360
159387
97630.5
98231.6
98602.8
97295.4
97715.4
98196.9
159255
159125
159217
97288.2
97707.8
98188.9
97045.3
97323.2
97774.8
158878
158795
158985
97038.4
97315.8
97765.4
96202.4
96222.7
96316.1
157360
157420
157519
96198.4
96219.8
96313.3
94906.5
94833.2
94770.9
153350
153351
153361
94916.7
94842.3
94779.6
91578.3
91508.1
91433
141644
141611
141589
91584.1
91513.9
91438.8
)
;

boundaryField
{
    fuel
    {
        type            zeroGradient;
    }
    primary_air
    {
        type            zeroGradient;
    }
    Secondary_air_RHS
    {
        type            zeroGradient;
    }
    Secondary_air_LHS
    {
        type            zeroGradient;
    }
    outlet
    {
        type            totalPressure;
        rho             rho;
        psi             none;
        gamma           1;
        p0              uniform 100000;
        value           nonuniform List<scalar> 
18
(
93088.6
100000
93092.1
92746.7
100000
92751.4
91820.4
100000
91839
91825
100000
91815.8
92758.4
100000
92757.4
93098.4
100000
93095.1
)
;
    }
    stove_body
    {
        type            zeroGradient;
    }
    frontAndBack
    {
        type            empty;
    }
}


// ************************************************************************* //
