/*--------------------------------*- C++ -*----------------------------------*\
  =========                 |
  \\      /  F ield         | OpenFOAM: The Open Source CFD Toolbox
   \\    /   O peration     | Website:  https://openfoam.org
    \\  /    A nd           | Version:  6
     \\/     M anipulation  |
\*---------------------------------------------------------------------------*/
FoamFile
{
    version     2.0;
    format      ascii;
    class       volScalarField;
    location    "5";
    object      T;
}
// * * * * * * * * * * * * * * * * * * * * * * * * * * * * * * * * * * * * * //

dimensions      [0 0 0 1 0 0 0];

internalField   nonuniform List<scalar> 
297
(
291.094
290.709
291.088
295.609
294.928
295.6
291.094
290.709
291.088
291.118
290.731
291.111
298.59
296.985
298.558
291.118
290.731
291.111
292.173
291.551
292.164
299.017
297.371
298.982
292.173
291.551
292.164
295.579
301.116
295.58
294.387
296.933
294.388
295.638
301.271
295.639
305.902
303.915
306.187
301.051
299.683
301.221
306.002
304.11
306.197
309.556
303.898
309.799
304.362
306.653
304.485
309.619
304.105
309.775
302.823
299.558
302.955
310.888
308.544
311.047
302.852
299.572
302.943
301.613
299.442
301.758
310.885
310.644
311.045
301.643
299.443
301.727
299.569
298.047
299.72
309.64
307.102
309.727
299.655
298.052
299.708
309.824
301.476
310.064
307.298
307.974
307.438
309.883
301.898
310.038
307.456
299.79
306.755
307.879
307.99
308.022
307.503
300.125
306.736
305.686
299.327
305.847
309.849
308.085
310.005
305.721
299.685
305.83
298.414
297.895
298.48
309.214
300.163
309.238
298.487
297.898
298.496
296.78
296.878
296.813
308.108
300.166
308.297
296.726
297.016
296.836
296.637
296.697
296.73
300.847
300.217
300.708
296.591
296.712
296.777
297.025
295.822
294.747
309.198
309.253
309.254
297.051
295.846
294.775
296.985
295.304
294.908
306.476
306.582
308.131
296.993
295.319
294.918
296.682
295.467
295.19
300.551
300.327
303.919
296.725
295.489
295.209
294.944
295.513
296.961
309.226
309.226
309.174
294.729
295.369
297.064
294.878
295.251
296.91
308.053
306.457
306.356
294.802
295.211
296.921
295.242
295.433
296.568
303.625
300.253
300.637
295.091
295.366
296.524
294.837
294.987
294.388
298.433
298.475
302.145
294.941
295.055
294.458
294.725
294.998
294.736
298.536
298.588
304.325
294.805
295.013
294.749
294.187
295.131
295.174
298.526
300.79
303.969
294.267
295.087
295.095
293.968
294.437
292.865
298.786
298.717
300.255
294.054
294.268
292.74
292.84
293.799
294.204
298.592
296.966
297.457
292.914
293.607
294.156
288.892
288.386
288.393
285.537
283.526
284.529
288.894
288.39
288.395
294.475
295.074
294.956
302.24
298.545
298.522
294.507
295.113
295.035
294.8
295.065
294.82
304.416
298.63
298.599
294.798
295.049
294.774
295.189
295.189
294.34
303.997
300.822
298.581
295.198
295.168
294.286
292.852
294.404
293.974
299.024
299.056
298.813
292.86
294.419
294.024
294.207
293.803
292.672
296.954
295.833
298.417
294.226
293.817
292.522
288.394
288.388
288.888
284.618
283.601
285.416
288.395
288.389
288.889
)
;

boundaryField
{
    fuel
    {
        type            fixedValue;
        value           uniform 293;
    }
    primary_air
    {
        type            fixedValue;
        value           uniform 293;
    }
    Secondary_air_RHS
    {
        type            fixedValue;
        value           uniform 293;
    }
    Secondary_air_LHS
    {
        type            fixedValue;
        value           uniform 293;
    }
    outlet
    {
        type            inletOutlet;
        inletValue      uniform 293;
        value           nonuniform List<scalar> 
18
(
293
284.619
293
293
283.628
293
293
285.417
293
293
285.537
293
293
283.526
293
293
284.529
293
)
;
    }
    stove_body
    {
        type            fixedValue;
        value           uniform 293;
    }
    frontAndBack
    {
        type            empty;
    }
}


// ************************************************************************* //
