/*--------------------------------*- C++ -*----------------------------------*\
  =========                 |
  \\      /  F ield         | OpenFOAM: The Open Source CFD Toolbox
   \\    /   O peration     | Website:  https://openfoam.org
    \\  /    A nd           | Version:  6
     \\/     M anipulation  |
\*---------------------------------------------------------------------------*/
FoamFile
{
    version     2.0;
    format      ascii;
    class       volVectorField;
    location    "5";
    object      U;
}
// * * * * * * * * * * * * * * * * * * * * * * * * * * * * * * * * * * * * * //

dimensions      [0 1 -1 0 0 0 0];

internalField   nonuniform List<vector> 
297
(
(118.381 0.0202749 0.261652)
(118.115 -0.000670302 0.274681)
(118.378 -0.0187037 0.26154)
(-9.56941e-08 0.0987109 -0.542483)
(-9.55375e-08 -0.00501977 -0.549404)
(-9.57766e-08 -0.0989365 -0.541566)
(-118.381 0.020275 0.261652)
(-118.115 -0.000669982 0.274681)
(-118.378 -0.0187035 0.261541)
(118.293 0.00641918 0.598975)
(117.928 -2.98456e-05 0.609614)
(118.289 -0.00422326 0.598045)
(-8.14432e-08 0.0298131 -0.314121)
(-8.09355e-08 -0.0012726 -0.300834)
(-8.15235e-08 -0.0249646 -0.3145)
(-118.293 0.00641924 0.598977)
(-117.928 -2.93983e-05 0.609615)
(-118.289 -0.00422288 0.598047)
(111.541 -0.0113409 0.92641)
(110.961 0.000920191 0.940161)
(111.523 0.0157687 0.925282)
(-8.04244e-08 0.0147951 0.51798)
(-7.97954e-08 -0.000957683 0.549114)
(-8.04812e-08 -0.00977166 0.516256)
(-111.541 -0.0113418 0.92641)
(-110.96 0.000919759 0.940161)
(-111.522 0.015769 0.925282)
(79.4486 -3.04827 -5.41453)
(81.5343 0.0267193 -8.9375)
(79.4559 3.10991 -5.4707)
(4.86767e-05 -1.50778 2.9651)
(3.38725e-05 -0.0104621 3.11382)
(-2.90359e-05 1.53928 2.98723)
(-79.4621 -3.07698 -5.51801)
(-81.5737 0.012375 -8.97623)
(-79.4667 3.12122 -5.53063)
(83.2689 3.84843 12.0448)
(82.9225 0.11508 -14.9821)
(83.3429 -4.398 11.8022)
(6.72855e-05 2.33842 29.3064)
(-0.000258036 0.0698203 16.7992)
(-7.7904e-05 -2.67811 29.2503)
(-83.2952 3.93266 12.0706)
(-82.7668 0.0639192 -15.0293)
(-83.3472 -4.32875 11.9133)
(83.625 15.4547 -7.23066)
(82.3953 0.239502 -15.9329)
(83.6956 -15.2203 -6.95645)
(0.000481081 -1.48918 36.1027)
(-0.000258598 0.0301287 0.350569)
(-0.000163006 1.43745 36.0929)
(-83.642 15.3831 -7.13746)
(-82.2746 0.138067 -15.9668)
(-83.6867 -15.3019 -7.11315)
(81.9468 5.36447 -27.9397)
(81.5594 -0.160837 -18.9704)
(81.9872 -4.9829 -27.848)
(-0.000349607 3.03999 -1.22179)
(0.000251615 -0.0424092 -10.0734)
(0.000318906 -3.08171 -1.19501)
(-81.9572 5.24296 -27.894)
(-81.551 -0.0622211 -18.9697)
(-81.9813 -5.09397 -27.8976)
(81.9813 11.4597 -18.6037)
(81.2828 -0.221589 -24.7554)
(82.0302 -11.0604 -18.4221)
(-0.000114847 3.12809 2.53601)
(-3.96145e-05 0.00866569 1.16904)
(0.000318169 -3.20449 2.53749)
(-81.9927 11.3428 -18.5424)
(-81.2845 -0.0801215 -24.7612)
(-82.0183 -11.1887 -18.4886)
(81.5156 18.0897 -26.5893)
(80.8745 -0.431117 -26.3041)
(81.553 -17.8693 -26.5026)
(-0.000306539 0.326697 11.2745)
(9.19847e-05 0.094861 3.04326)
(0.000501102 -0.299266 11.2659)
(-81.5376 18.0396 -26.58)
(-80.8753 -0.152816 -26.3171)
(-81.5503 -17.9356 -26.5406)
(76.346 18.929 -22.7251)
(77.9714 0.0721647 -12.788)
(76.4593 -18.5113 -22.6724)
(-0.000248533 -0.481876 45.663)
(2.21401e-05 0.00608078 -24.8224)
(1.29106e-05 0.433251 45.6868)
(-76.3715 18.8009 -22.7003)
(-75.6384 0.057648 -12.7486)
(-76.4299 -18.6188 -22.7078)
(74.2253 11.3506 -27.4987)
(79.0162 -0.00959901 -10.3288)
(74.1272 -10.9094 -27.3886)
(-0.000219727 0.230929 49.2928)
(0.000361278 0.00172339 -23.6885)
(4.82668e-05 -0.279238 49.332)
(-74.2471 11.22 -27.4603)
(-77.8466 0.023678 -10.3716)
(-74.1008 -11.0265 -27.4422)
(69.5808 9.08503 -27.3164)
(80.515 -0.0372738 -11.7827)
(69.6537 -8.68716 -27.2186)
(-0.000144069 0.791728 47.9745)
(0.00103496 -0.00228301 -19.8725)
(0.000102575 -0.84006 48.0183)
(-69.5962 8.95946 -27.2763)
(-82.2879 0.00750273 -11.8019)
(-69.6177 -8.79767 -27.2673)
(79.27 29.9291 -6.69809)
(79.9141 -0.287931 -9.08197)
(79.2744 -29.9889 -6.7805)
(0.000115496 -7.80974 11.3273)
(0.000276154 0.0223974 -6.64152)
(0.000127241 7.95698 11.3158)
(-79.2827 29.9814 -6.73331)
(-79.9131 -0.116324 -9.08844)
(-79.2825 -29.9664 -6.75487)
(79.9572 25.3842 -1.71219)
(80.2882 -0.334804 -4.25297)
(79.9629 -25.4703 -1.74725)
(0.000236163 -9.42353 3.04885)
(0.000331203 0.00886168 -5.16254)
(5.27632e-05 9.55512 3.00537)
(-79.9406 25.4274 -1.71728)
(-80.3239 -0.234529 -4.25555)
(-79.9688 -25.4496 -1.74182)
(80.517 5.92211 2.54113)
(80.6857 0.245124 -1.26242)
(80.5439 -5.6555 2.43447)
(0.000312433 -1.68736 -1.70094)
(0.000350588 0.26517 -1.29615)
(1.02262e-05 1.56679 -1.8507)
(-80.5039 5.84612 2.52107)
(-80.6885 0.134887 -1.26454)
(-80.5552 -5.71262 2.45797)
(77.687 -31.8246 -1.32318)
(78.898 -39.3066 -5.22922)
(79.001 -41.6567 -7.3764)
(-0.000898883 17.8838 9.05603)
(-0.001314 15.0329 7.93265)
(-0.0014899 12.6681 10.3378)
(-77.6998 -31.7925 -1.31276)
(-78.9081 -39.2781 -5.2126)
(-79.0105 -41.6354 -7.35672)
(77.9668 -26.3865 4.44194)
(79.3257 -32.0887 3.59644)
(79.9159 -33.3879 0.727357)
(-0.000839979 16.416 -3.88601)
(-0.0012272 15.2146 -4.74975)
(-0.00139765 15.7598 2.86127)
(-77.9734 -26.3593 4.4412)
(-79.3314 -32.0644 3.5958)
(-79.9188 -33.3691 0.728507)
(80.0921 -7.888 8.59639)
(80.416 -4.29591 9.34377)
(80.3792 6.81139 10.6861)
(-0.000849843 2.38396 -4.34112)
(-0.00121893 2.19345 3.35983)
(-0.00138197 16.6556 6.95329)
(-80.1052 -7.86107 8.59453)
(-80.4242 -4.26233 9.33395)
(-80.3831 6.78806 10.6801)
(79.0547 41.5572 -7.34186)
(78.8254 39.2158 -5.21354)
(77.6856 31.7377 -1.30949)
(0.000144956 -12.6029 10.3207)
(0.00026628 -14.8803 7.9444)
(0.000350974 -17.7708 9.10038)
(-78.9978 41.6178 -7.38223)
(-78.7854 39.2769 -5.24623)
(-77.7049 31.7915 -1.32209)
(79.9055 33.3026 0.712796)
(79.3174 31.9992 3.57503)
(77.9627 26.2945 4.43766)
(2.36386e-05 -15.6967 2.8212)
(7.39337e-05 -15.146 -4.75913)
(0.000213918 -16.3452 -3.84042)
(-79.8888 33.3515 0.691199)
(-79.3067 32.0524 3.57525)
(-77.9585 26.3407 4.4472)
(80.391 -6.77691 10.646)
(80.4094 4.20771 9.29716)
(80.0665 7.79715 8.5954)
(7.98921e-05 -16.6124 6.88245)
(3.71366e-05 -2.24791 3.29972)
(0.000188485 -2.44106 -4.27084)
(-80.3522 -6.85095 10.6735)
(-80.3908 4.23258 9.33036)
(-80.0536 7.81423 8.61769)
(77.6583 18.2561 -22.1731)
(76.7618 23.2218 -15.7973)
(79.0712 37.8317 -12.7541)
(0.000696329 9.40382 -7.52153)
(0.000579033 7.7031 -0.490168)
(0.000308987 5.66727 6.25477)
(-77.6811 18.2863 -22.2104)
(-76.7824 23.2564 -15.8391)
(-79.0881 37.8719 -12.7935)
(78.156 5.32943 -36.6138)
(78.0214 14.0722 -21.7766)
(80.0766 27.4308 -3.33678)
(0.000749167 4.06349 -11.5378)
(0.000553127 6.12944 3.57484)
(0.000243924 1.12494 12.7517)
(-78.1757 5.35119 -36.629)
(-78.0206 14.0494 -21.8168)
(-80.0788 27.4454 -3.34747)
(81.3041 2.30783 -46.0795)
(77.5883 7.76737 -15.946)
(79.5614 13.6847 4.38106)
(0.000739522 3.45381 -15.4969)
(0.000475562 -4.5566 17.0362)
(0.000243107 -14.3451 17.4503)
(-81.3294 2.32216 -46.0885)
(-77.5588 7.72743 -16.0195)
(-79.5443 13.8282 4.33118)
(80.4708 -8.35791 -60.9958)
(79.9232 -0.600319 -5.52484)
(79.3733 10.5282 63.5563)
(0.000348914 -7.5843 9.74018)
(0.000284471 7.30295 35.8041)
(0.000277398 -2.63549 58.9014)
(-80.4946 -8.3696 -61.004)
(-79.8762 -0.633147 -5.70409)
(-79.3392 10.5879 63.5447)
(78.72 -1.59541 -83.6628)
(78.1497 -9.28099 -38.8734)
(78.0949 0.0244767 -0.444661)
(-0.000475634 -0.849542 29.6454)
(-0.00044898 -1.18376 66.5735)
(-0.000398143 -1.173 86.5095)
(-78.7448 -1.58437 -83.7312)
(-78.0986 -9.28323 -39.0965)
(-78.0834 0.032493 -0.541996)
(74.3482 -1.78272 -124.436)
(73.8906 -2.89388 -116.526)
(74.1247 -1.51592 -113.55)
(-0.000917354 -1.98132 177.422)
(-0.000924731 -2.92834 186.365)
(-0.00091677 -1.73116 181.916)
(-74.3518 -1.78427 -124.513)
(-73.8893 -2.89334 -116.535)
(-74.1272 -1.5173 -113.579)
(79.0886 -37.9066 -12.7995)
(76.7853 -23.2785 -15.8521)
(77.6824 -18.309 -22.2248)
(-0.00145946 -5.64893 6.25094)
(-0.00133743 -7.72673 -0.448733)
(-0.00128082 -9.42568 -7.51612)
(-79.102 -37.9044 -12.7763)
(-76.7912 -23.2718 -15.8296)
(-77.7061 -18.2983 -22.2125)
(80.0908 -27.4713 -3.337)
(78.0324 -14.0444 -21.8477)
(78.1774 -5.36544 -36.6709)
(-0.00141598 -1.10102 12.8185)
(-0.00143418 -6.16177 3.6116)
(-0.00151424 -4.0815 -11.5481)
(-80.0947 -27.4788 -3.33203)
(-78.0311 -14.0862 -21.8221)
(-78.1695 -5.34822 -36.6725)
(79.5692 -13.8804 4.33782)
(77.5752 -7.71418 -16.0789)
(81.3473 -2.33779 -46.1475)
(-0.00129419 14.3818 17.5362)
(-0.00140392 4.53498 17.0973)
(-0.00177175 -3.47483 -15.5271)
(-79.5666 -13.7265 4.40025)
(-77.5896 -7.76521 -15.9931)
(-81.3368 -2.31456 -46.1591)
(79.3667 -10.6239 63.5744)
(79.9116 0.642416 -5.82231)
(80.4722 8.37346 -61.1184)
(-0.000774216 2.64586 58.9552)
(-0.000561585 -7.32128 35.845)
(-0.000543463 7.59216 9.71767)
(-79.3739 -10.5644 63.612)
(-79.9207 0.617921 -5.60496)
(-80.4898 8.37907 -61.1375)
(78.1024 -0.0593995 -0.523312)
(78.1572 9.29154 -39.1262)
(78.6776 1.58201 -83.8781)
(0.00202322 1.1792 86.4975)
(0.0017959 1.21252 66.5843)
(0.00172496 0.874071 29.7181)
(-78.0993 -0.0432792 -0.505782)
(-78.1541 9.29232 -39.0352)
(-78.6279 1.58227 -83.8688)
(74.1249 1.52206 -113.636)
(73.893 2.90007 -116.628)
(74.3485 1.78888 -124.475)
(0.00115328 1.73971 181.931)
(0.0011537 2.94223 186.334)
(0.00116009 1.98866 177.538)
(-74.123 1.52006 -113.606)
(-73.8928 2.89973 -116.588)
(-74.3456 1.78792 -124.32)
)
;

boundaryField
{
    fuel
    {
        type            fixedValue;
        value           uniform (0 0 0.25);
    }
    primary_air
    {
        type            fixedValue;
        value           uniform (0 0 2.5);
    }
    Secondary_air_RHS
    {
        type            fixedValue;
        value           uniform (0 33.3333 0);
    }
    Secondary_air_LHS
    {
        type            fixedValue;
        value           uniform (0 -33.3333 0);
    }
    outlet
    {
        type            pressureInletOutletVelocity;
        value           nonuniform List<vector> 
18
(
(0 0 -113.636)
(0.00115328 1.73971 181.931)
(0 0 -113.606)
(0 0 -116.628)
(0.0011537 2.94223 186.334)
(0 0 -116.588)
(0 0 -124.475)
(0.00116009 1.98866 177.538)
(0 0 -124.32)
(0 0 -124.436)
(-0.000917354 -1.98132 177.422)
(0 0 -124.513)
(0 0 -116.526)
(-0.000924731 -2.92834 186.365)
(0 0 -116.535)
(0 0 -113.55)
(-0.00091677 -1.73116 181.916)
(0 0 -113.579)
)
;
    }
    stove_body
    {
        type            noSlip;
    }
    frontAndBack
    {
        type            empty;
    }
}


// ************************************************************************* //
