/*--------------------------------*- C++ -*----------------------------------*\
  =========                 |
  \\      /  F ield         | OpenFOAM: The Open Source CFD Toolbox
   \\    /   O peration     | Website:  https://openfoam.org
    \\  /    A nd           | Version:  6
     \\/     M anipulation  |
\*---------------------------------------------------------------------------*/
FoamFile
{
    version     2.0;
    format      ascii;
    class       volScalarField;
    location    "1.5";
    object      O2;
}
// * * * * * * * * * * * * * * * * * * * * * * * * * * * * * * * * * * * * * //

dimensions      [0 0 0 0 0 0 0];

internalField   nonuniform List<scalar> 
297
(
0
0
0
0
0
0
0
0
0
0
0
0
0
0
0
0
0
0
0
0
0
0
0
0
0
0
0
0.0411226
0.0519216
0.100869
0.0167671
0.0254807
0.0763418
0.0408127
0.0519668
0.103162
0
0.0055747
0.0570791
0
0.000277679
0.0449086
0
0.00499517
0.0538633
0
0.00068171
0.0408457
0
0.000242069
0.0401986
0
0.000899342
0.0373606
0
0
0
1.05629e-05
3.48979e-05
0
5.79587e-07
0
0
0
0
0
0
0
0
0
0
0
0
0
0
0
0
0
0
0
0
0
0.000286929
0.00723879
0
0.000242186
0.0218467
0
4.35591e-06
0.00441568
0
6.17982e-07
0
0
0.000240823
0.000586902
0
2.11336e-06
0
0
1.36556e-07
0
0
0.000239646
0
0
7.509e-07
0
0
0
0
0
0
0
0
0
0
0
0
0
0
0
0
0
0
0
0
0
0
0
0
0
0
0
0
0
0
1.55782e-29
1.01965e-21
2.88249e-24
1.17702e-28
0
1.64326e-23
9.35718e-28
1.89919e-20
1.17227e-24
3.67e-29
2.78033e-21
3.86299e-25
1.40993e-29
8.41864e-20
4.0232e-24
1.46632e-28
6.04862e-22
4.85019e-26
1.818e-30
4.21693e-23
4.49627e-27
1.62104e-30
1.58892e-24
1.00866e-27
2.37847e-31
2.32382e-28
1.23065e-27
1.3094e-25
1.86617e-28
3.83925e-28
5.71034e-27
5.60201e-28
5.70857e-28
7.09023e-28
1.55206e-27
8.47575e-27
8.56663e-27
2.95712e-27
3.63689e-27
2.21798e-27
1.37461e-27
1.50113e-27
1.92587e-27
3.81563e-28
6.22586e-27
7.8536e-27
3.25898e-27
3.37505e-27
1.24641e-27
1.96231e-27
1.4977e-27
9.79221e-28
3.87189e-32
1.68453e-32
8.42706e-32
9.79473e-30
1.20104e-28
1.58658e-28
4.68297e-29
4.90119e-28
5.43993e-28
3.78527e-32
1.18718e-32
8.68248e-32
3.16694e-29
1.35452e-28
5.18835e-28
1.74165e-28
9.21042e-28
1.08165e-27
3.99031e-32
1.08264e-32
3.49076e-32
3.16177e-28
9.74983e-28
2.43843e-27
2.76017e-28
1.15194e-27
2.19759e-27
1.92999e-32
1.08004e-32
1.91345e-32
3.3085e-28
7.47249e-28
1.31314e-27
3.71015e-28
2.72916e-27
2.46645e-27
3.68831e-33
9.17132e-33
2.29999e-32
3.08384e-28
9.45509e-28
1.259e-27
4.33195e-28
2.6113e-27
3.6189e-27
1.03576e-33
4.06502e-33
8.48658e-33
2.63661e-28
1.0149e-27
2.15205e-27
2.71453e-28
1.31553e-27
4.40557e-27
1.7163e-33
3.48452e-37
1.59442e-37
6.18486e-33
2.50084e-36
6.29722e-36
6.01977e-32
4.01167e-36
9.28604e-36
9.46769e-34
2.78003e-38
1.89676e-38
4.3916e-34
5.36596e-38
5.84156e-36
2.877e-33
7.60621e-38
3.64962e-36
4.07059e-35
6.30178e-40
5.99527e-40
8.03268e-35
5.64163e-39
4.25663e-36
5.21165e-36
1.53952e-40
1.01543e-39
1.7177e-40
2.46756e-41
1.11765e-40
1.70063e-39
6.66941e-40
1.75351e-36
4.49623e-41
4.94632e-41
1.364e-40
4.49152e-43
4.39469e-42
1.11399e-41
2.37096e-38
2.62368e-37
1.32612e-36
4.49117e-43
3.34345e-42
1.30715e-41
6.44227e-44
5.86059e-43
2.38925e-42
1.81397e-38
1.60647e-37
6.70821e-37
1.14548e-43
1.05909e-42
4.2478e-42
)
;

boundaryField
{
    fuel
    {
        type            fixedValue;
        value           uniform 0;
    }
    primary_air
    {
        type            fixedValue;
        value           uniform 0.23;
    }
    Secondary_air_RHS
    {
        type            fixedValue;
        value           uniform 0.23;
    }
    Secondary_air_LHS
    {
        type            fixedValue;
        value           uniform 0.23;
    }
    outlet
    {
        type            inletOutlet;
        inletValue      uniform 0;
        value           nonuniform List<scalar> 
18
(
0
1.81397e-38
0
0
1.60647e-37
0
0
6.70821e-37
0
0
2.63661e-28
0
0
1.0149e-27
0
0
2.15205e-27
0
)
;
    }
    stove_body
    {
        type            fixedValue;
        value           uniform 0;
    }
    frontAndBack
    {
        type            empty;
    }
}


// ************************************************************************* //
