/*--------------------------------*- C++ -*----------------------------------*\
  =========                 |
  \\      /  F ield         | OpenFOAM: The Open Source CFD Toolbox
   \\    /   O peration     | Website:  https://openfoam.org
    \\  /    A nd           | Version:  6
     \\/     M anipulation  |
\*---------------------------------------------------------------------------*/
FoamFile
{
    version     2.0;
    format      ascii;
    class       volVectorField;
    location    "1.5";
    object      U;
}
// * * * * * * * * * * * * * * * * * * * * * * * * * * * * * * * * * * * * * //

dimensions      [0 1 -1 0 0 0 0];

internalField   nonuniform List<vector> 
297
(
(22.2256 0.0160081 0.285716)
(22.2278 -0.000128944 0.25447)
(22.2257 -0.0152336 0.284727)
(4.16684e-07 -0.0203312 0.264779)
(4.8961e-07 0.00137647 0.252563)
(4.28964e-07 0.0218161 0.260906)
(-22.2256 0.0159894 0.285716)
(-22.2278 -0.000125214 0.254497)
(-22.2257 -0.0152154 0.284727)
(22.2254 0.0143131 0.300764)
(22.2289 0.00236057 0.277108)
(22.2219 -0.0130217 0.300951)
(4.03485e-07 -0.0504176 -0.0450855)
(5.6514e-07 0.0144435 0.175008)
(4.16448e-07 0.0559125 -0.0232369)
(-22.2254 0.0142961 0.300767)
(-22.2289 0.00236282 0.277123)
(-22.2219 -0.0130072 0.300955)
(22.2036 0.00916501 0.514893)
(22.295 0.00154599 0.471021)
(22.2008 -0.00597993 0.515962)
(3.12651e-07 -0.0574964 0.323103)
(5.86727e-07 -0.0720263 0.0969685)
(3.25925e-07 0.119337 0.303266)
(-22.2036 0.00910585 0.514894)
(-22.2948 0.00154133 0.471059)
(-22.2009 -0.0059147 0.515968)
(43.6348 22.8666 -28.4281)
(41.2242 35.3547 -13.9421)
(34.8454 46.1693 23.8805)
(-0.00977534 4.7815 -81.5267)
(0.0131957 34.0407 -50.7698)
(-0.0234584 47.673 23.4415)
(-43.0349 22.454 -29.1152)
(-41.289 34.2561 -13.9243)
(-34.432 44.7319 23.4545)
(53.8289 10.0786 -6.04279)
(51.2564 55.7684 61.2954)
(39.703 27.9184 92.6649)
(0.0882701 -25.5273 -137.849)
(0.0608771 51.7615 -20.6606)
(-0.0182204 32.3075 86.4531)
(-49.206 12.878 -6.16422)
(-47.7096 58.6385 56.898)
(-40.4114 30.3157 91.9568)
(56.5623 -33.1372 -29.6456)
(55.2993 40.842 34.7335)
(47.3391 87.9294 190.904)
(-0.340625 -40.3461 -169.308)
(-0.202359 58.7793 30.8135)
(0.122495 61.5066 120.007)
(-49.4006 -21.5459 -35.6756)
(-50.5395 37.9674 19.2397)
(-44.1549 83.9967 187.362)
(44.5917 -45.8929 -128.597)
(56.4237 -75.1945 -46.0598)
(57.3348 53.6722 117.092)
(0.387841 -18.5513 -266.135)
(0.00324722 -65.7546 -37.0609)
(-0.0998771 37.5656 102.168)
(-39.0546 -42.5964 -130.108)
(-54.3529 -76.4859 -54.5874)
(-54.8953 50.9448 106.879)
(41.495 -39.4621 -102.239)
(57.1245 -57.9554 -23.661)
(58.7517 14.3973 57.4881)
(-0.10705 -47.5922 -90.3019)
(-0.00841602 -46.0053 -64.767)
(0.0780314 -4.74726 17.3373)
(-35.446 -15.4934 -104.918)
(-53.7144 -59.5137 -37.2958)
(-55.7563 14.8111 49.7278)
(25.6375 -10.9133 -33.0984)
(53.6761 -36.2601 -28.02)
(58.6903 -7.82972 37.7218)
(-0.00544829 -4.24309 -38.4791)
(0.0235238 -30.6493 -28.3586)
(0.0458689 -21.1501 4.17766)
(-22.9401 8.12137 -33.414)
(-46.7088 -35.6679 -31.831)
(-55.8051 -6.32631 33.887)
(50.7717 -67.4398 -168.909)
(54.1744 -59.4011 -62.4058)
(53.6372 65.7065 215.659)
(0.0920705 -53.2758 -295.668)
(-0.0979242 26.1591 55.1644)
(-0.0879807 56.8632 160.094)
(-41.2505 -52.0973 -145.715)
(-51.9703 -67.5013 -55.6926)
(-51.9618 64.4282 215.608)
(45.8311 -61.913 -151.711)
(54.3113 -61.1089 -66.386)
(51.849 66.4436 223.855)
(0.0929342 -46.2217 -291.846)
(-0.0807415 11.8724 49.9458)
(-0.0924594 57.9344 172.982)
(-38.3219 -52.0182 -146.31)
(-51.0424 -73.4017 -65.0562)
(-50.8254 65.395 223.61)
(46.6571 -63.426 -138.036)
(54.9315 -65.2791 -66.5384)
(51.2248 72.8409 239.438)
(0.0872725 -47.2379 -280.099)
(-0.0704312 -17.2671 64.4789)
(-0.0916559 52.961 197.875)
(-42.2375 -51.8128 -142.55)
(-53.7172 -78.3123 -66.9024)
(-49.2652 71.4653 237.2)
(17.4574 -1.38031 -10.7166)
(23.6364 -36.7532 -3.20101)
(23.3049 -35.7159 1.8844)
(0.00405089 -12.0393 -9.56751)
(0.0109504 -26.9628 -8.06346)
(0.00441841 -29.0333 -6.61917)
(-15.1023 25.7093 -13.8732)
(-17.2842 -35.5933 -4.23746)
(-18.2842 -35.9755 -1.10693)
(16.9392 -25.4833 -1.7186)
(17.0323 -32.7301 2.2645)
(16.8613 -32.3959 5.34884)
(0.0072657 -7.21017 -5.55071)
(0.00923285 -15.2763 -2.34048)
(-0.0055602 -18.6299 0.812441)
(-15.2857 3.20256 3.39913)
(-15.5899 -29.6199 2.29037)
(-15.5013 -29.9052 3.4679)
(16.3112 -1.11227 -0.026283)
(16.1115 -14.4807 1.34946)
(16.0164 -15.2421 4.61019)
(0.00765619 -7.74556 -1.84971)
(0.00671935 -7.07328 -2.38027)
(-0.0127676 -3.58137 -2.86977)
(-15.3916 -12.1734 0.246032)
(-15.5048 -12.6519 3.31165)
(-15.3755 -4.29147 3.54574)
(15.0492 -36.7917 -7.21912)
(15.0857 -33.129 -9.84254)
(15.02 -26.1971 -14.6074)
(0.00406286 -29.2463 -6.20801)
(0.00372747 -26.7205 -7.24942)
(-0.00161768 -21.2171 -7.54997)
(-15.0528 -37.8767 -7.70707)
(-15.0902 -33.6243 -10.1414)
(-15.0317 -26.3475 -14.8367)
(15.1032 -29.5643 0.862538)
(15.1159 -29.9066 -5.24126)
(15.0045 -25.4487 -13.888)
(0.00152429 -22.8435 2.01047)
(0.00265288 -22.7922 1.93273)
(-0.00178723 -18.1358 1.74823)
(-15.1104 -29.4311 -0.160319)
(-15.1198 -30.798 -5.85703)
(-15.0129 -25.1798 -14.0336)
(15.1371 -1.21263 -1.4188)
(15.1346 -15.5796 -14.5436)
(15.0184 -21.6904 -20.174)
(-0.00102385 -5.82883 -0.0816527)
(0.00172252 -8.99487 1.88019)
(-0.0016429 -11.5495 0.787545)
(-15.1528 -0.446704 -2.57421)
(-15.136 -15.276 -14.58)
(-15.0225 -21.5981 -20.1638)
(15.0748 23.5443 -11.9121)
(15.2952 22.665 -9.09385)
(15.2944 26.4877 -6.58874)
(-0.0274312 9.29358 -3.38438)
(-0.0162308 7.49889 -2.50128)
(-0.00742169 9.78189 -0.424022)
(-14.9222 46.3584 -10.4881)
(-14.9397 43.0455 -9.54437)
(-14.9676 40.0384 -6.95442)
(15.3851 12.622 -3.08778)
(16.8801 -11.769 4.47762)
(16.9305 -19.6779 1.61142)
(-0.0326724 -5.55517 5.64366)
(-0.0200843 -11.3322 2.28893)
(-0.00638715 -9.07604 -2.76215)
(-15.1333 35.4675 4.0474)
(-15.1385 29.1129 6.63418)
(-15.0878 27.2667 7.36552)
(15.1427 11.3584 2.83483)
(16.398 -0.531805 4.78337)
(16.6228 6.68702 5.09365)
(-0.0317234 -20.1604 5.6223)
(-0.0198694 -9.09266 2.50477)
(-0.00585201 -6.05337 1.2007)
(-15.3355 -20.8775 4.64617)
(-15.3089 -15.8142 2.64402)
(-15.2773 -11.5659 2.18757)
(15.0332 -5.02467 -6.66961)
(15.0117 2.29892 -19.7738)
(15.0214 8.09236 -17.3981)
(0.0147717 6.21442 -6.8203)
(-0.00819502 6.11027 -4.52613)
(-0.0286861 9.38576 -3.88735)
(-14.7711 20.1901 -29.5987)
(-14.8032 26.5772 -22.4992)
(-14.9706 44.4189 -17.1868)
(15.0432 -4.55375 2.28371)
(15.0049 1.96758 -29.461)
(15.0177 3.86187 -21.9999)
(0.00260124 0.767145 7.12871)
(-0.0252296 5.5287 7.19436)
(-0.0379292 6.37784 11.3469)
(-14.8139 5.52069 -45.8129)
(-14.9263 20.1037 -26.4642)
(-15.087 34.7243 -5.07362)
(15.0376 -2.07989 5.04064)
(15.1111 1.77653 -36.731)
(15.0516 0.816993 -26.0649)
(-0.00964649 -0.757209 5.50517)
(-0.0329411 -9.89769 17.2081)
(-0.0417386 -17.6384 17.6856)
(-15.0177 2.24479 -56.8862)
(-15.0069 18.1135 -17.9182)
(-15.2499 -19.9037 17.6239)
(14.961 1.86533 -15.9546)
(14.989 1.18854 -55.7335)
(14.933 -0.358083 -57.6233)
(-0.0659101 0.0817691 52.0969)
(-0.0680215 -2.51792 33.7205)
(-0.0716442 -7.26821 33.7216)
(-15.0576 -10.2779 -86.3106)
(-15.1316 14.7371 34.6562)
(-15.2012 -6.65764 64.8837)
(14.8259 0.817286 -115.303)
(14.8251 1.73333 -120.041)
(14.7872 1.03716 -120.48)
(-0.0370156 1.77869 78.7085)
(-0.0368815 2.68999 64.3611)
(-0.0403495 0.28631 66.3349)
(-14.7565 2.70797 -123.271)
(-14.7885 -1.76744 -66.1053)
(-14.9042 -0.398452 102.245)
(14.3587 0.125268 -149.72)
(14.3543 0.198681 -149.968)
(14.3157 0.0750305 -150.011)
(0.070666 0.416786 181.088)
(0.0762582 0.426663 182.053)
(0.0809813 -0.221831 206.758)
(-14.108 -2.94538 -141.617)
(-14.1098 -6.22444 -107.913)
(-14.6115 -3.95849 -1.4286)
(15.0275 -15.316 -23.8964)
(15.0367 -3.6361 -21.1446)
(15.0421 4.80186 -8.52135)
(-0.00755631 -13.3223 -10.4136)
(-0.0114346 -4.30198 -9.5152)
(-0.0134839 3.94955 0.473691)
(-15.0491 -15.784 -24.1552)
(-15.0619 -3.58425 -21.2296)
(-15.0684 4.58958 -8.57901)
(15.021 -17.5375 -26.9547)
(15.0337 -4.31661 -24.1862)
(15.0334 -1.00637 6.79535)
(-0.00656351 -13.1933 -6.97171)
(-0.00989625 -5.28775 -7.44077)
(-0.0117442 1.98617 11.889)
(-15.0377 -17.7746 -26.9633)
(-15.0527 -4.4578 -24.2455)
(-15.0545 -1.16852 6.911)
(15.0656 -11.6096 -33.5202)
(15.1747 -3.39158 -27.96)
(15.0156 -2.62741 -1.33406)
(-0.00470244 -7.57241 -8.12137)
(-0.00711028 -5.15819 -11.9828)
(-0.00864694 1.91413 15.9896)
(-15.0756 -11.662 -33.3978)
(-15.1886 -3.85264 -27.9324)
(-15.0284 -2.62767 -1.20533)
(15.0562 10.179 -54.9637)
(15.0767 -2.15623 -38.4059)
(15.0377 -4.92835 -5.0974)
(0.00359755 11.7256 15.1408)
(0.00361581 -1.62892 25.0483)
(0.00361694 -2.10141 49.3256)
(-15.0572 10.1888 -54.9486)
(-15.0735 -2.18603 -38.5015)
(-15.0317 -4.88325 -5.07164)
(14.8722 -6.15258 -107.774)
(14.8624 -0.589563 -112.076)
(14.8664 -0.253265 -105.858)
(-0.00100304 -0.580295 55.6701)
(-0.00102053 -1.93457 63.7638)
(-0.00103682 -1.70285 74.92)
(-14.8729 -6.18201 -107.736)
(-14.8588 -0.549337 -112.112)
(-14.8689 -0.284711 -105.887)
(14.2599 0.0487115 -145.035)
(14.2598 -0.126816 -145.179)
(14.2677 -0.132819 -144.888)
(5.62004e-05 -0.486253 184.856)
(5.45548e-05 -1.30244 185.382)
(5.59234e-05 -1.01701 181.406)
(-14.2598 0.0506296 -145.044)
(-14.2597 -0.124814 -145.186)
(-14.2676 -0.132223 -144.898)
)
;

boundaryField
{
    fuel
    {
        type            fixedValue;
        value           uniform (0 0 0.25);
    }
    primary_air
    {
        type            fixedValue;
        value           uniform (0 0 2.5);
    }
    Secondary_air_RHS
    {
        type            fixedValue;
        value           uniform (0 52.7778 0);
    }
    Secondary_air_LHS
    {
        type            fixedValue;
        value           uniform (0 -52.7778 0);
    }
    outlet
    {
        type            pressureInletOutletVelocity;
        value           nonuniform List<vector> 
18
(
(0 0 -145.035)
(5.62004e-05 -0.486253 184.856)
(0 0 -145.044)
(0 0 -145.179)
(5.45548e-05 -1.30244 185.382)
(0 0 -145.186)
(0 0 -144.888)
(5.59234e-05 -1.01701 181.406)
(0 0 -144.898)
(0 0 -149.72)
(0.070666 0.416786 181.088)
(0 0 -141.617)
(0 0 -149.968)
(0.0762582 0.426663 182.053)
(0 0 -107.913)
(0 0 -150.011)
(0.0809813 -0.221831 206.758)
(0 0 -1.4286)
)
;
    }
    stove_body
    {
        type            noSlip;
    }
    frontAndBack
    {
        type            empty;
    }
}


// ************************************************************************* //
