/*--------------------------------*- C++ -*----------------------------------*\
  =========                 |
  \\      /  F ield         | OpenFOAM: The Open Source CFD Toolbox
   \\    /   O peration     | Website:  https://openfoam.org
    \\  /    A nd           | Version:  6
     \\/     M anipulation  |
\*---------------------------------------------------------------------------*/
FoamFile
{
    version     2.0;
    format      ascii;
    class       volScalarField;
    location    "4.5";
    object      O2;
}
// * * * * * * * * * * * * * * * * * * * * * * * * * * * * * * * * * * * * * //

dimensions      [0 0 0 0 0 0 0];

internalField   nonuniform List<scalar> 
297
(
0
0
0
0
0
0
0
0
0
0
0
0
0
0
0
0
0
0
0
0
0
0
0
0
0
0
0
0.101241
0.138535
0.212815
0.180939
0.203933
0.226344
0.104541
0.142782
0.215308
0
0.0323516
0.0406307
0.0161327
0.148354
0.192594
0
0.0417604
0.0525788
0
0.0289444
0
0.014852
0.0256827
0.106446
0
0.0363042
0
0.00442657
0.0111799
0.00335049
0
0.00246373
0
0.00582223
0.0143696
0.00425108
9.14185e-07
3.20286e-07
9.06372e-08
1.6537e-06
7.73945e-08
3.79928e-09
1.08385e-06
4.85898e-07
1.02064e-07
4.75113e-11
1.28666e-11
1.60875e-12
9.42281e-11
2.47252e-11
1.46609e-12
6.65107e-11
2.66452e-11
5.85116e-12
0
0.0252177
0
0
0.00246436
0.0442667
0
0.030465
0
0
0.0249215
0
0
0.00246385
0
0
0.0301112
0
0
0.0242679
0
0
0.0024638
0
0
0.02934
0
1.9992e-15
7.21861e-16
5.5505e-17
2.47947e-15
8.41475e-16
3.75238e-17
2.37895e-15
1.55892e-15
3.99353e-16
5.08812e-19
3.02699e-19
8.51836e-21
3.67188e-19
3.90714e-19
1.21649e-20
5.2618e-19
1.00456e-18
2.31665e-19
4.29735e-20
8.53212e-20
1.17579e-22
1.82603e-20
2.09564e-19
2.29498e-20
9.56344e-20
1.0031e-18
9.94132e-19
1.31841e-21
4.44348e-26
3.45665e-30
8.43225e-22
3.67994e-24
9.00593e-27
1.47918e-20
9.20115e-23
1.64609e-25
2.11091e-24
1.46692e-26
2.0077e-29
5.74457e-23
5.04879e-23
2.62379e-27
2.39935e-20
1.42279e-21
3.71177e-25
1.42414e-22
1.07082e-25
4.98743e-29
4.82629e-21
1.85582e-24
5.57041e-28
8.5126e-19
1.79401e-20
7.87715e-25
2.0154e-29
1.00606e-24
4.72458e-20
1.89027e-29
8.49406e-25
4.48057e-20
3.99737e-29
1.06086e-24
5.2738e-20
5.40048e-32
9.71086e-28
2.05481e-23
1.77345e-30
3.31497e-26
6.45076e-24
7.6563e-32
1.23856e-27
1.96073e-23
4.5816e-32
5.90427e-28
6.32545e-24
3.39828e-31
1.394e-27
1.94743e-24
7.52579e-32
1.41203e-27
1.1475e-23
8.61103e-38
1.39351e-37
1.27825e-33
2.03265e-37
1.97545e-37
7.58603e-34
2.63747e-37
2.62485e-37
2.38327e-33
3.64239e-39
1.36676e-40
2.63707e-36
1.60298e-37
8.12043e-39
7.96622e-35
2.72809e-38
2.79191e-40
4.32282e-36
1.92628e-41
1.70082e-41
9.41121e-37
8.8238e-38
9.70101e-40
1.71135e-35
4.32805e-41
3.71014e-41
1.70819e-36
2.05912e-42
5.02232e-43
3.84253e-42
3.90164e-38
3.45263e-41
1.673e-40
3.49379e-42
1.02362e-42
1.24687e-41
2.63207e-43
6.56761e-44
1.18479e-44
2.08184e-38
3.22112e-39
3.93874e-40
2.0251e-43
6.39201e-44
7.45259e-45
3.44259e-44
6.77315e-45
8.46539e-46
9.82834e-39
1.8889e-39
2.42601e-40
6.19082e-44
1.2413e-44
1.52809e-45
5.29048e-34
3.09702e-37
1.30997e-37
2.65169e-30
8.61541e-33
8.62671e-33
3.46978e-29
1.54157e-32
2.09073e-32
1.61098e-33
1.35626e-37
1.28288e-38
6.27874e-31
2.11e-33
2.92995e-33
1.91626e-29
2.06021e-33
9.25643e-33
1.56244e-33
4.38674e-38
2.69156e-40
1.2168e-30
1.83051e-34
4.98886e-35
1.82864e-29
8.52309e-34
1.38157e-34
1.62552e-38
6.29323e-40
1.03508e-40
8.27821e-35
1.18824e-35
3.71616e-36
1.09483e-34
1.98632e-38
2.2665e-39
4.38649e-40
6.30195e-41
1.79835e-41
5.14775e-35
5.04046e-36
2.32024e-36
7.56291e-40
4.76796e-41
2.35017e-41
8.52968e-41
7.97412e-42
3.50371e-42
2.36126e-35
2.21023e-36
1.01506e-36
1.63164e-40
1.42747e-41
6.36951e-42
)
;

boundaryField
{
    fuel
    {
        type            fixedValue;
        value           uniform 0;
    }
    primary_air
    {
        type            fixedValue;
        value           uniform 0.23;
    }
    Secondary_air_RHS
    {
        type            fixedValue;
        value           uniform 0.23;
    }
    Secondary_air_LHS
    {
        type            fixedValue;
        value           uniform 0.23;
    }
    outlet
    {
        type            inletOutlet;
        inletValue      uniform 0;
        value           nonuniform List<scalar> 
18
(
0
2.36126e-35
0
0
2.21023e-36
0
0
1.01506e-36
0
0
9.82834e-39
0
0
1.8889e-39
0
0
2.42601e-40
0
)
;
    }
    stove_body
    {
        type            fixedValue;
        value           uniform 0;
    }
    frontAndBack
    {
        type            empty;
    }
}


// ************************************************************************* //
