/*--------------------------------*- C++ -*----------------------------------*\
  =========                 |
  \\      /  F ield         | OpenFOAM: The Open Source CFD Toolbox
   \\    /   O peration     | Website:  https://openfoam.org
    \\  /    A nd           | Version:  6
     \\/     M anipulation  |
\*---------------------------------------------------------------------------*/
FoamFile
{
    version     2.0;
    format      ascii;
    class       volScalarField;
    location    "4.5";
    object      p;
}
// * * * * * * * * * * * * * * * * * * * * * * * * * * * * * * * * * * * * * //

dimensions      [1 -1 -2 0 0 0 0];

internalField   nonuniform List<scalar> 
297
(
117163
117163
117163
195231
195231
195231
117163
117163
117163
117163
117163
117163
195231
195231
195231
117163
117163
117163
117163
117163
117163
195231
195231
195231
117163
117163
117163
98051.3
97864.6
97838.8
162927
162821
162883
98034.1
97849.7
97823.2
98528.6
97620.4
97634.2
162639
162481
162294
98515.8
97611.3
97609.8
97366.4
96110.9
96501.2
157756
160058
158094
97417.2
96125.7
96499
94639.8
96296.5
94968.5
159986
158862
159553
94585
96255.2
95071.5
97698.1
97575.7
97337.1
162890
162059
162290
97666.9
97561.8
97397.5
97596.7
97751.1
97627
162583
162777
162718
97534.5
97715.4
97720.4
83033.4
94371.6
89014.1
136668
155717
147275
82854.8
94354.6
89407.1
82590.3
94369.8
88774.7
135200
155517
146246
82392.1
94347.1
89228.5
83796.4
94591.9
89396.3
136705
155929
146591
83606.8
94563.4
89898.6
97813
97864.1
97791.7
162850
162935
162864
97745.1
97811.8
97783.4
97854.3
97863.2
97825.5
162940
162959
162921
97807.6
97812.5
97780.4
97860.2
97857.6
97825.1
162967
162962
162946
97814.5
97808.5
97779.9
97862.6
97940.6
98110.4
162907
162941
162993
97825.7
97900.1
98055
97819
97837.6
97950.3
162909
162910
162923
97785.1
97822
97919.5
97772
97719.3
97688.7
162929
162905
162886
97780.6
97775.6
97755.8
98216.4
98009.7
97914.1
163097
162994
162939
98228
97991.9
97880.5
98007.1
97899.8
97868.8
162962
162924
162933
97996.1
97867
97829.2
97743.7
97783
97834.2
162883
162919
162957
97706.8
97743.7
97790.4
98397.1
98426.4
98393.9
163356
163358
163262
98435.4
98468.7
98428.4
98349.6
98357.5
98225.7
163198
163200
163105
98386.4
98393.6
98242.4
98283.8
98306
98110.2
162963
163007
162926
98319.2
98341.7
98112.4
97550.4
97518.9
97483.7
161872
161891
161815
97537.2
97500.9
97462.7
93370.9
93334.6
93342.3
154698
154692
154687
93348.2
93312.1
93322.4
86530.3
86524.6
86526.7
139561
139549
139534
86505.9
86500
86501.5
98262.1
98364.7
98429
163056
163102
163141
98104
98033.5
97995.9
98145.6
98280.4
98371.3
162983
163038
163083
98015.5
97996.8
97977.9
98025.9
98213.4
98319
162914
162956
162991
97959.4
98010.3
97992
97671.1
97740.5
97769.5
162349
162396
162388
97817.5
97855.6
97871.7
93770
93741.9
93739.3
155665
155668
155666
94056.5
94058
94078
87162.2
87159.8
87158.6
140577
140585
140585
87292.7
87293.4
87299.2
)
;

boundaryField
{
    fuel
    {
        type            zeroGradient;
    }
    primary_air
    {
        type            zeroGradient;
    }
    Secondary_air_RHS
    {
        type            zeroGradient;
    }
    Secondary_air_LHS
    {
        type            zeroGradient;
    }
    outlet
    {
        type            totalPressure;
        rho             rho;
        psi             none;
        gamma           1;
        p0              uniform 100000;
        value           nonuniform List<scalar> 
18
(
90451
100000
90661.3
90431.3
100000
90659.1
90433
100000
90676.5
89943.8
100000
89919.5
89917.9
100000
89893.3
89928.9
100000
89905.2
)
;
    }
    stove_body
    {
        type            zeroGradient;
    }
    frontAndBack
    {
        type            empty;
    }
}


// ************************************************************************* //
