/*--------------------------------*- C++ -*----------------------------------*\
  =========                 |
  \\      /  F ield         | OpenFOAM: The Open Source CFD Toolbox
   \\    /   O peration     | Website:  https://openfoam.org
    \\  /    A nd           | Version:  6
     \\/     M anipulation  |
\*---------------------------------------------------------------------------*/
FoamFile
{
    version     2.0;
    format      ascii;
    class       surfaceScalarField;
    location    "4.5";
    object      phi;
}
// * * * * * * * * * * * * * * * * * * * * * * * * * * * * * * * * * * * * * //

dimensions      [1 0 -1 0 0 0 0];

internalField   nonuniform List<scalar> 
675
(
1.27222e-05
-4.36485e-05
0.000155028
-1.272e-05
2.07266e-06
0.000147453
-4.36592e-05
0.000155042
-1.96572e-05
4.365e-05
0.000139064
1.95213e-05
-2.07247e-06
0.000171627
4.36585e-05
0.000138909
1.27231e-05
0.000155029
-1.27196e-05
0.000147454
0.000155041
7.67841e-06
-6.12929e-05
0.000208675
-7.65348e-06
5.15206e-07
0.000162284
-6.12016e-05
0.000208623
-3.67739e-05
6.12948e-05
5.32159e-05
3.81673e-05
-5.1474e-07
9.76361e-05
6.12007e-05
5.46412e-05
7.67917e-06
0.000208677
-7.65317e-06
0.000162285
0.000208622
2.43459e-06
8.22046e-05
-2.47916e-06
4.31427e-05
8.21076e-05
1.08339e-05
-8.22033e-05
-1.20688e-05
-4.31453e-05
-8.21088e-05
2.43768e-06
-2.47706e-06
0.00432134
0.00300566
-0.00410045
0.00447829
0.00244217
0.000622159
0.00443503
0.00326692
0.0088393
-0.00283202
0.00236403
0.00425004
-0.00214358
0.0145412
-0.00375432
0.0178159
0.00426375
-0.0038699
0.00446215
0.00087868
0.00393066
0.005006
0.0061101
-0.0152155
-0.00915697
-0.000461569
0.0152482
0.0051284
-0.0110162
0.00228886
-0.00599405
0.0121811
0.00451186
0.000586388
0.0112749
-0.00485859
0.0323223
0.00491362
-0.0147764
-0.00903356
0.015414
-0.00995889
0.000337103
0.0139485
-0.0295004
-0.00370974
-0.00559764
0.024894
0.0150836
-0.0298085
-0.0372469
-0.0139467
0.0773249
0.0224881
0.00548893
-0.0595419
-0.0154951
0.0853942
0.000343166
-0.0290653
-0.00416984
0.0254175
-0.0296219
-0.0190888
-0.0171995
-0.0106312
0.0469204
0.0152398
0.00810224
-0.0225579
-0.019871
-0.0158294
-0.0192196
0.0502905
-0.00199515
0.0174
0.01621
-0.0488126
-0.00696289
-0.00735693
-0.0569333
0.0773646
0.0150654
0.0149376
-0.0527934
-0.0187856
-0.0101757
0.0463624
0.0149702
-0.0206454
-0.020465
-0.0205624
0.0506001
0.00364382
-0.00854357
-0.00573095
-0.00409641
0.00615924
-0.0209756
-0.00667741
-0.0166357
0.00082449
0.0094054
-0.00256275
-0.0207953
-0.00536913
-0.023781
0.00317798
-0.0157103
0.00470053
-0.00546961
-0.00194729
-0.0193625
-0.0193241
0.0115737
-0.00219094
-0.0151214
0.00073635
0.00242836
-0.0125739
-0.00407227
-0.0118209
0.00595035
0.010054
-0.020749
0.000976788
0.00107107
-0.017438
-0.00299431
-0.0158035
0.0191221
-0.0145288
0.0129815
-0.0121382
-0.00932587
-0.000859345
-0.00057964
-0.0353426
0.000578613
-0.000503295
0.0239594
-0.000676662
-0.0363588
-0.00340355
0.000594933
0.0675695
0.00159038
0.00050192
-0.0655406
0.000606245
0.0727872
-0.000863013
-0.0348729
0.000556391
0.0245002
-0.0362994
-0.0011542
-0.000183781
-0.0412469
0.0011022
-0.00044733
0.0221504
0.000159236
-0.0432005
-0.0027778
0.000211918
0.058096
0.00251938
0.000446462
-0.071731
-0.000255706
0.0628974
-0.00115225
-0.0407336
0.00106435
0.0227301
-0.0433151
-0.00185899
0.000184499
0.00112683
-0.000706273
0.000377788
-0.00235313
-0.000166509
0.00186221
0.000712507
-0.000510436
-0.00186916
0.00110858
0.00301978
-0.00075971
-0.00617065
-0.0112117
-0.00631285
-0.000360369
-0.00288258
-0.000963121
-0.00594869
-0.0112173
0.00476278
0.0012681
-0.0131845
-0.0143503
-0.00448479
0.000639315
-0.00918527
0.000558265
-0.0102748
-0.011531
0.00705371
-0.00824545
-0.0120639
-0.00119369
-0.00324878
-0.00219696
-0.00776205
0.00124478
0.000692469
-0.000559045
-0.00754918
-0.00405192
0.0011187
0.00129387
6.50228e-05
-0.0018971
-0.00816324
0.00170698
0.000165826
-0.00479886
-0.00956004
-0.00294451
-9.13372e-05
-0.00331817
-0.000146509
-0.00471084
-0.00829324
0.00141436
-0.00146578
-0.00802401
-0.00337423
0.00145147
-0.000187154
-0.00552714
-0.000869488
0.00119811
-0.000887456
-0.000803981
0.00122696
0.000514564
-0.00321042
0.000822831
-0.000513506
-0.00390344
-0.000767393
-0.000495267
-0.000141495
-0.00481743
-0.000206368
-0.00177016
0.000752981
0.000427748
-0.0103074
-0.000226352
-0.000682156
-0.0105285
0.00123802
-0.00101681
0.00168476
-0.00420885
-0.00800063
-0.0112781
0.00012538
-0.000601987
-0.00941199
-0.00112268
0.000496384
-0.0012137
0.0010905
-0.00760131
-0.00714883
-0.000487716
-0.00727037
-0.00100111
-0.00444163
-0.00404181
-0.00839015
-0.00026241
-0.000191812
-0.0084964
0.000579873
-0.00149088
0.000170148
-0.00467715
-0.00819581
-0.00913497
-6.19963e-06
-1.36844e-05
-0.00795867
-0.000504616
0.000406123
-5.07978e-05
0.00111745
-0.00776227
-0.00569957
-0.00032133
-0.00597057
-0.00123452
-0.00541282
-0.00504928
-0.00317565
-0.00022649
-0.00385895
-0.00080847
-0.00102649
-0.00751063
-0.0050286
-2.60326e-05
-0.00552215
9.38635e-05
0.000787981
-0.00621648
8.0707e-05
-0.00105975
-0.00568355
0.0100951
0.00141394
-0.0042763
-0.00723247
0.0101436
0.00137786
-0.00142596
-6.28654e-05
-0.00100493
0.0112881
-0.00144235
0.0011368
-0.00956784
0.0136696
-0.0014178
0.000415738
0.000191188
-0.000932366
0.0107975
-0.00455659
-0.00768195
0.0107629
-0.00138272
-0.00110986
0.00777222
0.000275666
-0.00502523
-0.00729859
0.00799446
0.000688337
-0.00233613
5.61032e-05
-0.000615485
0.00936265
-0.000220817
0.00136553
-0.00909413
0.010827
-0.000661388
0.000302706
0.000172045
0.000220917
0.00833634
-0.00538056
-0.00773228
0.00855052
-0.0022583
-0.000411345
0.00371937
-0.000948696
-0.00779541
0.00179166
-0.000407889
0.000289072
0.00418409
0.00104687
-0.00481314
0.00340432
0.000676137
1.27743e-05
0.0037511
-0.00808483
0.00216863
-0.0016473
0.00146446
0.000182537
0.00206595
0.0015906
-0.00530398
0.00109562
-0.0062621
-0.00103012
-0.00153018
0.00402548
0.00499616
-0.00163525
-0.00279959
-0.0011731
-0.00230212
-0.00167805
0.000148223
0.00230277
-0.00561575
-0.00655196
-0.000705276
0.00148199
-0.000594297
0.00420745
0.0013899
-0.0116066
0.000743447
-0.0100965
6.54793e-05
-0.00152922
0.00697172
0.00517542
-0.00142631
-0.00509261
-0.000793561
-0.00468299
-0.000642485
-0.000738618
0.00455614
-0.0122406
-0.0105213
-0.00306601
0.00136788
0.00110386
0.00651232
0.00362187
-0.0248068
0.00158774
-0.0129672
-0.000238778
-0.00140111
0.00997996
0.00452849
-0.00383358
-0.00240381
-0.00149466
-0.00188449
-0.0032244
0.00108451
0.0068706
-0.0261692
-0.01323
0.00999153
0.00850406
-0.0173959
-0.00163692
0.0102184
-0.0234005
0.010214
-0.0248213
-0.00211242
-0.0083556
0.0289642
-0.00415943
-0.010115
0.0199881
-0.00991206
0.0140928
0.0104121
-0.0176709
-0.00196364
-0.0238982
-0.0250964
0.0037871
0.00718568
-0.0283648
0.00353257
0.00663427
-0.0297764
0.00723698
-0.0285221
0.0058712
-0.00697136
0.0372556
0.00388993
-0.00642789
0.0350372
-0.00705254
0.0322781
0.00385147
-0.0284887
0.0034306
-0.0299002
-0.0287134
0.000535628
0.0192782
-0.000247105
0.0192394
0.0194406
0.00323538
-0.0191852
0.00273773
-0.0191459
-0.0193404
0.000555658
-0.000205862
-0.00507645
0.00140308
-0.00432322
-0.00309201
0.00130426
-0.00328678
0.00141162
-0.00450298
-0.00465892
-0.000972731
-0.000564466
-0.00268504
-0.00100494
0.00033608
-0.000963966
-0.000309967
-0.00010725
-0.00490672
0.0013357
-0.00244726
0.000372052
-0.00542104
0.000686515
-0.00778044
-0.00258847
0.00119994
-0.00731739
0.00142742
-0.00851807
-0.00543281
-0.000410833
-0.00179476
-0.00236898
-0.000590396
-0.000936862
-0.000918291
-0.000333746
-0.00247017
-0.00789613
0.000110376
-0.00561771
-0.000435467
-0.00420281
0.000618926
-0.0117038
-0.00348307
0.0016051
-0.00963979
0.00291736
-0.0149172
-0.00563259
-0.00115194
-0.00060567
-0.00274599
-0.00163785
-0.000579688
-0.0011413
0.000978906
-0.00134564
-0.0133854
0.000334834
-0.0089358
-0.00124175
0.00113772
0.00848577
-0.0213174
0.00393474
0.00912464
-0.021553
0.0101938
-0.0211702
0.00162921
-0.0103737
0.0166271
0.000885398
-0.0097599
0.019055
-0.00933781
0.0214068
-0.00403556
-0.0197257
-0.00398911
-0.018743
-0.0145689
-0.000581644
0.00621515
-0.0269551
-0.000398018
0.00575497
-0.0274946
0.00584367
-0.0274136
-0.00121717
-0.00853861
0.0325938
-0.00184188
-0.00832688
0.0337559
-0.00877967
0.0341814
-0.00203269
-0.0262357
-0.00225036
-0.0268559
-0.0256022
0.00023732
0.0198759
8.32783e-05
0.0197704
0.0197767
-0.000920891
-0.0203854
-0.00102826
-0.0202915
-0.020416
-1.61029e-05
-0.000553344
)
;

boundaryField
{
    fuel
    {
        type            calculated;
        value           nonuniform List<scalar> 
36
(
0.000124069
0.000206738
0.000124069
0.000124069
0.000206738
0.000124069
0.000124069
0.000206738
0.000124069
-0.000124069
-0.000206738
-0.000124069
-0.000124069
-0.000206738
-0.000124069
-0.000124069
-0.000206738
-0.000124069
0
0
0
0
0
0
0
0
0
0
0
0
0
0
0
0
0
0
)
;
    }
    primary_air
    {
        type            calculated;
        value           nonuniform List<scalar> 9(-0.00322431 -0.00535767 -0.00322375 -0.00321817 -0.00535421 -0.00321768 -0.00321732 -0.00535623 -0.00321681);
    }
    Secondary_air_RHS
    {
        type            calculated;
        value           nonuniform List<scalar> 9(0.00780568 0.0129146 0.00784015 0.0077847 0.0128244 0.00782449 0.0078392 0.0128547 0.00788325);
    }
    Secondary_air_LHS
    {
        type            calculated;
        value           nonuniform List<scalar> 9(0.00728124 0.0119845 0.00726558 0.00724238 0.0118557 0.007225 0.00734814 0.0119877 0.00733152);
    }
    outlet
    {
        type            calculated;
        value           nonuniform List<scalar> 
18
(
-0.0470765
0.0737644
-0.0466126
-0.0471195
0.0739139
-0.0466175
-0.0471157
0.0733345
-0.0465789
-0.0481766
0.0724862
-0.048228
-0.048231
0.0739227
-0.048283
-0.0482077
0.0737993
-0.048258
)
;
    }
    stove_body
    {
        type            calculated;
        value           uniform 0;
    }
    frontAndBack
    {
        type            empty;
        value           nonuniform 0();
    }
}


// ************************************************************************* //
