/*--------------------------------*- C++ -*----------------------------------*\
  =========                 |
  \\      /  F ield         | OpenFOAM: The Open Source CFD Toolbox
   \\    /   O peration     | Website:  https://openfoam.org
    \\  /    A nd           | Version:  6
     \\/     M anipulation  |
\*---------------------------------------------------------------------------*/
FoamFile
{
    version     2.0;
    format      ascii;
    class       volScalarField;
    location    "5";
    object      p;
}
// * * * * * * * * * * * * * * * * * * * * * * * * * * * * * * * * * * * * * //

dimensions      [1 -1 -2 0 0 0 0];

internalField   nonuniform List<scalar> 
297
(
112175
112175
112175
182854
182854
182854
112175
112175
112175
112174
112174
112174
182854
182854
182854
112174
112174
112174
112174
112174
112174
182855
182855
182855
112174
112174
112174
97528.4
97553.8
97538.3
159447
159429
159446
97538.5
97553.8
97528.1
97476.3
97500.6
97498
159256
159273
159256
97498.2
97500.7
97476.3
97369.7
97496
97451.5
158211
158764
158212
97450.9
97496.7
97370.2
97384.1
97444.4
97344
159281
158986
159281
97342.9
97444.2
97384.2
97341.4
97386
97263
159211
159162
159212
97261.5
97385.6
97341.9
97275
97379.8
97151.5
158960
159033
158960
97152.5
97380.9
97275.9
97233.2
97588.3
97186.2
156380
158287
156380
97187.3
97590.7
97232.2
97203.4
97584.7
97151.2
156171
158350
156172
97152.2
97586.5
97202.2
97189.8
97570.1
97144.4
156368
158515
156368
97145.3
97569
97188.2
97599.6
97626.6
97548
158934
159032
158931
97551.1
97628.4
97599.5
97664.6
97675.1
97634
159050
159046
159047
97637.6
97677
97664.2
97687.7
97684.7
97676.1
159126
159075
159123
97680
97686.7
97687.2
97693.8
97637.3
97603.6
158533
158685
158900
97660
97599.8
97554.9
97637.8
97540.2
97457.2
158794
158793
158908
97627.1
97536.9
97444.6
97613.4
97514.3
97435.8
158912
158799
158722
97610.2
97517
97416.2
97558.4
97603
97662.4
158906
158692
158539
97603.1
97639.1
97697.3
97447.9
97540
97629.4
158914
158799
158800
97456.7
97542.3
97641.4
97419.2
97520
97612.7
158727
158805
158918
97435.3
97516.7
97617.1
98420.7
98174.1
97762.1
159069
159053
159029
98667.7
98377.2
97874.2
98122.6
97810.1
97530.7
158983
158945
158986
98344.6
97961.7
97596.2
97787.6
97506.7
97324.8
158762
158634
158600
97990.4
97615.5
97372.3
96596
96518.8
96499.6
157247
157148
157080
96711.5
96616.3
96601.4
95331.4
95373.6
95428
153241
153224
153225
95236.9
95286.4
95354.1
92442.2
92523.5
92587.6
141631
141653
141688
92057.8
92131
92195.1
97877.2
98382.2
98673.7
159025
159050
159068
97758.8
98171
98417.8
97599.4
97966.8
98350.4
158982
158943
158982
97527.9
97808.1
98120.7
97376.4
97621.2
97995.6
158597
158634
158763
97323.2
97506
97785.3
96612.9
96627.9
96722.6
157087
157155
157254
96502.9
96522.6
96598.7
95333.8
95265.8
95217.3
153220
153220
153237
95428
95372.9
95332.2
92196.6
92132.5
92059
141693
141659
141637
92589
92524.9
92443.6
)
;

boundaryField
{
    fuel
    {
        type            zeroGradient;
    }
    primary_air
    {
        type            zeroGradient;
    }
    Secondary_air_RHS
    {
        type            zeroGradient;
    }
    Secondary_air_LHS
    {
        type            zeroGradient;
    }
    outlet
    {
        type            totalPressure;
        rho             rho;
        psi             none;
        gamma           1;
        p0              uniform 100000;
        value           nonuniform List<scalar> 
18
(
93550.6
100000
93841.6
93169.8
100000
93537.2
92004.3
100000
92324.1
92324.7
100000
92006.3
93537.4
100000
93169.7
93841.8
100000
93550.3
)
;
    }
    stove_body
    {
        type            zeroGradient;
    }
    frontAndBack
    {
        type            empty;
    }
}


// ************************************************************************* //
