/*--------------------------------*- C++ -*----------------------------------*\
  =========                 |
  \\      /  F ield         | OpenFOAM: The Open Source CFD Toolbox
   \\    /   O peration     | Website:  https://openfoam.org
    \\  /    A nd           | Version:  6
     \\/     M anipulation  |
\*---------------------------------------------------------------------------*/
FoamFile
{
    version     2.0;
    format      ascii;
    class       surfaceScalarField;
    location    "5";
    object      phi;
}
// * * * * * * * * * * * * * * * * * * * * * * * * * * * * * * * * * * * * * //

dimensions      [1 0 -1 0 0 0 0];

internalField   nonuniform List<scalar> 
675
(
2.59362e-06
-0.000214681
0.000330881
-4.37127e-06
-0.000216829
0.000342571
-0.000221164
0.00033559
1.58503e-05
0.000214681
-0.00025156
6.69419e-06
0.000216829
-0.000230906
0.000221164
-0.000241979
2.59377e-06
0.000330882
-4.37104e-06
0.000342572
0.000335591
1.63626e-06
1.32044e-05
0.00031605
-4.51023e-06
2.19984e-05
0.000326711
1.13403e-05
0.000319749
-5.38818e-06
-1.32042e-05
-0.00021972
8.56807e-06
-2.19983e-05
-0.000200983
-1.134e-05
-0.000210679
1.63638e-06
0.000316051
-4.50997e-06
0.000326712
0.00031975
-1.00632e-06
0.000198284
-6.99166e-06
0.000213888
0.000193985
-1.67432e-05
-0.000198284
1.62905e-05
-0.000213887
-0.000193986
-1.0063e-06
-6.99123e-06
-0.00586408
0.005896
0.00317459
0.00610905
0.00312272
-0.0118877
0.00596554
0.00335193
0.00175249
-0.00596924
0.0153546
-0.00174159
-0.00312424
0.0149837
-0.00589261
0.0153612
-0.00609397
0.00333116
0.00587684
-0.0118874
0.00319201
-0.00145017
0.0081377
-0.00351259
0.000312051
0.00288678
-0.0165365
0.00860976
-0.00494643
-0.000637356
-0.00860035
0.0327305
0.000607045
-0.00288843
0.0195145
-0.00814824
0.0327253
-0.000352605
-0.00491628
0.00140832
-0.016537
-0.00354855
0.00697983
0.01235
-0.0228421
0.000830583
0.00528876
-0.0156536
0.0151922
-0.0193099
-0.0319654
-0.0151943
0.0922362
0.0319515
-0.00530254
-0.0338095
-0.0123435
0.0922139
-0.000837925
-0.0192707
-0.0069892
-0.0157116
-0.0228817
-0.00120801
-0.00649407
-0.0199285
0.0276294
0.00519595
0.00758988
-0.0263578
0.0123711
-0.0055148
-0.013251
0.023961
0.0190895
0.00550746
0.0402878
-0.0713777
-0.0190673
-0.00758456
0.00428945
0.0490371
0.00650509
0.0402758
-0.0713594
-0.00519137
-0.0132274
0.0239255
0.00121832
-0.0263648
0.0123606
-0.0199425
0.0276641
0.0023839
-0.00475576
-0.0175559
0.000258992
-0.00162887
-0.0226019
-0.00185234
-0.0111349
0.00858062
0.00184904
0.0251003
-0.00856872
0.00162743
0.0181825
0.00476187
0.0250956
-0.00025138
-0.0111302
-0.00238216
-0.0226089
-0.0175627
-0.00283482
-0.000324226
-0.0143981
-0.00729219
-0.00125185
-0.0168909
-0.00295864
-0.0154636
-0.0101522
0.00295804
0.0319622
0.0101393
0.00125599
-0.00461758
0.000327282
0.0319578
0.00728963
-0.015471
0.00282841
-0.0168945
-0.0144009
0.000839558
-0.00271809
-0.0241598
-0.000164205
-0.00181416
-0.0128316
-0.00178526
-0.0208838
-0.00277289
0.00179266
0.0853606
0.00277353
0.00188353
-0.0430525
0.00271093
0.0853468
0.000167153
-0.020841
-0.000832422
-0.0128307
-0.0242012
0.000371095
-0.0014403
-0.0262854
0.000140869
-0.00126862
-0.011332
-0.00111623
-0.0228211
-0.00138775
0.00112065
0.0790561
0.00138926
0.0013154
-0.0484158
0.00143608
0.0790453
-0.000136005
-0.0227787
-0.000362814
-0.0112879
-0.026325
0.000319189
-0.00217036
0.000144262
0.00121628
-0.00191041
-0.00154339
0.00190702
0.00154454
-0.00124655
0.00217346
-0.000140161
-0.000316592
0.00256049
-0.00251068
-0.00392372
-0.0105244
-0.005865
-0.00108101
-0.00738457
-0.00381804
-0.00502072
-0.0124903
-0.00154384
0.00381636
0.0162813
0.010896
0.00154255
0.00108067
-0.00986577
0.0025104
0.0162763
0.0108979
0.0058648
-0.00502547
-0.0124956
-0.0025623
-0.00738686
-0.00392551
-0.0105245
0.00296754
0.000439852
0.000895081
-0.00822638
-0.00461431
0.00124256
-0.00104554
-0.000211198
0.000436864
-0.00986145
-0.000847903
0.000209899
0.00487777
0.0124797
0.000847568
-0.00124334
-0.00907539
-0.0004407
0.00487482
0.0124811
0.00461402
0.000434851
-0.00986608
-0.00296953
-0.00104664
0.000894245
-0.00822658
0.00120378
0.00211135
-0.00242016
-0.00243155
0.00258946
0.00182796
-0.00382354
0.00194787
-0.00182898
0.00686868
-0.00194766
-0.0025904
-0.00211278
0.00687051
0.00243179
-0.00382762
-0.00120513
-0.00242008
-0.0120162
-0.00168004
0.00120502
-0.012379
-0.000869426
0.00123086
-0.00101027
0.00136113
-0.0127318
0.0068985
0.00124041
0.00107991
0.0064047
0.000718841
-0.00109374
0.000947219
0.0006278
0.00381954
-0.0103911
0.00110827
-0.010796
0.00112441
0.00134639
-0.0111951
-0.00952736
-0.00195224
0.00282216
-0.00968577
-0.000608019
0.00199567
-0.000302101
0.000775989
-0.00880069
0.0111394
0.00134461
-0.000874336
0.0104265
0.000500297
-0.00148839
0.000523457
0.0025692
0.00765956
-0.00822501
0.00245273
-0.00846815
0.00186858
0.00145787
-0.00805616
-0.00129174
0.000289403
-0.000146837
0.000849308
0.000820115
-0.000192854
0.00680596
-0.00051947
0.00703709
-0.000869687
-0.000531926
0.010958
-0.000485544
0.000514014
0.00143971
0.0107983
-0.000948574
0.00134634
-0.0111968
0.0103928
-0.000719979
0.00112443
-0.0012407
0.00110855
-0.0063999
0.00100881
0.000628435
0.00381503
-0.00689436
0.000868179
-0.00109324
0.00167956
0.00108087
0.0123813
0.00136113
-0.0127323
0.0120202
0.00123041
0.0012046
0.00847007
-0.000524793
0.00145779
-0.00805765
0.00822627
-0.00050131
0.0018686
-0.00134473
0.00245275
-0.010424
0.000301569
0.00256985
0.0076571
-0.0111373
0.000607366
-0.0014884
0.00195147
-0.000873398
0.00968759
0.000776396
-0.00879945
0.00953143
0.00199528
0.00282183
-0.000512411
0.000531239
0.00143816
0.000486574
0.000868932
0.000518826
-0.00703444
-0.000819914
0.0109561
-0.00680397
-0.000849808
-0.000290163
0.000148806
-0.000190364
0.00129555
0.00694309
0.000283299
-0.00722699
0.0114038
-0.00125403
-0.00320711
-2.66775e-05
0.000233249
0.00429105
-0.000277984
-0.00372896
-0.000744533
0.00103765
0.00274487
-3.0476e-06
0.00304785
0.00780481
-0.00808103
0.0127859
-0.00394214
5.22584e-05
0.0049673
0.000268011
-0.0124658
0.0081407
-0.000603267
-0.00577907
0.000405436
-8.98405e-05
0.00327609
-0.000324029
-0.0064123
-0.00395111
0.000618866
0.00875093
-0.000470125
0.00763031
0.00534194
-0.0137471
0.00851989
-0.00649964
-0.000695707
0.00502072
0.00232171
-0.0198054
0.00409489
-0.00084801
-0.0040076
-0.000400024
0.00584249
0.000713472
-0.0025869
-0.00221684
-0.00682493
0.00133068
0.0141116
-2.80002e-05
0.0113903
0.00488373
-0.0212235
0.005399
-0.00568337
0.00448655
0.00452714
0.00665411
-0.0309866
0.00540479
0.00315616
-0.00804862
0.00241013
0.00883359
0.0112185
-0.00750925
0.00073367
0.0128729
-0.00347433
0.0190948
-0.00331452
0.0299966
0.00326755
-0.0320303
0.00603579
-0.0119191
0.00722363
-0.0124142
0.0105194
-0.0290823
-0.0115552
0.00712999
-0.0160216
0.00662663
-0.00933803
-7.42234e-05
-0.0102794
0.021596
-0.00342867
-0.00655696
0.0361222
-0.0062822
0.0394612
-0.01279
-0.0294864
-0.0124392
-0.0188406
-0.0115203
-0.00864621
0.0223242
-0.0064788
0.0214935
0.0230307
-0.00767623
-0.0217267
-0.0077426
-0.0206208
-0.0218445
-0.00762528
-0.00635726
-0.012787
2.23913e-06
5.10258e-05
-0.00780546
-0.00103851
-0.00394504
0.000278402
-0.0080865
0.000747656
2.62925e-05
0.00304731
-0.00429038
0.00125391
0.0027447
-0.000283295
-0.00372971
-0.0114026
0.000233438
-0.00694241
-0.00320721
-0.00722717
-0.00852337
0.000470003
-0.000698244
-0.00534603
-0.000619171
-0.00650476
0.000328532
-0.013759
0.00395282
-0.000405905
0.00762921
-0.00327818
0.000602868
0.00875258
-0.000268446
-0.0064118
-0.00814027
-8.91122e-05
-0.00496748
-0.00577893
-0.0124649
-0.00540445
2.8313e-05
0.00448404
-0.0048909
-0.00133017
-0.00568747
0.00258957
-0.0212301
0.00682405
0.000399553
0.011391
-0.000715688
0.000847351
0.0141136
-0.0023225
-0.00221599
-0.00409562
0.00584456
-0.00502275
-0.0040062
-0.0198005
-0.00605735
0.003321
0.00722228
-0.00330379
0.00348338
-0.0119189
0.00751824
-0.0320253
-0.012879
-0.00241061
0.029987
-0.0112225
-0.00315777
0.0190853
-0.00665609
0.000724681
-0.00541588
0.00883138
-0.00454468
-0.00804996
-0.030987
0.0124743
0.00627064
-0.0115197
0.0128512
0.00654143
-0.0188403
0.0102699
-0.029484
0.00343297
-0.00662041
0.039465
7.51078e-05
-0.00712189
0.0361257
-0.0105123
0.0215994
0.0115687
-0.00933711
0.0124367
-0.0160201
-0.0290827
0.00635859
0.021844
0.00762796
0.0206199
0.0217367
0.00773836
-0.023026
0.00766713
-0.0214885
-0.0223196
0.00647902
0.00864717
)
;

boundaryField
{
    fuel
    {
        type            calculated;
        value           nonuniform List<scalar> 
36
(
0.000118786
0.000193633
0.000118786
0.000118786
0.000193633
0.000118786
0.000118786
0.000193633
0.000118786
-0.000118787
-0.000193632
-0.000118787
-0.000118787
-0.000193632
-0.000118787
-0.000118787
-0.000193632
-0.000118787
0
0
0
0
0
0
0
0
0
0
0
0
0
0
0
0
0
0
)
;
    }
    primary_air
    {
        type            calculated;
        value           nonuniform List<scalar> 9(-0.00320712 -0.00524323 -0.00320745 -0.00320795 -0.00524267 -0.00320795 -0.00320744 -0.00524322 -0.00320711);
    }
    Secondary_air_RHS
    {
        type            calculated;
        value           nonuniform List<scalar> 9(0.00319586 0.0051424 0.00319738 0.00319471 0.00513553 0.00319639 0.00319449 0.005142 0.00319593);
    }
    Secondary_air_LHS
    {
        type            calculated;
        value           nonuniform List<scalar> 9(0.00319741 0.00514238 0.0031959 0.00319643 0.0051355 0.00319475 0.00319598 0.00514198 0.00319452);
    }
    outlet
    {
        type            calculated;
        value           nonuniform List<scalar> 
18
(
-0.0397207
0.0765936
-0.0388445
-0.0407284
0.0783021
-0.0396796
-0.0435918
0.0733203
-0.0427582
-0.0427571
0.0733209
-0.0435888
-0.0396794
0.0783018
-0.0407304
-0.0388445
0.0765931
-0.0397233
)
;
    }
    stove_body
    {
        type            calculated;
        value           uniform 0;
    }
    frontAndBack
    {
        type            empty;
        value           nonuniform 0();
    }
}


// ************************************************************************* //
