/*--------------------------------*- C++ -*----------------------------------*\
  =========                 |
  \\      /  F ield         | OpenFOAM: The Open Source CFD Toolbox
   \\    /   O peration     | Website:  https://openfoam.org
    \\  /    A nd           | Version:  6
     \\/     M anipulation  |
\*---------------------------------------------------------------------------*/
FoamFile
{
    version     2.0;
    format      ascii;
    class       volVectorField;
    location    "5";
    object      U;
}
// * * * * * * * * * * * * * * * * * * * * * * * * * * * * * * * * * * * * * //

dimensions      [0 1 -1 0 0 0 0];

internalField   nonuniform List<vector> 
297
(
(139.284 0.0124084 0.256351)
(139.008 0.00688617 0.27095)
(139.324 -0.0283635 0.25764)
(-5.96102e-08 0.110637 -0.552855)
(-5.97733e-08 0.0519799 -0.571368)
(-6.02106e-08 -0.105955 -0.560664)
(-139.284 0.0124088 0.256352)
(-139.008 0.00688713 0.27095)
(-139.324 -0.0283629 0.257641)
(139.164 -0.00630782 0.599174)
(138.768 6.36822e-06 0.617335)
(139.209 -0.0166461 0.608529)
(-5.22341e-08 -0.00762849 -0.330989)
(-5.1945e-08 0.0160398 -0.312014)
(-5.25311e-08 -0.0477163 -0.323823)
(-139.164 -0.00630751 0.599175)
(-138.768 7.41643e-06 0.617336)
(-139.209 -0.0166454 0.608531)
(131.968 -0.0395069 0.942427)
(131.237 -0.0105711 0.965055)
(132.248 -0.007884 0.953932)
(-5.16945e-08 -0.0181913 0.503309)
(-5.13059e-08 0.0107906 0.550434)
(-5.20171e-08 -0.0342798 0.520266)
(-131.968 -0.0395071 0.942428)
(-131.237 -0.0105699 0.965056)
(-132.247 -0.00788256 0.953932)
(92.6184 -2.63966 -3.33534)
(93.9616 0.374321 -8.18064)
(92.6374 2.66687 -4.11681)
(0.00223028 -1.14729 3.2762)
(-2.0441e-06 -0.00043795 3.01298)
(-0.00223944 1.15541 3.27143)
(-92.6362 -2.65151 -4.08108)
(-93.9618 -0.372861 -8.17899)
(-92.6197 2.65077 -3.37086)
(94.7885 0.422621 8.77165)
(94.9974 1.3599 -14.6835)
(95.0743 -3.15181 7.13285)
(0.0049094 1.63334 24.6525)
(2.81027e-05 0.00291216 16.6297)
(-0.00484744 -1.66149 24.6537)
(-95.0742 3.10716 7.09246)
(-94.9975 -1.36056 -14.6835)
(-94.7892 -0.465538 8.81798)
(95.2261 13.9852 -11.0399)
(94.5182 2.33583 -15.8026)
(95.6141 -8.53867 -2.03137)
(0.0185388 -1.57328 30.2395)
(0.000163659 -0.00041354 2.94769)
(-0.0185457 1.56708 30.24)
(-95.6157 8.54109 -2.0014)
(-94.4807 -2.33176 -15.8041)
(-95.2263 -13.9876 -11.0656)
(94.23 8.06365 -22.5315)
(94.5457 -1.9481 -16.563)
(94.491 -1.01295 -19.3542)
(-0.00939474 0.86501 0.451991)
(-4.95682e-05 0.00833058 -7.85935)
(0.00915786 -0.871656 0.451311)
(-94.4925 1.01698 -19.3216)
(-94.5639 1.94992 -16.5742)
(-94.2293 -8.05572 -22.5618)
(94.1464 12.1921 -17.7082)
(94.1866 -2.75504 -21.9077)
(94.7827 -6.60505 -12.4182)
(-0.018387 1.53432 4.32852)
(-0.000108644 0.00624712 0.686461)
(0.0181807 -1.53932 4.32505)
(-94.783 6.60852 -12.4065)
(-94.1874 2.76224 -21.9132)
(-94.1468 -12.1933 -17.7157)
(94.1149 15.605 -24.1434)
(93.9527 -6.88515 -22.8839)
(94.3423 -15.728 -23.1572)
(-0.0282981 -0.460175 14.0259)
(0.000250414 -2.7334e-05 6.66737)
(0.028757 0.45414 14.0218)
(-94.3418 15.7269 -23.1619)
(-93.9522 6.88279 -22.8869)
(-94.1146 -15.6052 -24.1453)
(87.9691 17.8063 -18.8215)
(88.0041 1.337 -11.5933)
(89.757 -10.2783 -16.9319)
(-0.0107468 -1.77531 38.9456)
(0.000509248 0.00790794 -22.1047)
(0.0107811 1.76707 38.9423)
(-89.7466 10.3094 -16.9026)
(-89.9939 -1.29172 -11.6315)
(-87.9826 -17.7756 -18.85)
(86.0757 12.1005 -22.0634)
(90.0336 -0.11716 -9.44842)
(87.5344 -4.37176 -18.9068)
(-0.0098426 -1.91652 42.1926)
(0.000383722 0.0121584 -21.1119)
(0.00981062 1.90599 42.1844)
(-87.6448 4.40462 -18.8848)
(-91.4973 0.188178 -9.40775)
(-86.0051 -12.0647 -22.0884)
(80.9549 10.7598 -21.7251)
(94.4936 -0.2621 -10.2439)
(82.7557 -3.48281 -18.7693)
(-0.00802488 -2.08105 41.2818)
(-0.000255835 0.0107469 -17.3664)
(0.00788248 2.06934 41.2735)
(-82.7736 3.49436 -18.7445)
(-93.5131 0.305156 -10.226)
(-80.9382 -10.7442 -21.7484)
(92.105 24.7776 -5.41133)
(92.9731 -7.64365 -8.1438)
(91.6643 -29.0436 -6.82319)
(-0.0109463 -8.4158 13.6153)
(0.000404395 0.000576395 -5.3922)
(0.0116124 8.41528 13.6134)
(-91.6634 29.0502 -6.82764)
(-92.9723 7.6399 -8.14577)
(-92.1033 -24.7803 -5.41342)
(93.3092 19.9482 -1.35394)
(93.6308 -3.58206 -3.73231)
(93.1813 -23.8754 -1.74225)
(-0.00616569 -10.2768 7.43108)
(0.000443501 0.000942131 -4.49543)
(0.00690891 10.2773 7.42763)
(-93.1814 23.8809 -1.74498)
(-93.63 3.57825 -3.7344)
(-93.3059 -19.9511 -1.3548)
(93.9965 3.37006 0.839424)
(94.1409 -2.36606 -1.12361)
(93.9598 -6.60758 2.28977)
(-0.00175416 -5.5677 -0.0413046)
(0.000463138 0.000561553 -0.862658)
(0.00253381 5.56903 -0.0421868)
(-93.9592 6.61292 2.28895)
(-94.14 2.36516 -1.12352)
(-93.9949 -3.37193 0.83875)
(90.1819 -31.676 -1.48722)
(91.4496 -36.4022 -4.39914)
(91.7111 -38.0639 -5.76403)
(-0.00761387 15.6067 9.75352)
(-0.00850293 13.172 5.93981)
(-0.0111559 11.8676 7.4153)
(-90.7387 -26.9238 -0.751264)
(-91.6225 -31.6321 -2.89801)
(-91.7971 -33.368 -3.91002)
(90.8023 -24.8428 4.05245)
(92.1966 -29.3518 3.37649)
(92.8122 -30.4751 1.61683)
(-0.0024483 19.2775 1.85838)
(-0.000769814 19.3673 -3.31895)
(-0.00283031 18.9386 -0.604583)
(-91.3987 -20.9729 3.64707)
(-92.2508 -25.2725 3.13142)
(-92.5181 -26.7003 1.99518)
(93.3932 -8.27192 7.6273)
(93.8914 -4.15874 7.72198)
(93.8661 4.83189 8.11755)
(-0.000724121 11.2242 -5.29644)
(0.0005962 10.8651 -3.32168)
(-0.0044058 15.0796 -0.634551)
(-93.5799 -4.96168 6.18783)
(-93.8429 -1.20827 6.20959)
(-93.5361 3.76994 7.47561)
(91.7978 33.3719 -3.91007)
(91.6225 31.6368 -2.89821)
(90.7389 26.9252 -0.751233)
(0.0102277 -11.8602 7.4167)
(0.00819919 -13.1642 5.94099)
(0.0078674 -15.6018 9.75513)
(-91.7191 38.0688 -5.76497)
(-91.4549 36.4105 -4.3997)
(-90.1791 31.6885 -1.488)
(92.5185 26.7039 1.9951)
(92.2516 25.2765 3.13147)
(91.4036 20.9735 3.64748)
(0.00199588 -18.9352 -0.603001)
(0.000525882 -19.3628 -3.31761)
(0.00273308 -19.2737 1.86127)
(-92.8282 30.4764 1.61685)
(-92.2075 29.3595 3.37545)
(-90.7975 24.8544 4.05179)
(93.5382 -3.76525 7.47555)
(93.845 1.21217 6.20962)
(93.5821 4.96284 6.18778)
(0.00363257 -15.0756 -0.635359)
(-0.000763985 -10.8609 -3.32314)
(0.00100686 -11.2207 -5.29743)
(-93.8669 -4.83133 8.11805)
(-93.8917 4.16595 7.72171)
(-93.3927 8.28223 7.627)
(91.2071 15.241 -16.8407)
(89.6204 19.1719 -10.7378)
(92.3459 31.2187 -8.23146)
(0.0558425 8.31508 -3.66081)
(0.0460155 5.46292 4.62208)
(0.0257494 -4.49316 10.7302)
(-90.922 17.4625 -19.5187)
(-89.6802 21.6552 -13.0873)
(-92.2778 34.568 -10.6116)
(91.7473 4.21013 -30.2518)
(91.3368 11.822 -16.2262)
(93.5186 24.1111 -1.79605)
(0.049615 4.39117 -7.04758)
(0.0343051 3.05193 8.34629)
(0.0149264 -10.9073 8.35705)
(-91.6183 5.87607 -32.409)
(-91.1521 11.3483 -18.7638)
(-93.596 25.2681 -2.27104)
(95.1386 2.17551 -39.3718)
(91.1006 9.12994 -12.8389)
(92.3988 6.98716 5.53464)
(0.0452236 4.48398 -11.7629)
(0.0241803 -6.48127 19.2608)
(0.0105355 -17.4842 11.7613)
(-95.3612 3.27353 -41.1398)
(-90.1512 5.66531 -15.3026)
(-92.9546 17.5901 3.12533)
(93.8181 -6.61557 -55.2197)
(93.2932 1.26163 -1.03414)
(92.7069 7.29576 56.5865)
(0.0265765 -6.97059 13.052)
(0.0224204 7.09242 38.3858)
(0.0234423 -2.11152 58.4744)
(-93.9719 -7.3502 -56.3897)
(-93.2199 -0.887417 -8.7315)
(-92.6702 11.6886 58.8294)
(91.8919 -2.17809 -74.2724)
(91.2106 -7.96954 -18.3177)
(91.0103 0.0613244 12.0757)
(-0.0220828 -1.17807 30.537)
(-0.020282 -0.434842 68.2124)
(-0.0171859 -0.7162 86.5273)
(-92.0791 -1.70914 -78.3453)
(-91.2123 -8.47007 -33.0658)
(-91.0811 0.418071 -0.249301)
(86.3835 -1.90592 -120.246)
(85.7631 -3.15782 -109.621)
(86.1457 -1.4328 -106.835)
(-0.0889426 -2.02589 176.335)
(-0.0898973 -2.68532 187.374)
(-0.0903553 -1.55255 183.443)
(-86.7934 -1.71601 -122.927)
(-86.0939 -2.77348 -112.918)
(-86.3711 -1.45374 -109.504)
(92.2768 -34.5675 -10.6129)
(89.6759 -21.6576 -13.0904)
(90.922 -17.4634 -19.5247)
(-0.0271959 4.50153 10.7307)
(-0.0478541 -5.46114 4.62301)
(-0.0578872 -8.31535 -3.66041)
(-92.3464 -31.2157 -8.23074)
(-89.621 -19.1703 -10.7378)
(-91.2085 -15.2403 -16.842)
(93.594 -25.2735 -2.27547)
(91.1471 -11.3574 -18.7714)
(91.5917 -5.88008 -32.4266)
(-0.016275 10.9121 8.35484)
(-0.0359128 -3.05262 8.34938)
(-0.0513597 -4.39297 -7.04669)
(-93.5192 -24.1092 -1.79466)
(-91.3371 -11.8219 -16.2262)
(-91.7482 -4.21141 -30.2527)
(92.9523 -17.6006 3.11773)
(90.1463 -5.6836 -15.3156)
(95.3541 -3.27855 -41.1688)
(-0.0118131 17.4858 11.761)
(-0.0256148 6.47833 19.2632)
(-0.0468907 -4.48601 -11.7628)
(-92.3975 -6.98625 5.53798)
(-91.1007 -9.13358 -12.8372)
(-95.1523 -2.17956 -39.3686)
(92.6688 -11.6936 58.8216)
(93.2147 0.873992 -8.73569)
(93.9696 7.34112 -56.3918)
(-0.025325 2.10998 58.4682)
(-0.0242219 -7.09411 38.3798)
(-0.0285208 6.97034 13.0452)
(-92.7087 -7.2988 56.5866)
(-93.2925 -1.26818 -1.03649)
(-93.8243 6.61133 -55.217)
(91.0859 -0.409103 -0.249746)
(91.2183 8.49425 -33.0664)
(92.0896 1.72387 -78.3278)
(0.021883 0.716264 86.5217)
(0.0249124 0.435874 68.2066)
(0.0268308 1.17829 30.5336)
(-91.0082 -0.0580884 12.0726)
(-91.2097 7.97793 -18.3156)
(-91.8798 2.18413 -74.2676)
(86.3729 1.45406 -109.501)
(86.0956 2.77427 -112.917)
(86.7978 1.71646 -122.944)
(0.0903305 1.55171 183.445)
(0.089878 2.68323 187.375)
(0.0889703 2.02443 176.333)
(-86.1478 1.43287 -106.836)
(-85.7652 3.1581 -109.623)
(-86.3836 1.90588 -120.251)
)
;

boundaryField
{
    fuel
    {
        type            fixedValue;
        value           uniform (0 0 0.25);
    }
    primary_air
    {
        type            fixedValue;
        value           uniform (0 0 2.5);
    }
    Secondary_air_RHS
    {
        type            fixedValue;
        value           uniform (0 25 0);
    }
    Secondary_air_LHS
    {
        type            fixedValue;
        value           uniform (0 -25 0);
    }
    outlet
    {
        type            pressureInletOutletVelocity;
        value           nonuniform List<vector> 
18
(
(0 0 -109.501)
(0.0903305 1.55171 183.445)
(0 0 -106.836)
(0 0 -112.917)
(0.089878 2.68323 187.375)
(0 0 -109.623)
(0 0 -122.944)
(0.0889703 2.02443 176.333)
(0 0 -120.251)
(0 0 -120.246)
(-0.0889426 -2.02589 176.335)
(0 0 -122.927)
(0 0 -109.621)
(-0.0898973 -2.68532 187.374)
(0 0 -112.918)
(0 0 -106.835)
(-0.0903553 -1.55255 183.443)
(0 0 -109.504)
)
;
    }
    stove_body
    {
        type            noSlip;
    }
    frontAndBack
    {
        type            empty;
    }
}


// ************************************************************************* //
