/*--------------------------------*- C++ -*----------------------------------*\
  =========                 |
  \\      /  F ield         | OpenFOAM: The Open Source CFD Toolbox
   \\    /   O peration     | Website:  https://openfoam.org
    \\  /    A nd           | Version:  6
     \\/     M anipulation  |
\*---------------------------------------------------------------------------*/
FoamFile
{
    version     2.0;
    format      ascii;
    class       surfaceScalarField;
    location    "1.5";
    object      phi;
}
// * * * * * * * * * * * * * * * * * * * * * * * * * * * * * * * * * * * * * //

dimensions      [1 0 -1 0 0 0 0];

internalField   nonuniform List<scalar> 
675
(
9.26938e-06
-4.13195e-05
0.000157407
-9.72549e-06
-5.83233e-06
0.000150168
-4.21018e-05
0.000157622
-1.43119e-05
4.13166e-05
0.000139303
1.49984e-05
5.83325e-06
0.000166821
4.21025e-05
0.000138803
9.26863e-06
0.000157404
-9.72565e-06
0.000150168
0.000157622
4.31778e-06
-5.91125e-05
0.000212638
-4.70512e-06
-7.53005e-06
0.000167133
-5.98546e-05
0.000213101
-3.03127e-05
5.91111e-05
5.09061e-05
3.06346e-05
7.53042e-06
9.05115e-05
5.98561e-05
4.96356e-05
4.31776e-06
0.000212634
-4.70484e-06
0.000167133
0.000213103
-9.16684e-06
9.73277e-05
8.87372e-06
2.46068e-05
9.73952e-05
3.48314e-05
-9.73251e-05
-3.42921e-05
-2.46065e-05
-9.73944e-05
-9.16882e-06
8.87173e-06
0.00352049
0.0027096
-0.0029827
0.00245917
0.00391389
0.000455299
0.00595079
-0.000401928
0.00406711
-0.00236508
0.00649752
-0.00283308
-0.00309076
0.0193947
-0.00592057
0.014506
0.00358013
-0.00270078
0.00327514
0.00047444
0.000609351
0.00555527
0.00470438
-0.013234
-0.00880036
0.000253065
0.0145663
0.00593237
-0.015129
-0.00110292
-0.00447322
0.0168121
0.00057537
-0.000250674
0.0182854
-0.00561246
0.0265946
0.00537221
-0.0125391
-0.00905252
0.0146549
-0.0140514
0.0016915
0.0134723
-0.0283906
-0.00103445
-0.00154293
0.0188401
0.0156163
-0.031777
-0.0399292
-0.0132909
0.0835225
0.0300245
0.00146132
-0.0546661
-0.0160019
0.0882275
0.00180145
-0.0276253
-0.00130302
0.0192224
-0.0313468
-0.018277
-0.0177182
-0.0110151
0.0470195
0.0171367
0.00515193
-0.0264206
-0.0141353
-0.0168705
-0.0186451
0.0526563
-0.00338359
0.0179934
0.0207078
-0.0530215
-0.00770705
-0.00423937
-0.0602786
0.0739867
0.0156309
0.0155525
-0.0557549
-0.0177411
-0.0103463
0.0460896
0.0168131
-0.0241205
-0.0146641
-0.0203266
0.0527802
0.00498131
-0.00918913
-0.00680637
-0.0044335
0.00424056
-0.0212372
-0.00597453
-0.0171209
0.00228183
0.0104189
-0.00116981
-0.0233946
-0.00369902
-0.0267008
0.0017863
-0.0156316
0.00615424
-0.00607885
-0.00208607
-0.019571
-0.0206568
0.0137534
-0.00459561
-0.0159655
0.00331008
0.0026496
-0.0134456
-0.00138439
-0.0124286
0.00324731
0.0120453
-0.0210848
-0.00325707
0.000269251
-0.0178384
-0.00359476
-0.0166995
0.0211516
-0.0151887
0.0145046
-0.0126545
-0.00974416
-0.000796173
-0.000852616
-0.034458
0.000644938
-0.000630604
0.0180299
-0.000615259
-0.0384673
-0.00318928
0.000885582
0.0723066
0.00148378
0.000632648
-0.0606029
0.000536276
0.0755452
-0.000793346
-0.033648
0.000616321
0.0184455
-0.0381767
-0.00120577
-0.00016262
-0.040773
0.00121302
-0.000542366
0.0161538
0.000286987
-0.0454753
-0.00304484
0.0002411
0.0623787
0.00198159
0.000542586
-0.0667147
-0.000353203
0.0652026
-0.00118788
-0.0398862
0.00116433
0.016636
-0.0453373
-0.00172515
0.000229426
0.00139939
-0.00110572
0.000598838
-0.00285557
-0.000193796
0.00218987
0.00112036
-0.000794489
-0.00171689
0.00137545
0.00320729
-0.00116111
-0.00626231
-0.0117502
-0.00652555
-0.00055494
-0.00315866
-0.00133334
-0.00598133
-0.01164
0.00488654
0.00172045
-0.0141752
-0.014683
-0.0045371
0.000617331
-0.00959161
0.000791122
-0.0113889
-0.0119762
0.00730335
-0.00821819
-0.0125543
-0.001548
-0.00318604
-0.00196618
-0.00853561
0.00157547
0.000774755
-0.000438473
-0.00817492
-0.0047553
0.00138188
0.00178911
5.33747e-05
-0.00193393
-0.00885763
0.00140544
9.20491e-05
-0.00539237
-0.0095109
-0.00294615
-0.000244994
-0.00361762
-0.000141789
-0.00569119
-0.00845273
0.00177558
-0.00123857
-0.00866395
-0.00385545
0.00219974
0.000142962
-0.00610718
-0.00108316
0.00154941
-0.000904195
-0.000921449
0.00162649
0.000857864
-0.00371421
0.000373089
-0.0010053
-0.00321672
-0.000707355
-0.000915193
-0.000596291
-0.00494856
-0.000475799
-0.00176877
0.000808467
0.000354598
-0.0107024
-0.000343999
-0.000593379
-0.010841
0.0012914
-0.00115236
0.00157597
-0.00358252
-0.00883448
-0.0117716
0.000274002
-0.000823852
-0.00962626
-0.00116909
0.000314313
-0.00115601
0.00111013
-0.00800498
-0.00768933
-0.000572955
-0.00776413
-0.00109489
-0.00459953
-0.0043209
-0.00880015
-0.000352405
-0.000298848
-0.00867933
0.000636342
-0.00190954
0.000445007
-0.00421372
-0.00849332
-0.00960627
1.44463e-05
-3.8492e-05
-0.00845773
-0.000528297
0.000329336
0.000182813
0.000998361
-0.00808439
-0.00636336
-0.000302973
-0.0066641
-0.00132305
-0.0056886
-0.00539261
-0.00394601
-6.744e-05
-0.00513163
-0.000724244
-0.0011811
-0.00816367
-0.00491354
-0.000142334
-0.0053059
-3.6081e-06
0.00105068
-0.00653985
-9.11716e-05
-0.00141843
-0.00605716
0.0105397
0.00138152
-0.0043938
-0.00752761
0.0105867
0.00139375
-0.00144094
-0.000218518
-0.000945161
0.0114931
-0.00134826
0.00128544
-0.0100496
0.0140519
-0.00143625
0.000270246
0.000359448
-0.00121047
0.0112084
-0.00465057
-0.00790639
0.011141
-0.00136914
-0.00105415
0.00823361
0.000110053
-0.00515418
-0.00758349
0.00846947
0.000726155
-0.00240312
-2.17701e-05
-0.000629059
0.00929796
-1.82155e-05
0.00143726
-0.00932228
0.0108573
-0.000705928
0.00014195
0.00030851
-0.00019577
0.0087866
-0.00546858
-0.00798719
0.008996
-0.00228474
-0.000413845
0.00397955
-0.00121549
-0.0079186
0.0019102
-0.000334
0.000376741
0.003631
0.00131729
-0.00472728
0.00288523
0.000552667
-0.000151882
0.00406725
-0.00821913
0.00233481
-0.00172656
0.00149558
0.000230551
0.00216026
0.00162969
-0.00551679
0.00109378
-0.00646141
-0.00114571
-0.00155422
0.00419498
0.00522797
-0.00168278
-0.0030617
-0.00120025
-0.00252814
-0.00172222
0.00016756
0.00238091
-0.00578625
-0.00672604
-0.000746021
0.00150365
-0.000527542
0.0043741
0.00141102
-0.0120482
0.000710877
-0.0103819
1.6497e-05
-0.00154204
0.00722372
0.00534842
-0.00145639
-0.00552654
-0.000795262
-0.00499626
-0.000712381
-0.000662488
0.00467057
-0.012626
-0.0108384
-0.0030878
0.00135691
0.00120279
0.00665385
0.00380026
-0.0255906
0.00159494
-0.0132419
-0.000337658
-0.00137896
0.0102969
0.00463852
-0.00398562
-0.00271698
-0.00154198
-0.00194841
-0.00322261
0.00118084
0.00698716
-0.0268218
-0.0136129
0.0104229
0.00840962
-0.0176324
-0.00172574
0.0104032
-0.0238479
0.0102888
-0.0252592
-0.00245481
-0.00823637
0.0293976
-0.00430579
-0.0103063
0.0198439
-0.0100334
0.0140686
0.0108602
-0.0179197
-0.00193121
-0.0243405
-0.0255812
0.00391832
0.00717141
-0.0287227
0.00358146
0.00661997
-0.0301316
0.00723203
-0.0289105
0.00608478
-0.0069492
0.037435
0.00394208
-0.00640776
0.0350159
-0.00703611
0.0322802
0.00398197
-0.0288517
0.00349113
-0.0302582
-0.029127
0.000545397
0.0191566
-0.000230759
0.0191314
0.0193152
0.00337067
-0.0190595
0.00280538
-0.0190342
-0.0192088
0.000569935
-0.000177863
-0.00607163
0.00132687
-0.00408984
-0.00371307
0.00125061
-0.00360932
0.00140235
-0.00511585
-0.00490548
-0.000970234
-0.000802718
-0.00276851
-0.00108794
0.000201511
-0.00104672
-0.000319241
-8.18883e-05
-0.00520924
0.00152371
-0.00269363
0.000476925
-0.00586733
0.000794563
-0.00751039
-0.00302729
0.00112334
-0.00757283
0.00132837
-0.00947312
-0.00561061
-0.00033831
-0.00214397
-0.00244072
-0.000590398
-0.00125478
-0.000960183
-0.000471333
-0.00252554
-0.00841463
0.000383594
-0.00619319
-9.96617e-05
-0.00451002
0.00103116
-0.0121952
-0.0036758
0.00202141
-0.0104289
0.00283752
-0.0159887
-0.0060433
-0.00131255
-0.000296893
-0.00289618
-0.00181584
-0.000564745
-0.00120154
0.000671072
-0.00114609
-0.0146385
0.000575739
-0.00973089
-0.00072541
0.00200635
0.00824648
-0.0224487
0.00479167
0.00887926
-0.0220936
0.0104446
-0.0216385
0.00148831
-0.0106175
0.0170847
0.000520438
-0.0100559
0.0193428
-0.00944037
0.0210802
-0.00469668
-0.0205539
-0.00507357
-0.0194062
-0.0152363
-0.000798406
0.00620247
-0.0278495
-0.000496292
0.00577527
-0.0281669
0.0058171
-0.027946
-0.00105876
-0.00841514
0.0327692
-0.00154327
-0.00820655
0.0338179
-0.00869843
0.0340598
-0.00210925
-0.0268558
-0.00230082
-0.0274169
-0.0262315
7.32847e-05
0.0196087
-5.74033e-05
0.0195372
0.0195705
-0.000810615
-0.0201986
-0.000849737
-0.0201164
-0.0202479
-2.16371e-05
-0.00051503
)
;

boundaryField
{
    fuel
    {
        type            calculated;
        value           nonuniform List<scalar> 
36
(
0.000124921
0.000208109
0.000124921
0.000124921
0.000208109
0.000124921
0.00012492
0.000208109
0.00012492
-0.000124921
-0.000208109
-0.000124921
-0.000124921
-0.000208109
-0.000124921
-0.000124921
-0.000208109
-0.000124921
0
0
0
0
0
0
0
0
0
0
0
0
0
0
0
0
0
0
)
;
    }
    primary_air
    {
        type            calculated;
        value           nonuniform List<scalar> 9(-0.00321938 -0.00535169 -0.00321872 -0.00321776 -0.00535104 -0.00321696 -0.00321731 -0.00535383 -0.00321658);
    }
    Secondary_air_RHS
    {
        type            calculated;
        value           nonuniform List<scalar> 9(0.00795067 0.0130149 0.00798302 0.00793414 0.0129647 0.00797228 0.00798172 0.0130313 0.00802447);
    }
    Secondary_air_LHS
    {
        type            calculated;
        value           nonuniform List<scalar> 9(0.00771662 0.012668 0.00770204 0.00768389 0.0125701 0.00766772 0.00774282 0.0126369 0.00772702);
    }
    outlet
    {
        type            calculated;
        value           nonuniform List<scalar> 
18
(
-0.0475248
0.0733946
-0.0470286
-0.0475666
0.0735204
-0.0470356
-0.0475673
0.0730366
-0.0469903
-0.0484252
0.0722824
-0.0484814
-0.0484873
0.0737488
-0.0485449
-0.0484568
0.0736114
-0.0485138
)
;
    }
    stove_body
    {
        type            calculated;
        value           uniform 0;
    }
    frontAndBack
    {
        type            empty;
        value           nonuniform 0();
    }
}


// ************************************************************************* //
