/*--------------------------------*- C++ -*----------------------------------*\
  =========                 |
  \\      /  F ield         | OpenFOAM: The Open Source CFD Toolbox
   \\    /   O peration     | Website:  https://openfoam.org
    \\  /    A nd           | Version:  6
     \\/     M anipulation  |
\*---------------------------------------------------------------------------*/
FoamFile
{
    version     2.0;
    format      ascii;
    class       volScalarField;
    location    "1.5";
    object      Qdot;
}
// * * * * * * * * * * * * * * * * * * * * * * * * * * * * * * * * * * * * * //

dimensions      [1 -1 -3 0 0 0 0];

internalField   nonuniform List<scalar> 
297
(
0
0
0.000236109
0
0
0.000284565
0
0
0
0
0
0
0
0
0
0.000236109
0
0
0.000142282
0
0
-5.4799e-09
0
0
0
9.38264e-05
0
0
0
1.0069e-10
0
0
4.0276e-10
2.51725e-11
5.0345e-11
0
0
0
0
3.42493e-10
0
0
0
-3.41707e-10
0
-1.71247e-10
0
0
1.25863e-11
0
0
-1.71247e-10
0
0
0
0
0
0
0
0
0
0
3.93321e-13
0
0
0
-3.42493e-10
1.20032e-17
-1.36997e-09
0
0
-1.36997e-09
0
-2.73995e-09
0
0
0
0
0
-2.73995e-09
0
0
0
0
1.57328e-12
-1.36997e-09
0
0
1.57328e-12
0
0
0
0
-3.42493e-10
0
0
0
1.57328e-12
-3.42493e-10
-3.42493e-10
0
0
0
0
0
-3.42493e-10
1.57328e-12
-6.84987e-10
0
0
0
0
0
0
-2.73995e-09
0
8.94308e-26
0
0
0
0
8.73347e-29
0
0
0
0
0
1.09168e-29
0
1.09168e-29
0
0
-2.73995e-09
0
-2.73995e-09
3.41151e-31
1.04111e-35
0
0
1.33262e-33
0
0
0
-2.73995e-09
-2.73995e-09
5.20556e-36
0
0
0
0
0
0
0
0
0
-2.73995e-09
0
0
8.13368e-38
8.73347e-29
0
0
0
0
0
0
0
0
0
0
1.09168e-29
0
0
0
6.35444e-40
5.20556e-36
0
9.92881e-42
0
0
0
0
6.66311e-34
0
0
-5.4799e-09
0
0
0
0
-2.73995e-09
0
0
-5.4799e-09
-5.4799e-09
3.78754e-47
0
0
-2.73995e-09
0
0
0
0
0
0
-2.73995e-09
0
2.31173e-51
0
0
1.89377e-47
-1.47951e-49
0
0
-2.73995e-09
0
0
7.22416e-53
0
-5.4799e-09
0
3.69877e-50
0
1.44483e-52
2.31173e-51
-2.73995e-09
0
1.12877e-54
-2.73995e-09
-2.73995e-09
0
0
9.0302e-54
0
0
0
0
0
0
0
0
0
-2.73995e-09
0
-2.73995e-09
4.73443e-48
0
0
0
0
1.2411e-42
-2.73995e-09
3.87844e-44
0
5.91803e-49
-5.4799e-09
0
0
-2.73995e-09
-2.73995e-09
0
0
0
0
-5.4799e-09
0
0
0
0
-2.73995e-09
0
0
0
0
-5.4799e-09
0
0
0
0
0
4.62346e-51
-2.73995e-09
0
0
0
7.39754e-50
0
0
-2.73995e-09
2.88966e-52
0
0
-2.73995e-09
-2.73995e-09
9.24692e-51
0
0
)
;

boundaryField
{
    fuel
    {
        type            calculated;
        value           uniform 0;
    }
    primary_air
    {
        type            calculated;
        value           uniform 0;
    }
    Secondary_air_RHS
    {
        type            calculated;
        value           uniform 0;
    }
    Secondary_air_LHS
    {
        type            calculated;
        value           uniform 0;
    }
    outlet
    {
        type            calculated;
        value           uniform 0;
    }
    stove_body
    {
        type            calculated;
        value           uniform 0;
    }
    frontAndBack
    {
        type            empty;
    }
}


// ************************************************************************* //
