/*--------------------------------*- C++ -*----------------------------------*\
  =========                 |
  \\      /  F ield         | OpenFOAM: The Open Source CFD Toolbox
   \\    /   O peration     | Website:  https://openfoam.org
    \\  /    A nd           | Version:  6
     \\/     M anipulation  |
\*---------------------------------------------------------------------------*/
FoamFile
{
    version     2.0;
    format      ascii;
    class       volScalarField;
    location    "1.5";
    object      T;
}
// * * * * * * * * * * * * * * * * * * * * * * * * * * * * * * * * * * * * * //

dimensions      [0 0 0 1 0 0 0];

internalField   nonuniform List<scalar> 
297
(
292.84
292.838
292.84
292.943
292.95
292.943
292.84
292.838
292.84
292.848
292.846
292.848
293.131
293.953
293.13
292.848
292.846
292.848
292.663
292.616
292.663
301.092
416.63
301.184
292.663
292.616
292.663
1822.4
1151.8
704.576
659.397
679.295
392.999
1831.77
1243.19
599.326
3285.64
2509.01
2052.02
2419.91
765.419
1153.11
3452.46
2469.78
1911.58
3288.64
2429.48
2054.66
2043.48
961.217
1284.76
3455.38
2415.41
1958.3
1978.8
1216.38
1279.97
2900.35
1017.57
2094.5
2061.3
1316.24
1211.42
1774.43
601.414
556.873
2768.01
832.019
1246.34
1908.53
699
378.482
300.178
300.125
299.718
300.506
299.83
299.652
300.306
300.214
299.879
3247.72
2391.37
2035.45
2235.75
1017.44
1544.46
3409.38
2378.35
1942.84
2672.85
2364.07
1584.17
2555.62
1017.09
1787.61
2797.6
2352.43
1506.42
2272.55
2309.61
1461.52
2970.62
1017.39
2072.25
2371.47
2299.28
1388.78
299.914
299.934
299.456
300.214
299.944
299.596
299.949
300.022
299.253
300.095
299.842
299.633
300.353
299.898
299.688
300.143
299.717
299.38
299.71
299.744
299.698
300.291
299.865
299.697
300.128
299.71
299.623
299.416
299.459
299.53
299.545
299.556
299.605
299.204
299.224
299.335
299.576
299.523
299.529
299.653
299.646
299.655
299.35
299.335
299.331
299.708
299.625
299.541
299.69
299.683
299.662
299.509
299.372
299.34
300.013
299.91
299.867
300.218
300.149
300.137
300.066
299.935
299.884
300.14
300.107
300.151
300.303
300.29
300.299
300.185
300.142
300.189
300.162
300.225
300.224
300.473
300.495
300.488
300.203
300.276
300.319
299.961
300.057
300.045
300.277
300.313
300.286
300.212
300.129
300.095
300.136
300.085
300.06
300.23
300.331
300.366
300.221
300.13
300.105
300.196
300.066
300.015
300.192
300.301
300.487
300.236
300.111
300.057
299.899
300.026
299.908
298.922
299.995
300.776
299.964
300.069
299.951
297.687
297.508
297.753
298.03
298.227
299.013
297.665
297.527
297.736
291.613
291.496
291.487
286.605
286.413
286.556
291.626
291.511
291.502
299.665
299.875
299.919
299.643
299.689
299.722
299.294
299.193
299.192
299.551
299.736
299.836
299.68
299.723
299.776
299.234
299.157
299.178
299.518
299.619
299.739
299.666
299.69
299.855
299.186
299.129
299.086
299.465
299.495
299.417
299.251
299.362
298.567
299.171
299.117
299.026
297.347
297.337
297.304
298.549
298.397
297.898
297.238
297.036
297.137
291.366
291.367
291.409
285.993
285.856
285.977
291.26
291.258
291.286
)
;

boundaryField
{
    fuel
    {
        type            fixedValue;
        value           uniform 293;
    }
    primary_air
    {
        type            fixedValue;
        value           uniform 293;
    }
    Secondary_air_RHS
    {
        type            fixedValue;
        value           uniform 293;
    }
    Secondary_air_LHS
    {
        type            fixedValue;
        value           uniform 293;
    }
    outlet
    {
        type            inletOutlet;
        inletValue      uniform 293;
        value           nonuniform List<scalar> 
18
(
293
285.993
293
293
285.856
293
293
285.977
293
293
286.605
293
293
286.413
293
293
286.556
293
)
;
    }
    stove_body
    {
        type            fixedValue;
        value           uniform 293;
    }
    frontAndBack
    {
        type            empty;
    }
}


// ************************************************************************* //
