/*--------------------------------*- C++ -*----------------------------------*\
  =========                 |
  \\      /  F ield         | OpenFOAM: The Open Source CFD Toolbox
   \\    /   O peration     | Website:  https://openfoam.org
    \\  /    A nd           | Version:  6
     \\/     M anipulation  |
\*---------------------------------------------------------------------------*/
FoamFile
{
    version     2.0;
    format      ascii;
    class       surfaceScalarField;
    location    "2";
    object      phi;
}
// * * * * * * * * * * * * * * * * * * * * * * * * * * * * * * * * * * * * * //

dimensions      [1 0 -1 0 0 0 0];

internalField   nonuniform List<scalar> 
675
(
1.26835e-05
-4.37261e-05
0.000155131
-1.26895e-05
2.03576e-06
0.000147436
-4.3724e-05
0.000155123
-2.02766e-05
4.37353e-05
0.000139507
2.02852e-05
-2.03554e-06
0.000170221
4.37157e-05
0.000139538
1.26667e-05
0.000155157
-1.27067e-05
0.000147437
0.000155098
7.61879e-06
-6.12002e-05
0.000208731
-7.62675e-06
5.21151e-07
0.00016219
-6.11942e-05
0.00020871
-3.75708e-05
6.12014e-05
5.46302e-05
3.75879e-05
-5.2063e-07
9.60772e-05
6.11938e-05
5.46923e-05
7.64789e-06
0.000208729
-7.59839e-06
0.000162192
0.000208712
2.38981e-06
8.22905e-05
-2.52015e-06
4.30602e-05
8.2139e-05
1.24098e-05
-8.22968e-05
-1.21573e-05
-4.30626e-05
-8.21328e-05
2.38161e-06
-2.52891e-06
0.0043232
0.00301246
-0.00411051
0.00447713
0.00244331
0.000622074
0.00443346
0.00326361
0.00885726
-0.00283915
0.0023544
0.00426169
-0.00214745
0.0145446
-0.00376299
0.0178218
0.00426583
-0.0038804
0.00446177
0.000875412
0.00391791
0.0050027
0.00611379
-0.015227
-0.00916457
-0.000460338
0.01525
0.00513065
-0.0110312
0.00228645
-0.00599715
0.012179
0.004517
0.000587306
0.0112676
-0.00485634
0.0323268
0.00490905
-0.0147866
-0.00904523
0.0154174
-0.00998327
0.000331406
0.0139468
-0.0295055
-0.00371581
-0.00559636
0.0248936
0.0150822
-0.0298296
-0.0372501
-0.0139413
0.0773167
0.0224848
0.00550049
-0.0595652
-0.0154849
0.0853783
0.00034065
-0.0290688
-0.0041543
0.0254127
-0.029623
-0.0190937
-0.0172075
-0.0106291
0.0469294
0.0152402
0.00810767
-0.0225747
-0.0198689
-0.0158305
-0.0192437
0.0503131
-0.00199643
0.0174138
0.0161784
-0.0488045
-0.00696383
-0.00735856
-0.056961
0.0773914
0.0150764
0.0149029
-0.0527759
-0.0187907
-0.0101676
0.046371
0.0149902
-0.0206854
-0.0204563
-0.020541
0.0506057
0.00366188
-0.00854103
-0.00575175
-0.00408415
0.00616448
-0.0209985
-0.00669834
-0.0166335
0.000834164
0.0094081
-0.00260726
-0.0208077
-0.00537745
-0.0237851
0.0031551
-0.0157625
0.00474332
-0.00550468
-0.00193373
-0.0193926
-0.0193317
0.0114761
-0.00212784
-0.0151256
0.000606047
0.00239116
-0.012536
-0.00416006
-0.0118769
0.00590558
0.0100904
-0.0207685
0.000844335
0.00107177
-0.0174391
-0.00304683
-0.0160597
0.0191491
-0.0145823
0.0129206
-0.0121155
-0.00948615
-0.000859543
-0.000578803
-0.0353492
0.000578332
-0.000503212
0.0239588
-0.000676621
-0.0363809
-0.00340189
0.000594072
0.0675603
0.00158952
0.000501809
-0.0655619
0.000605652
0.0727695
-0.000862879
-0.0348783
0.000556784
0.0244948
-0.0363017
-0.00115448
-0.000183101
-0.0412549
0.00110193
-0.00044729
0.0221496
0.000158039
-0.0432224
-0.00277718
0.000211117
0.0580863
0.00252097
0.000446371
-0.0717541
-0.000255874
0.0628784
-0.00115221
-0.040741
0.00106459
0.0227242
-0.0433185
-0.00186047
0.000185683
0.00112677
-0.000706533
0.000377567
-0.00235361
-0.000168158
0.00186401
0.000712786
-0.000512304
-0.001871
0.00110964
0.0030139
-0.000746053
-0.00616617
-0.0112329
-0.00621714
-0.000403044
-0.00290521
-0.000974753
-0.00614047
-0.0109816
0.00478385
0.00125839
-0.0132004
-0.0143625
-0.00451391
0.000640393
-0.00919037
0.000593109
-0.0105977
-0.0115495
0.00700904
-0.00832424
-0.0120115
-0.00127232
-0.00319739
-0.00232789
-0.00784051
0.00122916
0.000708373
-0.000526255
-0.00758287
-0.00422102
0.00114651
0.00139514
1.18207e-06
-0.00214169
-0.00822488
0.00178702
0.000142647
-0.00482991
-0.00959725
-0.00284375
-3.01025e-05
-0.00338744
-2.43939e-05
-0.00501854
-0.00840266
0.00128366
-0.0014805
-0.00798738
-0.0033937
0.0014469
-0.000381307
-0.00536683
-0.000838865
0.00121605
-0.000908707
-0.000692464
0.0012453
0.000480916
-0.00332016
0.000858773
-0.000526809
-0.00395102
-0.00080603
-0.000480724
-7.64011e-05
-0.00527224
-0.000204266
-0.00180569
0.000759317
0.000300223
-0.0100648
-0.000180952
-0.000738263
-0.0101714
0.00124373
-0.00113827
0.00153328
-0.00338683
-0.00831846
-0.0111859
0.00013421
-0.000682165
-0.00924814
-0.00110543
0.000408434
-0.00110663
0.00104362
-0.00765399
-0.00703568
-0.000672488
-0.00699277
-0.00114978
-0.00430246
-0.00379804
-0.00831778
-0.000221703
-0.000424857
-0.00818292
0.000593768
-0.00186697
0.000537668
-0.00403084
-0.00807698
-0.009352
-1.04256e-05
5.31797e-05
-0.00833516
-0.000486472
0.000469306
1.22738e-05
0.00124675
-0.00801455
-0.00566207
-0.000389146
-0.0060182
-0.00128141
-0.00530111
-0.00500809
-0.00357541
-0.00016898
-0.0047033
-0.000738056
-0.00089978
-0.00783429
-0.00537022
-2.0276e-05
-0.0057114
7.02201e-05
0.000783003
-0.00614822
-0.000110256
-0.00132252
-0.00584112
0.0101334
0.00141694
-0.00428289
-0.00726902
0.0101781
0.00137875
-0.00142506
-5.94287e-05
-0.000997053
0.0113116
-0.0013916
0.00114921
-0.00965389
0.013669
-0.00140576
0.000425552
0.000184213
-0.000938834
0.0107191
-0.00448334
-0.00762745
0.0106952
-0.00138188
-0.00113258
0.00780122
0.000273787
-0.00502201
-0.00733743
0.00802815
0.000687018
-0.00234066
5.66968e-05
-0.000610251
0.00939225
-0.00020158
0.00138114
-0.00915045
0.010849
-0.000658641
0.000312843
0.000157121
0.000210786
0.00827796
-0.00526638
-0.00769663
0.00852872
-0.00229137
-0.000434396
0.00374557
-0.000947828
-0.0078213
0.00181307
-0.00040985
0.000292279
0.00422945
0.0010301
-0.00482792
0.00345054
0.000680165
9.36028e-07
0.00385055
-0.00808707
0.00223923
-0.00165796
0.00146756
0.000189306
0.00209028
0.00158829
-0.00533765
0.00109977
-0.00627965
-0.00103402
-0.00153221
0.00403243
0.00500919
-0.00166576
-0.00279054
-0.00119784
-0.0023484
-0.00165011
0.000117273
0.00229441
-0.00561084
-0.00653127
-0.000700376
0.00148419
-0.000595508
0.00423494
0.00139092
-0.0116649
0.0007503
-0.0101335
3.81694e-05
-0.00152476
0.0070019
0.00516944
-0.00145725
-0.00507496
-0.0008336
-0.00474676
-0.000666983
-0.000741039
0.00451049
-0.0122461
-0.0105514
-0.00306718
0.00136762
0.00110323
0.00654771
0.00363383
-0.0249145
0.00159256
-0.0130006
-0.00025979
-0.00138814
0.0100163
0.00448023
-0.0038062
-0.00237611
-0.00159148
-0.00191155
-0.00316586
0.0010362
0.00688939
-0.026108
-0.0133409
0.0100194
0.00850934
-0.0174254
-0.00165189
0.0102294
-0.0234723
0.0102099
-0.0248622
-0.00212795
-0.00835113
0.0290026
-0.00412166
-0.01014
0.0199852
-0.00997412
0.0141493
0.0103945
-0.0177115
-0.00186862
-0.0239869
-0.0251855
0.00380579
0.0071839
-0.0284142
0.00352862
0.00663244
-0.0298267
0.00723645
-0.0285691
0.00587806
-0.00695186
0.0372612
0.00387681
-0.0064111
0.0350308
-0.00702848
0.0322919
0.00388198
-0.0285465
0.00343663
-0.0299537
-0.0287785
0.000535946
0.0192659
-0.000248801
0.0192287
0.0194291
0.00323625
-0.0191684
0.00272662
-0.0191311
-0.019323
0.000556581
-0.000201063
-0.00572832
0.00129621
-0.00388752
-0.00346701
0.00124958
-0.00351194
0.0013891
-0.00485708
-0.00472489
-0.000869045
-0.000765265
-0.00270562
-0.000971082
0.000200449
-0.000932165
-0.000384638
-4.36491e-05
-0.0046242
0.00126471
-0.00228014
0.000332005
-0.005651
0.000881425
-0.00719593
-0.00290591
0.001155
-0.00741266
0.00131702
-0.0090805
-0.00528609
-0.000363754
-0.00224962
-0.00230305
-0.000603351
-0.00102503
-0.000866801
-0.000504213
-0.00249204
-0.00750444
0.00017672
-0.00555258
-0.000358313
-0.00448353
0.00112093
-0.0116686
-0.00366598
0.00189312
-0.0101238
0.00269052
-0.0154371
-0.00560595
-0.00131061
-0.00036072
-0.00274032
-0.00171573
-0.00028211
-0.00115378
0.000599544
-0.00139528
-0.013261
0.000431767
-0.00909538
-0.00108036
0.00187465
0.00818468
-0.0217233
0.0045308
0.00879847
-0.0215741
0.0102969
-0.0211979
0.00123767
-0.0105568
0.0171491
0.000635176
-0.00992452
0.0190487
-0.0095043
0.02104
-0.00401537
-0.0198039
-0.00409552
-0.0189418
-0.0146826
-0.00068048
0.00619745
-0.0272371
-0.000422366
0.00575352
-0.0275835
0.00578593
-0.0274048
-0.000910288
-0.0084879
0.0327564
-0.00150984
-0.00828732
0.0337
-0.00874345
0.0340697
-0.00199317
-0.0262929
-0.00227296
-0.0269439
-0.0256942
0.000105587
0.0197834
-2.47305e-05
0.0197129
0.0197367
-0.000740034
-0.0203458
-0.000875719
-0.0202584
-0.0203881
1.1148e-05
-0.000534951
)
;

boundaryField
{
    fuel
    {
        type            calculated;
        value           nonuniform List<scalar> 
36
(
0.000124069
0.000206738
0.000124069
0.000124069
0.000206738
0.000124069
0.000124069
0.000206738
0.000124069
-0.000124069
-0.000206738
-0.000124069
-0.000124069
-0.000206738
-0.000124069
-0.000124069
-0.000206738
-0.000124069
0
0
0
0
0
0
0
0
0
0
0
0
0
0
0
0
0
0
)
;
    }
    primary_air
    {
        type            calculated;
        value           nonuniform List<scalar> 9(-0.00322456 -0.00535806 -0.00322398 -0.00321841 -0.00535457 -0.00321791 -0.00321755 -0.0053566 -0.00321702);
    }
    Secondary_air_RHS
    {
        type            calculated;
        value           nonuniform List<scalar> 9(0.00780626 0.0129159 0.00784102 0.0077853 0.0128258 0.00782548 0.00783983 0.0128562 0.00788436);
    }
    Secondary_air_LHS
    {
        type            calculated;
        value           nonuniform List<scalar> 9(0.00728203 0.0119854 0.0072664 0.00724332 0.0118569 0.00722603 0.00734924 0.0119891 0.00733276);
    }
    outlet
    {
        type            calculated;
        value           nonuniform List<scalar> 
18
(
-0.0471157
0.073644
-0.0466421
-0.0471557
0.073825
-0.0466485
-0.0471558
0.0733365
-0.0466095
-0.048217
0.0724583
-0.0482726
-0.0482715
0.0738993
-0.0483283
-0.0482479
0.0737696
-0.0483036
)
;
    }
    stove_body
    {
        type            calculated;
        value           uniform 0;
    }
    frontAndBack
    {
        type            empty;
        value           nonuniform 0();
    }
}


// ************************************************************************* //
