/*--------------------------------*- C++ -*----------------------------------*\
  =========                 |
  \\      /  F ield         | OpenFOAM: The Open Source CFD Toolbox
   \\    /   O peration     | Website:  https://openfoam.org
    \\  /    A nd           | Version:  6
     \\/     M anipulation  |
\*---------------------------------------------------------------------------*/
FoamFile
{
    version     2.0;
    format      ascii;
    class       volScalarField;
    location    "2";
    object      Qdot;
}
// * * * * * * * * * * * * * * * * * * * * * * * * * * * * * * * * * * * * * //

dimensions      [1 -1 -3 0 0 0 0];

internalField   nonuniform List<scalar> 
297
(
0.000353922
0.000140644
0.000353922
0.000426557
0
0
0.000353922
0.000353922
0.000140644
0.000213278
0.000213278
0
0.000281288
0
0
0
0.000353922
0.000140644
0.000213278
0
0
8.79024e-06
4.42403e-05
2.66598e-05
0.000213278
0.000213278
0.000353922
1.88665e-11
0
-8.75849e-10
0
-2.05356e-09
3.01865e-10
-2.37829e-10
3.77331e-11
-8.75849e-10
0
4.71664e-12
9.43327e-12
0
0
-1.02678e-09
0
-2.56695e-10
0
0
-5.08674e-10
-5.13391e-10
0
0
0
0
0
0
-5.13391e-10
-5.13391e-10
-5.13391e-10
0
2.35832e-12
0
1.17916e-12
-5.13391e-10
1.17916e-12
0
0
7.19702e-17
0
-2.05356e-09
0
0
-1.02678e-09
-2.05356e-09
0
1.75708e-20
2.19636e-21
0
0
4.39271e-21
1.40567e-19
-4.10713e-09
8.78542e-21
-2.56695e-10
0
0
-5.13391e-10
-1.02678e-09
-1.00791e-09
0
4.71664e-12
-5.13391e-10
-2.56695e-10
0
-5.13391e-10
0
-1.02678e-09
-5.13391e-10
-2.56695e-10
4.71664e-12
0
0
4.71664e-12
-5.13391e-10
-2.56695e-10
-1.02678e-09
-5.13391e-10
-2.56695e-10
4.71664e-12
0
0
1.07244e-24
0
8.57951e-24
2.14488e-24
0
-4.10713e-09
-4.10713e-09
0
1.0473e-27
5.23652e-28
0
1.0473e-27
0
0
1.0473e-27
2.09461e-27
-4.10713e-09
0
0
2.55689e-31
-8.21425e-09
5.23652e-28
0
2.61826e-28
0
0
0
0
0
-8.21425e-09
-8.21425e-09
0
0
0
0
-4.10713e-09
0
3.04806e-38
5.11379e-31
2.55689e-31
0
0
0
0
0
0
-4.10713e-09
0
1.59806e-32
0
-4.10713e-09
3.27282e-29
-4.10713e-09
3.04806e-38
1.99757e-33
6.54565e-29
0
0
0
6.09611e-38
1.99757e-33
0
1.19065e-40
-4.10713e-09
0
0
0
0
1.19065e-40
1.95076e-36
0
5.95323e-41
0
0
0
3.90151e-36
0
0
0
0
0
0
1.86039e-42
0
-8.21425e-09
1.86039e-42
0
0
3.72077e-42
0
-4.10713e-09
3.63357e-45
4.54196e-46
0
2.32548e-43
-4.10713e-09
0
0
-4.10713e-09
-4.10713e-09
1.81678e-45
0
0
0
0
5.54438e-50
0
0
0
0
1.13549e-46
0
-8.21425e-09
0
1.73262e-51
0
-4.10713e-09
1.08289e-52
-4.10713e-09
-4.10713e-09
0
-4.10713e-09
4.33155e-52
0
1.35361e-53
5.41443e-53
0
0
-4.10713e-09
-4.10713e-09
0
1.08289e-52
0
0
0
0
0
0
2.97662e-41
0
1.21922e-37
-4.10713e-09
-4.10713e-09
0
0
-4.10713e-09
3.81007e-39
0
7.44154e-42
6.09611e-38
-4.10713e-09
0
0
-4.10713e-09
0
7.62014e-39
0
1.16274e-43
6.09611e-38
0
0
0
0
-4.10713e-09
4.65096e-43
2.90685e-44
0
-4.10713e-09
0
3.5484e-48
0
-4.10713e-09
2.77219e-50
-8.21425e-09
-8.21425e-09
0
1.7742e-48
1.10888e-49
2.77219e-50
1.10888e-49
1.3861e-50
3.46524e-51
-4.10713e-09
0
-4.10713e-09
2.21775e-49
2.77219e-50
6.93048e-51
)
;

boundaryField
{
    fuel
    {
        type            calculated;
        value           uniform 0;
    }
    primary_air
    {
        type            calculated;
        value           uniform 0;
    }
    Secondary_air_RHS
    {
        type            calculated;
        value           uniform 0;
    }
    Secondary_air_LHS
    {
        type            calculated;
        value           uniform 0;
    }
    outlet
    {
        type            calculated;
        value           uniform 0;
    }
    stove_body
    {
        type            calculated;
        value           uniform 0;
    }
    frontAndBack
    {
        type            empty;
    }
}


// ************************************************************************* //
