/*--------------------------------*- C++ -*----------------------------------*\
  =========                 |
  \\      /  F ield         | OpenFOAM: The Open Source CFD Toolbox
   \\    /   O peration     | Website:  https://openfoam.org
    \\  /    A nd           | Version:  6
     \\/     M anipulation  |
\*---------------------------------------------------------------------------*/
FoamFile
{
    version     2.0;
    format      ascii;
    class       volVectorField;
    location    "2";
    object      U;
}
// * * * * * * * * * * * * * * * * * * * * * * * * * * * * * * * * * * * * * //

dimensions      [0 1 -1 0 0 0 0];

internalField   nonuniform List<vector> 
297
(
(12.7275 0.0197059 0.284889)
(12.728 7.66383e-06 0.253874)
(12.7275 -0.0197404 0.284873)
(-3.38553e-10 -0.0283941 0.251391)
(-5.74378e-10 1.14844e-05 0.24705)
(-8.19794e-10 0.0284032 0.251402)
(-12.7276 0.0197432 0.284911)
(-12.728 -0.000229233 0.253872)
(-12.7274 -0.0197041 0.284851)
(12.7273 0.0125369 0.298807)
(12.729 -5.75173e-06 0.269408)
(12.7273 -0.0125555 0.298793)
(-6.51873e-10 -0.0859316 0.00214102)
(-5.92504e-10 -2.87678e-05 0.206531)
(-5.19192e-10 0.0860947 0.00239386)
(-12.7274 0.0125772 0.298841)
(-12.729 0.000215604 0.26941)
(-12.7273 -0.0125185 0.29876)
(12.7241 0.024529 0.491905)
(12.7299 -0.000537538 0.430414)
(12.7241 -0.0245948 0.49187)
(-4.69761e-10 -0.0293673 0.263546)
(-5.40753e-10 0.000436043 0.0419585)
(-3.25024e-10 0.0298048 0.263537)
(-12.7242 0.0246596 0.491911)
(-12.7296 -0.000861047 0.430413)
(-12.724 -0.0244587 0.491865)
(81.0741 -12.8256 -14.81)
(60.5643 16.0787 4.89546)
(25.9009 17.1036 12.7787)
(-0.00154669 0.0111713 6.05834)
(-0.000873094 5.49897 6.81638)
(-0.000559239 9.04805 11.7019)
(-81.4647 -13.3294 -14.8698)
(-60.0561 15.7438 3.85501)
(-25.9336 17.0883 11.774)
(133.063 -71.7159 47.6085)
(89.294 11.0564 85.8986)
(67.2114 -21.4908 80.1276)
(-0.00379603 -33.2885 215.455)
(-0.00123539 18.4098 136.255)
(-0.00200579 -7.3808 119.544)
(-136.822 -76.3949 52.7757)
(-86.6769 11.6949 89.4094)
(-61.761 -18.9633 82.6396)
(130.249 -165.353 -8.62235)
(80.9733 35.3942 183.366)
(75.5687 -8.74769 -21.3272)
(0.0103344 -79.9735 279.877)
(0.00125209 -18.5993 -9.73883)
(-0.000463242 17.0555 163.204)
(-133.836 -172.058 -0.580736)
(-80.2203 36.1791 182.527)
(-71.8745 -12.5998 -17.1801)
(83.3007 -73.687 -251.465)
(45.7169 -5.3603 -29.2255)
(47.0731 18.695 -136.177)
(-0.0168915 -172.339 0.23154)
(-0.00350559 15.6433 -125.378)
(0.0186733 -10.7185 46.8298)
(-85.4474 -76.0917 -254.483)
(-47.9217 -6.62918 -28.1478)
(-44.6405 20.3395 -121.871)
(73.6881 2.24393 -182.163)
(19.5536 9.06648 -78.9139)
(19.6979 -32.776 -88.246)
(-0.00831552 -67.8412 -139.437)
(-0.00084945 -9.58125 -73.2637)
(0.00655951 -16.9752 -80.5571)
(-77.0948 -7.7308 -180.887)
(-23.0425 15.9865 -84.6389)
(-14.06 -19.7654 -72.7308)
(8.64274 20.8485 -15.0168)
(8.63479 4.39951 -12.0604)
(8.62421 -15.6001 -17.4614)
(-0.00127386 12.9947 -11.1502)
(-0.000708804 1.94007 -16.4375)
(0.00186299 -10.1979 -15.9123)
(-8.6484 18.5083 -13.9725)
(-8.63965 12.9935 -12.2021)
(-8.62491 -3.25769 -14.8044)
(113.635 -176.663 -521.953)
(67.4727 21.8548 182.281)
(70.7655 -0.192576 -285.264)
(-0.0468363 -121.455 406.543)
(-0.0014018 -20.9351 -139.767)
(0.0565541 7.8929 239.989)
(-116.478 -184.771 -529.753)
(-65.883 21.7805 181.744)
(-67.3506 -3.20375 -270.451)
(101.75 -114.44 -450.295)
(69.9843 14.0665 175.82)
(57.1321 10.648 -235.444)
(-0.0535065 -120.894 458.939)
(-0.00191768 -7.14283 -143.935)
(0.0767541 9.20518 264.46)
(-104.362 -119.452 -457.908)
(-68.3552 13.4042 175.395)
(-54.0296 9.82857 -220.504)
(92.7462 -118.572 -391.694)
(69.5646 -8.15092 160.647)
(53.3925 8.22999 -209.197)
(-0.0586473 -180.663 510.015)
(-0.00248123 -0.586771 -139.36)
(0.0935865 -1.42329 312.349)
(-95.236 -123.148 -397.615)
(-67.8974 -10.8571 161.271)
(-50.7326 7.54163 -194.217)
(8.60967 29.4259 -9.56261)
(8.61443 -9.07417 -7.64192)
(8.59556 -28.7109 -6.9243)
(-0.00131529 20.2897 -8.87831)
(-0.00105388 -1.0968 -6.36859)
(-0.000303356 -17.0012 -6.73084)
(-8.61154 30.7835 -10.2437)
(-8.62388 11.8741 -7.32067)
(-8.59836 -22.1003 -5.38172)
(8.63521 17.3818 -0.476549)
(8.62655 -7.19251 0.340349)
(8.61651 -19.0539 -2.76028)
(-0.000888941 9.31567 -2.20574)
(-0.0010259 -1.9535 -3.27823)
(-0.000975646 -9.8824 -1.91099)
(-8.63756 16.5366 -1.33089)
(-8.62334 -7.00524 -0.149055)
(-8.61686 -15.4553 -0.511431)
(8.63138 -4.44411 -3.96567)
(8.62187 -1.4666 0.109598)
(8.62313 -1.25864 -4.01617)
(-0.000860688 1.73114 -4.75965)
(-0.000977626 0.627519 -1.92966)
(-0.000965983 -4.03475 -4.0064)
(-8.643 -0.763729 -5.69508)
(-8.62683 -2.56702 1.16466)
(-8.62809 1.98034 0.580291)
(8.59247 -30.044 -3.55738)
(8.61259 -27.0087 -5.69428)
(8.60617 -24.8469 -7.40281)
(-0.000983395 -19.2922 -3.92024)
(-0.000679051 -17.3705 -4.23329)
(-0.000302359 -13.6745 -4.22366)
(-8.59578 -22.3425 -4.89151)
(-8.60819 -17.6133 -7.62744)
(-8.59618 -11.4839 -9.5118)
(8.60581 -24.1977 -1.2795)
(8.61985 -24.5227 -6.28235)
(8.60967 -22.6728 -10.6974)
(-0.000821912 -15.3557 1.46241)
(-0.000335389 -15.5247 1.70901)
(-0.000209484 -13.1907 2.07618)
(-8.61293 -16.8948 -2.18834)
(-8.61447 -16.6285 -5.68719)
(-8.58644 -13.8779 -12.2182)
(8.62635 -9.56685 -3.7588)
(8.62244 -14.9203 -10.5227)
(8.60477 -18.9517 -14.9461)
(2.8395e-05 -9.13198 0.569547)
(0.00092654 -9.77035 1.17967)
(0.000479384 -10.5275 0.56559)
(-8.62437 3.32984 4.41732)
(-8.61691 -2.43284 -2.74998)
(-8.59113 -12.7973 -14.8003)
(8.60929 22.0927 -11.931)
(8.6244 27.2529 -8.82386)
(8.60733 31.3388 -6.23624)
(0.000162438 17.1814 -6.15769)
(-0.000342645 22.1283 -5.90072)
(-0.000613728 24.2171 -5.2232)
(-8.60935 23.1153 -12.5037)
(-8.62706 28.7353 -9.60884)
(-8.60739 33.3319 -6.8221)
(8.60729 21.1584 -11.1998)
(8.63461 24.1929 -5.01006)
(8.62868 23.213 -0.392283)
(-0.000211407 15.0551 1.24089)
(-0.000581975 18.4212 1.99963)
(-0.000688815 18.1882 2.01873)
(-8.60823 22.242 -11.8817)
(-8.63858 25.6523 -5.50829)
(-8.62687 24.7868 -0.199427)
(8.61024 18.2776 -17.0934)
(8.63849 12.6905 -12.7826)
(8.64365 1.21783 -4.3951)
(-0.000553144 9.47128 0.530605)
(-0.000674046 7.73127 1.1494)
(-0.00077361 5.83164 0.419627)
(-8.61286 19.1745 -17.6719)
(-8.6419 12.9825 -12.3092)
(-8.64814 3.24686 -3.79069)
(8.61686 -3.92359 -6.72013)
(8.61646 2.03184 -16.4033)
(8.60197 12.8421 -20.1957)
(0.000712742 -2.94743 0.401577)
(0.000724497 3.38167 -7.51468)
(0.00053347 10.63 -8.28827)
(-8.62016 -3.81875 -7.29197)
(-8.61691 2.51378 -17.1714)
(-8.60349 13.4958 -21.1932)
(8.61519 0.920278 4.74268)
(8.61465 4.13522 -19.2026)
(8.60225 14.5484 -21.4529)
(0.00066982 -1.11307 9.85262)
(0.000656907 4.24292 -5.44725)
(0.00030022 10.3094 -4.52833)
(-8.61508 1.52677 4.92107)
(-8.6147 4.27962 -20.2667)
(-8.60468 15.0949 -22.61)
(8.60782 1.57759 -0.461619)
(8.6518 3.36598 -21.886)
(8.62402 10.8953 -27.0107)
(0.000599378 -1.31272 13.531)
(0.000597767 4.15466 -8.74536)
(0.000107191 6.49359 -6.24785)
(-8.60724 1.8851 -1.22583)
(-8.6532 3.54684 -22.8731)
(-8.62512 11.0276 -27.9839)
(8.60913 3.52243 -2.98678)
(8.62088 2.94538 -30.5201)
(8.61691 -9.98598 -46.2252)
(-0.000270454 1.29777 46.1484)
(-0.000329028 2.67136 26.7284)
(-0.000372908 -12.0021 16.6416)
(-8.61221 3.79696 -3.41858)
(-8.62347 2.63814 -31.8986)
(-8.61905 -10.0306 -46.5742)
(8.52487 0.621526 -99.0922)
(8.51993 -0.104241 -105.017)
(8.52796 5.85646 -99.2992)
(-0.000571747 1.29547 71.4143)
(-0.000584132 1.87643 62.4359)
(-0.00054137 0.270501 55.2443)
(-8.52509 0.492695 -99.6109)
(-8.52203 -0.00322659 -105.606)
(-8.52915 5.85379 -100.347)
(8.19887 0.109385 -139.595)
(8.19482 0.070585 -139.796)
(8.19438 -0.0503663 -139.709)
(-0.000570999 0.778489 183.952)
(-0.000576547 1.17404 187.498)
(-0.000587982 0.333134 187.259)
(-8.20075 0.115083 -139.798)
(-8.19674 0.0865765 -140.002)
(-8.1963 -0.0402312 -139.912)
(8.59765 -17.4914 -10.295)
(8.59076 -10.9793 -9.2731)
(8.59137 -7.74485 -12.2594)
(-0.00300956 -10.293 -4.77016)
(-0.00692833 -4.98618 -3.13878)
(-0.00866364 -1.85074 -3.97597)
(-8.59332 -6.44583 -13.1973)
(-8.60186 -1.39186 -8.09302)
(-8.60662 7.65499 -3.63659)
(8.59609 -17.4918 -17.2078)
(8.5923 -9.83326 -14.7257)
(8.59414 -5.22963 -18.4683)
(-0.00225813 -11.1225 -0.767696)
(-0.00557768 -5.35815 1.58122)
(-0.00729055 -0.739737 1.37736)
(-8.58556 -10.0586 -16.7221)
(-8.5955 -7.68733 -9.3117)
(-8.60371 6.92808 0.675079)
(8.61584 -13.0771 -21.4853)
(8.61042 -9.10004 -19.5896)
(8.61866 -4.51129 -21.6097)
(-0.00112435 -9.18743 -1.68311)
(-0.00353523 -7.40765 -1.33701)
(-0.00552176 -1.28663 -0.532684)
(-8.60904 -7.52017 -22.1299)
(-8.60925 -8.72323 -12.3897)
(-8.60099 1.40969 4.46847)
(8.61055 8.14415 -33.8249)
(8.60771 2.55437 -32.3432)
(8.60906 1.0764 -32.2032)
(0.00367902 7.15664 24.402)
(0.00309521 -1.39727 27.2935)
(0.00256298 -1.65943 31.4707)
(-8.59278 5.00698 -25.7498)
(-8.58678 -2.14595 -17.9852)
(-8.58156 -2.81219 -0.19508)
(8.52658 -3.22871 -95.5064)
(8.52802 0.0626698 -96.6451)
(8.5243 0.424587 -95.6521)
(0.00600288 0.931804 57.6808)
(0.00658603 -0.883582 60.1106)
(0.00715191 -0.544773 62.1551)
(-8.50579 -2.61734 -92.2964)
(-8.49921 -0.26172 -95.3751)
(-8.50233 -0.0993177 -89.923)
(8.19247 0.0256406 -135.644)
(8.1926 0.0160209 -135.789)
(8.19385 -0.00486094 -135.789)
(0.0032147 0.239608 186.471)
(0.00324183 -0.475216 186.832)
(0.00335551 -0.222653 185.667)
(-8.18123 -0.00574431 -133.954)
(-8.18105 -0.123173 -133.977)
(-8.18212 -0.113431 -133.837)
)
;

boundaryField
{
    fuel
    {
        type            fixedValue;
        value           uniform (0 0 0.25);
    }
    primary_air
    {
        type            fixedValue;
        value           uniform (0 0 2.5);
    }
    Secondary_air_RHS
    {
        type            fixedValue;
        value           uniform (0 66.6667 0);
    }
    Secondary_air_LHS
    {
        type            fixedValue;
        value           uniform (0 -66.6667 0);
    }
    outlet
    {
        type            pressureInletOutletVelocity;
        value           nonuniform List<vector> 
18
(
(0 0 -135.644)
(0.0032147 0.239608 186.471)
(0 0 -133.954)
(0 0 -135.789)
(0.00324183 -0.475216 186.832)
(0 0 -133.977)
(0 0 -135.789)
(0.00335551 -0.222653 185.667)
(0 0 -133.837)
(0 0 -139.595)
(-0.000570999 0.778489 183.952)
(0 0 -139.798)
(0 0 -139.796)
(-0.000576547 1.17404 187.498)
(0 0 -140.002)
(0 0 -139.709)
(-0.000587982 0.333134 187.259)
(0 0 -139.912)
)
;
    }
    stove_body
    {
        type            noSlip;
    }
    frontAndBack
    {
        type            empty;
    }
}


// ************************************************************************* //
