/*--------------------------------*- C++ -*----------------------------------*\
  =========                 |
  \\      /  F ield         | OpenFOAM: The Open Source CFD Toolbox
   \\    /   O peration     | Website:  https://openfoam.org
    \\  /    A nd           | Version:  6
     \\/     M anipulation  |
\*---------------------------------------------------------------------------*/
FoamFile
{
    version     2.0;
    format      ascii;
    class       surfaceScalarField;
    location    "2";
    object      phi;
}
// * * * * * * * * * * * * * * * * * * * * * * * * * * * * * * * * * * * * * //

dimensions      [1 0 -1 0 0 0 0];

internalField   nonuniform List<scalar> 
15525
(
9.94697e-08
1.04906e-06
-1.1135e-06
2.92539e-08
1.035e-06
-9.25297e-07
5.11973e-07
1.03501e-06
-1.45673e-06
1.91602e-07
1.61088e-07
1.71383e-07
4.06008e-07
-1.99785e-07
1.25965e-07
-1.17823e-07
9.82716e-07
-8.71736e-08
3.58724e-08
1.21442e-06
3.49146e-07
-4.85835e-07
1.06513e-06
1.45518e-07
9.98594e-08
2.59639e-07
3.54829e-07
1.81849e-07
9.03851e-08
6.10783e-07
-8.07834e-07
-1.70771e-07
7.70778e-07
-4.32147e-07
3.96227e-07
1.03194e-06
-2.16225e-06
1.56323e-07
8.442e-08
2.49206e-07
4.09863e-07
9.49925e-08
1.84507e-07
3.9784e-07
3.8671e-08
5.57033e-08
-2.88394e-07
1.17151e-06
1.55308e-07
-1.41548e-08
9.32254e-07
-2.32909e-08
-1.66975e-07
4.26198e-07
4.87532e-08
3.32742e-07
1.28501e-07
2.35337e-07
1.47242e-07
-2.98372e-07
2.84367e-07
-1.61069e-07
3.56356e-08
7.8225e-08
7.94955e-08
9.14655e-08
-8.10785e-07
-4.02498e-07
7.41388e-08
-8.1511e-07
-9.30857e-08
-6.00035e-07
-7.53858e-07
-4.22385e-08
-2.14777e-07
-2.6372e-07
6.41079e-08
-5.99029e-08
-3.42865e-07
-9.13529e-08
-1.36377e-08
3.10482e-07
1.18863e-08
-1.23176e-07
4.15458e-07
-5.64171e-07
4.70383e-07
4.16835e-07
-2.524e-07
-3.41962e-07
2.19721e-08
-2.57172e-08
-1.0557e-07
-1.02914e-07
-8.98266e-07
1.73819e-07
1.18692e-07
-1.0726e-06
2.64906e-07
-5.95245e-07
-1.22828e-06
2.90844e-07
-2.46837e-07
-4.60267e-07
1.53209e-08
-1.68211e-07
-1.33119e-08
-1.48346e-07
-1.17062e-06
4.54874e-07
-3.76783e-07
9.18993e-07
-6.23283e-07
-5.87026e-07
-8.8227e-07
8.00845e-07
-2.96543e-07
-4.20239e-07
9.21678e-08
-3.49657e-07
2.14338e-07
-1.41504e-07
-7.885e-07
2.20152e-07
2.8319e-07
1.46056e-07
-9.82714e-07
-1.33358e-08
-1.86105e-07
-2.90464e-07
-1.32403e-07
-4.85991e-07
2.42983e-07
-1.59303e-07
-3.90779e-07
3.35069e-07
-1.60625e-07
-2.76237e-07
2.48663e-07
9.79234e-07
-5.17715e-07
-5.49406e-07
3.27965e-07
3.3483e-07
-9.84947e-08
-3.80007e-07
3.12716e-07
-1.2902e-07
-3.07363e-07
3.57156e-07
-9.35752e-08
-3.74461e-07
4.838e-07
-7.46629e-08
-2.39018e-07
-2.79954e-07
1.11925e-07
3.38797e-08
-9.10081e-08
-3.29414e-07
2.06483e-07
-1.38776e-07
-4.08538e-07
4.06582e-07
-1.45333e-07
-2.9079e-07
2.35147e-07
-8.35173e-08
-6.88067e-08
-2.20534e-07
1.30405e-07
-1.17703e-07
-4.57037e-07
1.80617e-06
-1.24756e-06
2.63888e-07
-6.96853e-07
-1.06051e-06
-5.2127e-07
2.61936e-06
-1.27759e-06
-2.15692e-07
-1.31132e-07
-1.53545e-07
4.2184e-07
-2.9125e-07
2.84038e-07
7.81259e-07
-2.93812e-07
1.53539e-07
3.80905e-07
8.8501e-07
2.40488e-07
-1.80979e-07
3.57754e-07
-3.23206e-07
-5.37538e-07
1.12886e-06
-1.40836e-07
7.27311e-09
1.63476e-07
-7.50796e-08
-9.77866e-08
2.98185e-07
-2.42691e-07
-2.19149e-07
-1.45638e-07
-7.91803e-08
1.88645e-07
-2.60603e-07
-2.49542e-07
2.8937e-07
-1.49778e-07
7.48035e-08
1.75404e-07
-8.33359e-08
-4.04161e-08
3.60843e-07
-2.36735e-07
-2.15605e-07
-1.32499e-07
-5.36872e-08
-2.31833e-07
-2.65362e-07
3.38411e-07
-1.14511e-07
-1.70866e-07
2.34901e-07
1.46542e-07
-1.09823e-07
-8.85567e-08
2.28252e-07
-2.38235e-07
-1.70701e-07
-1.39289e-07
-2.37141e-07
-1.75759e-07
-4.53697e-07
-1.16432e-06
7.48709e-07
-1.77084e-07
-5.80884e-07
-5.24384e-07
-3.70967e-07
-6.2256e-07
-5.45432e-07
-2.50826e-07
-2.23426e-07
-2.23448e-07
-3.70122e-07
-4.1222e-07
1.28445e-07
-5.10786e-07
-3.969e-08
-2.65107e-07
2.01404e-07
6.18223e-09
-7.34093e-09
-1.98865e-07
-2.56055e-08
3.95631e-07
7.54607e-07
2.63011e-07
3.13989e-07
3.57937e-07
2.21751e-07
2.22525e-07
6.82867e-09
4.29175e-07
3.16666e-07
7.24935e-07
2.49604e-07
5.55567e-07
3.48758e-07
4.83841e-07
1.87122e-07
3.43181e-08
3.8289e-07
2.30064e-07
3.57646e-07
2.20501e-07
7.10698e-07
2.9909e-07
6.36802e-07
1.99087e-07
-5.89364e-09
4.04822e-07
3.2299e-07
6.93199e-07
1.7362e-07
3.32394e-07
1.77043e-07
8.95149e-08
-1.39418e-08
-4.06595e-08
-2.34063e-08
1.57098e-07
2.00376e-07
2.94477e-07
5.22477e-08
-5.9476e-07
2.70929e-07
3.58711e-07
4.21779e-08
7.67959e-07
-1.37182e-06
-4.34472e-08
5.36073e-07
-4.21379e-07
5.94574e-07
7.67554e-07
-1.37234e-06
2.75413e-07
3.53735e-07
-5.01649e-07
6.05484e-07
1.39413e-07
-2.58516e-07
3.49659e-07
1.98791e-07
2.56496e-07
4.62e-07
-4.33715e-07
5.00583e-07
3.50214e-07
1.96899e-07
6.06913e-07
1.40858e-07
-3.81709e-07
5.62933e-07
4.22427e-07
-2.16341e-07
1.73938e-07
1.64852e-08
2.14421e-07
5.05935e-07
-4.76254e-07
3.81219e-07
1.74411e-07
1.52368e-08
5.60619e-07
4.25134e-07
-4.21645e-08
-4.49891e-09
6.1019e-07
4.43717e-08
6.50739e-08
1.81066e-08
-4.60198e-08
6.22071e-07
-3.63931e-08
4.19659e-08
6.53112e-08
1.68316e-08
-9.12148e-09
6.11856e-07
-5.24678e-08
4.71584e-08
-3.61493e-07
3.68984e-07
3.6095e-07
-9.34402e-08
5.13606e-08
3.69808e-07
4.12131e-08
1.40416e-07
8.18691e-08
1.58819e-07
2.55934e-07
-1.0088e-06
-4.9531e-07
-2.53889e-07
-4.34063e-09
1.07732e-07
-1.39861e-07
-1.0088e-06
-4.93646e-07
8.283e-08
1.55057e-07
4.59267e-07
-2.26935e-07
1.55991e-08
2.47919e-07
-6.48195e-07
4.54675e-08
-2.4526e-07
-8.59428e-08
1.42677e-07
-4.59025e-07
-6.46571e-07
4.46182e-08
-2.22007e-07
1.35201e-08
3.61864e-07
-3.34927e-07
1.69588e-07
2.34416e-07
-4.40128e-07
-6.19096e-08
-2.31884e-07
-2.62453e-07
1.67206e-07
-3.61755e-07
-4.39098e-07
-6.01295e-08
-3.32402e-07
1.74779e-07
3.34181e-07
-4.60595e-07
3.96847e-07
2.27126e-07
7.67453e-09
-3.24713e-07
-2.25086e-07
6.03489e-08
8.82226e-08
-3.33682e-07
9.39563e-09
-3.25196e-07
-4.62075e-07
4.03032e-07
-3.02463e-08
-3.85593e-07
4.09776e-08
2.98788e-07
-4.22586e-08
4.01973e-08
3.00882e-08
3.00282e-07
-3.93175e-07
7.58834e-08
-1.05703e-07
2.10604e-07
-6.62698e-09
-7.15469e-08
-3.42505e-07
3.39899e-09
-1.06117e-07
2.14202e-07
-7.78376e-08
-7.31295e-08
-3.38906e-07
-1.02515e-07
2.06516e-07
6.44421e-08
-1.69696e-07
2.18057e-08
6.22673e-09
1.61266e-07
-1.38228e-07
-8.05167e-09
-1.9481e-07
2.42758e-07
-6.76343e-08
1.6109e-07
-1.38555e-07
-1.57641e-07
7.34946e-09
4.59723e-08
-1.47808e-08
-3.54031e-08
-1.35007e-08
-9.95263e-08
2.55128e-07
8.37357e-09
-3.09936e-07
2.58986e-07
-4.93068e-08
-9.95171e-08
2.54875e-07
-1.25765e-08
-2.39494e-08
3.18417e-07
2.98526e-07
-2.42008e-07
2.18283e-07
9.42617e-08
-4.20897e-07
-2.15277e-07
5.33698e-07
-3.24102e-07
-3.17688e-07
9.6458e-08
-4.21316e-07
3.07959e-07
-2.42168e-07
-3.7324e-07
2.86188e-07
-1.36401e-07
1.49309e-07
1.35646e-07
2.97393e-07
3.76906e-07
1.48906e-07
2.92073e-07
3.52269e-07
-2.17909e-07
8.74061e-08
2.57055e-07
-2.90888e-07
4.66405e-08
-2.53522e-07
1.27317e-07
6.07975e-07
-3.46911e-07
-2.92055e-07
5.21901e-08
-2.24537e-07
1.07952e-07
2.98098e-07
-1.77159e-07
-3.13476e-07
1.63901e-07
-4.43022e-07
1.40719e-07
-1.61247e-07
9.10369e-08
6.00608e-07
-3.00284e-07
-4.39701e-07
1.40708e-07
-1.40644e-07
-3.80192e-07
2.57004e-07
-2.41826e-07
-2.41714e-07
7.36854e-08
-2.33758e-07
2.23764e-07
-7.06811e-08
-1.45681e-07
6.37698e-07
-2.56011e-07
-2.32284e-07
2.27114e-07
-2.47164e-07
-1.88349e-07
4.6727e-07
-4.65389e-07
-4.92735e-07
2.97588e-07
-2.50819e-07
-2.38751e-07
-2.96366e-07
5.72521e-08
6.43345e-08
-4.66675e-07
-2.50218e-07
-2.37614e-07
-4.70693e-07
-4.92039e-07
-2.5987e-08
-1.59467e-07
-5.13148e-08
-8.193e-08
5.0392e-08
2.49346e-07
2.60577e-08
-8.23076e-08
-1.57828e-07
-3.78833e-07
4.71586e-07
-2.5599e-07
-7.0959e-08
2.51564e-07
1.13678e-07
3.84507e-07
-7.08685e-08
4.69409e-07
-2.97379e-07
4.28636e-07
-2.45979e-07
1.34845e-08
2.41555e-07
2.25245e-07
2.76707e-07
2.81949e-08
3.48801e-07
-3.07618e-07
4.91374e-07
-2.16609e-07
1.3929e-07
2.1572e-07
4.29533e-07
3.24857e-07
1.39118e-07
4.86507e-07
-2.16983e-08
8.26302e-09
-8.24456e-08
-4.33422e-08
8.18365e-08
3.27708e-07
2.32278e-08
-4.40965e-08
8.4018e-09
-1.59458e-07
-2.89744e-07
2.86395e-07
1.55508e-07
-4.26918e-08
9.42155e-08
-4.07735e-08
-1.90454e-07
5.66549e-08
1.02143e-07
1.90262e-07
3.11324e-07
-6.76512e-07
4.18858e-08
5.73281e-08
1.0207e-07
9.16869e-08
-3.87367e-08
-2.37915e-08
1.0181e-07
1.28529e-08
-8.22344e-08
-3.54072e-09
1.1591e-07
8.21499e-08
-2.28832e-07
3.755e-07
2.42907e-08
-3.47227e-09
1.15825e-07
1.01889e-07
1.15046e-08
-1.72596e-08
9.45855e-08
2.19086e-08
-1.50455e-07
2.90102e-08
9.74484e-08
1.50429e-07
2.75214e-07
-7.96942e-07
1.6906e-08
2.945e-08
9.74476e-08
9.39729e-08
2.2132e-08
1.69459e-08
3.21291e-08
4.26409e-08
-2.25261e-09
-3.51165e-08
8.04397e-08
1.58988e-09
7.97458e-08
1.89459e-07
-1.70071e-08
-3.54785e-08
8.06343e-08
3.23404e-08
4.18943e-08
2.71306e-08
2.27957e-09
-6.70496e-08
5.63072e-08
6.81604e-08
-5.97432e-08
-2.65079e-08
5.64466e-08
3.14696e-09
8.48061e-08
2.98509e-08
-1.44039e-07
2.09422e-07
-1.18084e-07
1.05184e-07
-2.09316e-07
-3.04529e-07
5.28476e-08
-8.46907e-08
-1.18392e-07
1.0536e-07
3.10217e-08
-1.43102e-07
9.43059e-08
-2.53495e-08
-2.85134e-08
9.83521e-08
-2.83144e-08
1.90169e-08
-9.82184e-08
2.22616e-07
4.07418e-08
-9.43022e-08
-2.86458e-08
1.9025e-08
-2.56346e-08
-2.86716e-08
8.50271e-08
1.76016e-08
-1.08863e-07
1.4832e-07
-7.58731e-08
7.85872e-08
-1.48271e-07
-3.07358e-07
1.97688e-08
-8.50335e-08
-7.61641e-08
7.86077e-08
1.77978e-08
-1.08927e-07
7.39658e-08
-5.11203e-08
3.4556e-08
1.1118e-07
-7.97712e-08
4.43537e-08
-1.11249e-07
-1.89309e-07
2.90466e-07
-7.40843e-08
-7.99394e-08
4.44563e-08
-5.16307e-08
3.4433e-08
3.39925e-08
-8.55232e-08
1.24833e-09
6.79367e-09
-1.47704e-09
-2.47466e-07
-3.42635e-08
6.81059e-09
-8.53217e-08
-4.13078e-07
1.43498e-07
1.37796e-07
-4.52798e-09
-1.62407e-07
-1.32336e-07
3.90626e-09
-3.82012e-08
8.97177e-08
4.12986e-07
-1.62528e-07
-1.32625e-07
1.43888e-07
1.38159e-07
2.24353e-07
-1.07847e-07
-3.2032e-09
-4.62579e-09
1.02665e-07
-2.04938e-08
4.39531e-09
-8.38792e-08
7.27024e-08
-2.24432e-07
1.02506e-07
-2.06445e-08
-1.07877e-07
-3.1115e-09
-4.35391e-07
1.16043e-07
1.03667e-07
-3.51478e-09
-1.45826e-07
-1.094e-07
3.39398e-09
-1.34069e-07
5.68839e-08
4.35345e-07
-1.4594e-07
-1.09506e-07
1.15537e-07
1.04023e-07
9.06494e-08
1.05494e-07
-4.80574e-08
1.58124e-07
-1.11294e-07
-6.0502e-08
-1.58117e-07
7.66858e-07
-2.97914e-07
-9.05869e-08
-1.11242e-07
-6.06344e-08
1.05021e-07
-4.81326e-08
-5.74421e-08
7.47908e-08
-1.37578e-07
-2.69242e-08
1.37442e-07
2.45213e-07
5.7261e-08
-2.68033e-08
7.44113e-08
8.57403e-08
3.89845e-08
2.44468e-08
1.74702e-07
-1.11694e-07
-1.00074e-07
-1.74628e-07
-2.80761e-07
7.26024e-07
-8.57147e-08
-1.11999e-07
-1.00069e-07
3.83377e-08
2.54442e-08
8.83414e-08
-2.49671e-08
-3.00632e-08
4.37677e-08
1.25212e-08
-1.03233e-07
-4.35331e-08
2.21756e-07
-3.46641e-07
-8.82279e-08
1.1962e-08
-1.03036e-07
-2.44462e-08
-3.10192e-08
8.71727e-08
1.50109e-08
-2.60252e-08
1.31423e-07
-4.4615e-08
-9.9565e-08
-1.31393e-07
-2.84314e-07
8.15994e-07
-8.71493e-08
-4.53345e-08
-9.95212e-08
1.42352e-08
-2.43585e-08
6.92874e-08
-5.21726e-08
-5.29241e-08
1.04095e-07
-7.11032e-08
-7.15464e-08
-1.04204e-07
-1.89955e-07
-1.87319e-07
-6.95185e-08
-7.14568e-08
-7.19388e-08
-5.27601e-08
-5.34014e-08
3.58183e-08
-1.58066e-08
-2.74896e-09
-6.19282e-08
2.5718e-09
4.87014e-08
-3.62231e-08
-6.19366e-08
-1.71345e-08
-5.2283e-08
8.77396e-08
-2.06496e-07
6.49593e-08
2.06555e-07
3.28402e-07
5.24192e-08
6.48443e-08
8.90472e-08
-3.76001e-08
9.27347e-08
-1.00315e-07
2.16009e-08
1.00301e-07
-2.19109e-07
3.7276e-08
2.19686e-08
9.28086e-08
-3.29178e-08
9.69734e-08
-1.57673e-07
4.36002e-08
1.57719e-07
2.8953e-07
3.34368e-08
4.3506e-08
9.92212e-08
1.18772e-08
2.94933e-08
-6.80827e-09
-1.21165e-08
6.44174e-09
8.67168e-08
-1.25246e-08
-1.23394e-08
3.06134e-08
1.11073e-08
-6.55726e-08
6.59781e-08
-1.0959e-08
-5.9476e-07
2.70929e-07
3.58711e-07
4.21779e-08
7.67959e-07
-1.37182e-06
-4.34472e-08
5.36073e-07
-4.21379e-07
5.94574e-07
7.67554e-07
-1.37234e-06
2.75413e-07
3.53735e-07
-5.01649e-07
6.05484e-07
1.39413e-07
-2.58516e-07
3.49659e-07
1.98791e-07
2.56496e-07
4.62e-07
-4.33715e-07
5.00583e-07
3.50214e-07
1.96899e-07
6.06913e-07
1.40858e-07
-3.81709e-07
5.62933e-07
4.22427e-07
-2.16341e-07
1.73938e-07
1.64852e-08
2.14421e-07
5.05935e-07
-4.76254e-07
3.81219e-07
1.74411e-07
1.52368e-08
5.60619e-07
4.25134e-07
-4.21645e-08
-4.49891e-09
6.1019e-07
4.43717e-08
6.50739e-08
1.81066e-08
-4.60198e-08
6.22071e-07
-3.63931e-08
4.19659e-08
6.53112e-08
1.68316e-08
-9.12148e-09
6.11856e-07
-5.24678e-08
4.71584e-08
-3.61493e-07
3.68984e-07
3.6095e-07
-9.34402e-08
5.13606e-08
3.69808e-07
4.12131e-08
1.40416e-07
8.18691e-08
1.58819e-07
2.55934e-07
-1.0088e-06
-4.9531e-07
-2.53889e-07
-4.34063e-09
1.07732e-07
-1.39861e-07
-1.0088e-06
-4.93646e-07
8.283e-08
1.55057e-07
4.59267e-07
-2.26935e-07
1.55991e-08
2.47919e-07
-6.48195e-07
4.54675e-08
-2.4526e-07
-8.59428e-08
1.42677e-07
-4.59025e-07
-6.46571e-07
4.46182e-08
-2.22007e-07
1.35201e-08
3.61864e-07
-3.34927e-07
1.69588e-07
2.34416e-07
-4.40128e-07
-6.19096e-08
-2.31884e-07
-2.62453e-07
1.67206e-07
-3.61755e-07
-4.39098e-07
-6.01295e-08
-3.32402e-07
1.74779e-07
3.34181e-07
-4.60595e-07
3.96847e-07
2.27126e-07
7.67453e-09
-3.24713e-07
-2.25086e-07
6.03489e-08
8.82226e-08
-3.33682e-07
9.39563e-09
-3.25196e-07
-4.62075e-07
4.03032e-07
-3.02463e-08
-3.85593e-07
4.09776e-08
2.98788e-07
-4.22586e-08
4.01973e-08
3.00882e-08
3.00282e-07
-3.93175e-07
7.58834e-08
-1.05703e-07
2.10604e-07
-6.62698e-09
-7.15469e-08
-3.42505e-07
3.39899e-09
-1.06117e-07
2.14202e-07
-7.78376e-08
-7.31295e-08
-3.38906e-07
-1.02515e-07
2.06516e-07
6.44421e-08
-1.69696e-07
2.18057e-08
6.22673e-09
1.61266e-07
-1.38228e-07
-8.05167e-09
-1.9481e-07
2.42758e-07
-6.76343e-08
1.6109e-07
-1.38555e-07
-1.57641e-07
7.34946e-09
4.59723e-08
-1.47808e-08
-3.54031e-08
-1.35007e-08
-9.95263e-08
2.55128e-07
8.37357e-09
-3.09936e-07
2.58986e-07
-4.93068e-08
-9.95171e-08
2.54875e-07
-1.25765e-08
-2.39494e-08
3.18417e-07
2.98526e-07
-2.42008e-07
2.18283e-07
9.42617e-08
-4.20897e-07
-2.15277e-07
5.33698e-07
-3.24102e-07
-3.17688e-07
9.6458e-08
-4.21316e-07
3.07959e-07
-2.42168e-07
-3.7324e-07
2.86188e-07
-1.36401e-07
1.49309e-07
1.35646e-07
2.97393e-07
3.76906e-07
1.48906e-07
2.92073e-07
3.52269e-07
-2.17909e-07
8.74061e-08
2.57055e-07
-2.90888e-07
4.66405e-08
-2.53522e-07
1.27317e-07
6.07975e-07
-3.46911e-07
-2.92055e-07
5.21901e-08
-2.24537e-07
1.07952e-07
2.98098e-07
-1.77159e-07
-3.13476e-07
1.63901e-07
-4.43022e-07
1.40719e-07
-1.61247e-07
9.10369e-08
6.00608e-07
-3.00284e-07
-4.39701e-07
1.40708e-07
-1.40644e-07
-3.80192e-07
2.57004e-07
-2.41826e-07
-2.41714e-07
7.36854e-08
-2.33758e-07
2.23764e-07
-7.06811e-08
-1.45681e-07
6.37698e-07
-2.56011e-07
-2.32284e-07
2.27114e-07
-2.47164e-07
-1.88349e-07
4.6727e-07
-4.65389e-07
-4.92735e-07
2.97588e-07
-2.50819e-07
-2.38751e-07
-2.96366e-07
5.72521e-08
6.43345e-08
-4.66675e-07
-2.50218e-07
-2.37614e-07
-4.70693e-07
-4.92039e-07
-2.5987e-08
-1.59467e-07
-5.13148e-08
-8.193e-08
5.0392e-08
2.49346e-07
2.60577e-08
-8.23076e-08
-1.57828e-07
-3.78833e-07
4.71586e-07
-2.5599e-07
-7.0959e-08
2.51564e-07
1.13678e-07
3.84507e-07
-7.08685e-08
4.69409e-07
-2.97379e-07
4.28636e-07
-2.45979e-07
1.34845e-08
2.41555e-07
2.25245e-07
2.76707e-07
2.81949e-08
3.48801e-07
-3.07618e-07
4.91374e-07
-2.16609e-07
1.3929e-07
2.1572e-07
4.29533e-07
3.24857e-07
1.39118e-07
4.86507e-07
-2.16983e-08
8.26302e-09
-8.24456e-08
-4.33422e-08
8.18365e-08
3.27708e-07
2.32278e-08
-4.40965e-08
8.4018e-09
-1.59458e-07
-2.89744e-07
2.86395e-07
1.55508e-07
-3.50895e-08
8.27269e-08
-3.81749e-08
-1.98159e-07
3.63215e-08
1.38436e-07
1.94539e-07
2.81744e-07
-6.59165e-07
3.62149e-08
5.01371e-08
1.19821e-07
8.05953e-08
-3.39371e-08
-2.16785e-08
1.11727e-07
-9.75835e-09
-1.09075e-07
-4.47227e-09
1.26022e-07
1.04255e-07
-1.9963e-07
2.65331e-07
2.33396e-08
3.22455e-08
9.65793e-08
1.09658e-07
-7.86025e-09
2.64135e-09
9.35577e-08
1.33571e-08
-1.59408e-07
-2.18885e-08
1.76704e-07
1.5764e-07
2.72746e-07
-8.03925e-07
-1.10182e-09
2.27034e-08
1.65265e-07
9.0371e-08
1.57577e-08
3.12498e-08
1.39121e-08
4.61357e-08
-7.49636e-09
-4.70614e-08
6.12214e-08
-5.2876e-09
7.28321e-08
1.93722e-07
-3.15063e-08
-3.46616e-08
8.09251e-08
5.05602e-09
5.1168e-08
2.10956e-08
-9.51502e-09
-6.05078e-08
3.2025e-08
7.37253e-08
-6.50968e-08
-1.04265e-08
4.69459e-08
-8.01489e-09
1.05887e-07
1.96168e-08
-1.54334e-07
1.95309e-07
-1.12345e-07
1.7204e-07
-2.03145e-07
-2.92184e-07
3.93708e-08
-9.38955e-08
-1.25769e-07
1.4696e-07
3.48587e-08
-1.54063e-07
1.01163e-07
-3.19784e-08
-6.17996e-08
3.47631e-08
-1.42951e-08
9.18225e-08
-7.12747e-08
1.60416e-07
-8.36299e-08
-8.33626e-08
1.86745e-09
-2.14448e-08
-5.19359e-09
-5.43176e-08
1.30768e-07
-3.70347e-08
-1.14044e-07
1.34524e-07
-6.11421e-08
2.17075e-07
-1.55909e-07
-2.45893e-07
-1.025e-07
-1.23927e-07
-5.34413e-08
1.86145e-07
2.42902e-09
-1.18014e-07
6.14293e-08
-3.91161e-08
-1.53939e-08
5.8606e-08
-6.1032e-08
6.12209e-08
-1.09173e-07
-1.9284e-07
3.06301e-07
-7.28469e-08
-8.09278e-08
6.95267e-08
-4.31498e-08
2.1252e-08
1.8514e-08
-6.94054e-08
2.33135e-08
-3.60946e-08
-3.41745e-09
-2.31045e-07
-3.29966e-08
-6.69272e-09
-8.67858e-08
-4.28298e-07
1.42907e-07
1.3607e-07
1.91265e-08
-1.54491e-07
-1.06894e-07
2.91295e-08
-3.17235e-08
7.30567e-08
4.43784e-07
-1.57118e-07
-9.6592e-08
1.48806e-07
1.45249e-07
1.90905e-07
-1.01027e-07
-1.172e-08
3.0703e-08
1.04387e-07
-9.41559e-09
3.78566e-08
-6.33111e-08
-6.1656e-08
-1.70819e-07
4.84668e-08
-2.06065e-08
-1.03487e-07
2.37658e-08
-4.17374e-07
1.06252e-07
9.4533e-08
3.61484e-08
-9.15068e-08
-4.48051e-08
4.29273e-08
-1.01604e-07
-7.34509e-08
4.47783e-07
-1.10467e-07
-6.46957e-08
1.20233e-07
1.07005e-07
7.78235e-08
6.01537e-08
-4.9031e-08
1.37778e-07
-8.68882e-08
-6.56357e-09
-1.70962e-07
7.18618e-07
-2.09954e-07
-9.31199e-08
-1.18741e-07
-3.04332e-09
9.56864e-08
-5.00527e-08
-4.24032e-08
3.09866e-08
-1.32114e-07
-3.53056e-08
1.36268e-07
2.20256e-07
5.18655e-08
-4.3658e-08
5.85243e-08
8.10919e-08
3.80508e-08
2.63292e-08
1.74963e-07
-9.28684e-08
-9.68743e-08
-1.90565e-07
-2.47351e-07
7.04489e-07
-8.19926e-08
-9.53483e-08
-9.88467e-08
3.98526e-08
3.21326e-08
9.12398e-08
-3.39659e-08
-3.35907e-08
9.21134e-08
5.85424e-09
-1.11635e-07
-1.25418e-07
2.12198e-07
-3.05975e-07
-9.5203e-08
-2.95028e-08
-1.19123e-07
-8.45499e-09
-2.61081e-08
7.41558e-08
6.1176e-09
-2.16949e-08
1.47745e-07
-3.38385e-08
-8.18702e-08
-1.76804e-07
-2.42599e-07
7.01485e-07
-9.09024e-08
-6.64378e-08
-1.16593e-07
1.79771e-08
-1.27761e-08
4.95418e-08
-4.19098e-08
-5.27948e-08
8.93273e-08
-4.1446e-08
-4.15544e-08
-1.28204e-07
-1.18844e-07
-1.19687e-07
-6.47201e-08
-6.7676e-08
-6.79585e-08
-3.89659e-08
-6.0529e-08
2.12571e-08
-3.45031e-08
-1.16024e-08
-4.63255e-08
2.98416e-08
5.87882e-08
-3.13358e-08
-5.25629e-08
-1.44025e-08
-5.05511e-08
8.61124e-08
-1.96443e-07
5.8875e-08
1.97435e-07
3.07061e-07
4.39027e-08
6.45101e-08
8.61355e-08
-3.49618e-08
8.51947e-08
-8.8561e-08
-1.59468e-09
9.17541e-08
-1.82631e-07
2.08455e-08
1.39262e-08
7.8445e-08
-3.237e-08
9.37691e-08
-1.39927e-07
2.20363e-08
1.42424e-07
2.37037e-07
2.32057e-08
1.40454e-08
8.63682e-08
6.28407e-09
3.23597e-08
-1.18043e-08
-3.84707e-09
2.63925e-08
7.78962e-08
-2.63385e-08
-3.56456e-09
-3.00645e-09
-4.4737e-09
-5.696e-08
7.82574e-08
1.98668e-08
-5.9476e-07
2.70929e-07
3.58711e-07
4.21779e-08
7.67959e-07
-1.37182e-06
-4.34472e-08
5.36073e-07
-4.21379e-07
5.94574e-07
7.67554e-07
-1.37234e-06
2.75413e-07
3.53735e-07
-5.01649e-07
6.05484e-07
1.39413e-07
-2.58516e-07
3.49659e-07
1.98791e-07
2.56496e-07
4.62e-07
-4.33715e-07
5.00583e-07
3.50214e-07
1.96899e-07
6.06913e-07
1.40858e-07
-3.81709e-07
5.62933e-07
4.22427e-07
-2.16341e-07
1.73938e-07
1.64852e-08
2.14421e-07
5.05935e-07
-4.76254e-07
3.81219e-07
1.74411e-07
1.52368e-08
5.60619e-07
4.25134e-07
-4.21645e-08
-4.49891e-09
6.1019e-07
4.43717e-08
6.50739e-08
1.81066e-08
-4.60198e-08
6.22071e-07
-3.63931e-08
4.19659e-08
6.53112e-08
1.68316e-08
-9.12148e-09
6.11856e-07
-5.24678e-08
4.71584e-08
-3.61493e-07
3.68984e-07
3.6095e-07
-9.34402e-08
5.13606e-08
3.69808e-07
4.12131e-08
1.40416e-07
8.18691e-08
1.58819e-07
2.55934e-07
-1.0088e-06
-4.9531e-07
-2.53889e-07
-4.34063e-09
1.07732e-07
-1.39861e-07
-1.0088e-06
-4.93646e-07
8.283e-08
1.55057e-07
4.59267e-07
-2.26935e-07
1.55991e-08
2.47919e-07
-6.48195e-07
4.54675e-08
-2.4526e-07
-8.59428e-08
1.42677e-07
-4.59025e-07
-6.46571e-07
4.46182e-08
-2.22007e-07
1.35201e-08
3.61864e-07
-3.34927e-07
1.69588e-07
2.34416e-07
-4.40128e-07
-6.19096e-08
-2.31884e-07
-2.62453e-07
1.67206e-07
-3.61755e-07
-4.39098e-07
-6.01295e-08
-3.32402e-07
1.74779e-07
3.34181e-07
-4.60595e-07
3.96847e-07
2.27126e-07
7.67453e-09
-3.24713e-07
-2.25086e-07
6.03489e-08
8.82226e-08
-3.33682e-07
9.39563e-09
-3.25196e-07
-4.62075e-07
4.03032e-07
-3.02463e-08
-3.85593e-07
4.09776e-08
2.98788e-07
-4.22586e-08
4.01973e-08
3.00882e-08
3.00282e-07
-3.93175e-07
7.58834e-08
-1.05703e-07
2.10604e-07
-6.62698e-09
-7.15469e-08
-3.42505e-07
3.39899e-09
-1.06117e-07
2.14202e-07
-7.78376e-08
-7.31295e-08
-3.38906e-07
-1.02515e-07
2.06516e-07
6.44421e-08
-1.69696e-07
2.18057e-08
6.22673e-09
1.61266e-07
-1.38228e-07
-8.05167e-09
-1.9481e-07
2.42758e-07
-6.76343e-08
1.6109e-07
-1.38555e-07
-1.57641e-07
7.34946e-09
4.59723e-08
-1.47808e-08
-3.54031e-08
-1.35007e-08
-9.95263e-08
2.55128e-07
8.37357e-09
-3.09936e-07
2.58986e-07
-4.93068e-08
-9.95171e-08
2.54875e-07
-1.25765e-08
-2.39494e-08
3.18417e-07
2.98526e-07
-2.42008e-07
2.18283e-07
9.42617e-08
-4.20897e-07
-2.15277e-07
5.33698e-07
-3.24102e-07
-3.17688e-07
9.6458e-08
-4.21316e-07
3.07959e-07
-2.42168e-07
-3.7324e-07
2.86188e-07
-1.36401e-07
1.49309e-07
1.35646e-07
2.97393e-07
3.76906e-07
1.48906e-07
2.92073e-07
3.52269e-07
-2.17909e-07
8.74061e-08
2.57055e-07
-2.90888e-07
4.66405e-08
-2.53522e-07
1.27317e-07
6.07975e-07
-3.46911e-07
-2.92055e-07
5.21901e-08
-2.24537e-07
1.07952e-07
2.98098e-07
-1.77159e-07
-3.13476e-07
1.63901e-07
-4.43022e-07
1.40719e-07
-1.61247e-07
9.10369e-08
6.00608e-07
-3.00284e-07
-4.39701e-07
1.40708e-07
-1.40644e-07
-3.80192e-07
2.57004e-07
-2.41826e-07
-2.41714e-07
7.36854e-08
-2.33758e-07
2.23764e-07
-7.06811e-08
-1.45681e-07
6.37698e-07
-2.56011e-07
-2.32284e-07
2.27114e-07
-2.47164e-07
-1.88349e-07
4.6727e-07
-4.65389e-07
-4.92735e-07
2.97588e-07
-2.50819e-07
-2.38751e-07
-2.96366e-07
5.72521e-08
6.43345e-08
-4.66675e-07
-2.50218e-07
-2.37614e-07
-4.70693e-07
-4.92039e-07
-2.5987e-08
-1.59467e-07
-5.13148e-08
-8.193e-08
5.0392e-08
2.49346e-07
2.60577e-08
-8.23076e-08
-1.57828e-07
-3.78833e-07
4.71586e-07
-2.5599e-07
-7.0959e-08
2.51564e-07
1.13678e-07
3.84507e-07
-7.08685e-08
4.69409e-07
-2.97379e-07
4.28636e-07
-2.45979e-07
1.34845e-08
2.41555e-07
2.25245e-07
2.76707e-07
2.81949e-08
3.48801e-07
-3.07618e-07
4.91374e-07
-2.16609e-07
1.3929e-07
2.1572e-07
4.29533e-07
3.24857e-07
1.39118e-07
4.86507e-07
-2.16983e-08
8.26302e-09
-8.24456e-08
-4.33422e-08
8.18365e-08
3.27708e-07
2.32278e-08
-4.40965e-08
8.4018e-09
-1.59458e-07
-2.89744e-07
2.86395e-07
1.55508e-07
-2.32055e-07
4.57791e-07
-2.04001e-07
-4.03384e-07
3.78019e-09
1.83166e-07
-3.50759e-07
2.47171e-07
-2.80976e-07
-4.41992e-07
4.01962e-07
-2.98396e-07
8.565e-07
-1.22574e-06
-1.99662e-07
4.30023e-07
2.29481e-07
-3.92114e-07
1.82312e-08
1.72073e-07
-3.2806e-07
5.26202e-07
-3.48751e-07
-3.56341e-07
7.10844e-07
-2.90176e-07
1.05353e-06
-5.61799e-07
-2.10022e-07
4.57175e-07
1.78479e-07
-3.40391e-07
-3.04886e-08
1.74265e-07
-2.69669e-07
7.66913e-07
-3.19492e-07
-2.31252e-07
9.97621e-07
-3.33137e-07
8.12033e-07
1.18138e-08
7.35649e-09
-1.75951e-08
4.6361e-07
-1.95036e-07
-4.4393e-08
2.13268e-07
-1.52087e-07
1.74565e-07
5.36091e-07
-3.02455e-07
4.19878e-07
7.21873e-07
8.6597e-07
-3.4224e-07
-4.46967e-08
1.84934e-08
-3.16702e-07
2.22875e-07
-2.15363e-07
6.76144e-08
-1.97543e-07
3.93118e-07
6.16544e-07
2.65421e-07
-9.20622e-08
-3.55634e-07
9.05655e-08
-2.2201e-07
5.89343e-07
1.27255e-07
-8.58336e-08
-2.16047e-07
4.08094e-07
-8.53791e-08
-4.84658e-07
-6.3313e-07
-2.05338e-07
2.60193e-07
-7.64677e-08
-4.98976e-08
9.8771e-08
-2.24407e-07
3.26113e-07
1.19328e-07
-3.17465e-08
-4.32044e-07
3.31984e-07
-1.04387e-07
-4.907e-07
-5.58638e-07
-3.09906e-07
2.61304e-07
-2.73551e-07
1.13432e-07
1.18774e-07
-1.81224e-07
2.65148e-07
1.16706e-07
-7.87792e-08
-2.81868e-07
3.25874e-07
-7.89729e-08
-5.75325e-07
-2.0241e-07
-2.13921e-08
2.62025e-07
-3.97731e-07
3.24602e-07
3.69486e-07
-2.19909e-07
1.37395e-07
1.0385e-07
-6.38671e-07
1.3499e-06
4.92471e-07
-7.99537e-07
1.04456e-06
-1.1518e-06
1.08985e-06
6.97909e-09
-3.87255e-07
-2.08494e-07
2.14546e-07
1.15644e-07
-9.05478e-07
-1.1486e-07
-1.83388e-07
-6.38624e-07
-9.93818e-07
3.39578e-07
3.23053e-07
1.63122e-07
-5.22416e-07
-3.75944e-08
1.85196e-07
-2.78771e-07
5.29868e-08
9.58092e-08
-4.39564e-07
5.56883e-08
-5.48685e-07
4.37433e-07
8.22085e-08
1.04903e-07
1.03144e-07
1.06523e-07
-2.23442e-07
-5.18755e-09
1.4367e-07
-3.69601e-07
-3.89428e-07
5.29389e-08
-3.45484e-07
-5.01552e-07
-4.57342e-07
-3.52326e-07
7.07874e-08
1.42496e-07
4.63172e-09
1.52416e-07
-5.18454e-08
5.28302e-09
1.40593e-07
-3.66551e-07
-2.93723e-07
5.61934e-08
-4.10532e-07
-4.37164e-07
-2.68294e-07
-1.60467e-07
2.30887e-07
4.53619e-07
-2.19996e-07
5.41024e-07
-1.42073e-07
-8.98352e-08
-3.32711e-07
2.60625e-06
-7.95245e-07
4.39757e-07
-5.27621e-07
3.76783e-07
1.60957e-06
-3.90324e-07
-2.47918e-07
3.16046e-07
-3.86017e-07
2.07127e-07
3.25525e-07
1.05003e-06
-2.27066e-07
-1.5351e-07
8.07614e-07
2.19983e-07
-2.05046e-08
1.46012e-07
6.10155e-07
-2.67465e-07
-1.49883e-07
-3.69588e-08
-7.50666e-07
1.45734e-06
-2.08245e-07
-9.53994e-07
1.16787e-06
-1.02038e-06
1.25593e-06
2.60089e-07
-4.44089e-08
-1.32857e-07
5.76836e-07
-3.49662e-07
-2.47077e-07
1.06121e-07
3.30238e-07
-1.00476e-06
-4.16382e-08
-9.10761e-08
-1.22802e-06
-4.43818e-07
-9.74228e-07
2.53962e-07
-1.59748e-07
-1.2926e-07
5.88175e-07
-4.48299e-07
-2.36095e-07
-1.0396e-09
-1.11617e-06
1.73149e-06
-5.29564e-08
-1.25324e-06
7.5265e-07
-5.90174e-07
-7.11309e-08
3.05048e-07
-3.63913e-07
-3.22967e-07
5.95223e-07
-4.13218e-07
-4.21578e-07
3.40235e-07
-8.20426e-07
-8.43608e-07
1.29724e-07
7.20372e-07
-1.40727e-06
-8.73299e-07
5.91361e-08
1.17031e-08
-6.04545e-08
-1.47425e-07
-5.20915e-08
-1.51021e-07
2.22773e-07
7.89509e-08
3.64017e-07
1.55815e-08
-1.80567e-07
3.47932e-07
-4.94652e-07
1.82768e-07
-4.33282e-08
1.03663e-06
1.17551e-09
1.198e-06
1.32082e-06
-1.54228e-07
3.6688e-07
-3.28413e-07
1.07975e-07
7.36583e-08
-3.51252e-07
6.75248e-09
4.52943e-08
3.65257e-07
-1.50304e-07
3.75051e-07
-3.53429e-07
7.48795e-08
1.40724e-07
9.14011e-07
6.29862e-08
8.73031e-07
3.32193e-07
2.08033e-08
2.66794e-08
-1.46443e-07
-1.83275e-07
-2.77868e-08
-4.87172e-08
-1.1986e-07
-4.41014e-07
1.75174e-07
-3.88388e-08
-2.78413e-07
-1.08437e-07
-1.66577e-07
8.27702e-07
-1.08218e-06
2.55809e-07
1.10894e-06
-8.45656e-07
5.64001e-07
1.0224e-06
-8.31767e-07
9.23962e-07
-8.61166e-08
-1.47369e-07
1.25691e-06
2.01908e-07
-2.97933e-07
4.42988e-07
-1.83184e-06
2.89687e-07
-6.23003e-08
-1.02665e-06
7.07353e-07
8.32988e-08
-1.66721e-06
7.16846e-07
1.06502e-07
-1.23835e-07
-4.16639e-08
-1.31078e-06
1.61375e-06
1.06597e-06
1.72388e-06
-5.03362e-06
-9.76706e-07
1.01579e-06
6.25171e-09
1.26634e-06
1.63848e-06
-5.50352e-06
1.19441e-06
-7.99225e-09
-1.01173e-08
1.14813e-06
-1.44441e-06
3.54654e-07
1.01404e-06
3.8706e-07
-2.64162e-07
7.83929e-07
8.37305e-07
2.20704e-07
6.81506e-07
4.66647e-07
1.03442e-07
1.08912e-07
-1.5489e-10
-3.79396e-07
1.62447e-06
8.08106e-07
3.25471e-08
1.07893e-06
5.39844e-07
1.07196e-06
6.82097e-07
7.64304e-08
1.10328e-06
-2.97132e-07
-2.36701e-07
1.02063e-06
-5.22918e-07
1.70068e-07
1.0985e-06
-9.92997e-07
6.93429e-08
9.89571e-07
3.11946e-08
6.57074e-09
6.76857e-07
6.39159e-07
4.14672e-07
-7.01974e-07
-6.7199e-07
1.74894e-06
2.41478e-07
-6.70541e-07
4.59754e-07
1.37243e-06
-1.001e-06
2.03353e-06
7.70322e-09
-6.06839e-07
5.75337e-07
-3.26765e-07
6.38787e-07
7.84974e-07
-1.3052e-06
-1.40356e-06
-3.517e-07
1.31034e-06
-3.70722e-07
-1.78468e-06
-1.68112e-06
-1.72185e-06
1.20251e-06
-5.87657e-07
-4.82523e-07
-2.64922e-08
-6.72521e-07
-6.26177e-07
-8.65074e-07
-1.06323e-06
9.40946e-07
-3.75743e-07
-1.11312e-06
1.07604e-06
-1.1831e-06
-8.49414e-07
3.78894e-07
-6.01588e-07
-6.86753e-07
-3.73711e-07
-5.79024e-07
9.30702e-07
-7.62894e-08
-8.49692e-07
-2.20523e-07
-4.8059e-07
3.78267e-07
-7.39665e-07
2.14062e-08
7.70882e-07
-8.48454e-07
-3.09581e-07
-8.09843e-07
5.99625e-07
3.77935e-07
-2.8296e-06
1.00949e-06
2.61364e-07
-7.46596e-08
2.10202e-07
6.13263e-07
6.03775e-07
-3.22241e-07
-4.30006e-07
3.43496e-07
-4.13319e-07
2.91498e-07
-4.31713e-07
-1.00853e-06
5.31268e-07
-1.28818e-06
-5.40643e-07
-2.24303e-08
-5.09578e-07
-5.75351e-07
2.61777e-07
5.57027e-08
3.49222e-07
-5.67113e-07
-3.65775e-07
-6.03582e-07
9.98621e-07
-1.39055e-07
-3.41909e-07
-1.14072e-06
-4.27868e-07
-3.35144e-07
1.78054e-06
4.84078e-07
-1.81805e-07
-4.84917e-07
-3.43323e-07
5.78636e-07
-9.27043e-07
1.77642e-06
-4.308e-07
-3.35634e-07
7.75926e-07
-6.37226e-07
-1.03757e-06
2.70265e-06
-2.01204e-06
-5.78559e-07
-6.34189e-07
-3.7783e-07
6.19315e-07
-6.07461e-07
6.20957e-08
9.19549e-07
-2.70061e-07
6.35605e-07
5.89876e-07
1.15822e-06
8.00321e-07
-7.2267e-08
5.78271e-07
-2.4867e-07
1.00927e-06
-1.59296e-07
1.55145e-07
1.17596e-06
-6.19584e-07
1.15256e-07
9.14042e-07
-6.75819e-07
7.53441e-10
6.3561e-07
-8.48965e-07
4.19371e-07
-7.60297e-08
-4.16532e-07
1.02859e-06
-2.35825e-08
-1.12867e-06
1.74352e-06
-1.11195e-06
-7.91342e-07
4.31234e-07
-3.65842e-07
-5.82341e-07
3.39627e-07
1.45948e-07
5.62207e-07
-1.29597e-06
1.08324e-06
-5.10431e-07
1.50216e-06
-1.61559e-06
-1.68298e-06
4.96943e-06
-5.73988e-07
-2.40875e-07
1.40635e-06
-6.10556e-07
-2.96408e-07
1.87881e-07
-5.553e-07
1.04141e-06
-1.15218e-06
-1.69032e-06
2.13633e-06
-8.35968e-07
-1.25614e-06
-1.37718e-06
-1.07594e-06
-1.19784e-06
-8.28693e-07
-7.01899e-07
-8.22029e-07
-2.22743e-07
-5.57577e-07
-1.30885e-06
-5.64659e-08
-6.80105e-07
-7.20087e-08
-5.90648e-07
3.43717e-07
-4.1611e-07
2.26054e-08
-5.72051e-07
4.82618e-08
8.34592e-07
-9.86388e-07
9.27512e-07
-7.04851e-07