/*--------------------------------*- C++ -*----------------------------------*\
  =========                 |
  \\      /  F ield         | OpenFOAM: The Open Source CFD Toolbox
   \\    /   O peration     | Website:  https://openfoam.org
    \\  /    A nd           | Version:  6
     \\/     M anipulation  |
\*---------------------------------------------------------------------------*/
FoamFile
{
    version     2.0;
    format      ascii;
    class       volVectorField;
    location    "2";
    object      U;
}
// * * * * * * * * * * * * * * * * * * * * * * * * * * * * * * * * * * * * * //

dimensions      [0 1 -1 0 0 0 0];

internalField   nonuniform List<vector> 
6000
(
(-0.0606264 2.34226e-07 -3.98053e-08)
(0 0 0)
(-0.0737727 1.80169e-07 3.71916e-07)
(-0.110425 5.52343e-07 4.60739e-08)
(-0.00449794 0.0016659 1.61357e-09)
(-0.0536298 2.15361e-07 7.77478e-07)
(-0.0844569 3.71553e-07 -6.16938e-08)
(-0.0891837 2.39697e-07 4.07561e-08)
(-0.111715 3.65048e-07 4.73314e-08)
(-0.00439945 0.00162943 9.36517e-09)
(-0.0859086 -1.52611e-07 1.7226e-06)
(-0.075307 -2.19228e-07 3.43594e-07)
(-0.0732204 2.10119e-07 4.07015e-07)
(-0.112227 6.30839e-07 2.93296e-08)
(-0.00738226 0.00273417 1.9331e-08)
(-0.0768648 -1.32277e-07 4.3016e-07)
(-0.0710571 -6.88054e-08 7.49553e-07)
(-0.0901677 9.87022e-08 1.21854e-06)
(-0.105879 2.30672e-07 4.45917e-07)
(-0.00838646 0.0031061 4.94848e-07)
(-0.00644627 3.72215e-10 0.00644625)
(0 0 0)
(-0.00570097 2.98013e-09 0.00570097)
(-0.00679344 1.52647e-07 0.00679344)
(-0.100063 0.0370606 0.100063)
(-0.0212144 -0.000511374 0.00147022)
(-0.022101 -0.00020791 -0.000224464)
(-0.023359 -0.00137871 -0.00165684)
(-0.00516944 0.001547 -2.53533e-05)
(-2.32619e-07 0.0413746 6.05392e-08)
(-0.0211522 -0.0011553 -0.000187907)
(-0.0208029 -0.00113167 0.00143417)
(-0.0181666 -0.000938268 0.000219637)
(-0.00642895 0.00204005 -5.821e-05)
(-2.38522e-07 0.041932 9.4292e-09)
(-0.0237424 0.000199365 0.00231557)
(-0.0255634 -5.92713e-05 0.00527826)
(-0.0243111 -0.00219691 0.00209699)
(-0.00632808 0.00182383 0.00033524)
(-4.16248e-07 0.0418334 -4.58042e-08)
(-0.0173243 -0.000142393 0.0165668)
(-0.0249081 -0.00164213 0.0202996)
(-0.0141229 -0.00161671 0.0133003)
(-0.00805027 0.00241084 0.00795339)
(-4.08452e-07 0.0393494 5.653e-07)
(-3.13421e-07 -8.18781e-08 0.0715893)
(-2.94174e-07 1.86535e-08 0.068439)
(-1.10575e-06 1.49271e-07 0.0905661)
(-4.45373e-07 2.41903e-07 0.105779)
(-5.52445e-07 0.00347519 0.00938301)
(-0.00340209 -0.000173209 -0.000120282)
(0 0 0)
(-0.00180418 3.85461e-05 -0.000121798)
(-3.4457e-05 0.000676048 -2.86187e-05)
(-1.16698e-08 0.0431666 3.89571e-08)
(-0.00230605 -6.4278e-05 -2.02117e-05)
(-0.000348885 -1.69298e-05 4.18461e-05)
(-0.000552055 -6.50152e-06 1.00034e-05)
(-7.1952e-06 0.000148676 -7.53115e-06)
(-5.87351e-08 0.0440704 6.25465e-08)
(-0.000599477 -7.1789e-06 0.000703703)
(-0.00220937 -3.55139e-05 0.00104499)
(-0.00268618 -0.000120789 0.00206953)
(0 0 0)
(5.8522e-09 0.0443395 1.05432e-07)
(-0.00152937 -0.00120035 0.0249322)
(-0.00285091 -0.000286821 0.011121)
(-0.00278124 -0.000629478 0.0182974)
(-0.000133207 0.00157853 0.00505922)
(5.02179e-09 0.0428936 4.41678e-07)
(2.30114e-07 7.57008e-09 0.0867634)
(5.17411e-07 -2.92781e-07 0.101693)
(-3.76483e-08 4.52118e-08 0.081427)
(-3.40233e-08 5.88542e-07 0.1135)
(1.20022e-09 0.00281357 0.00759662)
(0.00284722 -2.74119e-05 -2.12031e-07)
(0.000256296 -2.63452e-06 1.69334e-06)
(0.000446852 6.54092e-06 -1.79352e-06)
(0.00457256 0.00172451 -1.95264e-05)
(6.07833e-07 0.0421258 1.68832e-08)
(0.00210108 -1.4641e-05 4.21608e-05)
(0.00144243 -1.67681e-05 1.4716e-05)
(0 0 0)
(0.00456789 0.00170633 -2.43149e-05)
(6.26155e-07 0.0424113 2.66003e-08)
(0.00393764 -5.26121e-05 0.00124407)
(0.00134785 -2.33708e-05 0.000148714)
(0.000507149 4.35723e-06 5.37687e-05)
(0.00455605 0.00169303 0.000203532)
(6.41116e-07 0.0425144 1.5089e-08)
(0.0174217 -0.00223296 0.0287753)
(0.0106918 -0.000984637 0.012041)
(0.0095815 -0.000146075 0.011466)
(0.00538158 0.00189317 0.00541845)
(5.41022e-07 0.0405322 5.94231e-07)
(0 0 0)
(3.20044e-07 -9.33576e-08 0.10597)
(1.27573e-06 -3.64488e-08 0.10496)
(4.98446e-07 2.72789e-07 0.108395)
(6.02539e-07 0.00376189 0.0101571)
(0.110097 -2.68525e-08 7.97273e-08)
(0.111842 -1.59041e-09 8.267e-08)
(0.113143 1.45297e-07 1.44419e-08)
(0.113305 3.51154e-07 -1.02144e-09)
(0.00933527 0.00345751 4.27842e-09)
(0 0 0)
(0.112351 -2.64193e-08 2.30041e-07)
(0.113812 1.14618e-07 1.31011e-07)
(0.113805 3.66641e-07 -1.08951e-08)
(0.010127 0.00375075 7.76546e-09)
(0.107168 7.15172e-08 -1.03989e-06)
(0.114147 6.44944e-08 3.5192e-07)
(0.115027 5.64082e-08 2.97879e-07)
(0.113791 3.36463e-07 -2.76346e-08)
(0.0107956 0.00399838 3.84632e-09)
(0.0604449 2.71845e-07 1.39459e-08)
(0.105104 4.53823e-07 3.11559e-07)
(0.106216 -2.387e-08 4.6373e-07)
(0.108112 2.58872e-07 5.10036e-07)
(0.0111403 0.00412603 6.41128e-07)
(0.0148756 2.49891e-08 0.0148758)
(0.00766991 1.60815e-08 0.00766991)
(0.00598958 6.82737e-09 0.00598958)
(0.00824325 1.8675e-07 0.00824325)
(0.100161 0.0370966 0.100161)
(0 0 0)
(-0.274625 -3.71051e-06 -1.63929e-06)
(-0.292512 -3.53503e-08 3.90636e-07)
(-0.274372 3.6123e-06 -1.64158e-06)
(0 0 0)
(-0.0253578 -0.012679 6.36186e-08)
(-0.27422 -3.08563e-06 -2.58495e-06)
(-0.293755 -3.75333e-08 9.9349e-07)
(-0.273986 3.00543e-06 -2.58563e-06)
(-0.0248326 0.0124164 6.88419e-08)
(0 0 0)
(-0.277806 -3.63205e-06 -1.00512e-06)
(-0.29752 -3.7523e-08 1.48999e-06)
(-0.277479 3.56845e-06 -9.97761e-07)
(0 0 0)
(-0.0401451 -0.0200727 2.22992e-06)
(-0.262406 -2.96799e-06 4.99699e-06)
(-0.282036 -3.28956e-08 3.17868e-06)
(-0.262096 2.91983e-06 5.00375e-06)
(-0.0399636 0.0199819 2.20679e-06)
(-0.102581 -0.0512905 0.102581)
(-0.0324786 -1.14368e-06 0.0324787)
(-0.0140494 -1.43237e-09 0.0140495)
(-0.0325283 1.13316e-06 0.0325284)
(-0.10165 0.0508252 0.10165)
(-4.04927e-06 -0.137526 -1.16892e-07)
(-0.0478928 -0.0236002 -0.00143589)
(-0.0109212 -2.83167e-06 3.53525e-05)
(-0.0473902 0.0233477 -0.00143004)
(-3.84759e-06 0.137199 -1.44935e-07)
(-3.16347e-06 -0.141996 -1.14064e-06)
(-0.03294 -0.0169059 -0.00204151)
(-0.0105281 -3.4133e-06 2.23523e-05)
(-0.0328193 0.0168143 -0.00203064)
(-3.19962e-06 0.141602 -1.12354e-06)
(-4.94378e-06 -0.143671 -1.01472e-06)
(-0.0224166 -0.0115725 0.000429616)
(-0.00925361 -1.5028e-06 0.000609459)
(-0.0223442 0.0115226 0.000437209)
(-4.91228e-06 0.143358 -9.29332e-07)
(-4.56946e-06 -0.136119 4.31865e-06)
(-0.017974 -0.00927909 0.0181222)
(-0.020063 -2.78759e-06 0.0205435)
(-0.0178421 0.00921006 0.0180046)
(-4.50836e-06 0.135913 4.34955e-06)
(-1.79839e-06 -0.0154663 0.0309326)
(-3.79655e-06 -2.23303e-06 0.268107)
(-1.11883e-06 -2.658e-08 0.288675)
(-3.77111e-06 2.19201e-06 0.267879)
(-1.76997e-06 0.0153751 0.03075)
(-1.15384e-06 -0.159169 1.27534e-07)
(-0.000439238 -0.00294186 8.02822e-05)
(0 0 0)
(-0.000447743 0.00311451 7.80844e-05)
(-3.59674e-07 0.159005 -1.05924e-07)
(-3.09709e-07 -0.157322 7.80884e-09)
(-0.000382567 -0.00446553 0.000163717)
(-4.34646e-06 -1.7522e-06 0.000579218)
(-0.000385944 0.00445853 0.000153266)
(-7.43943e-07 0.156717 -1.0642e-07)
(6.61478e-07 -0.156259 -1.62777e-07)
(-0.000153359 -0.00474932 0.00062071)
(6.90875e-05 -1.96734e-06 0.000939285)
(-0.000152036 0.00472657 0.000620897)
(7.46141e-07 0.155981 1.95538e-08)
(3.70966e-07 -0.146351 4.27729e-06)
(0.000553399 -0.00976462 0.0193533)
(5.97462e-05 8.41597e-07 0.00992197)
(0.000570442 0.00981445 0.0194569)
(5.08411e-07 0.146204 4.32572e-06)
(1.71628e-08 -0.0140945 0.0281889)
(7.44901e-07 -2.33912e-06 0.289471)
(4.7052e-07 -1.87116e-08 0.309422)
(7.85907e-07 2.3117e-06 0.289212)
(2.61022e-08 0.0140485 0.028097)
(2.39151e-06 -0.146535 6.49237e-07)
(0.0237178 -0.0117515 5.09147e-05)
(0.0113768 1.31794e-05 1.81308e-05)
(0.0240947 0.0120564 -2.71805e-05)
(2.09683e-06 0.14787 -5.23669e-07)
(1.73289e-06 -0.148087 5.1085e-07)
(0.0198311 -0.00998549 -5.49977e-06)
(0.0105105 -4.75018e-06 3.25842e-05)
(0.0196915 0.0098488 -5.67865e-05)
(3.58793e-06 0.146568 -1.30256e-07)
(2.76896e-06 -0.148073 -3.78974e-07)
(0.0176209 -0.00885264 0.00160832)
(0.0100519 -1.10042e-06 0.000696579)
(0.0176012 0.00884088 0.00163145)
(3.52337e-06 0.14798 2.57766e-07)
(3.56231e-06 -0.132766 3.81189e-06)
(0.0290962 -0.0144793 0.0292097)
(0.0217977 4.72819e-06 0.0217763)
(0.0292979 0.0145961 0.0294146)
(3.81462e-06 0.13285 3.86282e-06)
(2.3159e-06 -0.0138048 0.0276096)
(3.525e-06 -2.07533e-06 0.263602)
(3.12025e-06 -5.79436e-09 0.289284)
(3.53516e-06 2.07742e-06 0.263399)
(2.31659e-06 0.0138623 0.0277246)
(0 0 0)
(0.290441 -1.57484e-06 4.48503e-07)
(0.308265 6.09079e-08 1.72117e-07)
(0.290371 1.42039e-06 1.20633e-07)
(0.0154896 0.00774484 7.46209e-08)
(0.0121131 -0.00605659 1.47146e-08)
(0.292427 -1.2249e-06 6.08452e-07)
(0.308735 -1.13243e-07 4.09385e-07)
(0.291475 2.04638e-06 4.49902e-07)
(0 0 0)
(0.0164897 -0.00824486 1.16171e-07)
(0.294088 -1.57823e-06 5.36189e-08)
(0.309523 -2.19742e-08 5.18099e-07)
(0.293916 1.90054e-06 2.74704e-07)
(0.0204473 0.0102237 4.45745e-08)
(0.0237215 -0.0118608 2.11464e-06)
(0.26429 -1.81667e-06 3.09646e-06)
(0.289438 2.70779e-09 3.0741e-06)
(0.264187 1.92162e-06 3.11372e-06)
(0.0250396 0.0125198 2.16457e-06)
(0.147452 -0.0737262 0.147452)
(0.0211003 -9.41668e-07 0.0211003)
(0.0166029 -5.98523e-10 0.0166029)
(0.0210462 9.34007e-07 0.0210462)
(0.146731 0.0733656 0.146731)
(0 0 0)
(-0.0297738 7.39935e-09 3.97354e-10)
(0 0 0)
(-0.0297596 -5.73262e-09 -6.19965e-10)
(0 0 0)
(-0.000473539 -0.000263077 -4.89154e-11)
(-0.0297181 -4.49484e-09 -1.30939e-09)
(-0.0303046 -2.91978e-10 -4.24712e-08)
(-0.029676 9.01118e-09 -2.12919e-09)
(-0.000966819 0.000537122 3.22367e-11)
(-0.000696099 -0.000386722 1.87205e-10)
(-0.0295153 -1.39517e-08 -3.59429e-10)
(-0.028687 -1.72947e-10 -5.45465e-09)
(-0.0294829 1.78221e-08 5.79994e-10)
(-0.00111564 0.000619799 9.72142e-11)
(-0.000992678 -0.000551488 9.83635e-09)
(-0.0291173 -1.18301e-08 2.1807e-08)
(-0.0289088 2.32994e-10 2.49791e-08)
(-0.0291147 1.33257e-08 2.21265e-08)
(-0.00109989 0.000611051 1.07238e-08)
(-0.0164295 -0.00912748 0.0164295)
(-0.00119012 -6.5428e-09 0.00119012)
(-0.000929803 9.86307e-14 0.000929803)
(-0.00116591 6.46036e-09 0.00116591)
(-0.0164053 0.00911404 0.0164053)
(5.57046e-10 -0.0166489 -8.01777e-10)
(-0.0012843 -0.00070622 3.47751e-06)
(-0.00460884 2.97756e-06 3.501e-05)
(-0.00129619 0.000714853 2.26059e-06)
(-1.44017e-09 0.016674 -3.61072e-09)
(-5.46535e-09 -0.0165803 -3.68854e-09)
(-0.000911563 -0.000503011 5.63682e-06)
(-0.00385486 7.9968e-07 0.000117326)
(-0.000908162 0.000500721 4.77342e-06)
(-1.34876e-08 0.0165342 -5.9961e-09)
(-1.12907e-08 -0.0164304 -3.33899e-09)
(-0.000594753 -0.000323703 1.14742e-05)
(-0.00438989 1.03549e-06 0.000142882)
(-0.000605947 0.000329539 1.1988e-05)
(-1.84175e-08 0.0163983 -1.24699e-09)
(-1.88157e-08 -0.0161515 2.09035e-08)
(-0.000591559 -0.000322524 0.000592086)
(-0.00167805 8.27123e-07 0.00166074)
(-0.000606839 0.000331272 0.000607433)
(-2.11278e-08 0.0161637 2.08162e-08)
(-1.18724e-08 -0.00069063 0.00124313)
(-1.78964e-08 -4.2306e-09 0.0292602)
(2.82498e-08 2.8918e-10 0.0299562)
(-1.74684e-08 3.75277e-09 0.0292625)
(-1.10913e-08 0.000635638 0.00114415)
(0 0 0)
(-1.74738e-05 -0.0022769 5.20572e-05)
(0 0 0)
(-1.86471e-05 0.00229401 5.06873e-05)
(0 0 0)
(-2.21192e-09 -0.0171063 -1.55082e-08)
(-1.41406e-05 -0.00195702 9.02624e-05)
(-0.000103187 2.24414e-06 0.000314942)
(-1.35658e-05 0.00196599 8.77759e-05)
(-7.00497e-10 0.0171014 -1.67036e-08)
(-1.53403e-09 -0.0167525 -5.8843e-09)
(-1.1209e-05 -0.00206599 9.88367e-05)
(-2.49586e-05 1.09879e-07 0.000225618)
(-1.19088e-05 0.00206758 9.84574e-05)
(-8.29931e-10 0.0167462 -5.60206e-09)
(1.29274e-10 -0.0164232 2.18855e-08)
(-3.31152e-06 -0.000649361 0.00115404)
(-1.07013e-05 5.48759e-07 0.00302738)
(-3.90939e-06 0.000655912 0.00116567)
(-7.9278e-10 0.0164294 2.01084e-08)
(0 0 0)
(-3.09112e-10 9.91639e-09 0.0298639)
(0 0 0)
(-7.69458e-10 -1.10052e-08 0.0298772)
(-6.27232e-11 0.000687837 0.00123811)
(3.61129e-10 -0.0167378 -3.0855e-09)
(0.00138895 -0.000786425 4.47835e-06)
(0.00381316 1.94352e-06 6.94529e-05)
(0.00141933 0.00080495 3.91573e-06)
(-8.20943e-09 0.016745 -3.6836e-09)
(1.19125e-08 -0.0165894 -5.32382e-09)
(0.000847513 -0.00047419 6.68998e-06)
(0.0034424 1.06674e-06 0.000149682)
(0.000865786 0.000484708 6.10938e-06)
(5.7673e-09 0.016586 -6.21446e-09)
(1.67684e-08 -0.0164394 -1.08572e-09)
(0.000492644 -0.000271624 1.03719e-05)
(0.00402988 5.29418e-07 0.000166765)
(0.000497573 0.00027431 1.03672e-05)
(1.23675e-08 0.0164327 -1.36943e-09)
(2.04928e-08 -0.0162039 2.24195e-08)
(0.000502242 -0.000275592 0.000505027)
(0.00154619 3.4831e-07 0.00155033)
(0.000502615 0.000275915 0.000505605)
(1.67981e-08 0.0161951 2.01824e-08)
(1.28712e-08 -0.000685371 0.00123367)
(1.57823e-08 -4.63542e-09 0.0293298)
(-2.98939e-08 3.29267e-11 0.030041)
(1.45163e-08 3.3496e-09 0.0293207)
(1.20651e-08 0.000613227 0.00110381)
(0.000955304 -0.000530725 7.40559e-12)
(0.0298196 3.38449e-09 -3.659e-11)
(0 0 0)
(0.0298114 -7.52948e-09 -2.97865e-10)
(0.000506832 0.000281574 2.86824e-11)
(0.000970624 -0.000539235 4.95367e-11)
(0.0297234 -1.02364e-08 -1.37864e-09)
(0.0304944 1.03794e-10 -3.94401e-08)
(0.0297148 6.90721e-09 -1.78575e-09)
(0.00061952 0.000344178 9.15986e-11)
(0.00112017 -0.000622316 1.21571e-10)
(0.0295055 -1.86884e-08 1.01515e-09)
(0.028869 1.88831e-11 -3.05172e-09)
(0.0294997 1.61688e-08 7.54598e-10)
(0.00085861 0.000477005 1.69331e-10)
(0.00109597 -0.000608872 1.16249e-08)
(0.0291512 -1.35089e-08 2.16089e-08)
(0.0289561 -4.34183e-11 2.65337e-08)
(0.0291343 1.16753e-08 2.07419e-08)
(0.000909787 0.000505437 1.01826e-08)
(0.0178291 -0.00990507 0.0178291)
(0.0011191 -6.73369e-09 0.0011191)
(0.000921929 -1.44176e-11 0.00092193)
(0.00107606 6.73283e-09 0.00107606)
(0.0187502 0.0104168 0.0187502)
(0 0 0)
(-0.274625 -3.71051e-06 -1.63929e-06)
(-0.292512 -3.53503e-08 3.90636e-07)
(-0.274372 3.6123e-06 -1.64158e-06)
(0 0 0)
(-0.0253578 -0.012679 6.36186e-08)
(-0.27422 -3.08563e-06 -2.58495e-06)
(-0.293755 -3.75333e-08 9.9349e-07)
(-0.273986 3.00543e-06 -2.58563e-06)
(-0.0248326 0.0124164 6.88419e-08)
(0 0 0)
(-0.277806 -3.63205e-06 -1.00512e-06)
(-0.29752 -3.7523e-08 1.48999e-06)
(-0.277479 3.56845e-06 -9.97761e-07)
(0 0 0)
(-0.0401451 -0.0200727 2.22992e-06)
(-0.262406 -2.96799e-06 4.99699e-06)
(-0.282036 -3.28956e-08 3.17868e-06)
(-0.262096 2.91983e-06 5.00375e-06)
(-0.0399636 0.0199819 2.20679e-06)
(-0.102581 -0.0512905 0.102581)
(-0.0324786 -1.14368e-06 0.0324787)
(-0.0140494 -1.43237e-09 0.0140495)
(-0.0325283 1.13316e-06 0.0325284)
(-0.10165 0.0508252 0.10165)
(-4.04927e-06 -0.137526 -1.16892e-07)
(-0.0478928 -0.0236002 -0.00143589)
(-0.0109212 -2.83167e-06 3.53525e-05)
(-0.0473902 0.0233477 -0.00143004)
(-3.84759e-06 0.137199 -1.44935e-07)
(-3.16347e-06 -0.141996 -1.14064e-06)
(-0.03294 -0.0169059 -0.00204151)
(-0.0105281 -3.4133e-06 2.23523e-05)
(-0.0328193 0.0168143 -0.00203064)
(-3.19962e-06 0.141602 -1.12354e-06)
(-4.94378e-06 -0.143671 -1.01472e-06)
(-0.0224166 -0.0115725 0.000429616)
(-0.00925361 -1.5028e-06 0.000609459)
(-0.0223442 0.0115226 0.000437209)
(-4.91228e-06 0.143358 -9.29332e-07)
(-4.56946e-06 -0.136119 4.31865e-06)
(-0.017974 -0.00927909 0.0181222)
(-0.020063 -2.78759e-06 0.0205435)
(-0.0178421 0.00921006 0.0180046)
(-4.50836e-06 0.135913 4.34955e-06)
(-1.79839e-06 -0.0154663 0.0309326)
(-3.79655e-06 -2.23303e-06 0.268107)
(-1.11883e-06 -2.658e-08 0.288675)
(-3.77111e-06 2.19201e-06 0.267879)
(-1.76997e-06 0.0153751 0.03075)
(-1.15384e-06 -0.159169 1.27534e-07)
(-0.000439238 -0.00294186 8.02822e-05)
(0 0 0)
(-0.000447743 0.00311451 7.80844e-05)
(-3.59674e-07 0.159005 -1.05924e-07)
(-3.09709e-07 -0.157322 7.80884e-09)
(-0.000382567 -0.00446553 0.000163717)
(-4.34646e-06 -1.7522e-06 0.000579218)
(-0.000385944 0.00445853 0.000153266)
(-7.43943e-07 0.156717 -1.0642e-07)
(6.61478e-07 -0.156259 -1.62777e-07)
(-0.000153359 -0.00474932 0.00062071)
(6.90875e-05 -1.96734e-06 0.000939285)
(-0.000152036 0.00472657 0.000620897)
(7.46141e-07 0.155981 1.95538e-08)
(3.70966e-07 -0.146351 4.27729e-06)
(0.000553399 -0.00976462 0.0193533)
(5.97462e-05 8.41597e-07 0.00992197)
(0.000570442 0.00981445 0.0194569)
(5.08411e-07 0.146204 4.32572e-06)
(1.71628e-08 -0.0140945 0.0281889)
(7.44901e-07 -2.33912e-06 0.289471)
(4.7052e-07 -1.87116e-08 0.309422)
(7.85907e-07 2.3117e-06 0.289212)
(2.61022e-08 0.0140485 0.028097)
(2.39151e-06 -0.146535 6.49237e-07)
(0.0237178 -0.0117515 5.09147e-05)
(0.0113768 1.31794e-05 1.81308e-05)
(0.0240947 0.0120564 -2.71805e-05)
(2.09683e-06 0.14787 -5.23669e-07)
(1.73289e-06 -0.148087 5.1085e-07)
(0.0198311 -0.00998549 -5.49977e-06)
(0.0105105 -4.75018e-06 3.25842e-05)
(0.0196915 0.0098488 -5.67865e-05)
(3.58793e-06 0.146568 -1.30256e-07)
(2.76896e-06 -0.148073 -3.78974e-07)
(0.0176209 -0.00885264 0.00160832)
(0.0100519 -1.10042e-06 0.000696579)
(0.0176012 0.00884088 0.00163145)
(3.52337e-06 0.14798 2.57766e-07)
(3.56231e-06 -0.132766 3.81189e-06)
(0.0290962 -0.0144793 0.0292097)
(0.0217977 4.72819e-06 0.0217763)
(0.0292979 0.0145961 0.0294146)
(3.81462e-06 0.13285 3.86282e-06)
(2.3159e-06 -0.0138048 0.0276096)
(3.525e-06 -2.07533e-06 0.263602)
(3.12025e-06 -5.79436e-09 0.289284)
(3.53516e-06 2.07742e-06 0.263399)
(2.31659e-06 0.0138623 0.0277246)
(0 0 0)
(0.290441 -1.57484e-06 4.48503e-07)
(0.308265 6.09079e-08 1.72117e-07)
(0.290371 1.42039e-06 1.20633e-07)
(0.0154896 0.00774484 7.46209e-08)
(0.0121131 -0.00605659 1.47146e-08)
(0.292427 -1.2249e-06 6.08452e-07)
(0.308735 -1.13243e-07 4.09385e-07)
(0.291475 2.04638e-06 4.49902e-07)
(0 0 0)
(0.0164897 -0.00824486 1.16171e-07)
(0.294088 -1.57823e-06 5.36189e-08)
(0.309523 -2.19742e-08 5.18099e-07)
(0.293916 1.90054e-06 2.74704e-07)
(0.0204473 0.0102237 4.45745e-08)
(0.0237215 -0.0118608 2.11464e-06)
(0.26429 -1.81667e-06 3.09646e-06)
(0.289438 2.70779e-09 3.0741e-06)
(0.264187 1.92162e-06 3.11372e-06)
(0.0250396 0.0125198 2.16457e-06)
(0.147452 -0.0737262 0.147452)
(0.0211003 -9.41668e-07 0.0211003)
(0.0166029 -5.98523e-10 0.0166029)
(0.0210462 9.34007e-07 0.0210462)
(0.146731 0.0733656 0.146731)
(-0.000484635 -0.00028508 1.05722e-10)
(-0.0271842 1.06364e-08 -4.89462e-09)
(0 0 0)
(-0.0275425 -9.78725e-09 -3.17683e-09)
(0 0 0)
(-0.000777674 -0.000457455 2.86377e-10)
(-0.0271824 -1.00492e-08 -6.9396e-09)
(-0.0278825 8.19182e-10 -9.44987e-08)
(-0.0276249 6.92326e-09 -4.70984e-09)
(-0.000498575 0.000293279 6.27167e-11)
(-0.00115878 -0.000681635 1.81139e-10)
(-0.0271015 -4.92971e-08 -1.24088e-09)
(-0.0217536 8.96236e-10 -2.29235e-10)
(-0.0274404 4.69856e-08 -1.36678e-09)
(-0.000793277 0.000466634 2.18317e-10)
(-0.00111945 -0.000658499 1.04927e-08)
(-0.026687 -1.24854e-08 1.77213e-08)
(-0.0267558 7.22769e-10 7.53161e-08)
(-0.0269807 1.12968e-08 1.74229e-08)
(-0.00100208 0.000589458 9.87097e-09)
(-0.0158884 -0.00934612 0.0158884)
(-0.00107321 -6.09232e-09 0.00107321)
(-0.000865539 2.63508e-11 0.000865539)
(-0.00108307 6.33686e-09 0.00108307)
(-0.0164841 0.00969653 0.0164841)
(-3.17007e-08 -0.0157669 1.95665e-09)
(-0.00110424 -0.000676111 -1.2223e-05)
(-0.00228722 -1.61826e-05 -9.79908e-06)
(-0.00075115 0.000450789 -7.51487e-06)
(-3.5728e-08 0.015869 3.54779e-09)
(-1.23845e-08 -0.0160174 5.20392e-09)
(-0.000979609 -0.000581652 -1.20571e-05)
(-0.00238665 -1.66002e-05 0.000163618)
(-0.000630881 0.000369372 -4.05756e-06)
(-1.18024e-08 0.016163 3.52821e-09)
(-4.38074e-09 -0.0161622 3.27476e-11)
(-0.00131119 -0.000711392 1.93398e-05)
(-0.00475866 -2.3295e-05 0.000199276)
(-0.000788928 0.000425622 1.56739e-05)
(-1.35672e-08 0.0161064 -6.16083e-10)
(-1.46867e-08 -0.0157724 1.19139e-08)
(-0.00057329 -0.000335386 0.00057178)
(-0.0016413 -7.34972e-06 0.00154376)
(-0.000547244 0.00031527 0.000547108)
(-1.64641e-08 0.0158109 1.56105e-08)
(-9.78251e-09 -0.000612013 0.00104042)
(-1.65781e-08 -2.2923e-09 0.0267227)
(2.12119e-08 1.08375e-09 0.0278108)
(-1.56312e-08 1.5207e-09 0.0270508)
(-1.00203e-08 0.000597054 0.00101499)
(-1.35871e-09 -0.0146799 2.36088e-08)
(9.11669e-06 -0.00221536 -0.000183541)
(0.000235135 -1.41266e-05 -1.55348e-05)
(1.99775e-05 0.00200157 -0.000147078)
(1.57501e-09 0.0148134 2.13925e-08)
(-6.61482e-10 -0.0164482 3.89091e-08)
(3.68695e-06 -0.00153054 -0.00016892)
(0.000140154 -2.93129e-05 -9.8989e-05)
(1.21425e-05 0.00141332 -0.000104726)
(-7.41539e-10 0.0163893 2.65987e-08)
(0 0 0)
(-6.48742e-06 -0.00128142 4.28774e-05)
(0 0 0)
(-6.96005e-07 0.00145881 5.09517e-05)
(-2.13806e-09 0.0165408 2.59257e-09)
(-1.52613e-09 -0.0161481 3.5723e-09)
(-3.67179e-06 -0.000803204 0.00134977)
(-5.65003e-06 -6.92446e-06 0.00201631)
(-8.95651e-07 0.000691336 0.00116613)
(-6.49838e-10 0.0161122 1.29741e-08)
(-7.80854e-11 -0.00060902 0.00103533)
(-1.57271e-09 8.26069e-09 0.0272831)
(0 0 0)
(-1.14513e-09 -1.11933e-08 0.0276326)
(-4.18133e-11 0.000484098 0.000822967)
(2.65971e-08 -0.0156721 2.76514e-09)
(0.000323473 -0.00017525 -3.96578e-06)
(0.00584545 -3.88457e-05 -0.000726937)
(0.000286958 0.000152736 -3.06765e-06)
(3.13572e-08 0.0158325 1.13993e-09)
(4.24146e-09 -0.0159685 4.41424e-09)
(0.000817112 -0.000476383 -1.48783e-05)
(0.0029472 -1.42315e-05 -0.000386425)
(0.000768121 0.000440893 -9.75941e-06)
(1.25565e-08 0.0160465 -2.77502e-10)
(-4.57888e-09 -0.0161351 -8.43319e-10)
(0.00121429 -0.000716151 1.27203e-05)
(0.00227695 -5.61162e-06 3.22852e-05)
(0.000982725 0.00057725 1.34155e-05)
(1.27461e-08 0.0160359 -5.34598e-10)
(7.65619e-09 -0.0157628 1.21084e-08)
(0.00049565 -0.000290845 0.000495828)
(0.00154997 -5.0608e-06 0.00153774)
(0.000525508 0.000303725 0.000524899)
(1.49268e-08 0.0158 1.62774e-08)
(1.19627e-08 -0.000594332 0.00101036)
(1.09309e-08 -5.85928e-09 0.0267029)
(-1.65437e-08 1.32844e-09 0.0273908)
(1.13902e-08 5.5176e-09 0.0270024)
(1.30494e-08 0.000570117 0.000969199)
(0.000264894 -0.00015582 2.75418e-11)
(0.0266458 -4.82675e-08 1.16466e-09)
(0.0193552 6.41041e-10 5.49457e-08)
(0.0270258 5.03249e-08 1.57646e-09)
(0.000422389 0.000248464 6.11426e-11)
(0.000363228 -0.000213664 8.21892e-11)
(0.0270483 -5.48315e-09 1.56495e-09)
(0.0272945 1.13876e-09 1.08854e-07)
(0.0274164 7.6044e-09 1.86187e-09)
(0.000595639 0.000350376 1.53194e-10)
(0.000546149 -0.000321264 1.05332e-10)
(0.0272564 1.09408e-08 -1.16415e-09)
(0 0 0)
(0.0275039 -9.14653e-09 -1.06874e-09)
(0.000874634 0.00051449 1.64108e-10)
(0.000761634 -0.00044802 9.24398e-09)
(0.0266797 -3.63302e-09 1.11291e-08)
(0.0273576 1.20341e-09 -1.29836e-08)
(0.0269662 5.60208e-09 1.23379e-08)
(0.000946117 0.000556539 1.27444e-08)
(0.0204078 -0.0120046 0.0204078)
(0.000801638 -5.62525e-09 0.000801638)
(0 0 0)
(0.000855699 6.73461e-09 0.000855699)
(0.0226551 0.0133265 0.0226551)
(0 0 0)
(-0.274625 -3.71051e-06 -1.63929e-06)
(-0.292512 -3.53503e-08 3.90636e-07)
(-0.274372 3.6123e-06 -1.64158e-06)
(0 0 0)
(-0.0253578 -0.012679 6.36186e-08)
(-0.27422 -3.08563e-06 -2.58495e-06)
(-0.293755 -3.75333e-08 9.9349e-07)
(-0.273986 3.00543e-06 -2.58563e-06)
(-0.0248326 0.0124164 6.88419e-08)
(0 0 0)
(-0.277806 -3.63205e-06 -1.00512e-06)
(-0.29752 -3.7523e-08 1.48999e-06)
(-0.277479 3.56845e-06 -9.97761e-07)
(0 0 0)
(-0.0401451 -0.0200727 2.22992e-06)
(-0.262406 -2.96799e-06 4.99699e-06)
(-0.282036 -3.28956e-08 3.17868e-06)
(-0.262096 2.91983e-06 5.00375e-06)
(-0.0399636 0.0199819 2.20679e-06)
(-0.102581 -0.0512905 0.102581)
(-0.0324786 -1.14368e-06 0.0324787)
(-0.0140494 -1.43237e-09 0.0140495)
(-0.0325283 1.13316e-06 0.0325284)
(-0.10165 0.0508252 0.10165)
(-4.04927e-06 -0.137526 -1.16892e-07)
(-0.0478928 -0.0236002 -0.00143589)
(-0.0109212 -2.83167e-06 3.53525e-05)
(-0.0473902 0.0233477 -0.00143004)
(-3.84759e-06 0.137199 -1.44935e-07)
(-3.16347e-06 -0.141996 -1.14064e-06)
(-0.03294 -0.0169059 -0.00204151)
(-0.0105281 -3.4133e-06 2.23523e-05)
(-0.0328193 0.0168143 -0.00203064)
(-3.19962e-06 0.141602 -1.12354e-06)
(-4.94378e-06 -0.143671 -1.01472e-06)
(-0.0224166 -0.0115725 0.000429616)
(-0.00925361 -1.5028e-06 0.000609459)
(-0.0223442 0.0115226 0.000437209)
(-4.91228e-06 0.143358 -9.29332e-07)
(-4.56946e-06 -0.136119 4.31865e-06)
(-0.017974 -0.00927909 0.0181222)
(-0.020063 -2.78759e-06 0.0205435)
(-0.0178421 0.00921006 0.0180046)
(-4.50836e-06 0.135913 4.34955e-06)
(-1.79839e-06 -0.0154663 0.0309326)
(-3.79655e-06 -2.23303e-06 0.268107)
(-1.11883e-06 -2.658e-08 0.288675)
(-3.77111e-06 2.19201e-06 0.267879)
(-1.76997e-06 0.0153751 0.03075)
(-1.15384e-06 -0.159169 1.27534e-07)
(-0.000439238 -0.00294186 8.02822e-05)
(0 0 0)
(-0.000447743 0.00311451 7.80844e-05)
(-3.59674e-07 0.159005 -1.05924e-07)
(-3.09709e-07 -0.157322 7.80884e-09)
(-0.000382567 -0.00446553 0.000163717)
(-4.34646e-06 -1.7522e-06 0.000579218)
(-0.000385944 0.00445853 0.000153266)
(-7.43943e-07 0.156717 -1.0642e-07)
(6.61478e-07 -0.156259 -1.62777e-07)
(-0.000153359 -0.00474932 0.00062071)
(6.90875e-05 -1.96734e-06 0.000939285)
(-0.000152036 0.00472657 0.000620897)
(7.46141e-07 0.155981 1.95538e-08)
(3.70966e-07 -0.146351 4.27729e-06)
(0.000553399 -0.00976462 0.0193533)
(5.97462e-05 8.41597e-07 0.00992197)
(0.000570442 0.00981445 0.0194569)
(5.08411e-07 0.146204 4.32572e-06)
(1.71628e-08 -0.0140945 0.0281889)
(7.44901e-07 -2.33912e-06 0.289471)
(4.7052e-07 -1.87116e-08 0.309422)
(7.85907e-07 2.3117e-06 0.289212)
(2.61022e-08 0.0140485 0.028097)
(2.39151e-06 -0.146535 6.49237e-07)
(0.0237178 -0.0117515 5.09147e-05)
(0.0113768 1.31794e-05 1.81308e-05)
(0.0240947 0.0120564 -2.71805e-05)
(2.09683e-06 0.14787 -5.23669e-07)
(1.73289e-06 -0.148087 5.1085e-07)
(0.0198311 -0.00998549 -5.49977e-06)
(0.0105105 -4.75018e-06 3.25842e-05)
(0.0196915 0.0098488 -5.67865e-05)
(3.58793e-06 0.146568 -1.30256e-07)
(2.76896e-06 -0.148073 -3.78974e-07)
(0.0176209 -0.00885264 0.00160832)
(0.0100519 -1.10042e-06 0.000696579)
(0.0176012 0.00884088 0.00163145)
(3.52337e-06 0.14798 2.57766e-07)
(3.56231e-06 -0.132766 3.81189e-06)
(0.0290962 -0.0144793 0.0292097)
(0.0217977 4.72819e-06 0.0217763)
(0.0292979 0.0145961 0.0294146)
(3.81462e-06 0.13285 3.86282e-06)
(2.3159e-06 -0.0138048 0.0276096)
(3.525e-06 -2.07533e-06 0.263602)
(3.12025e-06 -5.79436e-09 0.289284)
(3.53516e-06 2.07742e-06 0.263399)
(2.31659e-06 0.0138623 0.0277246)
(0 0 0)
(0.290441 -1.57484e-06 4.48503e-07)
(0.308265 6.09079e-08 1.72117e-07)
(0.290371 1.42039e-06 1.20633e-07)
(0.0154896 0.00774484 7.46209e-08)
(0.0121131 -0.00605659 1.47146e-08)
(0.292427 -1.2249e-06 6.08452e-07)
(0.308735 -1.13243e-07 4.09385e-07)
(0.291475 2.04638e-06 4.49902e-07)
(0 0 0)
(0.0164897 -0.00824486 1.16171e-07)
(0.294088 -1.57823e-06 5.36189e-08)
(0.309523 -2.19742e-08 5.18099e-07)
(0.293916 1.90054e-06 2.74704e-07)
(0.0204473 0.0102237 4.45745e-08)
(0.0237215 -0.0118608 2.11464e-06)
(0.26429 -1.81667e-06 3.09646e-06)
(0.289438 2.70779e-09 3.0741e-06)
(0.264187 1.92162e-06 3.11372e-06)
(0.0250396 0.0125198 2.16457e-06)
(0.147452 -0.0737262 0.147452)
(0.0211003 -9.41668e-07 0.0211003)
(0.0166029 -5.98523e-10 0.0166029)
(0.0210462 9.34007e-07 0.0210462)
(0.146731 0.0733656 0.146731)
(-0.00334166 -0.00119345 1.36158e-09)
(-0.133754 -4.3911e-07 -1.59083e-08)
(-0.129873 -5.36871e-07 9.25553e-08)
(-0.120003 -9.53935e-07 7.93803e-08)
(-0.0708738 -4.53067e-07 7.64722e-07)
(-0.00423204 -0.00151144 9.37252e-09)
(-0.133232 -4.22872e-07 -6.4864e-08)
(-0.130168 -5.01814e-07 2.74011e-07)
(-0.122133 -5.3131e-07 3.25957e-07)
(-0.105217 -2.9201e-07 2.11428e-06)
(-0.00791041 -0.00282515 2.29036e-08)
(-0.13195 -4.38344e-07 -1.24254e-07)
(-0.131691 -3.95969e-07 5.04139e-07)
(-0.126571 -1.92957e-07 7.43148e-07)
(-0.123402 -2.08799e-08 2.32625e-06)
(-0.0107214 -0.00382907 6.69622e-07)
(-0.122645 -3.48401e-07 6.61357e-07)
(-0.121896 -1.73324e-07 4.97197e-07)
(-0.116707 1.18463e-07 1.76171e-06)
(-0.110948 2.06396e-07 1.52401e-06)
(-0.104433 -0.0372977 0.104433)
(-0.0107285 -2.59322e-07 0.0107285)
(-0.00534512 2.45058e-09 0.00534511)
(0 0 0)
(-0.00761335 -4.9839e-09 0.00761335)
(-1.57772e-07 -0.0479661 7.11185e-09)
(-0.00891248 -0.00318236 2.14555e-05)
(-0.00401365 -6.22694e-05 2.74024e-05)
(-0.00250752 0.000161843 -2.14525e-05)
(-0.0188567 0.00150736 -0.0036024)
(-2.84091e-07 -0.0478862 -7.00338e-08)
(-0.00864103 -0.00308527 6.11679e-05)
(-0.00245138 -4.73415e-05 3.20192e-05)
(-0.0010642 1.34989e-05 -1.80099e-05)
(-0.00377343 4.69903e-05 -0.000646564)
(-5.54906e-07 -0.0473045 -1.17715e-07)
(-0.00861258 -0.00306462 0.000551562)
(-0.00149166 -3.55815e-05 0.000165103)
(-0.00184621 5.59254e-06 0.000220465)
(-0.00415444 2.7794e-05 0.000851411)
(-6.95975e-07 -0.0441301 7.10895e-07)
(-0.00833922 -0.00286262 0.00831858)
(-0.0124816 -3.1144e-05 0.0139226)
(-0.0149507 0.0006867 0.0163971)
(-0.0239344 0.00107051 0.0285835)
(-7.23966e-07 -0.00422765 0.0118374)
(-7.73891e-07 -4.25032e-07 0.122002)
(-7.92292e-07 -1.22635e-07 0.119325)
(-1.31267e-06 1.70481e-07 0.117956)
(-9.86593e-07 1.64402e-07 0.110401)
(0 0 0)
(1.86644e-05 -0.00122265 1.4311e-05)
(0 0 0)
(0.00828442 0.00105546 -0.000813561)
(0.00293272 0.000331234 -0.00143292)
(-8.20056e-08 -0.050903 -1.14061e-07)
(9.93491e-06 -0.000558519 1.41755e-05)
(0.00247722 4.65085e-05 0.000587927)
(0.00250643 0.000141324 -0.000594121)
(0.00358238 8.81043e-05 -0.00179458)
(1.36398e-07 -0.0504981 -8.74566e-08)
(3.84781e-06 -0.000246259 4.67471e-05)
(0.00160441 -6.89186e-05 0.00177804)
(0 0 0)
(5.37531e-05 9.97981e-08 8.14018e-05)
(1.63551e-08 -0.0470903 7.23465e-07)
(0.000121271 -0.0028314 0.00892647)
(0.00186001 6.98568e-05 0.0178415)
(0.00217396 0.000259332 0.0124682)
(0.00460323 0.00107094 0.0272937)
(5.8014e-10 -0.00418257 0.0117112)
(-3.4635e-08 -6.11105e-07 0.130021)
(-9.38045e-08 -1.38726e-07 0.110931)
(2.87289e-07 1.35482e-07 0.122684)
(1.64489e-07 1.39067e-08 0.108369)
(7.4864e-07 -0.0473924 -5.92778e-09)
(0.00971531 -0.00314792 3.16477e-05)
(0.0191717 0.00128315 0.000488692)
(0.0286636 0.00160091 -0.00266321)
(0.0251117 -0.000209673 -0.00178619)
(7.64631e-07 -0.047212 1.21629e-07)
(0.00955516 -0.00301589 6.81376e-05)
(0.0203717 0.00083351 0.000627498)
(0.0245102 0.000335609 -0.00285846)
(0.0216092 -8.83121e-05 -0.00223374)
(5.66533e-07 -0.0476038 -2.5235e-08)
(0.00940316 -0.00299966 0.000675796)
(0.0191956 0.000528231 0.00141145)
(0.0222754 -5.32978e-05 0.00230928)
(0.0198141 -0.000114483 0.0040964)
(7.2595e-07 -0.0435321 5.89716e-07)
(0.00991192 -0.00307637 0.00989686)