/*--------------------------------*- C++ -*----------------------------------*\
  =========                 |
  \\      /  F ield         | OpenFOAM: The Open Source CFD Toolbox
   \\    /   O peration     | Website:  https://openfoam.org
    \\  /    A nd           | Version:  6
     \\/     M anipulation  |
\*---------------------------------------------------------------------------*/
FoamFile
{
    version     2.0;
    format      ascii;
    class       volScalarField;
    location    "1.5";
    object      O2;
}
// * * * * * * * * * * * * * * * * * * * * * * * * * * * * * * * * * * * * * //

dimensions      [0 0 0 0 0 0 0];

internalField   nonuniform List<scalar> 
297
(
0
0
0
0
0
0
0
0
0
0
0
0
0
0
0
0
0
0
0
0
0
0
0
0
0
0
0
0.127046
0.04878
0.126227
0.186947
0.171456
0.185293
0.127167
0.0486516
0.126683
0.0319847
0.000348904
0.032214
0.113187
0.116079
0.112882
0.0321691
0.000295106
0.0321183
0
0
0
0.0757092
0.0195325
0.0754051
0
0
0
0
5.41328e-11
0
0
0
0
0
0
0
5.48873e-17
4.17138e-15
3.75212e-17
4.9527e-19
2.95033e-14
7.84113e-19
2.33639e-15
4.86217e-15
2.37843e-15
2.66623e-15
2.12277e-15
2.75381e-15
6.03479e-15
1.95929e-14
6.15165e-15
2.69232e-15
1.95036e-15
2.74118e-15
0
0
0
0.0296589
2.22619e-07
0.029345
0
0
0
0
0
0
0.0126232
0
0.012191
0
0
0
0
0
0
0
0
0
0
0
0
1.94287e-15
1.39002e-15
1.97559e-15
5.8316e-15
1.06948e-15
5.90979e-15
1.96265e-15
1.38794e-15
1.97221e-15
1.05233e-15
9.69343e-16
1.05458e-15
5.27359e-15
1.06642e-15
5.40674e-15
1.01317e-15
1.0162e-15
1.05485e-15
8.71382e-16
8.86973e-16
8.94031e-16
1.40054e-15
1.08711e-15
1.34335e-15
8.489e-16
8.89592e-16
9.09623e-16
1.13932e-15
6.47904e-16
2.33669e-16
5.90579e-15
5.90626e-15
5.90854e-15
1.14073e-15
6.48317e-16
2.33639e-16
1.06483e-15
2.8903e-16
1.6826e-16
4.46863e-15
4.51563e-15
5.2735e-15
1.05908e-15
2.88941e-16
1.68135e-16
8.75705e-16
2.7751e-16
1.94394e-16
1.27367e-15
1.16563e-15
3.16421e-15
8.91714e-16
2.77639e-16
1.94362e-16
3.36867e-16
5.38455e-16
1.12577e-15
5.82766e-15
5.82834e-15
5.829e-15
2.48756e-16
4.55221e-16
1.14538e-15
1.79344e-16
2.88955e-16
1.04274e-15
5.23613e-15
4.427e-15
4.37921e-15
1.55378e-16
2.68567e-16
1.0463e-15
2.2934e-16
2.89106e-16
8.44022e-16
2.95886e-15
1.13825e-15
1.31678e-15
1.78638e-16
2.49016e-16
8.04747e-16
1.30929e-18
2.05477e-17
2.09165e-17
3.41991e-18
3.42474e-18
2.01767e-15
1.43943e-18
2.49022e-17
2.51223e-17
3.76051e-18
5.5997e-17
6.95863e-17
3.91048e-18
4.56707e-18
3.25504e-15
4.13328e-18
6.62867e-17
7.61399e-17
3.75839e-18
1.00703e-16
2.09706e-16
4.0889e-18
1.36692e-15
3.20767e-15
4.13051e-18
1.20791e-16
1.72776e-16
3.75598e-18
1.84695e-17
1.07893e-16
4.07946e-18
6.05045e-16
2.02328e-15
4.12768e-18
1.29676e-17
8.74289e-17
4.27845e-18
1.98358e-17
4.28348e-17
3.67511e-17
4.95444e-16
1.35159e-15
4.4389e-18
1.37668e-17
3.46431e-17
2.92178e-22
2.12526e-21
4.13683e-21
3.77072e-17
2.4323e-16
5.46719e-16
5.36754e-22
2.10904e-21
4.11475e-21
2.22891e-17
2.20827e-17
4.29383e-18
2.07179e-15
4.60567e-18
4.51099e-18
2.23195e-17
2.21143e-17
4.56092e-18
7.08973e-17
5.76197e-17
4.29634e-18
3.30129e-15
5.02577e-18
4.53699e-18
7.06298e-17
5.72706e-17
4.56007e-18
2.0313e-16
1.04205e-16
4.29572e-18
3.26581e-15
1.38697e-15
4.55036e-18
2.0463e-16
1.03432e-16
4.55785e-18
1.03032e-16
1.61213e-17
4.29299e-18
1.81312e-15
4.41085e-16
4.52162e-18
1.03744e-16
1.58551e-17
4.55507e-18
4.08059e-17
1.83434e-17
4.30163e-18
1.39811e-15
4.36849e-16
3.58926e-17
4.10988e-17
1.7995e-17
4.54609e-18
4.38269e-21
2.11443e-21
2.8902e-22
5.8384e-16
2.36494e-16
3.69447e-17
4.38375e-21
2.11382e-21
5.32588e-22
)
;

boundaryField
{
    fuel
    {
        type            fixedValue;
        value           uniform 0;
    }
    primary_air
    {
        type            fixedValue;
        value           uniform 0.23;
    }
    Secondary_air_RHS
    {
        type            fixedValue;
        value           uniform 0.23;
    }
    Secondary_air_LHS
    {
        type            fixedValue;
        value           uniform 0.23;
    }
    outlet
    {
        type            inletOutlet;
        inletValue      uniform 0;
        value           nonuniform List<scalar> 
18
(
0
5.8384e-16
0
0
2.36494e-16
0
0
3.69447e-17
0
0
3.77072e-17
0
0
2.4323e-16
0
0
5.46719e-16
0
)
;
    }
    stove_body
    {
        type            fixedValue;
        value           uniform 0;
    }
    frontAndBack
    {
        type            empty;
    }
}


// ************************************************************************* //
