/*--------------------------------*- C++ -*----------------------------------*\
  =========                 |
  \\      /  F ield         | OpenFOAM: The Open Source CFD Toolbox
   \\    /   O peration     | Website:  https://openfoam.org
    \\  /    A nd           | Version:  6
     \\/     M anipulation  |
\*---------------------------------------------------------------------------*/
FoamFile
{
    version     2.0;
    format      ascii;
    class       surfaceScalarField;
    location    "1.5";
    object      phi;
}
// * * * * * * * * * * * * * * * * * * * * * * * * * * * * * * * * * * * * * //

dimensions      [1 0 -1 0 0 0 0];

internalField   nonuniform List<scalar> 
675
(
3.35251e-06
-0.000209095
0.000323682
-3.34222e-06
-0.000207655
0.000332208
-0.000209022
0.000323628
3.99998e-06
0.000209095
-0.000228719
-4.30672e-06
0.000207656
-0.000213801
0.000209022
-0.000228867
3.35306e-06
0.000323686
-3.34169e-06
0.000332212
0.000323632
2.73627e-06
1.13159e-05
0.000309708
-2.7117e-06
2.04875e-05
0.000317158
1.13239e-05
0.000309669
-6.30867e-06
-1.1315e-05
-0.00019961
6.30392e-06
-2.0487e-05
-0.000186081
-1.13228e-05
-0.00019975
2.73668e-06
0.000309712
-2.71111e-06
0.000317161
0.000309673
2.60474e-06
0.000189313
-2.50234e-06
0.000204297
0.000189369
-1.41614e-05
-0.000189315
1.42009e-05
-0.000204296
-0.00018937
2.60476e-06
-2.50164e-06
-0.00617225
0.0060115
0.00335823
0.00623427
0.00276942
-0.0119766
0.00601006
0.00342311
0.000829844
-0.00600429
0.0164378
-0.000826445
-0.002733
0.0124113
-0.00600583
0.0164438
-0.00622167
0.0034146
0.00625097
-0.0120073
0.00344422
-0.000172422
0.00851923
-0.00498912
-0.000172056
0.00435129
-0.0163678
0.0085307
-0.00528006
-0.00168883
-0.00853209
0.0351792
0.00143834
-0.00447564
0.0181112
-0.00853169
0.0349461
-0.000109291
-0.00500595
-0.000149331
-0.0164004
-0.00523449
0.00420924
0.0169062
-0.0261089
-0.0036849
0.0084301
-0.0169752
0.0170664
-0.0260354
-0.036475
-0.0169467
0.105507
0.0364357
-0.00852062
-0.0378508
-0.0170204
0.105468
0.00412867
-0.0260772
-0.00382798
-0.0168942
-0.0260802
-0.00411942
-0.00895319
-0.0210851
0.0341562
0.00422357
0.00800526
-0.0307757
0.0144134
-0.00894126
-0.0208971
0.0340616
0.0193103
0.00893964
0.04297
-0.0801735
-0.0193964
-0.00801233
0.00279404
0.0519295
0.00893918
0.0429307
-0.0802088
-0.00415317
-0.0210268
0.03412
0.00421197
-0.0307702
0.0144047
-0.020955
0.034105
0.0015361
-0.00577949
-0.0168368
-0.00147166
-0.00276887
-0.0249967
-0.00574028
-0.0166279
0.00882533
0.00575864
0.0226086
-0.00882767
0.00275817
0.0149198
0.00574864
0.022613
0.00151665
-0.0167866
-0.00148614
-0.0250116
-0.0166947
0.00247529
-0.00288946
-0.0164174
-0.00291404
-0.00100543
-0.0186016
-0.00308547
-0.0164612
-0.0101221
0.0029454
0.0268963
0.0104108
0.00100162
-0.00761979
0.00302903
0.0269106
0.00259949
-0.0164458
-0.00279393
-0.0186163
-0.0164538
0.000697128
-0.00245076
-0.0285992
-0.000663987
-0.0018319
-0.0137816
-0.00241688
-0.0285265
-0.00327691
0.00244437
0.0970699
0.00327285
0.00174964
-0.0479823
0.00242518
0.0970802
0.000694364
-0.0285682
-0.000673174
-0.0137754
-0.0285692
0.000192122
-0.00128097
-0.0317509
-0.000167814
-0.00107696
-0.012338
-0.00126446
-0.0316703
-0.00151202
0.00127876
0.0892167
0.00150772
0.00104408
-0.0531202
0.00126729
0.0892508
0.000190333
-0.0317183
-0.000174082
-0.0123723
-0.0317147
9.58283e-05
-0.00192856
-7.67661e-05
0.00225172
-0.00192337
-0.0016293
0.00192639
0.00162388
-0.00219466
0.00192518
8.97937e-05
-7.73423e-05
0.00452777
-0.00352929
-0.00480067
-0.0126146
-0.0046243
-0.000946524
-0.00850355
-0.00358239
-0.00485853
-0.0126457
-0.00128491
0.00354485
0.00945494
0.0116522
0.0013392
0.000946061
-0.0121357
0.00356911
0.00937698
0.0117229
0.0045566
-0.00482392
-0.012634
-0.0045992
-0.00851273
-0.00484359
-0.0126364
0.0043679
0.000167298
0.00101979
-0.010355
-0.00449741
0.00164235
-0.00128153
0.000149611
0.000883021
-0.010391
-0.000826319
-0.000166202
0.000738761
0.00987746
0.000856516
-0.00164365
-0.0105315
-0.000153301
0.000602151
0.00993636
0.00439134
0.000991895
-0.0103735
-0.00448045
-0.00128244
0.000911949
-0.0103844
0.0022725
0.00242877
-0.00368083
-0.00213219
0.0031222
0.00243974
-0.00369077
0.00219145
-0.00243502
0.0034106
-0.00209054
-0.00312615
-0.00243898
0.00339272
0.00223664
-0.00367981
-0.00216954
-0.00369123
-0.0122833
-0.00189978
0.00153672
-0.0131258
-0.0007379
0.00157982
-0.000786649
0.00141495
-0.0137529
0.00799539
0.00189972
-7.16e-05
0.00650724
0.000738292
1.20227e-05
0.00078795
0.00345103
0.00148081
-0.0122734
0.00153776
-0.0131165
0.00158105
0.0014156
-0.0137455
-0.0100672
-0.0018785
0.00309075
-0.0103068
-0.000446256
0.00226557
-0.00016276
0.000828412
-0.0095561
0.0090106
0.00187918
-0.00290294
0.00749716
0.000446225
0.000632964
0.000163041
0.0062011
0.00442128
-0.0100599
0.00309368
-0.0102997
0.00226701
0.000830415
-0.0095526
-0.000920747
0.000320341
0.000510843
0.000833989
0.00048201
0.000858719
0.00112935
-0.000318704
0.00342901
-0.00083276
-0.000478003
0.0105881
-0.000914903
0.000519603
0.000871175
0.0130976
-0.000789173
0.00141026
-0.0137184
0.0122587
-0.000732664
0.00157174
-0.00189313
0.00153752
-0.00645041
0.000786051
0.00341617
0.00145911
-0.00790727
0.000731555
-7.26385e-06
0.00189765
-4.58359e-05
0.0131219
0.0014055
-0.0137414
0.0122784
0.00157492
0.00154187
0.0102826
-0.00016315
0.000828061
-0.00953696
0.0100403
-0.000443579
0.00225791
-0.00187395
0.00309706
-0.00745242
0.000157081
0.00616427
0.00438421
-0.00895398
0.000441784
0.000609064
0.00187863
-0.00287478
0.0102961
0.000815648
-0.00954923
0.0100545
0.00225828
0.00310128
-0.000527096
0.000476664
0.00087865
0.000901006
0.000830055
0.000317509
-0.00344091
-0.000479908
0.0105618
-0.00117189
-0.00082984
-0.000318559
-0.000531119
0.00086683
0.000897217
0.00845329
0.000574793
-0.00902785
0.0138055
-0.000764171
-0.00458783
0.000189557
-0.000102217
0.00603735
-0.000575469
-0.00488697
0.0023812
0.000758778
0.00213328
-0.000189862
0.00421989
0.00846136
-0.00903675
0.0138222
-0.00460197
-0.000108986
0.00606998
0.00044789
-0.0155459
0.0092684
-0.000413674
-0.00737265
0.000527557
-0.000898198
0.00494037
-0.000451696
-0.00892775
3.16526e-05
0.00041381
0.0062146
-0.000528302
0.00969173
0.00607066
-0.015559
0.00927304
-0.00739046
-0.000913433
0.00550493
0.00275967
-0.0238106
0.00494461
-0.00101101
-0.0058016
-8.7387e-05
0.00501242
0.00187033
-0.00276764
-0.00527091
-0.0059821
0.00101951
0.0120365
8.34917e-05
0.0141006
0.00550257
-0.0238291
0.00496246
-0.00583077
0.00499937
0.00242209
0.00776062
-0.0339941
0.0057173
0.00343742
-0.012535
0.00291018
0.0078188
0.0102105
-0.00777515
5.36289e-05
0.01062
-0.00344601
0.0185098
-0.00292246
0.0305527
0.00240359
-0.034008
0.00573262
-0.0126059
0.00780947
-0.0141714
0.00994738
-0.0297703
-0.0132266
0.00658073
-0.0200608
0.00648463
-0.0118926
-0.00140606
-0.00995408
0.0213607
-0.00480927
-0.00656931
0.0350627
-0.00647804
0.0387057
-0.0141703
-0.0297923
-0.0132414
-0.0201046
-0.0119104
-0.00751
0.0218089
-0.00672384
0.0209659
0.0223243
-0.00809359
-0.0217999
-0.00823426
-0.0209379
-0.0223106
-0.0075017
-0.0067285
-0.0138363
0.000191514
-0.000105488
-0.00846944
-0.00075522
-0.0046072
0.00057918
-0.00904318
-0.00236938
-0.00018884
0.00422936
-0.00604272
0.000760293
0.0021565
-0.000576246
-0.00488838
-0.0138315
-0.000104463
-0.0084682
-0.004605
-0.00904689
-0.00928129
0.000530538
-0.000907834
-0.00607109
-0.000411633
-0.00740154
0.000454141
-0.015565
-2.79376e-05
-0.000528943
0.00973699
-0.00495006
0.000412967
0.00625252
-0.000451319
-0.0089342
-0.0092827
-0.000904694
-0.00607556
-0.00740105
-0.0155764
-0.00497323
-8.20332e-05
0.00500868
-0.00549863
-0.00102087
-0.00585261
0.00276998
-0.0238457
0.00598268
8.57864e-05
0.0141734
-0.00188106
0.00101758
0.0120763
-0.00276901
-0.00527744
-0.00496517
0.00501669
-0.00550932
-0.00584036
-0.0238538
-0.00575416
0.00295879
0.00782089
-0.00241188
0.00344608
-0.0126218
0.00778912
-0.0340521
-0.010607
-0.00295391
0.0306779
-0.0102194
-0.00344448
0.0185822
-0.00778594
6.3747e-05
-0.00574992
0.00781763
-0.0024405
-0.0125964
-0.0340588
0.0132475
0.00647195
-0.0119295
0.0141465
0.00657478
-0.0201316
0.00992274
-0.029826
0.00491499
-0.00648198
0.038738
0.00152421
-0.00658523
0.03508
-0.0099001
0.0214364
0.013259
-0.0119238
0.0141869
-0.0201045
-0.0297922
0.00674814
0.0222902
0.00752895
0.0209318
0.0217829
0.00823912
-0.0222959
0.00814386
-0.020947
-0.0217751
0.0067439
0.00752999
)
;

boundaryField
{
    fuel
    {
        type            calculated;
        value           nonuniform List<scalar> 
36
(
0.000117875
0.000193352
0.000117875
0.000117875
0.000193352
0.000117875
0.000117875
0.000193352
0.000117875
-0.000117875
-0.000193351
-0.000117875
-0.000117875
-0.000193351
-0.000117875
-0.000117875
-0.000193351
-0.000117875
0
0
0
0
0
0
0
0
0
0
0
0
0
0
0
0
0
0
)
;
    }
    primary_air
    {
        type            calculated;
        value           nonuniform List<scalar> 9(-0.00319839 -0.00525337 -0.00319841 -0.00319907 -0.00525291 -0.00319908 -0.00319843 -0.00525339 -0.00319843);
    }
    Secondary_air_RHS
    {
        type            calculated;
        value           nonuniform List<scalar> 9(0.00424238 0.00681831 0.0042424 0.00423951 0.00680534 0.00423954 0.00423799 0.00681722 0.00423804);
    }
    Secondary_air_LHS
    {
        type            calculated;
        value           nonuniform List<scalar> 9(0.00424247 0.0068185 0.00424245 0.00423965 0.00680556 0.00423963 0.00423816 0.00681746 0.00423816);
    }
    outlet
    {
        type            calculated;
        value           nonuniform List<scalar> 
18
(
-0.0409696
0.0750863
-0.0409641
-0.0418462
0.0770346
-0.0418382
-0.0440824
0.0731444
-0.0440387
-0.0440694
0.0730626
-0.0440908
-0.0418132
0.0771068
-0.041816
-0.040941
0.075106
-0.0409498
)
;
    }
    stove_body
    {
        type            calculated;
        value           uniform 0;
    }
    frontAndBack
    {
        type            empty;
        value           nonuniform 0();
    }
}


// ************************************************************************* //
