/*--------------------------------*- C++ -*----------------------------------*\
  =========                 |
  \\      /  F ield         | OpenFOAM: The Open Source CFD Toolbox
   \\    /   O peration     | Website:  https://openfoam.org
    \\  /    A nd           | Version:  6
     \\/     M anipulation  |
\*---------------------------------------------------------------------------*/
FoamFile
{
    version     2.0;
    format      ascii;
    class       volVectorField;
    location    "1.5";
    object      U;
}
// * * * * * * * * * * * * * * * * * * * * * * * * * * * * * * * * * * * * * //

dimensions      [0 1 -1 0 0 0 0];

internalField   nonuniform List<vector> 
297
(
(118.885 0.0168311 0.265213)
(118.637 -0.000347856 0.279683)
(118.884 -0.0162178 0.265198)
(2.71777e-07 0.0918898 -0.512343)
(2.9758e-07 -0.00115686 -0.519301)
(3.24082e-07 -0.0909821 -0.512241)
(-118.885 0.0168326 0.265218)
(-118.637 -0.000345078 0.279686)
(-118.884 -0.0162165 0.265202)
(118.813 0.00380579 0.592872)
(118.447 -0.000258393 0.604385)
(118.813 -0.00310324 0.592767)
(2.52612e-07 0.0174416 -0.320138)
(3.01325e-07 -0.000858946 -0.305422)
(2.98451e-07 -0.0150995 -0.320184)
(-118.813 0.00380668 0.59288)
(-118.446 -0.000255884 0.604391)
(-118.813 -0.00310161 0.592775)
(112.279 -0.0149549 0.918631)
(111.623 -0.000220791 0.933907)
(112.275 0.0162861 0.918483)
(2.64271e-07 0.00557845 0.525213)
(3.33739e-07 -0.000738459 0.557129)
(3.0795e-07 -0.00344165 0.524888)
(-112.279 -0.0149552 0.918635)
(-111.623 -0.000219226 0.933911)
(-112.275 0.016288 0.918487)
(79.5072 -3.04626 -5.40654)
(81.5924 0.0267767 -8.9355)
(79.5144 3.11048 -5.46257)
(8.31429e-05 -1.50845 2.96694)
(8.27985e-05 -0.0105967 3.11501)
(1.5074e-05 1.53969 2.98965)
(-79.5218 -3.08182 -5.52423)
(-81.634 0.0116618 -8.98214)
(-79.5263 3.12134 -5.52977)
(83.3314 3.8518 12.0326)
(82.9795 0.111429 -14.9778)
(83.4017 -4.40228 11.8032)
(5.32302e-05 2.3423 29.3077)
(-0.000250927 0.069062 16.8007)
(-6.10562e-05 -2.6793 29.2536)
(-83.3564 3.94038 12.0777)
(-82.8271 0.0659052 -15.0399)
(-83.4084 -4.33137 11.9122)
(83.6873 15.4489 -7.21139)
(82.453 0.224894 -15.9303)
(83.7545 -15.2276 -6.97116)
(0.000342506 -1.48776 36.1019)
(-0.000392366 0.0309701 0.348826)
(-0.000181532 1.43716 36.0936)
(-83.7022 15.3887 -7.15697)
(-82.3346 0.145974 -15.9777)
(-83.7483 -15.2991 -7.10677)
(82.0048 5.34763 -27.9284)
(81.6221 -0.150551 -18.9666)
(82.0442 -4.99693 -27.8543)
(1.94667e-05 3.04042 -1.22442)
(7.51687e-05 -0.0416893 -10.0463)
(0.000352367 -3.08021 -1.19805)
(-82.0163 5.25561 -27.8988)
(-81.6125 -0.0703741 -18.9723)
(-82.0421 -5.08401 -27.8931)
(82.0458 11.4435 -18.5899)
(81.3432 -0.198579 -24.7538)
(82.0912 -11.0782 -18.4334)
(-0.000332526 3.12719 2.53436)
(0.000122095 0.0120462 1.16359)
(0.000404366 -3.20378 2.53376)
(-82.0516 11.3574 -18.5512)
(-81.3448 -0.0938394 -24.7672)
(-82.0816 -11.1817 -18.4865)
(81.5766 18.0785 -26.5896)
(80.9358 -0.381817 -26.3069)
(81.6128 -17.8809 -26.5088)
(-4.28619e-05 0.326758 11.2713)
(0.000440298 0.0913422 3.04764)
(0.000645415 -0.300177 11.271)
(-81.5969 18.047 -26.5925)
(-80.936 -0.17636 -26.3254)
(-81.614 -17.94 -26.5455)
(76.4017 18.9155 -22.7216)
(78.0268 0.0623922 -12.7875)
(76.508 -18.5255 -22.6787)
(-0.000114056 -0.483026 45.6625)
(-7.38631e-05 0.00719879 -24.8248)
(7.96439e-05 0.435507 45.6874)
(-76.422 18.8143 -22.7049)
(-75.6892 0.0632394 -12.7519)
(-76.4866 -18.6101 -22.7055)
(74.2767 11.331 -27.4887)
(79.0738 -0.0130013 -10.3264)
(74.1721 -10.9212 -27.3945)
(-8.3353e-05 0.229597 49.2912)
(0.000257664 0.00231472 -23.6843)
(0.000112009 -0.276526 49.3315)
(-74.2951 11.2309 -27.4637)
(-77.8989 0.0240501 -10.3732)
(-74.1544 -11.0139 -27.4356)
(69.6264 9.06842 -27.3062)
(80.5791 -0.0378786 -11.7803)
(69.6919 -8.70085 -27.2246)
(-8.02412e-07 0.789977 47.9723)
(0.000909939 -0.00151803 -19.8636)
(0.000168745 -0.836717 48.0172)
(-69.6373 8.97214 -27.2801)
(-82.348 0.00607675 -11.8021)
(-69.6643 -8.78762 -27.2614)
(79.3272 29.9251 -6.7052)
(79.9744 -0.265083 -9.08417)
(79.3318 -29.9836 -6.77589)
(0.000288013 -7.8109 11.3292)
(0.000405957 0.0289604 -6.64268)
(-0.000159307 7.96499 11.3216)
(-79.3407 29.9743 -6.73613)
(-79.9724 -0.127634 -9.09322)
(-79.3424 -29.9763 -6.75797)
(80.0194 25.3812 -1.71794)
(80.3491 -0.351439 -4.25574)
(80.0238 -25.4637 -1.74769)
(0.000384732 -9.4283 3.04466)
(0.000421802 0.00161175 -5.16614)
(-0.000308464 9.57401 3.00651)
(-80.0011 25.4189 -1.72215)
(-80.3835 -0.256368 -4.25955)
(-80.0282 -25.4569 -1.74403)
(80.5783 5.91599 2.53971)
(80.7464 0.234642 -1.26253)
(80.6028 -5.66363 2.4348)
(0.00043894 -1.68886 -1.70571)
(0.000412735 0.244521 -1.2938)
(-0.000415836 1.57208 -1.84546)
(-80.565 5.83046 2.51499)
(-80.7475 0.105661 -1.26489)
(-80.6132 -5.73463 2.46665)
(77.7462 -31.8176 -1.32225)
(78.9501 -39.295 -5.22864)
(79.0502 -41.6476 -7.37586)
(-0.00137781 17.8984 9.06128)
(-0.0017987 15.0463 7.93792)
(-0.00190718 12.6839 10.3456)
(-77.766 -31.7977 -1.31458)
(-78.9697 -39.2795 -5.21941)
(-79.0688 -41.6381 -7.36758)
(78.027 -26.3736 4.43877)
(79.3761 -32.073 3.59205)
(79.9627 -33.3759 0.727045)
(-0.00135585 16.4339 -3.89055)
(-0.00173032 15.2372 -4.7601)
(-0.00173189 15.7765 2.84885)
(-78.0321 -26.356 4.43965)
(-79.3833 -32.0555 3.59151)
(-79.9666 -33.3631 0.723929)
(80.15 -7.87777 8.59386)
(80.4768 -4.29062 9.33892)
(80.4385 6.81542 10.6801)
(-0.00138181 2.39182 -4.34332)
(-0.00169636 2.19545 3.37249)
(-0.00154226 16.6557 6.95366)
(-80.1624 -7.86042 8.59829)
(-80.4825 -4.26775 9.33777)
(-80.4399 6.81069 10.679)
(79.1129 41.5475 -7.33934)
(78.8831 39.2078 -5.21235)
(77.7418 31.7356 -1.30974)
(8.86834e-05 -12.6173 10.3273)
(0.000252318 -14.8979 7.94745)
(0.000390077 -17.7848 9.10166)
(-79.0552 41.6062 -7.37841)
(-78.8428 39.2664 -5.24392)
(-77.7617 31.7856 -1.32218)
(79.9637 33.2941 0.715344)
(79.3744 31.9922 3.57479)
(78.0199 26.2912 4.43571)
(-3.12912e-05 -15.7003 2.81553)
(5.9567e-05 -15.1502 -4.76585)
(0.000253 -16.344 -3.84506)
(-79.9464 33.3418 0.692427)
(-79.3635 32.0435 3.57441)
(-78.0159 26.3337 4.44481)
(80.4519 -6.78565 10.6432)
(80.4694 4.21196 9.29664)
(80.1275 7.79856 8.59388)
(2.46015e-05 -16.6045 6.87809)
(2.20238e-05 -2.24324 3.30329)
(0.000225629 -2.44184 -4.27712)
(-80.4118 -6.85677 10.6698)
(-80.4505 4.23164 9.32798)
(-80.1149 7.80851 8.61506)
(77.7177 18.2553 -22.1672)
(76.8205 23.2184 -15.7919)
(79.1304 37.8215 -12.7507)
(0.000580958 9.39923 -7.5133)
(0.000482111 7.6969 -0.476005)
(0.000227525 5.64606 6.26022)
(-77.7388 18.2835 -22.2028)
(-76.8392 23.2513 -15.8323)
(-79.1465 37.8611 -12.7886)
(78.2137 5.33283 -36.6012)
(78.0791 14.0584 -21.77)
(80.1368 27.4211 -3.33145)
(0.00064223 4.06394 -11.5306)
(0.000463095 6.12933 3.58765)
(0.0001694 1.10468 12.7545)
(-78.2348 5.35299 -36.6135)
(-78.0782 14.0401 -21.8083)
(-80.1384 27.4355 -3.34419)
(81.3658 2.31296 -46.0629)
(77.6406 7.75323 -15.9501)
(79.6199 13.7154 4.37373)
(0.000669262 3.45558 -15.488)
(0.00041989 -4.54998 17.0395)
(0.000191187 -14.344 17.45)
(-81.3926 2.32567 -46.069)
(-77.6144 7.71965 -16.0178)
(-79.6031 13.8394 4.32779)
(80.5314 -8.35585 -60.9794)
(79.9824 -0.604977 -5.55116)
(79.4321 10.5399 63.5433)
(0.000396762 -7.58389 9.74838)
(0.000341084 7.30233 35.8082)
(0.000332547 -2.63187 58.9003)
(-80.5548 -8.36667 -60.9883)
(-79.9353 -0.635099 -5.71951)
(-79.3981 10.5935 63.5323)
(78.7792 -1.59567 -83.6524)
(78.2072 -9.27901 -38.8611)
(78.1522 0.0277466 -0.449177)
(-0.000419263 -0.849302 29.6458)
(-0.000394408 -1.18118 66.5762)
(-0.000347797 -1.1692 86.5112)
(-78.8038 -1.58484 -83.7159)
(-78.156 -9.28104 -39.0794)
(-78.1405 0.0342276 -0.543505)
(74.4025 -1.78272 -124.444)
(73.9437 -2.89363 -116.523)
(74.178 -1.51595 -113.545)
(-0.000876675 -1.98071 177.401)
(-0.000885144 -2.92693 186.359)
(-0.000878145 -1.72985 181.918)
(-74.4059 -1.78416 -124.518)
(-73.9423 -2.89298 -116.53)
(-74.1804 -1.51722 -113.572)
(79.1472 -37.8976 -12.793)
(76.8411 -23.2757 -15.8437)
(77.7373 -18.3061 -22.2145)
(-0.00165975 -5.61455 6.2535)
(-0.00127084 -7.71833 -0.426419)
(-0.00092053 -9.4205 -7.50559)
(-79.1663 -37.8966 -12.785)
(-76.8527 -23.275 -15.8369)
(-77.7654 -18.3042 -22.217)
(80.1496 -27.465 -3.3317)
(78.0884 -14.0373 -21.8352)
(78.2295 -5.36756 -36.6473)
(-0.00131052 -1.06724 12.8177)
(-0.000777594 -6.15899 3.63003)
(-0.000236506 -4.08467 -11.5402)
(-80.1493 -27.464 -3.33749)
(-78.0853 -14.0555 -21.8389)
(-78.2195 -5.36076 -36.6779)
(79.6277 -13.89 4.33757)
(77.6315 -7.70649 -16.0771)
(81.4236 -2.34064 -46.1238)
(-0.000662709 14.3897 17.5372)
(7.59449e-05 4.52827 17.1087)
(0.000830433 -3.48156 -15.5171)
(-79.6269 -13.8166 4.35741)
(-77.6376 -7.74031 -16.0538)
(-81.402 -2.33936 -46.1641)
(79.4276 -10.6261 63.5679)
(79.9712 0.63977 -5.83825)
(80.5432 8.37107 -61.1072)
(0.00182083 2.63723 58.9653)
(0.0019043 -7.32064 35.8463)
(0.00248587 7.59153 9.72162)
(-79.43 -10.6019 63.585)
(-79.9759 0.621089 -5.7459)
(-80.5692 8.36618 -61.1425)
(78.156 -0.0581432 -0.532035)
(78.2102 9.29327 -39.1156)
(78.7132 1.58458 -83.868)
(-0.000942082 1.18098 86.4862)
(-0.00128806 1.21362 66.5961)
(-0.00231815 0.869339 29.7086)
(-78.1581 -0.0493721 -0.526366)
(-78.2118 9.3066 -39.0295)
(-78.6473 1.59592 -83.8725)
(74.1829 1.52171 -113.639)
(73.9513 2.90068 -116.633)
(74.4031 1.78948 -124.484)
(0.000678553 1.73245 181.93)
(0.000688956 2.94111 186.36)
(0.000669497 1.9929 177.53)
(-74.1817 1.51999 -113.623)
(-73.9522 2.90126 -116.609)
(-74.3997 1.7891 -124.332)
)
;

boundaryField
{
    fuel
    {
        type            fixedValue;
        value           uniform (0 0 0.25);
    }
    primary_air
    {
        type            fixedValue;
        value           uniform (0 0 2.5);
    }
    Secondary_air_RHS
    {
        type            fixedValue;
        value           uniform (0 33.3333 0);
    }
    Secondary_air_LHS
    {
        type            fixedValue;
        value           uniform (0 -33.3333 0);
    }
    outlet
    {
        type            pressureInletOutletVelocity;
        value           nonuniform List<vector> 
18
(
(0 0 -113.639)
(0.000678553 1.73245 181.93)
(0 0 -113.623)
(0 0 -116.633)
(0.000688956 2.94111 186.36)
(0 0 -116.609)
(0 0 -124.484)
(0.000669497 1.9929 177.53)
(0 0 -124.332)
(0 0 -124.444)
(-0.000876675 -1.98071 177.401)
(0 0 -124.518)
(0 0 -116.523)
(-0.000885144 -2.92693 186.359)
(0 0 -116.53)
(0 0 -113.545)
(-0.000878145 -1.72985 181.918)
(0 0 -113.572)
)
;
    }
    stove_body
    {
        type            noSlip;
    }
    frontAndBack
    {
        type            empty;
    }
}


// ************************************************************************* //
