/*--------------------------------*- C++ -*----------------------------------*\
  =========                 |
  \\      /  F ield         | OpenFOAM: The Open Source CFD Toolbox
   \\    /   O peration     | Website:  https://openfoam.org
    \\  /    A nd           | Version:  6
     \\/     M anipulation  |
\*---------------------------------------------------------------------------*/
FoamFile
{
    version     2.0;
    format      ascii;
    class       volScalarField;
    location    "0.0275";
    object      N2;
}
// * * * * * * * * * * * * * * * * * * * * * * * * * * * * * * * * * * * * * //

dimensions      [0 0 0 0 0 0 0];

internalField   nonuniform List<scalar> 
3773
(
0.383287
0.398867
0.391373
0.396451
0.397378
0.392297
0.391036
0.420439
0.436684
0.42655
0.43288
0.433711
0.428258
0.430989
0.316994
0.343176
0.319587
0.319786
0.32991
0.327597
0.325161
0.287109
0.304142
0.308863
0.303953
0.303463
0.309437
0.286766
0.317676
0.339004
0.320928
0.318999
0.329818
0.331665
0.32855
0.427363
0.434606
0.432024
0.431567
0.439262
0.428026
0.428849
0.388716
0.397917
0.39619
0.396179
0.402105
0.392257
0.389804
0.47619
0.49915
0.494088
0.494895
0.489295
0.487589
0.475494
0.940517
0.961403
0.960557
0.959639
0.958753
0.958686
0.939597
0.955522
0.965837
0.959262
0.962295
0.964642
0.957479
0.956957
0.95595
0.972505
0.973988
0.973245
0.973757
0.973917
0.957026
0.955967
0.973689
0.962439
0.961965
0.965788
0.961543
0.957289
0.940889
0.960616
0.959108
0.958685
0.959527
0.960208
0.940905
0.477649
0.488766
0.494044
0.490066
0.497526
0.492291
0.477991
0.497386
0.5187
0.514177
0.515587
0.510866
0.508577
0.519397
0.894133
0.920026
0.921019
0.919915
0.914546
0.914263
0.894194
0.976353
0.992783
0.991511
0.992298
0.991858
0.990605
0.975881
0.982498
0.998435
0.998686
0.998691
0.998723
0.998518
0.982627
0.976283
0.992953
0.991684
0.992125
0.99255
0.991144
0.976043
0.896881
0.915761
0.917426
0.915165
0.918757
0.917303
0.89583
0.516541
0.509976
0.514945
0.511314
0.518461
0.512645
0.517262
0.543948
0.560275
0.560689
0.564755
0.561509
0.557642
0.550489
0.890614
0.914761
0.916047
0.915859
0.911429
0.910678
0.890073
0.974341
0.991249
0.991228
0.991696
0.991182
0.990528
0.973933
0.983665
0.999586
0.999673
0.999709
0.99968
0.999501
0.98361
0.974291
0.990849
0.99107
0.991492
0.991808
0.990753
0.974226
0.892345
0.911626
0.913128
0.911599
0.914998
0.912924
0.891963
0.551955
0.560661
0.565328
0.561404
0.567499
0.559064
0.550418
0.581626
0.610659
0.605831
0.607053
0.605848
0.602838
0.579879
0.896212
0.916158
0.916703
0.918498
0.916881
0.915097
0.895519
0.97466
0.991549
0.991542
0.992082
0.991777
0.991301
0.974424
0.983761
0.999699
0.999769
0.999782
0.999785
0.999613
0.983659
0.974648
0.991285
0.991692
0.991795
0.9923
0.991318
0.974622
0.897531
0.915673
0.917089
0.916811
0.918707
0.915996
0.896914
0.584574
0.607029
0.607178
0.606111
0.610502
0.603951
0.583027
0.608331
0.641648
0.638732
0.639708
0.638404
0.635716
0.60948
0.916679
0.935275
0.935594
0.937038
0.935711
0.934362
0.91671
0.976882
0.993383
0.993556
0.993726
0.993556
0.993321
0.976738
0.984228
0.999825
0.999901
0.999895
0.999892
0.999715
0.984049
0.976785
0.992785
0.993499
0.993409
0.993504
0.993343
0.976735
0.918548
0.932959
0.936523
0.936178
0.936348
0.934758
0.916738
0.612403
0.635445
0.640467
0.63984
0.64164
0.636579
0.610723
0.831439
0.854333
0.861518
0.866343
0.866887
0.857279
0.837623
1
1
1
1
1
1
1
1
1
1
1
1
1
1
1
1
1
1
1
1
1
1
1
1
1
1
1
1
1
1
1
1
1
1
1
0.834105
0.842071
0.865261
0.864511
0.859684
0.85359
0.829852
0.998827
0.999408
0.999344
0.999259
0.998958
0.998696
0.997746
0.997952
0.998894
0.998843
0.998812
0.998575
0.998314
0.997331
0.995751
0.996666
0.996548
0.996597
0.996734
0.996616
0.995846
0.990897
0.991943
0.991617
0.99225
0.992443
0.992307
0.991108
0.994996
0.996082
0.996141
0.996133
0.996068
0.995809
0.995132
0.997105
0.997791
0.997978
0.998108
0.998222
0.997915
0.996782
0.99781
0.998516
0.998959
0.999127
0.999203
0.999206
0.998801
0.999941
0.999799
0.999728
0.999694
0.99958
0.999557
0.998504
0.999271
0.99964
0.99958
0.999508
0.999434
0.999341
0.998068
0.997293
0.998756
0.998685
0.998771
0.998605
0.998244
0.996734
0.993023
0.992916
0.992499
0.993492
0.993778
0.993471
0.992356
0.996994
0.998077
0.998192
0.998261
0.997847
0.997515
0.996492
0.998942
0.999745
0.999769
0.999773
0.999651
0.999444
0.999096
0.999149
0.999774
0.999794
0.999795
0.999788
0.999826
0.999973
0.999947
0.999737
0.999671
0.999594
0.999427
0.99953
0.998632
0.999726
0.999596
0.999415
0.999343
0.999269
0.999447
0.998355
0.998289
0.999336
0.999274
0.999418
0.99938
0.999071
0.997373
0.993772
0.995355
0.994866
0.996079
0.995636
0.994608
0.993296
0.998164
0.998622
0.998739
0.998743
0.998656
0.99817
0.997132
0.999577
0.99963
0.999664
0.999754
0.999746
0.999753
0.999864
0.999586
0.999718
0.999754
0.999748
0.999706
0.999716
0.999939
0.999951
0.99972
0.999655
0.999527
0.999217
0.999283
0.998649
0.999654
0.999462
0.999356
0.999279
0.999185
0.999241
0.998391
0.998983
0.999428
0.999324
0.999229
0.999174
0.999138
0.997739
0.995128
0.996215
0.995837
0.996785
0.996667
0.995244
0.994247
0.998507
0.998731
0.998816
0.998857
0.998938
0.998238
0.997504
0.999754
0.999486
0.999587
0.999783
0.999784
0.999728
0.999903
0.999718
0.999676
0.999723
0.999726
0.999688
0.999693
0.999902
0.999947
0.999715
0.999671
0.99942
0.999042
0.999015
0.998674
0.999582
0.999414
0.999376
0.999278
0.999122
0.998924
0.998464
0.999163
0.999221
0.999153
0.999106
0.99899
0.998901
0.997855
0.996195
0.997152
0.996683
0.997154
0.997214
0.995949
0.994659
0.998339
0.998668
0.998923
0.999012
0.99915
0.998392
0.997897
0.999799
0.999402
0.999489
0.999766
0.999712
0.999533
0.999839
0.999761
0.999658
0.999722
0.999714
0.99967
0.999678
0.999891
0.999946
0.99971
0.999673
0.999402
0.998994
0.998779
0.998691
0.999449
0.9994
0.999415
0.999317
0.999214
0.999191
0.999237
0.999177
0.999173
0.999187
0.999115
0.998924
0.998615
0.998094
0.996954
0.99772
0.997308
0.997272
0.997296
0.996331
0.995367
0.998252
0.998591
0.998937
0.999101
0.999269
0.998495
0.997919
0.99985
0.999382
0.999431
0.999641
0.999512
0.999454
0.999778
0.999833
0.999649
0.999739
0.999711
0.999655
0.999672
0.999904
0.999978
0.99973
0.999681
0.999537
0.999292
0.999176
0.999042
0.999685
0.999326
0.999358
0.99936
0.999254
0.999173
0.99985
0.999245
0.998976
0.999139
0.999078
0.999196
0.999104
0.998691
0.997464
0.997792
0.997449
0.997239
0.997373
0.996812
0.995944
0.998258
0.998621
0.999001
0.999185
0.999258
0.998787
0.998057
0.999899
0.999377
0.999547
0.999556
0.999429
0.999398
0.999753
0.999877
0.99968
0.999762
0.999713
0.999658
0.999672
0.999956
0.99977
0.999783
0.999684
0.999483
0.999428
0.999492
0.999477
0.999718
0.99929
0.999285
0.999308
0.999251
0.999192
0.999139
0.99945
0.998714
0.998817
0.998762
0.999095
0.999281
0.999397
0.998137
0.997795
0.997371
0.997284
0.997452
0.997406
0.997317
0.998806
0.998698
0.998989
0.999154
0.999251
0.99929
0.999445
0.999615
0.999635
0.999625
0.999475
0.999428
0.999493
0.999585
0.99976
0.999851
0.99987
0.999751
0.999746
0.999743
0.999736
0.999762
0.999781
0.999676
0.999478
0.999419
0.999464
0.99942
0.999144
0.998878
0.999081
0.999202
0.999183
0.999177
0.999147
0.99941
0.998648
0.998466
0.998168
0.998603
0.999044
0.999249
0.998154
0.997787
0.997364
0.997449
0.997747
0.997749
0.997737
0.998684
0.998782
0.999062
0.999299
0.999429
0.999605
0.999739
0.999614
0.999573
0.999462
0.999348
0.999368
0.999444
0.999533
0.999759
0.999885
0.999879
0.999696
0.999733
0.999735
0.999709
0.999762
0.999785
0.99968
0.99944
0.99943
0.999467
0.999433
0.999152
0.998752
0.99914
0.999189
0.999134
0.999149
0.999157
0.999357
0.998506
0.998091
0.997918
0.99857
0.998953
0.999236
0.998136
0.997784
0.997333
0.997475
0.997808
0.997994
0.998188
0.998598
0.998785
0.999087
0.999333
0.999519
0.999607
0.999595
0.99959
0.99939
0.999317
0.999281
0.999355
0.99945
0.999522
0.999755
0.999889
0.999872
0.999682
0.999729
0.999697
0.999623
0.99978
0.999795
0.99968
0.999406
0.999418
0.999463
0.99945
0.999165
0.998958
0.999463
0.999247
0.999018
0.99904
0.999145
0.999215
0.998277
0.997958
0.997872
0.998532
0.998971
0.999245
0.998116
0.997725
0.997247
0.997433
0.997902
0.998109
0.998453
0.99856
0.998698
0.999038
0.999305
0.999464
0.999436
0.99958
0.999554
0.999269
0.999332
0.999469
0.999548
0.999549
0.999548
0.999734
0.999891
0.999874
0.999765
0.999734
0.999694
0.999608
0.999794
0.999808
0.999693
0.999392
0.999333
0.999477
0.999451
0.999155
0.999455
0.999662
0.999142
0.998677
0.998827
0.999107
0.999036
0.998102
0.997807
0.997806
0.998401
0.998952
0.999291
0.998115
0.997691
0.997183
0.997349
0.997984
0.998439
0.998746
0.998696
0.998631
0.998753
0.999003
0.999274
0.999244
0.999562
0.999531
0.999329
0.999551
0.999735
0.999648
0.999624
0.999624
0.99978
0.999901
0.999891
0.99985
0.999802
0.999777
0.999664
0.999792
0.999856
0.999676
0.999376
0.99915
0.999338
0.99944
0.999078
0.99974
0.999693
0.998936
0.998454
0.998641
0.999186
0.998879
0.99809
0.998491
0.998225
0.998215
0.998529
0.999081
0.998168
0.997784
0.997261
0.997401
0.997965
0.998504
0.998974
0.998903
0.998598
0.998618
0.998671
0.998791
0.999137
0.999474
0.999417
0.999457
0.999741
0.999827
0.999558
0.999531
0.999636
0.999832
0.999892
0.999904
0.999864
0.999807
0.999806
0.99967
0.999754
0.999875
0.99978
0.999612
0.99948
0.999442
0.999447
0.999404
0.999842
0.999667
0.999068
0.998654
0.998546
0.999062
0.998907
0.999068
0.999104
0.998845
0.998471
0.998485
0.998659
0.998464
0.997944
0.99731
0.997399
0.997834
0.998429
0.998911
0.999247
0.999302
0.999342
0.999241
0.998924
0.998998
0.999333
0.999526
0.999709
0.999863
0.999886
0.999537
0.999367
0.999673
0.999765
0.999884
0.999913
0.999864
0.999812
0.999783
0.99975
1
0.999762
0.999687
0.999507
0.999487
0.999325
1
1
0.999131
0.999395
0.99932
0.999252
0.999187
1
0.99914
0.998878
0.998593
0.99835
0.999071
0.999305
0.999757
0.997612
0.997815
0.997429
0.997229
0.997367
0.996917
0.996045
0.998346
0.998619
0.998964
0.999069
0.999229
0.99875
0.998186
1
0.999359
0.999526
0.999441
0.999399
0.999405
0.999869
1
0.99973
0.999806
0.999722
0.999695
0.999687
1
1
0.999771
0.999689
0.999503
0.999511
0.999337
1
1
0.999184
0.999419
0.999346
0.999258
0.999187
0.999865
0.999197
0.998866
0.998689
0.999111
0.999113
0.999287
1
0.997642
0.997812
0.997423
0.997227
0.997365
0.996915
0.996126
0.998394
0.998618
0.998957
0.999075
0.999216
0.998759
0.998265
1
0.999444
0.999549
0.999446
0.999407
0.999422
0.999853
1
0.999782
0.999817
0.999731
0.999709
0.999703
1
0.999958
0.999773
0.999685
0.999498
0.999522
0.999322
1
1
0.999218
0.999421
0.999348
0.999259
0.999187
0.999804
0.999302
0.998839
0.998807
0.9992
0.999122
0.999258
1
0.997769
0.99781
0.99742
0.997236
0.997364
0.996939
0.99621
0.998496
0.998619
0.998941
0.999069
0.999199
0.998773
0.998422
1
0.999472
0.99956
0.999452
0.999409
0.999436
0.999792
1
0.999799
0.999823
0.999734
0.999714
0.999708
1
0.999918
0.999778
0.999681
0.999497
0.999519
0.999303
1
1
0.999268
0.99941
0.999348
0.999254
0.999189
0.999669
0.999351
0.998829
0.998887
0.999181
0.999114
0.999248
1
0.997825
0.997808
0.997417
0.997238
0.997367
0.996984
0.996311
0.998615
0.99862
0.998926
0.999072
0.999191
0.998781
0.99849
1
0.999497
0.999579
0.999457
0.99941
0.999457
0.999736
1
0.999812
0.999833
0.999736
0.999714
0.999714
0.999928
0.999895
0.999782
0.999678
0.999492
0.999496
0.999295
1
1
0.999317
0.999395
0.999341
0.999252
0.99919
0.999583
0.999456
0.99882
0.998887
0.999152
0.999112
0.999246
1
0.997906
0.997805
0.99741
0.997248
0.99737
0.997048
0.996448
0.998674
0.998621
0.998926
0.999076
0.999179
0.998797
0.99867
1
0.99956
0.999592
0.999461
0.999415
0.999468
0.999698
1
0.999818
0.999839
0.999736
0.999714
0.999717
0.999894
0.999859
0.999785
0.999678
0.999489
0.999463
0.99928
1
1
0.999353
0.999389
0.999339
0.999251
0.99919
0.999429
0.999564
0.998791
0.998898
0.999141
0.999122
0.99925
1
0.997956
0.997804
0.997406
0.997247
0.997376
0.997072
0.996582
0.998785
0.998623
0.998925
0.999083
0.999174
0.998815
0.998746
1
0.999589
0.999598
0.999463
0.999417
0.99948
0.999663
1
0.999825
0.999849
0.99974
0.999721
0.999718
0.999828
0.999811
0.999785
0.999682
0.999489
0.999445
0.999318
1
0.999918
0.999381
0.999386
0.999339
0.99925
0.99919
0.999316
0.999671
0.99878
0.998952
0.999148
0.99915
0.999258
1
0.99807
0.997799
0.997399
0.997246
0.997378
0.99708
0.996669
0.998912
0.998617
0.998912
0.999079
0.999157
0.998831
0.998948
0.999938
0.999619
0.999612
0.999469
0.999423
0.999495
0.99963
1
0.99983
0.999857
0.999744
0.999731
0.999728
0.999799
0.999998
0.999995
0.999961
0.999961
0.999966
0.999979
0.999995
0.999985
0.999978
0.999876
0.999813
0.999726
0.999712
0.999911
0.998928
0.999079
0.999015
0.998688
0.998371
0.99845
0.99862
0.998492
0.997938
0.997313
0.997396
0.997878
0.998445
0.998904
0.99989
0.999675
0.999197
0.999008
0.998725
0.998835
0.999182
0.999994
0.999994
0.999981
0.999908
0.999904
0.999904
0.999978
0.999998
0.999996
0.999981
0.999978
0.999987
0.999992
0.999998
0.999992
0.999977
0.999962
0.999962
0.999966
0.99997
0.999976
0.999957
0.999953
0.999884
0.999879
0.999875
0.999869
0.999908
0.998979
0.999088
0.99905
0.998877
0.998687
0.998709
0.998644
0.998513
0.99792
0.997309
0.997393
0.99786
0.998441
0.998878
0.999927
0.999517
0.999166
0.99895
0.998842
0.998828
0.99907
0.999995
0.999994
0.999925
0.99991
0.999912
0.999913
0.999957
0.999993
0.999983
0.999973
0.999974
0.99998
0.999983
0.999988
0.999978
0.999973
0.999948
0.999933
0.999935
0.999936
0.999928
0.999921
0.999942
0.999859
0.999846
0.999858
0.999854
0.999851
0.998999
0.999009
0.999007
0.998953
0.998794
0.998802
0.998716
0.998486
0.997854
0.9973
0.997386
0.997817
0.99842
0.998811
0.999901
0.999512
0.999021
0.99879
0.998809
0.998778
0.998908
0.99999
0.999991
0.999931
0.999899
0.999909
0.999911
0.999908
0.999986
0.999978
0.999962
0.999953
0.999961
0.999962
0.999963
0.999969
0.999971
0.999936
0.999897
0.999895
0.999895
0.999876
0.999883
0.99994
0.999873
0.999809
0.999816
0.999819
0.999811
0.99899
0.999021
0.999288
0.999234
0.999035
0.999
0.999019
0.998418
0.997729
0.997283
0.997376
0.997746
0.998347
0.998736
0.999734
0.999503
0.99909
0.998724
0.998695
0.998644
0.998745
0.999978
0.999985
0.999942
0.999897
0.999886
0.999878
0.999867
0.999977
0.999968
0.999953
0.999947
0.99995
0.999949
0.999946
0.999971
0.999966
0.999925
0.99988
0.999882
0.999879
0.999859
0.999907
0.999939
0.999897
0.999851
0.999827
0.999832
0.999831
0.999024
0.999116
0.999427
0.999347
0.999188
0.999109
0.999104
0.998233
0.997455
0.997242
0.997354
0.997636
0.998244
0.99866
0.999458
0.999434
0.999087
0.998895
0.998734
0.998641
0.998631
0.999979
0.999986
0.999944
0.999908
0.999912
0.999903
0.999897
0.999974
0.999965
0.999951
0.999949
0.999951
0.99995
0.999943
0.999969
0.999964
0.999909
0.999889
0.999881
0.999875
0.999874
0.999943
0.999942
0.999912
0.999884
0.999858
0.999835
0.999836
0.999171
0.999321
0.99965
0.999606
0.999455
0.999172
0.999115
0.997704
0.997399
0.997222
0.997263
0.997564
0.997981
0.998502
0.999349
0.999389
0.999156
0.999149
0.998991
0.998756
0.998719
0.99998
0.999986
0.999941
0.999922
0.999902
0.999912
0.999915
0.999969
0.99996
0.999949
0.999949
0.99995
0.999946
0.999943
0.99996
0.999957
0.999905
0.9999
0.99989
0.999886
0.999886
0.999951
0.999949
0.999927
0.99992
0.999902
0.999892
0.999881
0.999547
0.999789
0.999887
0.999792
0.999545
0.999205
0.99906
0.997916
0.998385
0.99763
0.997332
0.997415
0.997591
0.99803
0.999605
0.999673
0.999577
0.999545
0.999316
0.99889
0.998763
0.999967
0.999967
0.999931
0.999913
0.9999
0.99989
0.99989
0.99996
0.999956
0.999944
0.999944
0.999945
0.999943
0.999938
0.999998
0.999998
0.999998
0.999998
0.999998
0.999998
0.999999
0.99997
0.999989
0.999999
0.999999
1
1
1
0.998655
0.999184
0.999986
0.999986
0.999986
0.999986
0.999984
0.998902
0.998978
0.999361
0.999694
0.999869
0.999895
0.999916
0.999185
0.999208
0.999602
0.999991
0.999991
0.99999
0.999989
0.999991
0.999993
0.999996
1
1
1
1
0.999999
0.999999
0.999999
0.999999
0.999999
0.999999
0.999999
0.999979
0.999979
0.999982
0.999983
0.999987
0.999988
0.999994
0.999949
0.999961
0.999987
0.999996
0.999997
0.999997
0.999998
0.998652
0.998783
0.999119
0.999973
0.999984
0.999983
0.999982
0.99889
0.998927
0.999025
0.999282
0.999537
0.999715
0.999759
0.999112
0.999148
0.999263
0.999604
0.99999
0.999989
0.999987
0.99997
0.999978
0.999981
0.999993
0.999999
0.999999
0.999999
0.999989
0.99999
0.99999
0.999992
0.999993
0.999995
0.999996
0.999917
0.999915
0.999919
0.999931
0.999939
0.999951
0.999973
0.999887
0.999919
0.999933
0.999954
0.999978
0.999984
0.999984
0.998675
0.998691
0.998757
0.999048
0.999779
0.999972
0.999972
0.998881
0.998886
0.998915
0.998984
0.999107
0.999281
0.999434
0.999034
0.999074
0.999123
0.999247
0.999544
0.999898
0.999983
0.999949
0.999961
0.999966
0.99998
0.999986
0.999994
0.999994
0.999961
0.999961
0.999965
0.999969
0.999973
0.999987
0.999991
0.999859
0.999858
0.999864
0.999868
0.999882
0.999896
0.999942
0.999795
0.999808
0.999836
0.99988
0.999931
0.999946
0.999947
0.99895
0.998866
0.998795
0.998843
0.999012
0.999382
0.999733
0.998828
0.99886
0.998865
0.998878
0.998906
0.999003
0.999119
0.998815
0.998849
0.998867
0.998941
0.999086
0.999315
0.999734
0.999862
0.999911
0.999925
0.999934
0.999955
0.999966
0.999965
0.999934
0.999938
0.999943
0.999944
0.999947
0.999959
0.999986
0.99986
0.999863
0.999865
0.999867
0.999871
0.999879
0.999905
0.999833
0.999856
0.99987
0.999889
0.999892
0.999887
0.999901
0.999117
0.999127
0.99911
0.999019
0.999014
0.999086
0.999247
0.998752
0.998794
0.998816
0.998829
0.998839
0.998863
0.998919
0.998648
0.99868
0.998693
0.99872
0.998757
0.99889
0.999102
0.999905
0.999922
0.999923
0.99992
0.999917
0.999902
0.999894
0.999939
0.999938
0.999938
0.999937
0.999936
0.999941
0.99997
0.999875
0.999877
0.99988
0.999881
0.999882
0.999884
0.999891
0.999862
0.999876
0.999887
0.999893
0.999893
0.999892
0.999893
0.999074
0.99908
0.999097
0.999123
0.999122
0.999124
0.999168
0.998567
0.998638
0.998683
0.99872
0.998753
0.998776
0.998829
0.998717
0.998722
0.998738
0.99878
0.998795
0.998834
0.998867
0.999922
0.999925
0.999924
0.99992
0.999915
0.999911
0.999897
0.99994
0.999938
0.999936
0.999936
0.999935
0.999934
0.999964
0.999886
0.999886
0.999886
0.999886
0.999886
0.999887
0.999888
0.99988
0.99988
0.99988
0.999881
0.999881
0.99988
0.999879
0.998842
0.998795
0.998796
0.998798
0.99882
0.998897
0.998934
0.998072
0.998159
0.998191
0.998264
0.998289
0.998354
0.998413
0.998775
0.998763
0.998771
0.998791
0.998821
0.998874
0.99888
0.999891
0.999892
0.999893
0.999895
0.999899
0.999904
0.999903
0.999936
0.999936
0.999935
0.999934
0.999933
0.999932
0.999961
1
1
0.999999
0.999999
0.999999
0.999999
0.999999
1
0.999999
0.999999
0.999999
0.999996
0.999994
0.999987
0.99997
0.999974
0.999972
0.999966
0.99978
0.998891
0.998903
0.999755
0.999758
0.999736
0.999635
0.999479
0.99921
0.998732
0.999967
0.999969
0.999971
0.999971
0.99997
0.999969
0.999967
1
1
1
0.999999
0.999999
0.999999
0.999999
0.999999
0.999999
0.999999
0.999999
0.999999
0.999999
0.999999
0.999999
0.999997
0.999995
0.999993
0.999993
0.999992
0.999991
0.999998
0.999997
0.999996
0.999992
0.999976
0.999967
0.999956
0.999968
0.999968
0.999964
0.9994
0.999059
0.998903
0.998936
0.999547
0.999527
0.999392
0.999325
0.999243
0.999003
0.998709
0.999948
0.999956
0.999959
0.999962
0.999962
0.999961
0.999959
0.999999
0.999998
0.999998
0.999998
0.999997
0.999997
0.999997
0.999997
0.999995
0.999995
0.999993
0.999993
0.999992
0.999993
0.999997
0.999987
0.999977
0.999972
0.99997
0.999968
0.999968
0.999989
0.999987
0.999977
0.999948
0.999931
0.999918
0.999907
0.999964
0.999952
0.999388
0.999045
0.998981
0.998964
0.998985
0.999422
0.999316
0.999255
0.99917
0.999114
0.998896
0.998652
0.99995
0.999947
0.999947
0.999944
0.999941
0.999937
0.99993
0.999994
0.999993
0.999991
0.999989
0.999989
0.999988
0.999987
0.999994
0.999988
0.999981
0.999979
0.999978
0.999978
0.999979
0.99999
0.999965
0.999961
0.999962
0.999951
0.999945
0.999947
0.999967
0.999963
0.99993
0.999879
0.999855
0.99984
0.99984
0.9999
0.999492
0.999106
0.999029
0.999002
0.998996
0.998991
0.999283
0.999112
0.999021
0.998911
0.998881
0.998704
0.998626
0.999934
0.999914
0.9999
0.999893
0.999891
0.999875
0.999852
0.999984
0.999981
0.99998
0.999979
0.999978
0.999977
0.999973
0.999984
0.999973
0.999973
0.999975
0.999976
0.999977
0.999979
0.99998
0.999957
0.999956
0.99996
0.999954
0.999954
0.999958
0.999955
0.99995
0.999853
0.999855
0.999879
0.999897
0.9999
0.999504
0.999226
0.999109
0.999069
0.999062
0.999019
0.99899
0.999062
0.998901
0.998783
0.998743
0.998677
0.998629
0.998553
0.999832
0.999727
0.999688
0.999671
0.999643
0.999624
0.999558
0.99998
0.999973
0.999975
0.999977
0.999977
0.999977
0.999976
0.999974
0.999968
0.999972
0.999975
0.999975
0.999976
0.999975
0.999977
0.999951
0.999955
0.999959
0.999962
0.999963
0.999965
0.999948
0.999947
0.999949
0.999944
0.999939
0.999939
0.99994
0.999389
0.999334
0.999322
0.999309
0.999218
0.999179
0.999163
0.998697
0.998587
0.998488
0.998442
0.998357
0.998335
0.998194
0.99963
0.999576
0.99949
0.999463
0.999437
0.999436
0.999451
0.999974
0.999975
0.999977
0.999977
0.999978
0.999978
0.999978
0.999967
0.999964
0.999967
0.999969
0.99997
0.999971
0.99997
0.999974
0.999948
0.999951
0.999953
0.999954
0.999958
0.999959
0.999952
0.999953
0.999953
0.999952
0.999952
0.999952
0.999952
0.999454
0.99944
0.999391
0.999353
0.999344
0.999341
0.99934
0.99816
0.998102
0.998021
0.997996
0.997963
0.997955
0.997923
0.999395
0.999369
0.999327
0.999319
0.999347
0.999385
0.999428
0.999963
0.999964
0.999965
0.999965
0.999966
0.999966
0.999966
0.999963
0.999962
0.999962
0.999961
0.999961
0.999961
0.999961
1
1
1
1
1
1
1
1
1
1
1
1
1
1
0.99992
0.999928
0.99993
0.99994
0.999961
0.999966
0.999967
0.999761
0.999809
0.999777
0.999763
0.999758
0.999751
0.999753
0.999922
0.999929
0.999931
0.999936
0.999947
0.999957
0.999963
1
1
1
1
1
1
1
1
1
1
1
1
1
1
1
1
1
1
1
1
1
1
1
1
1
0.999999
0.999999
0.999998
0.9999
0.999894
0.999894
0.999917
0.999938
0.999961
0.999963
0.999675
0.999629
0.999571
0.999551
0.999543
0.999544
0.999547
0.999906
0.999901
0.999895
0.999903
0.999921
0.999933
0.999941
1
1
1
1
0.999999
0.999999
0.999999
1
1
1
1
1
1
0.999999
1
1
1
1
1
1
1
1
1
1
0.999999
0.999998
0.999997
0.999995
0.999885
0.999863
0.999865
0.999887
0.999935
0.999959
0.999963
0.999611
0.999553
0.999542
0.999545
0.999557
0.999556
0.999533
0.999883
0.99987
0.999866
0.999885
0.99991
0.999928
0.999944
1
1
1
0.999999
0.999998
0.999997
0.999995
1
1
1
1
1
0.999999
0.999998
1
1
1
1
1
1
1
1
1
0.999999
0.999998
0.999995
0.999989
0.999983
0.999877
0.999858
0.999862
0.999885
0.999928
0.999955
0.999958
0.999603
0.999511
0.999501
0.999498
0.999493
0.999461
0.999377
0.999878
0.999866
0.999864
0.999887
0.999917
0.999935
0.999954
1
1
1
0.999997
0.999992
0.999988
0.999986
1
1
1
1
1
0.999999
0.999997
1
1
1
1
1
1
1
1
0.999999
0.999998
0.999998
0.999991
0.999984
0.999967
0.999866
0.99985
0.999862
0.999897
0.999934
0.999936
0.999839
0.999574
0.999458
0.999425
0.999399
0.99935
0.999295
0.999205
0.999868
0.999858
0.999862
0.99989
0.999925
0.999929
0.999917
1
1
0.999999
0.999995
0.999985
0.999984
0.999984
1
1
1
1
1
0.999999
0.999996
1
1
1
1
1
1
1
1
0.999999
0.999998
0.999998
0.999989
0.999978
0.999959
0.999855
0.99984
0.999859
0.999901
0.999927
0.999819
0.999582
0.999566
0.999428
0.999379
0.999339
0.999238
0.999109
0.998944
0.999846
0.999839
0.999856
0.999899
0.999921
0.999868
0.999782
1
1
0.999999
0.999992
0.999982
0.999976
0.999976
1
1
1
1
0.999999
0.999999
0.999996
1
1
1
1
1
1
1
1
0.999999
0.999999
0.999999
0.999994
0.999986
0.999969
0.999857
0.999824
0.999857
0.99986
0.999724
0.999583
0.999502
0.999503
0.999245
0.999118
0.998928
0.998677
0.998483
0.998315
0.999851
0.999819
0.999849
0.99984
0.999705
0.999594
0.999476
1
1
0.999998
0.999991
0.999973
0.999967
0.999963
1
1
1
1
0.999999
0.999999
0.999995
1
1
1
1
1
1
1
1
0.999999
0.999999
1
1
1
1
0.999851
0.99986
0.999881
0.999868
0.999774
0.999721
0.999785
0.999356
0.999198
0.999193
0.99916
0.99907
0.999047
0.999061
0.999853
0.999854
0.999866
0.999864
0.999788
0.999745
0.999733
1
1
0.999999
0.999999
0.99999
0.999983
0.999968
1
1
1
1
1
0.999999
0.999998
1
1
1
1
1
1
1
1
1
1
1
1
1
1
0.999873
0.999885
0.999893
0.999902
0.999869
0.999833
0.999843
0.999378
0.999242
0.99927
0.999309
0.999292
0.999188
0.999194
0.999902
0.999894
0.99989
0.999891
0.999881
0.99986
0.999835
1
1
0.999999
0.999999
0.999997
0.999993
0.999988
1
1
1
1
1
0.999999
0.999998
1
1
1
1
1
1
1
1
1
1
1
1
1
1
0.999908
0.999885
0.999901
0.999905
0.999882
0.999849
0.999858
0.999421
0.999286
0.999341
0.99943
0.999362
0.999259
0.999217
0.999934
0.999918
0.999912
0.999904
0.999894
0.99987
0.999842
1
1
1
1
1
1
1
1
1
1
1
1
1
1
1
1
1
1
1
1
1
1
1
1
1
1
1
1
0.9999
0.999875
0.999894
0.999904
0.999888
0.999854
0.99986
0.999426
0.99931
0.999377
0.99943
0.999357
0.999275
0.999269
0.999945
0.999928
0.999915
0.999907
0.999896
0.99987
0.999857
1
1
1
1
1
1
1
1
1
1
1
1
1
1
1
1
1
1
1
1
1
1
1
1
1
1
1
1
0.999867
0.999848
0.999873
0.9999
0.999888
0.999857
0.999858
0.999419
0.999319
0.999384
0.999425
0.999343
0.999282
0.999291
0.999946
0.99993
0.999914
0.999908
0.999894
0.999865
0.999856
1
1
1
1
1
1
1
1
1
1
1
1
1
1
1
1
1
1
1
1
1
1
1
1
1
1
1
1
0.999879
0.999857
0.999876
0.999903
0.999895
0.999868
0.999864
0.99942
0.999337
0.999407
0.999434
0.999358
0.99931
0.999343
0.999953
0.999938
0.999921
0.999915
0.999898
0.999871
0.999863
1
1
1
1
1
1
1
1
1
1
1
1
1
1
1
1
1
1
1
1
1
1
1
1
1
1
1
1
0.999886
0.999865
0.999879
0.999905
0.999898
0.99987
0.999864
0.999419
0.999338
0.999409
0.999431
0.999358
0.999311
0.999354
0.999953
0.999943
0.999926
0.999919
0.999901
0.999874
0.999867
1
1
1
1
1
1
1
1
1
1
1
1
1
1
1
1
1
1
1
1
1
1
1
1
1
1
1
1
0.999983
0.999981
0.999978
0.999975
0.999973
0.999972
0.999972
0.999919
0.999921
0.999922
0.999922
0.999923
0.999924
0.999926
0.999988
0.999986
0.99998
0.999977
0.999974
0.999975
0.999978
1
1
1
1
1
1
1
1
1
1
1
1
1
1
0.999998
1
1
1
1
1
1
0.999998
0.999999
0.999999
0.999999
1
1
1
0.999979
0.999978
0.99997
0.999963
0.99996
0.999961
0.999964
0.999764
0.999783
0.999796
0.999809
0.999839
0.999865
0.999895
0.999985
0.999982
0.999977
0.999964
0.99996
0.999967
0.999973
0.999999
1
1
1
1
1
1
0.999999
1
1
1
1
1
1
0.999996
0.999999
1
1
1
1
1
0.999987
0.999991
0.999996
0.999997
0.999999
1
1
0.999967
0.999961
0.999952
0.99993
0.99992
0.999931
0.999937
0.999492
0.999586
0.999616
0.999643
0.999669
0.999732
0.999809
0.999978
0.999971
0.999956
0.999938
0.99992
0.999939
0.999953
0.999996
0.999998
0.999999
1
1
1
1
0.999998
0.999999
1
1
1
1
1
0.999989
0.999997
1
1
1
1
1
0.999949
0.999962
0.999981
0.999992
0.999998
1
1
0.999957
0.999949
0.999933
0.999915
0.999904
0.999914
0.999922
0.999193
0.999287
0.999379
0.999438
0.999537
0.999634
0.999764
0.999945
0.999966
0.999948
0.999933
0.999909
0.999921
0.999933
0.999971
0.999989
0.999996
0.999999
1
1
1
0.999997
0.999998
1
1
1
1
1
0.999984
0.999997
0.999999
1
1
1
1
0.999925
0.999927
0.999948
0.99997
0.999997
1
1
0.999515
0.999702
0.999885
0.999912
0.999858
0.999869
0.999881
0.998955
0.999053
0.999104
0.999166
0.999232
0.99938
0.999617
0.999368
0.999736
0.999888
0.999924
0.999878
0.999883
0.999889
0.999929
0.999949
0.999987
0.999996
1
1
1
0.999996
0.999998
1
1
1
1
1
0.999979
0.999997
0.999999
1
1
1
1
0.999871
0.999885
0.999922
0.999952
0.999994
1
1
0.999273
0.999486
0.999829
0.999907
0.99984
0.999812
0.999848
0.998866
0.99897
0.999044
0.999121
0.999166
0.999255
0.999544
0.998997
0.999263
0.999746
0.999915
0.999867
0.999815
0.999838
0.999847
0.999912
0.999968
0.999994
0.999999
1
1
0.999996
0.999998
1
1
1
1
1
0.999977
0.999997
0.999999
1
1
1
1
0.999874
0.999889
0.999904
0.999944
0.999994
1
1
0.99901
0.999108
0.999303
0.999703
0.999782
0.999776
0.999787
0.998532
0.998634
0.998745
0.998863
0.99897
0.999088
0.999364
0.998902
0.998989
0.999181
0.99963
0.999815
0.999779
0.999817
0.999914
0.99992
0.999945
0.999994
0.999999
1
1
0.999996
0.999998
1
1
1
1
1
0.999991
0.999997
1
1
1
1
1
0.999931
0.999975
0.999985
1
1
1
1
0.999449
0.999436
0.99952
0.999768
0.999835
0.999834
0.999788
0.998936
0.998805
0.998906
0.999135
0.999107
0.999091
0.99922
0.999543
0.999368
0.999403
0.999712
0.999843
0.99982
0.999804
0.999985
0.999988
0.999992
0.999999
1
1
1
0.999996
0.999999
1
1
1
1
1
1
1
1
1
1
1
1
0.999988
0.999995
0.999999
1
1
1
1
0.999629
0.999623
0.999727
0.999848
0.999866
0.999859
0.999822
0.999039
0.999049
0.999078
0.99926
0.999306
0.99919
0.999249
0.999611
0.999589
0.999663
0.999835
0.999867
0.99986
0.999844
0.999998
1
0.999999
1
1
1
1
1
1
1
1
1
1
1
1
1
1
1
1
1
1
1
1
1
1
1
1
1
0.999649
0.999661
0.999753
0.999871
0.999889
0.999883
0.999865
0.999055
0.999088
0.999143
0.999323
0.999367
0.999245
0.999267
0.99961
0.99962
0.999726
0.99985
0.999877
0.99985
0.999822
0.999997
1
0.999999
1
1
1
1
1
1
1
1
1
1
1
1
1
1
1
1
1
1
1
1
1
1
1
1
1
0.999662
0.999664
0.999736
0.999848
0.999885
0.999888
0.999863
0.999058
0.999076
0.999129
0.999301
0.999364
0.999276
0.999267
0.999596
0.999604
0.999705
0.999818
0.999847
0.999798
0.999745
0.999997
1
0.999999
1
1
1
1
1
1
1
1
1
1
1
1
1
1
1
1
1
1
1
1
1
1
1
1
1
0.999678
0.999676
0.999741
0.999854
0.999885
0.999889
0.99987
0.999071
0.99908
0.999134
0.999302
0.999367
0.999284
0.999268
0.999586
0.999586
0.999709
0.999816
0.999843
0.999797
0.999747
1
1
1
1
1
1
1
1
1
1
1
1
1
1
1
1
1
1
1
1
1
1
1
1
1
1
1
1
0.999694
0.999699
0.999763
0.999865
0.999892
0.999896
0.999885
0.999109
0.999099
0.999165
0.999324
0.99939
0.999307
0.999278
0.999597
0.999594
0.999722
0.999825
0.999847
0.999806
0.999763
1
1
1
1
1
1
1
1
1
1
1
1
1
1
1
1
1
1
1
1
1
1
1
1
1
1
1
1
0.999704
0.999716
0.999778
0.999868
0.999898
0.999901
0.999884
0.999113
0.999095
0.999172
0.999328
0.999394
0.999305
0.999277
0.999593
0.999594
0.999717
0.999828
0.999851
0.999807
0.999765
1
1
1
1
1
1
1
1
1
1
1
1
1
1
)
;

boundaryField
{
    fuel
    {
        type            fixedValue;
        value           uniform 0;
    }
    primary_air
    {
        type            fixedValue;
        value           uniform 0.77;
    }
    Secondary_air_RHS
    {
        type            fixedValue;
        value           uniform 0.77;
    }
    Secondary_air_LHS
    {
        type            fixedValue;
        value           uniform 0.77;
    }
    outlet
    {