/*--------------------------------*- C++ -*----------------------------------*\
  =========                 |
  \\      /  F ield         | OpenFOAM: The Open Source CFD Toolbox
   \\    /   O peration     | Website:  https://openfoam.org
    \\  /    A nd           | Version:  6
     \\/     M anipulation  |
\*---------------------------------------------------------------------------*/
FoamFile
{
    version     2.0;
    format      ascii;
    class       volScalarField;
    location    "0.0275";
    object      O2;
}
// * * * * * * * * * * * * * * * * * * * * * * * * * * * * * * * * * * * * * //

dimensions      [0 0 0 0 0 0 0];

internalField   nonuniform List<scalar> 
3773
(
0
0
0
0
0
0
0
0
0
0
0
0
0
0
0
0
0
0
0
0
0
0
0
0
0
0
0
0
0
0
0
0
0
0
0
0
0
0
0
0
0
0
0
0
0
0
0
0
0
0
0
0
0
0
0
0
0
0
0
0
0
0
0
0
0
0
0
0
0
0
0
0
0
0
0
0
0
0
0
0
0
0
0
0
0
0
0
0
0
0
0
0
0
0
0
0
0
0
0
0
0
0
0
0
0
0
0
0
0
0
0
0
0
0
0
0
0
0
0
0
0
0
0
0
0
0
0
0
0
0
0
0
0
0
0
0
0
0
0
0
0
0
0
0
0
0
0
0
0
0
0
0
0
0
0
0
0
0
0
0
0
0
0
0
0
0
0
0
0
0
0
0
0
0
0
0
0
0
0
0
0
0
0
0
0
0
0
0
0
0
0
0
0
0
0
0
0
0
0
0
0
0
0
0
0
0
0
0
0
0
0
0
0
0
0
0
0
0
0
0
0
0
0
0
0
0
0
0
0
0
0
0
0
0
0
0
0
0
0
0
0
0
0
0
0
0
0
0
0
0
0
0
0
0
0
0
0
0
0
0
0
0
0
0
0
0
0
0
0
0
0
0
0
0
0
0
0
0
0
0
0
0
0
0
0
0
0
0
0
0
0
0
0
0
0
0
0
0
0
0
0
0
0
0
0
0
0
0
0
0
0
0
0
0
0
0
0
0
0
0
0
0
0
0
0
0
0
0
0
0
0
0
0
0
0
0
0
0
0
0
0
0
0
0.00117311
0.000591833
0.000655761
0.000740587
0.0010423
0.00130448
0.00225385
0.00204826
0.00110574
0.00115677
0.00118824
0.0014255
0.00168639
0.00266854
0.00424948
0.00333397
0.00345161
0.00340293
0.00326593
0.00338436
0.00415354
0.00910292
0.00805695
0.0083825
0.00774979
0.00755708
0.00769337
0.00889194
0.00500442
0.00391789
0.00385923
0.00386708
0.00393191
0.00419092
0.0048683
0.00289454
0.00220883
0.00202171
0.00189155
0.00177824
0.00208537
0.00321781
0.00218967
0.00148383
0.00104075
0.000873319
0.000797224
0.000794437
0.00119908
5.88325e-05
0.000201349
0.000271964
0.000305803
0.000419732
0.000443377
0.00149597
0.000729429
0.000360225
0.000420277
0.00049182
0.00056578
0.000659235
0.00193241
0.00270658
0.00124444
0.00131493
0.0012291
0.00139524
0.00175644
0.00326552
0.00697676
0.00708356
0.00750143
0.00650819
0.00622194
0.00652881
0.00764448
0.00300558
0.0019233
0.00180799
0.00173901
0.00215311
0.00248461
0.0035081
0.00105822
0.000254881
0.000230521
0.000227371
0.000348658
0.00055591
0.000903706
0.000851266
0.000225681
0.000205737
0.000205176
0.000211946
0.000174388
2.74313e-05
5.34992e-05
0.000262829
0.000329207
0.000406369
0.000572668
0.000469618
0.00136756
0.000274132
0.000403913
0.000584564
0.000656993
0.000731164
0.000553002
0.00164509
0.00171068
0.000663547
0.000725943
0.000581888
0.0006196
0.000929132
0.00262743
0.00622763
0.00464458
0.00513369
0.00392147
0.0043641
0.00539172
0.00670413
0.00183582
0.0013775
0.00126104
0.00125655
0.00134447
0.00183035
0.00286793
0.000422687
0.000370369
0.000336356
0.000246205
0.000253824
0.00024744
0.000136008
0.000414428
0.000281645
0.000246417
0.000251536
0.000294393
0.000283632
6.14824e-05
4.93955e-05
0.000279813
0.000345352
0.000472554
0.000782643
0.000716944
0.0013515
0.000345755
0.000537938
0.000644401
0.000720587
0.000814805
0.000759153
0.00160912
0.00101732
0.000571559
0.000676116
0.000771095
0.000825627
0.000862159
0.00226121
0.00487247
0.003785
0.0041628
0.00321479
0.00333328
0.00475586
0.00575337
0.00149289
0.00126915
0.00118375
0.00114311
0.00106217
0.00176164
0.00249617
0.0002455
0.000514273
0.000412661
0.000217413
0.000215547
0.000272395
9.68691e-05
0.000282134
0.000323702
0.000276531
0.000274454
0.000312007
0.000307474
9.84302e-05
5.25297e-05
0.000284843
0.00032863
0.000579716
0.000957806
0.000984587
0.00132599
0.000418371
0.000585728
0.000624315
0.000722342
0.000878341
0.00107624
0.00153614
0.000837296
0.000779164
0.000847238
0.000893561
0.00101003
0.00109898
0.00214534
0.00380486
0.00284849
0.0033172
0.00284578
0.00278633
0.00405088
0.00534127
0.00166083
0.00133245
0.00107658
0.000987949
0.000850379
0.00160828
0.00210293
0.000200784
0.000597609
0.000510862
0.000233689
0.000288324
0.000466668
0.000160677
0.00023871
0.000341776
0.000277712
0.000286289
0.00032957
0.000321922
0.000109486
5.42337e-05
0.000289714
0.00032672
0.000597782
0.00100637
0.00122146
0.001309
0.000551321
0.00060044
0.00058494
0.000682993
0.000785929
0.000808997
0.000762511
0.000822735
0.000827142
0.000812502
0.000884853
0.00107605
0.00138475
0.00190596
0.00304632
0.00228036
0.00269197
0.0027278
0.00270448
0.00366894
0.00463322
0.00174783
0.00140923
0.00106256
0.000899475
0.000731296
0.0015054
0.00208064
0.000150344
0.000618283
0.000568769
0.000358528
0.000488027
0.00054574
0.000222309
0.000167298
0.000351232
0.000261365
0.000288708
0.000344884
0.000328284
9.6345e-05
2.1569e-05
0.000270344
0.00031856
0.000462981
0.000708358
0.000823643
0.000957505
0.000315259
0.000673901
0.000641999
0.000640159
0.000745648
0.00082738
0.000149695
0.000754687
0.00102401
0.000861276
0.000922168
0.000803959
0.000895995
0.00130913
0.00253564
0.00220798
0.0025514
0.00276129
0.00262719
0.00318821
0.00405608
0.00174214
0.00137916
0.000999107
0.000815046
0.000741567
0.00121304
0.00194314
0.000100905
0.000623198
0.000453299
0.000444273
0.000571171
0.000602497
0.000246538
0.000123321
0.000319552
0.000238152
0.000287498
0.000341972
0.000328499
4.44235e-05
0.000229992
0.000217112
0.000315801
0.000517317
0.000572149
0.000507506
0.000522682
0.000281918
0.000709771
0.000715183
0.000691991
0.000749452
0.000808025
0.000860727
0.000549609
0.00128568
0.00118306
0.00123806
0.000905205
0.000719365
0.000602722
0.00186303
0.00220515
0.00262851
0.00271552
0.00254789
0.00259425
0.00268345
0.00119362
0.00130167
0.00101148
0.00084617
0.000749066
0.000710399
0.000554503
0.000384609
0.000364779
0.00037518
0.000524605
0.000571755
0.000506515
0.000414703
0.000239592
0.000149372
0.000129832
0.000249397
0.000254492
0.000256723
0.00026365
0.000237917
0.000218936
0.000323933
0.000522426
0.000581426
0.000536194
0.000580404
0.000856243
0.00112151
0.000919172
0.000798466
0.000817023
0.000822936
0.00085347
0.000590179
0.00135203
0.0015344
0.0018323
0.00139716
0.000955618
0.000750667
0.00184619
0.00221307
0.00263558
0.00255114
0.00225269
0.00225083
0.00226285
0.0013162
0.00121767
0.000937688
0.000700777
0.000571086
0.000394806
0.000261298
0.000385644
0.00042744
0.000537942
0.000651675
0.000632458
0.00055622
0.000466654
0.000241232
0.000114532
0.00012089
0.000304163
0.000266628
0.000265259
0.000290513
0.000238232
0.00021546
0.000320344
0.000559598
0.000570496
0.000532679
0.000567053
0.000848067
0.00124753
0.000860234
0.000811243
0.000866349
0.000851076
0.000843274
0.000643443
0.00149418
0.00190854
0.00208221
0.00143032
0.00104725
0.000763747
0.00186359
0.00221626
0.00266664
0.00252486
0.00219217
0.00200591
0.00181213
0.00140181
0.00121545
0.000912921
0.00066717
0.000480636
0.000393
0.000404684
0.000410355
0.000609868
0.000682505
0.000718621
0.000644833
0.000549649
0.000477552
0.000244964
0.000110995
0.000128145
0.000318052
0.000271164
0.000302768
0.000377013
0.00021984
0.000204707
0.000320137
0.000593678
0.000581728
0.000537293
0.000550208
0.000834715
0.00104228
0.000537306
0.000753404
0.000981835
0.000960212
0.000855498
0.000785138
0.00172294
0.0020424
0.00212753
0.0014682
0.00102868
0.000755333
0.00188412
0.00227545
0.00275321
0.00256673
0.00209849
0.00189113
0.00154711
0.0014401
0.00130185
0.000961681
0.000695124
0.000536217
0.000563591
0.000419955
0.000445919
0.000731221
0.000667755
0.000530906
0.000452167
0.000450978
0.000451952
0.000265729
0.000109273
0.00012646
0.000234764
0.000266126
0.000305933
0.000391797
0.000205664
0.000192373
0.000307298
0.000607766
0.000667109
0.000523075
0.000548835
0.000844811
0.000545031
0.000338091
0.000857893
0.00132256
0.00117272
0.000893482
0.000964201
0.00189817
0.00219308
0.00219394
0.00159909
0.00104825
0.000708658
0.00188542
0.00230885
0.0028175
0.0026511
0.00201633
0.00156101
0.00125352
0.00130366
0.0013686
0.00124673
0.000997102
0.000726109
0.000756377
0.000438213
0.000469085
0.000671006
0.000448909
0.000265237
0.000352058
0.000375862
0.000375512
0.000219515
9.90938e-05
0.00010865
0.000150149
0.000198332
0.000222592
0.000336496
0.000207648
0.000144366
0.000324167
0.000624456
0.000850441
0.000662348
0.000560325
0.000922136
0.00026025
0.000307489
0.00106449
0.00154596
0.00135882
0.000813822
0.00112065
0.00191028
0.00150914
0.00177542
0.00178483
0.00147076
0.00091861
0.00183235
0.00221585
0.0027394
0.00259883
0.00203507
0.00149564
0.00102637
0.00109652
0.00140151
0.00138154
0.00132925
0.00120898
0.000862959
0.000525704
0.000583064
0.000542625
0.000258563
0.000173369
0.000442399
0.000468786
0.000363877
0.000167805
0.000107795
9.56216e-05
0.000136044
0.00019295
0.000193787
0.000329638
0.000245811
0.000125279
0.000219528
0.000387889
0.000520364
0.000557597
0.000552922
0.000595809
0.000158032
0.000333458
0.000931747
0.00134598
0.00145402
0.000938391
0.00109317
0.000932371
0.00089592
0.00115482
0.00152898
0.00151498
0.00134057
0.00153637
0.00205637
0.00269037
0.00260142
0.00216626
0.00157107
0.00108859
0.000752739
0.000698074
0.000657736
0.000758801
0.00107575
0.00100222
0.000666517
0.000473591
0.000290681
0.000136662
0.000114018
0.000462567
0.000633224
0.000327008
0.000234896
0.000115998
8.74917e-05
0.000135968
0.000187894
0.00021704
0.000249926
0
0.000238457
0.000312706
0.000493393
0.00051281
0.000674763
0
0
0.000869001
0.000605208
0.000679825
0.000748247
0.000812801
0
0.00085959
0.0011222
0.00140677
0.00165027
0.000928983
0.000695459
0.000242603
0.00238817
0.00218477
0.00257114
0.00277069
0.00263253
0.00308304
0.00395516
0.00165406
0.0013807
0.00103557
0.000931273
0.000771257
0.00125036
0.0018144
0
0.000641484
0.000474481
0.000559271
0.000600889
0.000595188
0.00013144
0
0.000270271
0.000193622
0.000277858
0.00030528
0.000313497
0
0
0.000229336
0.000311276
0.000496914
0.000489304
0.000663049
0
0
0.000816311
0.000580709
0.000653766
0.000741551
0.000813464
0.000135306
0.000802608
0.00113365
0.00131107
0.000888947
0.000886515
0.000713482
0
0.0023583
0.00218762
0.00257658
0.00277321
0.00263459
0.00308462
0.00387376
0.00160554
0.00138234
0.0010431
0.000925142
0.000783759
0.00124139
0.00173451
0
0.000556057
0.000450572
0.000553692
0.000593477
0.000578377
0.000146811
0
0.000218167
0.000182599
0.000269043
0.000290932
0.000297035
0
4.2406e-05
0.000226604
0.000315326
0.000501958
0.000477536
0.000678184
0
0
0.000782138
0.000578727
0.000652178
0.00074103
0.000812547
0.00019587
0.000698466
0.00116086
0.00119314
0.000799582
0.0008782
0.00074193
0
0.00223101
0.00219027
0.0025799
0.00276389
0.00263596
0.00306051
0.00379015
0.00150385
0.00138149
0.00105936
0.000930682
0.000800588
0.00122672
0.00157817
0
0.000528349
0.000440248
0.000548412
0.000590993
0.000564378
0.000207584
0
0.000201196
0.00017732
0.000266397
0.00028623
0.000291588
0
8.24291e-05
0.000222029
0.000318866
0.000503038
0.000481368
0.00069722
0
0
0.000732416
0.000590054
0.000652487
0.000745665
0.000811445
0.000331047
0.000649218
0.00117121
0.00111281
0.000818796
0.000886388
0.000752254
0
0.00217518
0.00219151
0.00258345
0.00276168
0.00263269
0.00301599
0.00368883
0.00138484
0.00137977
0.00107383
0.000928185
0.000809282
0.00121861
0.00150959
0
0.000502507
0.000421042
0.000543199
0.000589714
0.00054278
0.000263786
0
0.00018759
0.00016662
0.000264229
0.000285894
0.000285936
7.24581e-05
0.000104635
0.000217621
0.000321548
0.00050809
0.000503871
0.000705204
0
0
0.000683448
0.000604739
0.000658566
0.000747558
0.000810327
0.000416971
0.000544467
0.00117982
0.00111316
0.000847924
0.000888233
0.000753542
0
0.00209353
0.00219538
0.00259046
0.00275165
0.00263014
0.00295205
0.00355214
0.00132605
0.00137909
0.00107409
0.000923665
0.000820743
0.00120329
0.00133007
0
0.000440181
0.000408256
0.000538685
0.000585165
0.000531932
0.000302372
0
0.000181523
0.000160756
0.000263979
0.0002861
0.000283491
0.000105796
0.000140501
0.000215234
0.000321756
0.000511238
0.000537288
0.000719815
0
0
0.000646911
0.000611217
0.00066072
0.00074932
0.000810024
0.000570578
0.000436056
0.00120918
0.0011017
0.000859386
0.000877901
0.00075013
0
0.0020442
0.00219643
0.00259374
0.00275323
0.00262361
0.00292796
0.0034179
0.00121461
0.00137685
0.00107545
0.000916603
0.000826092
0.00118537
0.00125393
0
0.000410839
0.000401823
0.000536644
0.00058259
0.000519814
0.000337461
0
0.000175058
0.000150695
0.00026016
0.000278754
0.000282431
0.000171909
0.000188572
0.000214928
0.000318433
0.000511067
0.000554985
0.0006817
0
8.23801e-05
0.000619124
0.000613864
0.000660755
0.000750401
0.000809902
0.000683983
0.000328807
0.00122032
0.00104836
0.000852429
0.000850167
0.00074235
0
0.00193032
0.00220086
0.00260067
0.00275423
0.0026222
0.00291996
0.00333105
0.00108774
0.00138337
0.00108844
0.00092116
0.000843016
0.00116874
0.00105183
6.17941e-05
0.000381388
0.0003884
0.000531313
0.000576609
0.00050499
0.00036991
0
0.000170319
0.000143464
0.000256209
0.000269412
0.000271687
0.000200887
2.03773e-06
5.374e-06
3.91736e-05
3.94588e-05
3.371e-05
2.08156e-05
5.20456e-06
1.52193e-05
2.21737e-05
0.000123537
0.000187136
0.000274417
0.000288175
8.912e-05
0.0010718
0.000920685
0.000984969
0.00131235
0.0016288
0.00155048
0.00138033
0.00150792
0.00206189
0.00268692
0.0026042
0.00212162
0.00155535
0.00109581
0.000110153
0.000324655
0.000802733
0.000991704
0.00127486
0.0011648
0.000818124
5.63478e-06
5.64713e-06
1.93944e-05
9.15902e-05
9.64906e-05
9.63524e-05
2.21019e-05
1.7437e-06
4.09934e-06
1.93613e-05
2.17377e-05
1.2834e-05
7.79143e-06
2.12606e-06
7.6411e-06
2.28069e-05
3.79763e-05
3.80302e-05
3.40933e-05
2.95543e-05
2.40842e-05
4.25869e-05
4.67838e-05
0.000115928
0.000121245
0.000125484
0.000131154
9.16557e-05
0.00102127
0.000912202
0.000949818
0.00112261
0.00131285
0.00129139
0.00135585
0.0014874
0.00207994
0.00269111
0.00260684
0.00213961
0.00155902
0.00112196
7.26088e-05
0.000483238
0.000833995
0.00104974
0.00115809
0.00117205
0.000929831
5.25736e-06
6.18508e-06
7.54561e-05
8.95842e-05
8.7958e-05
8.65585e-05
4.34993e-05
7.41894e-06
1.74364e-05
2.71178e-05
2.62682e-05
1.99156e-05
1.72516e-05
1.2243e-05
2.21978e-05
2.74628e-05
5.17199e-05
6.74736e-05
6.4957e-05
6.42816e-05
7.24162e-05
7.9242e-05
5.77118e-05
0.000141025
0.00015365
0.000141948
0.000146327
0.000148622
0.00100063
0.000991383
0.000992975
0.00104736
0.0012063
0.00119772
0.00128415
0.00151366
0.0021456
0.00270017
0.00261416
0.00218265
0.00157957
0.00118925
9.9393e-05
0.00048839
0.000979049
0.00121032
0.00119062
0.00122224
0.00109197
1.04614e-05
8.61285e-06
6.93057e-05
0.000100956
9.09215e-05
8.92133e-05
9.23546e-05
1.35923e-05
2.22886e-05
3.75709e-05
4.67224e-05
3.94019e-05
3.80061e-05
3.70751e-05
3.08574e-05
2.92811e-05
6.41438e-05
0.000102956
0.000105215
0.000104929
0.00012369
0.000116945
6.01955e-05
0.000127071
0.000190527
0.000183787
0.000181209
0.000188753
0.00101016
0.000978772
0.000712161
0.00076635
0.000964902
0.00100015
0.000981337
0.00158199
0.002271
0.00271719
0.0026245
0.00225431
0.00165305
0.00126357
0.000265674
0.000497248
0.000910299
0.00127574
0.00130494
0.00135558
0.00125507
2.1898e-05
1.49342e-05
5.81123e-05
0.000102583
0.000113558
0.000121514
0.00013279
2.25228e-05
3.23887e-05
4.71834e-05
5.27294e-05
5.04094e-05
5.09075e-05
5.38525e-05
2.93298e-05
3.44779e-05
7.52375e-05
0.000119669
0.00011814
0.000121033
0.000140821
9.29711e-05
6.09486e-05
0.000103214
0.000149007
0.00017277
0.000167847
0.000169441
0.000976248
0.000884203
0.000572511
0.000653469
0.000811571
0.000891261
0.000896057
0.00176691
0.00254527
0.00275825
0.00264597
0.00236369
0.00175623
0.00133993
0.000542217
0.000566316
0.000912902
0.00110464
0.00126645
0.00135882
0.00136935
2.0555e-05
1.419e-05
5.61636e-05
9.23989e-05
8.82864e-05
9.74482e-05
0.000103423
2.55533e-05
3.54452e-05
4.94034e-05
5.09099e-05
4.91093e-05
5.00816e-05
5.70626e-05
3.13097e-05
3.60759e-05
9.11024e-05
0.000111176
0.000118986
0.00012539
0.000125609
5.66991e-05
5.7873e-05
8.75144e-05
0.000115563
0.000141919
0.000165485
0.000163789
0.000829332
0.000678612
0.000349695
0.000394222
0.000545394
0.000827646
0.000884777
0.00229553
0.00260128
0.00277761
0.00273661
0.00243603
0.0020186
0.00149847
0.000651226
0.000611409
0.000843891
0.000851479
0.0010086
0.00124398
0.00128136
2.03497e-05
1.4209e-05
5.87427e-05
7.77534e-05
9.83767e-05
8.81926e-05
8.46832e-05
3.13681e-05
4.0252e-05
5.12529e-05
5.06578e-05
4.98577e-05
5.43641e-05
5.67949e-05
4.01312e-05
4.32315e-05
9.50671e-05
9.97528e-05
0.000109703
0.000113776
0.00011381
4.94594e-05
5.11938e-05
7.29218e-05
8.03187e-05
9.84576e-05
0.000107931
0.00011947
0.000452889
0.000211197
0.000113481
0.00020826
0.000454843
0.000794845
0.000940028
0.00208399
0.00161534
0.00237008
0.00266751
0.00258519
0.00240941
0.00196963
0.000394806
0.000327249
0.000422756
0.000454774
0.000684246
0.00110983
0.00123701
3.33477e-05
3.34569e-05
6.91794e-05
8.68274e-05
9.99392e-05
0.000109652
0.000109717
3.98352e-05
4.40918e-05
5.64659e-05
5.5698e-05
5.48012e-05
5.71561e-05
6.15151e-05
2.46935e-06
1.99585e-06
1.93748e-06
1.72699e-06
1.64714e-06
1.60445e-06
8.89067e-07
3.0233e-05
1.07937e-05
8.21251e-07
6.91765e-07
4.14982e-07
3.31435e-07
2.8615e-07
0.00134508
0.00081565
1.44522e-05
1.37678e-05
1.39655e-05
1.43874e-05
1.5783e-05
0.00109763
0.00102153
0.000638769
0.000306279
0.000131341
0.00010509
8.4229e-05
0.000815076
0.000791681
0.00039784
9.16662e-06
9.23873e-06
9.83467e-06
1.10273e-05
8.78083e-06
6.54378e-06
3.9802e-06
4.31334e-07
2.78347e-07
2.51261e-07
1.71292e-07
1.46559e-06
1.357e-06
1.33032e-06
1.21853e-06
1.14833e-06
1.02241e-06
7.8383e-07
2.13164e-05
2.1095e-05
1.79698e-05
1.66731e-05
1.32144e-05
1.18604e-05
6.16123e-06
5.11677e-05
3.86681e-05
1.34418e-05
3.7656e-06
2.98917e-06
2.7173e-06
2.36143e-06
0.00134753
0.00121723
0.000881485
2.72536e-05
1.60555e-05
1.67008e-05
1.83955e-05
0.00110951
0.00107263
0.000975121
0.000718178
0.00046304
0.000285388
0.00024093
0.000887949
0.000851645
0.000737098
0.000396096
1.01835e-05
1.13045e-05
1.29622e-05
3.01847e-05
2.21487e-05
1.94396e-05
6.65563e-06
1.43198e-06
1.27267e-06
8.98533e-07
1.08881e-05
1.02783e-05
9.52386e-06
7.72762e-06
6.90172e-06
4.85573e-06
3.90808e-06
8.31814e-05
8.48227e-05
8.10161e-05
6.9059e-05
6.14894e-05
4.9002e-05
2.65392e-05
0.000113366
8.07251e-05
6.72796e-05
4.56054e-05
2.15349e-05
1.62207e-05
1.55843e-05
0.00132467
0.00130876
0.00124306
0.00095234
0.000220707
2.77394e-05
2.77396e-05
0.00111946
0.00111383
0.00108522
0.0010158
0.000892514
0.000718586
0.000565933
0.000965817
0.000926088
0.000877055
0.000752792
0.000455602
0.000101814
1.70817e-05
5.14638e-05
3.92014e-05
3.43193e-05
1.96826e-05
1.40106e-05
5.93651e-06
6.09828e-06
3.90436e-05
3.94003e-05
3.48639e-05
3.07423e-05
2.65536e-05
1.2951e-05
8.59487e-06
0.00014104
0.000141916
0.000136425
0.000132094
0.000118121
0.000103611
5.83325e-05
0.000205096
0.000191835
0.000164046
0.000120252
6.92134e-05
5.38817e-05
5.345e-05
0.00104958
0.00113423
0.00120503
0.00115726
0.000988276
0.000618357
0.00026708
0.00117217
0.00114023
0.00113465
0.00112207
0.00109412
0.000997133
0.000880606
0.00118466
0.00115099
0.001133
0.00105864
0.000914407
0.000685478
0.000265704
0.000137793
8.93253e-05
7.46577e-05
6.61358e-05
4.4643e-05
3.40119e-05
3.47082e-05
6.60958e-05
6.17618e-05
5.74259e-05
5.60681e-05
5.27626e-05
4.10404e-05
1.37862e-05
0.000139944
0.000136851
0.000134826
0.000132732
0.000129431
0.000121487
9.52417e-05
0.000167412
0.000143839
0.000129852
0.000111107
0.000107739
0.000112533
9.89301e-05
0.000882926
0.000873053
0.000890105
0.00098107
0.000986336
0.000914339
0.000752792
0.00124821
0.00120594
0.0011837
0.00117059
0.00116072
0.00113686
0.00108121
0.00135161
0.00131955
0.00130741
0.0012803
0.00124253
0.00110967
0.000898446
9.46746e-05
7.83901e-05
7.67049e-05
7.95921e-05
8.32093e-05
9.79079e-05
0.000105864
6.11997e-05
6.1669e-05
6.24819e-05
6.29083e-05
6.35713e-05
5.86155e-05
3.0092e-05
0.000124522
0.000123182
0.000120477
0.000119079
0.000117998
0.000115665
0.000109466
0.000138489
0.000124238
0.000113386
0.000107357
0.000106642
0.000108264
0.000107402
0.000925958
0.00092024
0.000902599
0.000876779
0.000877988
0.000875983
0.000832257
0.00143251
0.00136177
0.00131663
0.00128007
0.00124701
0.0012242
0.00117116
0.00128275
0.00127753
0.00126229
0.00121965
0.00120501
0.00116623
0.00113288
7.76053e-05
7.54174e-05
7.61744e-05
8.0331e-05
8.52186e-05
8.8947e-05
0.000103059
5.99311e-05
6.16953e-05
6.35244e-05
6.38405e-05
6.47177e-05
6.62539e-05
3.56301e-05
0.000113954
0.000114063
0.000114031
0.000113922
0.000113655
0.00011324
0.00011191
0.000119983
0.000119911
0.000119614
0.000119421
0.000119451
0.000119536
0.000120633
0.00115774
0.00120486
0.00120446
0.0012015
0.0011803
0.00110275
0.00106643
0.00192821
0.00184067
0.00180898
0.00173562
0.0017113
0.00164591
0.0015871
0.0012247
0.00123668
0.00122933
0.00120901
0.00117917
0.00112603
0.00112046
0.000108876
0.000107998
0.000107263
0.000104508
0.000101347
9.61393e-05
9.6709e-05
6.37293e-05
6.42196e-05
6.48812e-05
6.5624e-05
6.68386e-05
6.78934e-05
3.87802e-05
1.50544e-07
4.92789e-07
6.99314e-07
8.40185e-07
9.34554e-07
9.66425e-07
1.15449e-06
4.39461e-07
5.85883e-07
6.55479e-07
6.77695e-07
3.53154e-06
5.65002e-06
1.31979e-05
2.95769e-05
2.56432e-05
2.7847e-05
3.44202e-05
0.000220285
0.00110873
0.00109711
0.000245476
0.000242225
0.000263515
0.000365042
0.000521303
0.00078966
0.00126792
3.31741e-05
3.07436e-05
2.94099e-05
2.9416e-05
2.99059e-05
3.07376e-05
3.32112e-05
3.46348e-07
4.15268e-07
4.92714e-07
5.1858e-07
6.36928e-07
7.3596e-07
1.21476e-06
6.25358e-07
9.07556e-07
9.69581e-07
1.13619e-06
1.25144e-06
1.27829e-06
1.29463e-06
7.88566e-07
3.0974e-06
4.96102e-06
6.63287e-06
7.48141e-06
7.68092e-06
8.60654e-06
2.06771e-06
3.21402e-06
3.66308e-06
8.29118e-06
2.44529e-05
3.32904e-05
4.4465e-05
3.23971e-05
3.19503e-05
3.55026e-05
0.000600181
0.000940687
0.0010967
0.00106419
0.000453117
0.000473144
0.000608337
0.000674622
0.000756764
0.000996849
0.00129135
5.23543e-05
4.38831e-05
4.07163e-05
3.83756e-05
3.83699e-05
3.91193e-05
4.10982e-05
1.25503e-06
1.64093e-06
2.03099e-06
2.23287e-06
2.5721e-06
2.72708e-06
3.19231e-06
2.68468e-06
4.63872e-06
5.2629e-06
6.8662e-06
7.37443e-06
7.66146e-06
7.16911e-06
2.62605e-06
1.28304e-05
2.32797e-05
2.8196e-05
3.00711e-05
3.18883e-05
3.15747e-05
1.10177e-05
1.33825e-05
2.28076e-05
5.20698e-05
6.85526e-05
8.18073e-05
9.30139e-05
3.62282e-05
4.77569e-05
0.000612074
0.000955077
0.00101948
0.00103572
0.00101535
0.000578286
0.000683596
0.000745012
0.000830156
0.000885563
0.00110354
0.00134782
5.04527e-05
5.2556e-05
5.31643e-05
5.61053e-05
5.91652e-05
6.31189e-05
6.98546e-05
6.24714e-06
7.43515e-06
9.45039e-06
1.06117e-05
1.08563e-05
1.19427e-05
1.31572e-05
6.09781e-06
1.23674e-05
1.86822e-05
2.12869e-05
2.18258e-05
2.1772e-05
2.10123e-05
1.03767e-05
3.52321e-05
3.87156e-05
3.80425e-05
4.8559e-05
5.50266e-05
5.25415e-05
3.28795e-05
3.74348e-05
6.98608e-05
0.000121412
0.000144598
0.000159659
0.000160023
9.99477e-05
0.000508481
0.000894397
0.000971315
0.000997812
0.00100427
0.00100868
0.000717399
0.00088802
0.000978814
0.00108908
0.00111926
0.00129571
0.0013739
6.58715e-05
8.57217e-05
9.98608e-05
0.0001066
0.000109359
0.000124675
0.000148351
1.63504e-05
1.93576e-05
2.00714e-05
2.12507e-05
2.18646e-05
2.29815e-05
2.74529e-05
1.64395e-05
2.68025e-05
2.68534e-05
2.54325e-05
2.42305e-05
2.26344e-05
2.13995e-05
1.97892e-05
4.27267e-05
4.36773e-05
4.04163e-05
4.63668e-05
4.63995e-05
4.23993e-05
4.52281e-05
5.04851e-05
0.000147463
0.000144836
0.000121323
0.000102663
9.95043e-05
0.000496293
0.000773671
0.000891195
0.000930546
0.00093781
0.000981165
0.00100969
0.000937579
0.00109887
0.00121683
0.00125661
0.00132302
0.00137051
0.00144732
0.000168356
0.000273331
0.000312211
0.000329279
0.000357
0.000375532
0.000441604
2.01478e-05
2.74192e-05
2.50446e-05
2.32769e-05
2.27106e-05
2.29412e-05
2.36875e-05
2.57206e-05
3.24462e-05
2.8436e-05
2.5399e-05
2.47558e-05
2.44871e-05
2.49906e-05
2.33271e-05
4.92761e-05
4.52938e-05
4.12988e-05
3.80286e-05
3.69657e-05
3.50853e-05
5.21577e-05
5.25487e-05
5.05019e-05
5.62112e-05
6.10438e-05
6.0745e-05
5.95765e-05
0.000611201
0.000666179
0.00067798
0.000690539
0.00078227
0.00082068
0.000837434
0.00130311
0.00141333
0.00151156
0.00155816
0.00164283
0.0016652
0.00180612
0.000370478
0.00042361
0.000509624
0.000536665
0.000563024
0.000564461
0.000548927
2.61255e-05
2.53198e-05
2.34617e-05
2.28888e-05
2.22916e-05
2.20934e-05
2.15763e-05
3.26329e-05
3.56421e-05
3.30108e-05
3.09718e-05
3.01339e-05
2.93234e-05
2.97951e-05
2.59435e-05
5.16634e-05
4.89562e-05
4.72821e-05
4.61436e-05
4.23942e-05
4.09869e-05
4.75434e-05
4.73577e-05
4.74784e-05
4.78277e-05
4.80941e-05
4.79639e-05
4.77951e-05
0.000545589
0.00055981
0.000609271
0.000646734
0.000656199
0.00065917
0.000659877
0.00184035
0.00189793
0.0019793
0.00200357
0.00203679
0.00204505
0.00207694
0.00060506
0.000631411
0.000672826
0.000681479
0.000653329
0.000614583
0.000571764
3.70337e-05
3.62768e-05
3.49531e-05
3.45292e-05
3.38633e-05
3.37276e-05
3.38442e-05
3.67079e-05
3.8134e-05
3.84387e-05
3.85202e-05
3.85393e-05
3.85518e-05
3.89941e-05
5.73852e-08
4.34324e-08
7.01637e-08
7.81025e-08
7.12693e-08
5.49435e-08
3.87668e-08
6.96549e-08
9.65597e-08
1.18379e-07
1.29712e-07
1.79975e-07
2.22861e-07
2.89334e-07
8.03649e-05
7.22681e-05
7.02827e-05
5.9916e-05
3.92532e-05
3.39065e-05
3.30331e-05
0.000238833
0.00019071
0.000223461
0.000237076
0.00024225
0.000248651
0.000247226
7.8369e-05
7.11555e-05
6.93891e-05
6.40592e-05
5.25323e-05
4.33379e-05
3.69079e-05
4.40631e-08
5.48918e-08
7.21604e-08
8.73036e-08
1.68664e-07
2.05075e-07
2.87953e-07
3.1839e-08
2.29206e-08
4.72169e-08
5.91246e-08
1.097e-07
1.47206e-07
2.3089e-07
4.09843e-08
3.49213e-08
6.50641e-08
5.83648e-08
3.18424e-08
1.47888e-08
8.65015e-09
8.29522e-08
1.23123e-07
1.87631e-07
3.92568e-07
7.07082e-07
8.6826e-07
1.57492e-06
0.000100324
0.000105744
0.000106113
8.28862e-05
6.16185e-05
3.89415e-05
3.7014e-05
0.000325235
0.000371481
0.000428648
0.000448972
0.000456566
0.000456221
0.000453019
9.44295e-05
9.88324e-05
0.000105031
9.70757e-05
7.94144e-05
6.73506e-05
5.8827e-05
6.05999e-08
7.38584e-08
1.13375e-07
2.38122e-07
5.69337e-07
6.64927e-07
9.63896e-07
3.08732e-08
1.84273e-08
5.01616e-08
8.94821e-08
2.57244e-07
3.84108e-07
9.20868e-07
1.55415e-08
3.24599e-08
6.57414e-08
4.41229e-08
1.58413e-08
6.44687e-09
4.57656e-09
8.03898e-08
1.40804e-07
4.3064e-07
1.23877e-06
2.14593e-06
3.42461e-06
4.81767e-06
0.000114568
0.000137296
0.000134785
0.000112967
6.48194e-05
4.0811e-05
3.69752e-05
0.000389249
0.000446675
0.000458245
0.000454647
0.000442971
0.000444315
0.000467156
0.000117149
0.000130236
0.000134372
0.000115038
8.98253e-05
7.16469e-05
5.55035e-05
6.21185e-08
8.69081e-08
1.79118e-07
6.19749e-07
2.22779e-06
3.07191e-06
5.08418e-06
1.33195e-08
1.7464e-08
6.15914e-08
1.4954e-07
3.93376e-07
6.25378e-07
2.02273e-06
1.23026e-08
3.21262e-08
6.55954e-08
3.39615e-08
1.04583e-08
3.09223e-09
4.01787e-09
7.35878e-08
3.22578e-07
1.35708e-06
1.81588e-06
4.75562e-06
1.12999e-05
1.65103e-05
0.000123053
0.000141854
0.000138135
0.000114955
7.16501e-05
4.52077e-05
4.16004e-05
0.000396637
0.000488626
0.000499311
0.000502193
0.000507042
0.000539062
0.000623003
0.000121687
0.000134138
0.000135771
0.000113231
8.34085e-05
6.45804e-05
4.64544e-05
6.28008e-08
9.2837e-08
3.36883e-07
2.67288e-06
7.64286e-06
1.22863e-05
1.41464e-05
1.01832e-08
1.82e-08
7.60161e-08
1.93273e-07
4.55765e-07
8.02438e-07
3.1503e-06
1.17782e-08
3.0422e-08
6.45492e-08
2.68675e-08
7.52529e-09
2.06612e-09
3.96735e-09
6.8056e-08
5.34939e-07
2.00097e-06
2.13838e-06
8.78616e-06
1.6003e-05
3.33484e-05
0.000133572
0.000149901
0.000137604
0.000102549
6.59092e-05
6.43316e-05
0.000160502
0.00042581
0.000541701
0.000575314
0.000601327
0.000650477
0.00070529
0.000795072
0.000131544
0.000142101
0.000138092
0.000110076
7.51495e-05
7.11446e-05
8.3316e-05
6.69012e-08
1.01846e-07
7.54581e-07
4.78965e-06
1.48019e-05
1.57929e-05
1.60052e-05
9.17443e-09
1.86663e-08
7.94438e-08
2.03959e-07
4.86332e-07
1.03527e-06
3.58625e-06
1.14049e-08
2.83395e-08
6.17118e-08
2.33262e-08
5.11254e-09
1.53979e-09
3.53367e-09
6.36574e-08
6.15069e-07
1.90307e-06
1.51798e-06
1.08104e-05
2.164e-05
4.06471e-05
0.000144519
0.000160296
0.000140943
9.90877e-05
7.32593e-05
0.000181007
0.000417838
0.000433535
0.00057185
0.000620587
0.000661353
0.000762497
0.000891149
0.0010556
0.00015443
0.000160751
0.000144328
0.000100902
7.87834e-05
0.000132423
0.000217998
6.86265e-08
1.17226e-07
1.42273e-06
8.20641e-06
1.8019e-05
2.36282e-05
2.40039e-05
8.61603e-09
1.86482e-08
7.96732e-08
2.05216e-07
5.0409e-07
1.11933e-06
4.22012e-06
7.97394e-09
2.75528e-08
6.06108e-08
2.24147e-08
3.74913e-09
1.36606e-09
2.89111e-09
5.9023e-08
5.30308e-07
9.49059e-07
8.36179e-07
5.51481e-06
1.36337e-05
3.08472e-05
0.000142522
0.000175786
0.000142584
0.000140167
0.000276118
0.000417086
0.000497655
0.000496552
0.00075483
0.000882058
0.00107201
0.00132308
0.00151698
0.00168549
0.00014905
0.00018098
0.000151063
0.000159565
0.000294749
0.000406432
0.000523729
6.96352e-08
1.31264e-07
1.6215e-06
8.75698e-06
2.68002e-05
3.32613e-05
3.68767e-05
7.7302e-09
1.83124e-08
7.98843e-08
2.02114e-07
5.23631e-07
1.13778e-06
4.90829e-06
2.16001e-09
2.55143e-08
7.43488e-08
2.08788e-08
1.42559e-09
4.89366e-10
1.86371e-09
3.05401e-08
7.5443e-07
8.52771e-07
1.07047e-07
4.64789e-08
8.88403e-09
1.00455e-08
0.000148516
0.000139756
0.000118792
0.000131617
0.000226149
0.000279225
0.000215074
0.000644243
0.000802067
0.00080675
0.000839605
0.000930195
0.000953185
0.000939298
0.000147314
0.000145694
0.000133779
0.000135969
0.000211709
0.000255041
0.000267326
7.60928e-08
1.7604e-07
5.33517e-07
7.99166e-07
9.76326e-06
1.65628e-05
3.22126e-05
3.96431e-09
1.81594e-08
5.20548e-08
2.02446e-07
4.27565e-07
1.1418e-06
1.52841e-06
1.82524e-09
1.56706e-08
5.59832e-08
2.84632e-08
2.14767e-09
1.38771e-10
1.2013e-10
3.13544e-08
1.19949e-07
4.64314e-07
2.51488e-07
4.63515e-08
8.49644e-09
6.3075e-09
0.00012711
0.000115123
0.000106566
9.79015e-05
0.000131433
0.000166966
0.000156582
0.000621679
0.000757819
0.000729785
0.000690777
0.000707721
0.00081165
0.000805679
9.81758e-05
0.000106363
0.000109897
0.00010921
0.000119416
0.000140156
0.000164822
7.1245e-08
2.0333e-07
6.22533e-07