/*--------------------------------*- C++ -*----------------------------------*\
  =========                 |
  \\      /  F ield         | OpenFOAM: The Open Source CFD Toolbox
   \\    /   O peration     | Website:  https://openfoam.org
    \\  /    A nd           | Version:  6
     \\/     M anipulation  |
\*---------------------------------------------------------------------------*/
FoamFile
{
    version     2.0;
    format      ascii;
    class       surfaceScalarField;
    location    "0.0275";
    object      phi;
}
// * * * * * * * * * * * * * * * * * * * * * * * * * * * * * * * * * * * * * //

dimensions      [1 0 -1 0 0 0 0];

internalField   nonuniform List<scalar> 
10143
(
9.42369e-08
-4.78232e-05
5.1504e-05
-2.72433e-07
-4.75673e-05
5.16767e-05
1.40731e-07
-4.82248e-05
5.15762e-05
1.91573e-07
-4.74989e-05
5.12125e-05
-4.91329e-08
-4.72891e-05
5.13052e-05
9.27911e-08
-4.77514e-05
5.13627e-05
-4.70879e-05
5.09324e-05
-1.64401e-07
-2.61783e-05
-1.14055e-05
-3.72165e-07
-2.5785e-05
-1.17238e-05
-7.6182e-07
-2.63087e-05
-1.15537e-05
-3.14552e-07
-2.61388e-05
-1.18023e-05
-3.35632e-07
-2.58817e-05
-1.13645e-05
-1.137e-06
-2.58651e-05
-1.11502e-05
-2.58687e-05
-1.23888e-05
-8.92993e-08
-8.64876e-06
-6.81101e-06
1.10705e-06
-8.7829e-06
-7.66615e-06
1.3732e-07
-8.61917e-06
-6.09361e-06
-5.40212e-07
-8.61618e-06
-6.16732e-06
-3.45881e-07
-8.66779e-06
-6.79786e-06
-4.148e-07
-8.37022e-06
-6.82123e-06
-8.63689e-06
-6.98574e-06
-4.62723e-07
8.61282e-06
-5.23091e-06
-6.39997e-07
8.72978e-06
-5.90263e-06
-1.99662e-07
8.50793e-06
-6.14187e-06
6.69321e-08
8.42657e-06
-5.84922e-06
2.09457e-07
8.57393e-06
-5.94676e-06
6.10714e-07
8.57099e-06
-5.89086e-06
8.69338e-06
-5.15622e-06
-2.84159e-07
2.62716e-05
-6.72077e-06
8.78832e-07
2.57711e-05
-7.71137e-06
7.38908e-08
2.61e-05
-6.14886e-06
-6.30372e-07
2.59803e-05
-6.1766e-06
-7.06691e-07
2.59692e-05
-6.67835e-06
-6.72646e-07
2.61154e-05
-6.99328e-06
2.59707e-05
-7.34061e-06
8.49529e-07
4.77479e-05
-1.23222e-05
2.36331e-07
4.74846e-05
-1.1063e-05
2.5671e-07
4.77877e-05
-1.16778e-05
1.97402e-07
4.76289e-05
-1.15454e-05
8.57052e-07
4.72942e-05
-1.1988e-05
-2.90606e-07
4.83397e-05
-1.1186e-05
4.77095e-05
-1.20628e-05
2.09294e-07
5.1296e-05
-1.51661e-07
5.16167e-05
1.63729e-07
5.12416e-05
1.62069e-07
5.14176e-05
-8.71288e-08
5.13169e-05
1.35054e-07
5.18703e-05
5.16071e-05
-8.53538e-09
-8.42543e-06
6.04117e-05
-1.76201e-07
-9.02159e-06
6.13297e-05
1.13384e-07
-9.21604e-06
6.09599e-05
2.68466e-07
-8.65693e-06
6.01907e-05
2.51965e-08
-7.82902e-06
5.98761e-05
1.54031e-07
-8.21342e-06
5.9919e-05
-8.5331e-06
6.01375e-05
-5.84861e-07
1.07629e-06
-1.88e-05
-7.74249e-07
9.39092e-07
-2.02271e-05
-1.04406e-06
9.78988e-07
-2.02403e-05
-1.26222e-07
9.73713e-07
-2.10628e-05
7.22631e-09
1.57689e-06
-1.95463e-05
-1.05543e-06
1.57426e-06
-1.85827e-05
7.87114e-07
-2.12729e-05
-6.48389e-08
6.22176e-07
-8.27753e-06
3.00643e-07
5.19322e-07
-9.75259e-06
-2.36076e-07
1.18305e-06
-7.85705e-06
-2.13434e-07
1.25429e-06
-8.57474e-06
1.80884e-07
7.51713e-07
-8.55767e-06
-2.74666e-07
7.35499e-07
-7.73265e-06
6.89933e-07
-9.13691e-06
-3.91692e-07
-6.48942e-07
-5.46991e-06
-5.10549e-07
-1.05378e-06
-6.21194e-06
-3.15782e-07
-4.49996e-07
-6.72637e-06
-2.8225e-07
-4.26582e-07
-6.21028e-06
-1.7731e-07
-6.02774e-07
-6.6949e-06
3.00172e-07
-1.0751e-06
-6.56006e-06
-7.18701e-07
-5.35534e-06
-2.82088e-07
-4.81956e-07
-8.51024e-06
1.29886e-07
-1.94638e-06
-9.48281e-06
9.76539e-09
-1.0112e-06
-7.5717e-06
2.51335e-07
-1.21936e-06
-7.72872e-06
4.18727e-07
-8.90335e-07
-8.64717e-06
-1.18568e-07
-1.56744e-06
-8.16176e-06
-8.35814e-07
-9.3197e-06
7.97996e-07
9.03143e-06
-2.11721e-05
6.38281e-08
7.87347e-06
-1.87578e-05
2.01471e-07
8.5749e-06
-2.01209e-05
6.23314e-07
8.06034e-06
-1.98976e-05
1.82427e-06
8.363e-06
-2.11311e-05
1.77175e-07
8.86199e-06
-1.86992e-05
9.01703e-06
-2.0263e-05
1.01571e-07
6.07034e-05
-1.44651e-07
6.0205e-05
1.36221e-07
6.00144e-05
8.8321e-08
6.00242e-05
-3.49863e-08
6.03009e-05
1.27069e-07
6.10548e-05
6.12479e-05
3.22345e-07
5.47717e-06
5.52501e-05
-5.51093e-08
5.94411e-06
5.63162e-05
1.11437e-07
5.05598e-06
5.62912e-05
4.6298e-07
4.83707e-06
5.55679e-05
2.23991e-07
5.26494e-06
5.54455e-05
-2.87412e-08
5.17752e-06
5.55625e-05
6.55122e-06
5.43598e-05
1.91463e-07
4.02305e-06
-1.50653e-05
1.41554e-07
4.6872e-06
-1.6501e-05
-6.53843e-07
4.87079e-06
-1.70903e-05
-3.53692e-07
4.46861e-06
-1.8904e-05
-4.38499e-07
4.89098e-06
-1.68385e-05
-1.43922e-06
5.19978e-06
-1.53669e-05
3.66115e-06
-1.71368e-05
-2.4951e-07
1.60504e-06
-7.98573e-06
1.16065e-07
2.19908e-06
-1.01798e-05
-1.57764e-07
2.66692e-06
-7.95352e-06
-1.01773e-07
2.35622e-06
-9.09202e-06
-8.34538e-09
2.59504e-06
-8.96195e-06
5.82296e-08
2.55054e-06
-7.73083e-06
1.72028e-06
-9.50054e-06
-5.14031e-07
-1.72441e-06
-3.64268e-06
-6.32218e-07
-2.01749e-06
-4.00682e-06
-3.54198e-07
-2.1109e-06
-4.37862e-06
-2.89668e-07
-1.88274e-06
-4.16972e-06
6.35416e-08
-2.40261e-06
-4.21283e-06
4.44019e-07
-2.26996e-06
-4.27532e-06
-1.72385e-06
-3.49515e-06
-3.62227e-07
-3.62233e-06
-8.60835e-06
1.08131e-07
-4.82041e-06
-9.75879e-06
7.75445e-08
-4.76714e-06
-7.3922e-06
3.38402e-07
-4.62083e-06
-7.77298e-06
2.53347e-07
-4.39441e-06
-9.10489e-06
2.24395e-07
-4.98615e-06
-7.99171e-06
-3.87455e-06
-9.31652e-06
1.18383e-06
-6.37685e-06
-1.69242e-05
6.35374e-07
-5.13923e-06
-1.56363e-05
1.5208e-07
-4.82621e-06
-1.74627e-05
3.91414e-07
-5.23482e-06
-1.72463e-05
7.81125e-07
-5.12195e-06
-1.861e-05
-5.83667e-07
-5.31661e-06
-1.473e-05
-6.35524e-06
-1.57216e-05
1.69135e-07
5.49498e-05
-2.18413e-07
5.60396e-05
-2.50563e-08
5.55635e-05
-9.70719e-08
5.54483e-05
-5.15949e-08
5.57191e-05
-2.58956e-07
5.6512e-05
5.54244e-05
5.46209e-07
7.97836e-06
4.76135e-05
-1.1716e-07
8.34351e-06
4.95535e-05
1.97487e-07
7.54235e-06
4.93938e-05
4.91462e-07
7.39183e-06
4.88245e-05
5.32687e-07
7.7884e-06
4.86156e-05
1.17004e-07
7.61188e-06
4.93525e-05
9.0776e-06
4.59532e-05
1.33964e-06
8.30485e-06
-1.33859e-05
4.80521e-07
9.20662e-06
-1.32829e-05
-6.6493e-07
9.37799e-06
-1.47896e-05
-9.90725e-07
8.95438e-06
-1.72117e-05
-5.69943e-07
9.1258e-06
-1.54753e-05
-1.51091e-06
9.43556e-06
-1.31569e-05
8.29225e-06
-1.42237e-05
-1.98892e-07
2.43573e-06
-4.73544e-06
-4.65561e-08
3.23926e-06
-7.3206e-06
-1.26805e-07
3.32309e-06
-4.79622e-06
-8.72918e-08
2.79665e-06
-5.93443e-06
-1.98247e-07
3.37076e-06
-6.13401e-06
1.24255e-07
3.47768e-06
-5.0897e-06
2.37051e-06
-6.26398e-06
-4.81772e-07
-2.52785e-06
-2.86064e-07
-6.0717e-07
-2.55801e-06
-3.01126e-07
-3.40001e-07
-3.37738e-06
-1.86529e-07
-2.51678e-07
-3.08504e-06
-5.85158e-07
1.33379e-07
-3.40441e-06
-6.29476e-08
4.56891e-07
-2.99246e-06
-3.74411e-07
-2.45133e-06
-3.11406e-07
-3.26476e-07
-8.23666e-06
-5.38839e-06
1.74116e-07
-9.11953e-06
-6.62937e-06
1.37342e-07
-9.22048e-06
-4.54477e-06
3.57623e-07
-8.91703e-06
-5.22167e-06
9.27317e-08
-8.99048e-06
-6.26751e-06
3.45864e-07
-9.27934e-06
-4.91659e-06
-8.30668e-06
-5.92028e-06
1.39e-06
-8.82281e-06
-1.41886e-05
5.78448e-07
-7.5812e-06
-1.33295e-05
-1.40005e-08
-7.40485e-06
-1.57046e-05
4.97821e-07
-7.75119e-06
-1.58018e-05
3.80215e-07
-7.72284e-06
-1.67164e-05
-8.77063e-07
-7.82702e-06
-1.17719e-05
-8.81036e-06
-1.25392e-05
1.02802e-07
4.66677e-05
-4.02435e-07
5.00073e-05
-1.32527e-07
4.8864e-05
-4.78845e-08
4.86102e-05
9.09325e-08
4.88305e-05
-2.88882e-07
5.00181e-05
4.69538e-05
4.88718e-07
1.08754e-05
3.66071e-05
1.39823e-07
1.11939e-05
3.92452e-05
4.97093e-07
1.12657e-05
3.82115e-05
5.70567e-07
1.13908e-05
3.77777e-05
5.11462e-07
1.15373e-05
3.75516e-05
2.88869e-07
1.11863e-05
3.88189e-05
1.0985e-05
3.54975e-05
1.18372e-06
8.82508e-06
-8.39568e-06
4.27938e-07
9.38853e-06
-6.76753e-06
-2.66954e-07
9.83516e-06
-8.68357e-06
-7.91022e-07
9.58123e-06
-1.09349e-05
-4.79057e-07
9.75839e-06
-9.95069e-06
-1.03284e-06
9.81037e-06
-7.20382e-06
9.08133e-06
-9.19379e-06
-1.18545e-07
2.73028e-06
-1.54445e-06
-1.76053e-07
2.67536e-06
-3.68539e-06
-1.41293e-08
3.07707e-06
-1.38482e-06
-8.05331e-08
2.95222e-06
-2.44749e-06
-2.09453e-07
3.08251e-06
-2.56051e-06
1.65394e-07
3.08834e-06
-1.90277e-06
2.61156e-06
-2.67655e-06
-4.00432e-07
-2.73e-06
3.46363e-06
-5.4356e-07
-2.89155e-06
3.19023e-06
-3.81097e-07
-3.11873e-06
3.60597e-06
-1.16907e-07
-3.20382e-06
3.07462e-06
1.23811e-07
-2.87139e-06
3.4246e-06
3.51826e-07
-3.22142e-06
3.45901e-06
-2.75501e-06
3.28738e-06
-2.42482e-07
-9.04757e-06
-1.87623e-06
5.08599e-08
-9.80594e-06
-3.18533e-06
2.14274e-07
-9.74932e-06
-1.30299e-06
2.75818e-07
-9.71656e-06
-2.03186e-06
4.94564e-09
-9.40517e-06
-2.68466e-06
2.92606e-07
-9.89046e-06
-1.70026e-06
-9.08192e-06
-2.33908e-06
1.00112e-06
-1.08027e-05
-9.38686e-06
1.1544e-07
-1.12912e-05
-6.96993e-06
4.75247e-09
-1.12664e-05
-1.01321e-05
3.30532e-07
-1.14138e-05
-1.04343e-05
8.16351e-08
-1.13575e-05
-1.06329e-05
-5.1385e-07
-1.10676e-05
-5.98569e-06
-1.06709e-05
-7.39692e-06
1.4262e-07
3.60057e-05
-3.72382e-07
3.96599e-05
-1.16903e-07
3.77221e-05
-1.57315e-07
3.76459e-05
-3.77164e-07
3.80903e-05
-3.22821e-07
3.93271e-05
3.62525e-05
8.86114e-08
1.01036e-05
2.70924e-05
6.85834e-07
1.04122e-05
2.89305e-05
8.47368e-07
1.06963e-05
2.81113e-05
6.43631e-07
1.10009e-05
2.77576e-05
1.91468e-07
1.11849e-05
2.75822e-05
6.64715e-07
1.05112e-05
2.85879e-05
1.03472e-05
2.65316e-05
6.83282e-07
1.05653e-05
-5.75167e-06
3.86156e-07
1.14999e-05
-3.70211e-06
2.34785e-07
1.17506e-05
-5.83785e-06
-3.67446e-07
1.1868e-05
-7.56943e-06
-4.01308e-07
1.19718e-05
-6.93258e-06
-5.23635e-07
1.1735e-05
-4.47176e-06
1.09284e-05
-6.50837e-06
2.80625e-08
1.42326e-06
3.9869e-06
-3.41126e-07
1.7534e-06
2.73425e-06
-1.01315e-08
1.69111e-06
4.55744e-06
-8.34073e-08
1.909e-06
3.78436e-06
-1.85234e-07
2.13755e-06
3.56231e-06
1.45245e-07
1.91361e-06
3.85971e-06
1.51616e-06
3.25228e-06
-4.19803e-07
-1.51946e-06
4.82586e-06
-3.82759e-07
-1.96023e-06
4.74418e-06
-3.89566e-07
-1.91312e-06
5.10036e-06
-2.23684e-07
-2.3289e-06
5.00556e-06
-1.35446e-07
-1.91357e-06
5.25835e-06
9.13761e-08
-1.985e-06
4.97569e-06
-1.67145e-06
4.5613e-06
-1.63277e-08
-1.09119e-05
3.90993e-06
-1.48088e-07
-1.20739e-05
3.22855e-06
2.18041e-07
-1.18825e-05
4.51213e-06
1.89154e-07
-1.21119e-05
3.92242e-06
-3.34363e-08
-1.19904e-05
3.75287e-06
1.7303e-07
-1.16826e-05
4.04314e-06
-1.08376e-05
3.4045e-06
4.33836e-07
-1.01923e-05
-6.85762e-06
-1.89218e-08
-1.08197e-05
-3.71779e-06
1.19735e-07
-1.10163e-05
-7.48163e-06
-3.91839e-08
-1.10921e-05
-7.64619e-06
-1.65173e-07
-1.12861e-05
-7.53204e-06
-1.8511e-08
-1.03247e-05
-3.6029e-06
-9.80411e-06
-4.6592e-06
-1.47758e-07
2.66246e-05
-3.16242e-09
2.92885e-05
-8.06113e-08
2.75304e-05
-4.28539e-07
2.76448e-05
-1.10919e-06
2.81915e-05
-1.5604e-07
2.87743e-05
2.69486e-05
-2.82868e-07
2.79606e-05
1.38152e-06
2.791e-05
1.33813e-06
2.89993e-05
9.65467e-07
2.90068e-05
1.28932e-07
2.93278e-05
1.17374e-06
2.84199e-05
2.83379e-05
-3.80408e-07
1.72835e-05
1.45682e-06
1.7137e-05
1.97129e-06
1.75438e-05
9.39158e-07
1.71414e-05
-4.1541e-08
1.80456e-05
1.38836e-06
1.72465e-05
1.78865e-05
4.46409e-07
4.22171e-06
-6.40433e-07
4.33794e-06
3.27922e-07
4.11448e-06
3.94515e-07
4.21489e-06
3.26814e-07
4.49622e-06
4.64525e-07
4.31665e-06
4.5179e-06
-4.54638e-07
-4.38673e-06
-3.78157e-07
-4.61141e-06
-6.23922e-07
-4.13298e-06
-4.45283e-07
-4.60858e-06
-2.7584e-07
-3.99385e-06
-4.0732e-07
-4.45951e-06
-4.73366e-06
1.20963e-07
-1.71745e-05
-7.33869e-07
-1.80366e-05
2.84874e-07
-1.73145e-05
5.13696e-07
-1.81372e-05
2.83594e-07
-1.69725e-05
4.48728e-07
-1.71687e-05
-1.79378e-05
-1.81927e-06
-2.75846e-05
1.17731e-06
-2.90408e-05
-2.10832e-07
-2.87196e-05
-2.03089e-06
-2.91814e-05
-1.1056e-06
-2.99438e-05
6.10547e-07
-2.77384e-05
-2.73193e-05
-4.94493e-07
2.54989e-07
-1.38966e-07
-8.32462e-07
-1.86709e-06
-7.78866e-08
-0.0012209
0.0045669
-0.00327428
0.00284536
0.00454861
-0.00857025
0.00710351
0.00400055
-0.00819657
0.00856395
0.00368571
-0.00506055
0.008115
0.0032611
-0.00272552
0.00523745
0.00251386
0.000441971
0.001852
0.00346239
-0.00179424
0.00466331
0.00182865
0.00365362
0.0042175
-0.00500392
0.00755595
0.0046177
-0.00439792
0.0114931
0.00506713
-0.0051998
0.0123531
0.00517335
-0.00266484
0.00887527
0.00418578
0.00190294
0.00411648
0.00671039
-0.000620836
0.00154203
0.00386487
0.001749
0.000833366
0.00112923
0.00430192
0.000822028
0.00134412
0.00635524
0.0016056
0.00149076
0.00726019
0.00243732
0.00190546
0.00545388
0.00287815
0.00318105
0.00343649
0.00620476
-0.000396169
-0.0024345
0.00444
9.71147e-06
-0.00256426
0.00306021
-0.000237471
-0.00236819
0.00350082
-0.000363235
-0.00198055
0.0037647
-4.52805e-05
-0.00177534
0.00393809
0.000360861
-0.00191286
0.00442131
-0.00236209
0.00619986
-0.00158148
-0.0046514
0.00386115
-0.00122965
-0.00476402
0.00190825
-0.0005939
-0.00474687
0.0018015
0.000324061
-0.00463036
0.00179069
0.000995123
-0.00436334
0.00197887
0.00120038
-0.00433247
0.00226982
-0.00485516
0.00375179
-0.00580947
-0.00209263
0.00331463
-0.00764838
-0.00246134
-0.000389203
-0.00824596
-0.00277834
-0.00128372
-0.00766807
-0.00320099
-0.00191801
-0.00511369
-0.00373072
-0.00311043
-0.00114278
-0.00395576
-0.00431058
-0.00387649
-0.00209073
-0.00400689
0.00197417
-0.00567605
-0.000720789
-0.00632512
-0.00204822
-0.0054786
-0.003986
-0.00340207
-0.00576936
-0.00114578
-0.00619835
-0.00500332
0.00216362
0.00293015
-0.00832271
0.00310558
0.002437
-0.0119591
0.00489579
0.000894747
-0.0108776
0.00594386
0.00135226
-0.00742118
0.00537509
0.00153802
-0.00364126
0.0027045
0.00171908
0.00143901
0.00120141
0.00500509
0.00346745
0.0026075
-0.00124989
0.00403413
0.00231574
-0.00540481
0.00396039
0.00252784
-0.00590653
0.00555458
0.00224237
-0.00763191
0.00661018
0.00234105
-0.00445295
0.00434978
0.00235607
0.00358899
0.00267694
0.00964642
0.00134213
0.000425909
0.00473504
0.00179119
4.07877e-05
0.00299443
0.00266441
0.000145797
0.00290055
0.00470487
0.000840452
0.000906576
0.00557455
0.00122879
0.00220198
0.00319637
0.00180636
0.00616283
0.00233949
0.00978516
0.000204428
-0.0012578
0.00590312
-0.000188568
-0.00119364
0.0046934
-0.00066687
-0.000925312
0.00506998
-0.00013868
-0.00082917
0.00492237
-0.000200536
-0.000742373
0.00599295
-0.000677125
-0.00061356
0.00734837
-0.00127431
0.00916966
-1.79664e-05
-0.00316506
0.00579894
0.000100813
-0.00340046
0.00400818
0.00064271
-0.00349416
0.00384142
0.000322398
-0.00283608
0.00413691
-0.00043595
-0.00252187
0.0045589
-0.0006721
-0.00341657
0.00535881
-0.00442147
0.00627972
-0.00311224
-0.00151178
0.00481559
-0.00432714
-0.00170648
-0.000829247
-0.00622916
-0.00187169
-0.000955009
-0.00805633
-0.00165997
-0.00122246
-0.00740851
-0.00165655
-0.00457897
-0.00462701
-0.00209383
-0.0083881
-0.00211658
-0.00899366
-0.0025203
0.00301484
-0.00358154
-0.00132118
-0.00386006
-0.00359355
-0.00351344
-0.00595503
-0.00269045
-0.00824268
-0.00170095
-0.00928598
-0.00883184
0.0010404
0.00107403
-0.0104167
0.00163914
0.00112937
-0.013643
0.00272985
-0.000318312
-0.0116366
0.0026394
0.000756115
-0.00806166
0.00159132
0.00101765
-0.00357633
0.00028075
0.0012215
0.00155923
0.000124595
0.0051921
0.00150533
0.00127055
-0.00294068
0.000407577
0.0018848
-0.00506047
-0.00114431
0.00258345
-0.0072273
-0.000225817
0.00166523
-0.00940937
0.00150831
0.00106326
-0.00617346
0.00136035
0.00132588
0.00368093
0.00110108
0.0100776
-0.000968105
0.00126935
0.00571041
-5.30059e-05
0.00150302
0.00248686
0.0021136
0.00169153
0.00166163
0.00334671
0.00197471
-0.000582022
0.00443532
0.00192025
0.000281697
0.00272755
0.00220218
0.00700899
0.00286898
0.010767
0.00050559
-0.000991691
0.00763579
0.000366019
-0.00101285
0.0073402
0.000368251
-0.000981898
0.00776024
0.00100383
-0.00100842
0.0072953
0.00125596
-0.000601724
0.00827113
-6.27195e-05
0.000382415
0.0105227
9.4151e-05
0.0119246
0.00120701
-0.00282953
0.00644162
0.00116612
-0.00302225
0.00605582
0.000667375
-0.00303627
0.00640554
-0.000683604
-0.00300393
0.00752609
-0.00156196
-0.00277561
0.00766719
-0.0018204
-0.00237499
0.00845425
-0.00380841
0.00843823
-0.000642633
-0.000983698
0.00366804
-0.00185601
-0.00107775
-0.00154128
-0.00413716
-0.00113948
-0.000508479
-0.00679042
-0.00136303
-0.000131635
-0.00646322
-0.00139009
-0.00625316
-0.004337
-0.00110304
-0.0117114
-0.00137754
-0.0157121
-0.000675585
0.00272642
-0.00104898
-0.00201034
-0.000756008
-0.00498438
-0.000228443
-0.00780578
-0.0002733
-0.00957896
-6.77951e-05
-0.0105694
-0.0102794
0.000666885
-0.000398978
-0.0106697
0.000495209
0.000679693
-0.0140845
0.00211642
-0.00156085
-0.0116862
0.000904216
7.47915e-05
-0.00691188
-0.000476894
0.000660949
-0.00283214
-0.00104401
0.000556615
0.00159351
-0.000677151
0.00484319
-0.00361232
0.000403918
-0.000138818
-0.0031202
0.000509046
-0.00534491
-0.00377546
0.000326366
-0.0084155
-0.00400534
0.00038388
-0.00944151
-0.00308559
0.00147764
-0.00787568
-0.000680257
0.00215461
-0.000304564
0.00058769
0.0081425
-0.00167957
0.00272549
0.00508013
-0.00162872
0.00287656
0.000114818
-0.000931247
0.00235284
-0.00104857
-0.00127388
0.00203412
-0.00185986
0.000182351
0.0020396
-0.00173538
0.00101777
0.00180218
0.00652167
0.00200387
0.0103431
0.00033519
-6.23956e-07
0.00999592
0.00110994
-0.00041478
0.00985697
0.00145835
-0.000521291
0.010283
0.00163244
-0.00055634
0.00971801
0.00193663
0.000127617
0.00986401
0.00044255
0.00154349
0.0122852
0.00133144
0.0130168
0.0016246
-0.00259724
0.00738077
0.00198294
-0.00287809
0.00815592
0.00167601
-0.00257818
0.00879528
0.000752662
-0.00218212
0.010128
0.000307503
-0.00184697
0.0101026
-0.00108151
-5.40711e-05
0.0114507
-0.00167235
0.0103671
0.000884465
-0.000754649
0.000957749
-0.000747822
-0.000892319
-0.00186952
-0.00200968
-0.000912631
-0.000858636
-0.00314918
-0.00102999
-8.36035e-05
-0.00270174
-0.00104568
-0.00748716
-0.00204267
-0.000334244
-0.0121313
-0.00128611
-0.0181351
0.000427148
0.00155558
-1.39428e-05
-0.00245734
0.000664885
-0.00652883
0.00128789
-0.00943891
0.000846508
-0.0101621
0.000926996
-0.0109696
-0.010645
0.000798567
-0.000738887
-0.0106293
0.000362267
0.000729751
-0.0142889
0.000796597
-0.000706782
-0.0113805
-0.00080301
-0.000208647
-0.00507582
-0.00232203
0.000499964
-0.00177817
-0.00162935
-0.000421422
0.00134764
-5.22306e-05
0.00325515
-0.00352166
-0.000590178
0.00321862
-0.00355787
-4.22545e-05
-0.00444119
-0.00421024
0.000367686
-0.00876455
-0.00543465
0.00085464
-0.00923029
-0.00631944
0.00258733
-0.00905618
-0.00260036
0.00243609
-0.00687528
0.00243116
0.00307585
-0.00475156
0.00353724
0.00577918
-0.00743022
0.00315165
-0.000336297
-0.00784759
0.00198659
-0.00220433
-0.00761779
0.00156973
-0.00274886
-0.00528935
0.00155121
-0.00302775
-0.0012898
0.00132988
0.0035878
0.00204492
0.00941073
-0.000357783
0.00121113
0.0126626
0.00131582
0.000423425
0.0108842
0.00213659
-0.000627826
0.0120481
0.0014867
-0.000723573
0.0126919
0.00116784
4.8718e-05
0.0116831
0.000426779
0.00131012
0.0129731
0.00124545
0.0141705
0.001796
-0.00244241
0.00920142
0.00233587
-0.00279204
0.0108153
0.00211696
-0.00256977
0.0109747
0.0017351
-0.00207503
0.0119076
0.000764532
-0.000531949
0.0116374
-0.000208884
0.000803992
0.012902
-0.000800667
0.0122678
0.0014075
-0.00128254
-0.0016255
0.000839165
-0.00123618
-0.00282312
0.000631876
-0.00101439
-0.00217227
0.0004909
-0.000535457
-0.00148862
-4.25822e-05
-0.00025929
-0.00723969
-0.00048199
0.000657111
-0.0114748
-0.00124286
-0.0180516
0.000763046
-0.00050362
0.000607944
-0.00351576
0.00173716
-0.00860949
0.00213919
-0.0103443
0.00191764
-0.0101517
0.00215266
-0.0105226
-0.00985442
0.00117642
-0.00114146
-0.0104431
0.00151886
-0.00075643
-0.0137588
-0.000412162
0.00122786
-0.0106948
-0.00166196
0.00067838
-0.00450657
-0.00287988
0.000864008
-0.00138982
-0.00181334
0.000123004
0.000205049
0.00010226
0.00137473
-0.000363651
-0.000374296
0.00285457
-0.000767793
-0.000246594
-0.00451463
-0.0024665
0.000916489
-0.00665795
-0.00375058
0.000728116
-0.00792519
-0.00527834
0.00164165
-0.00825659
-0.00422264
0.00232544
-0.0101024
0.00267477
-0.00365461
-0.00586503
0.00305417
0.00827113
-0.00975017
0.00239189
0.000951005
-0.0102501
0.00154477
-0.00227496
-0.0102225
0.000792173
-0.00278078
-0.00845957
0.00116764
-0.00424808
-0.00396587
0.0017548
-0.000345736
0.00193843
0.00621008
-0.00151204
0.00111996
0.0161068
0.000207179
0.00089211
0.0106099
0.0020394
-0.000702822
0.0124822
-0.000244476
-0.000518667
0.0162478
-0.00079363
0.000143547
0.0133035
0.000443622
0.0012486
0.0121728
0.00127016
0.015254
0.00138893
-0.0016385
0.0105487
0.00203072
-0.001948
0.0129764
0.00156082
-0.00160098
0.0123717
0.00115672
-0.000707985
0.0125255
0.000335877
0.000654674
0.0119861
0.000606924
0.000859229
0.0129422
0.000169918
0.0140191
0.00140176
-0.00144703
-0.00318819
0.0017217
-0.00118838
-0.00388727
0.00104551
0.000200113
-0.00330083
0.00129791
0.00107229
-0.00352148
0.000409962
0.000919591
-0.00663413
-0.00020288
0.000399703
-0.010389
-0.00135174
-0.0165931
5.62145e-05
-0.00198575
0.000347564
-0.00494729
0.00153628
-0.00958482
0.00226175
-0.00996228
0.00257387
-0.00952593
0.00221303
-0.00973731
-0.0090456
0.00104408
-0.000790165
-0.0105349
0.00258825
-0.00147098
-0.0137192
0.00204756
-0.000229701
-0.00992783
-0.000324763
0.00117446
-0.00329452
-0.00198341
0.00140459
-0.00114626
-0.00127576
0.00072991
-0.00121018
0.000405246
-0.000194213
0.00197213
0.00265027
-0.00254294
0.00230343
0.000933862
-0.00732039
0.00212873
0.00162677
-0.00822397
0.00159338
0.00190206
-0.00805979
0.00182483
0.00177164
-0.00875099
0.000931763
0.00214239
-0.0105183
0.00313583
-0.00536028
-0.0021338
0.00375556
0.00926306
-0.00554221
2.58617e-05
0.00526932
-0.00741602
3.76353e-05
0.00121751
-0.00775337
-0.00123847
0.000445338
-0.00628531
0.000581661
-0.0044657
-0.00457041
0.00211237
-0.00187536
0.0017116
0.00308833
0.00184679
-0.000510804
0.0184832
0.0013073
-0.00266527
0.0137315
-0.000217525
-0.00115989
0.0152401
-0.00282533
-0.000301607
0.0174512
-0.00248498
0.000194433
0.0132954
-0.00172103
-1.68938e-05
0.0135536
8.12533e-05
0.0151141
0.0016388
-0.00105505
0.0094236
0.000179225
-0.00144472
0.0132791
0.000187265
-0.000737944
0.0120576
0.000438981
0.000181515
0.0116082
-0.000168448
0.00124455
0.0116082
1.38916e-05
0.00202176
0.0107604
0.00130332
0.0127112
0.00084772
-0.00141722
-0.00362649
3.64364e-05
-0.000728769
-0.00376622
-0.00115254
0.00118185
-0.00395363
-0.000953075
0.00159376
-0.00508609
-0.00120473
0.00151307
-0.00659568
-5.68851e-05
0.000670163
-0.0102029
0.000125161
-0.015469
-0.0013698
-0.00198363
-0.000179222
-0.00679635
0.0016817
-0.0102908
0.00272824
-0.00939564
0.00306346
-0.00836259
0.00195798
-0.00794621
-0.00688927
0.000538038
0.00328579
-0.0126888
0.00902635
0.000864003
0.00446609
-0.0192226
0.0145362
-0.000115008
0.00259238
-0.00992254
0.00849607
-0.000100178
0.00200856
-0.00481024
0.00293906
0.00167461
0.000663601
-0.00358404
0.00119243
0.000827538
-0.000151672
0.00161125
-0.000602691
-0.000955696
0.00272497
-0.000939199
4.39324e-05
0.000148973
0.000189724
0.00306325
0.000388349
0.00125335
-0.00512899
0.00811639
0.000931441
0.00310277
-0.010889
0.00974845
0.00419912
0.00380467
-0.0132754
0.0082028
0.00620906
0.00358183
-0.0145573
0.00959003
0.0037279
0.00276391
-0.0135085
0.0130696
0.0029822
-0.00424418
0.00408824
-0.00298869
-0.00048537
0.0148176
-0.0112706
-0.00405289
-0.000942913
0.0109503
-0.00765623
-0.00318662
-0.000656662
0.00543737
-0.00253293
-0.00234243
-0.00133354
0.00151011
0.00267772
-0.00277968
-0.000683099
0.00106748
0.00360152
-0.00456775
-7.79069e-06
0.00140157
0.00312514
0.00049635
0.00154244
-0.00361116
-0.000376471
-0.000589946
0.0157653
-0.0153912
-0.00102525
-0.00062022
0.0160962
-0.0158176
-0.00194409
-0.000610841
0.0157705
-0.0149225
-0.0036991
-0.000950989
0.0161662
-0.0148149
-0.00449405
-0.00159054
0.0155619
-0.0138581
-0.00331473
-0.00245206
0.0154461
-0.0141956
-0.00286386
0.0147805
-0.0147515
-0.000768855
-0.00105088
0.0105362
-0.00933112
-0.00174446
-0.00026187
0.0120767
-0.0114204
-0.00194885
-0.000114602
0.0117828
-0.012021
-0.0027674
0.000463782
0.0106419
-0.0112174
-0.00510325
0.0013816
0.00979214
-0.0104164
-0.00618632
0.00216337
0.00591406
-0.00949043
0.00073572
-0.000153475
-0.00967251
-0.00206333
-0.00149775
0.000985467
0.00164716
-0.00145169
-0.00229836
-0.00204891
0.00370846
0.000544591
-0.00324607
-0.00443712
0.00575082
-0.00134272
-0.000163879
-0.00256195
0.00507983
-0.000521294
-0.000543844
-0.00499949
0.00613041
0.000333908
-0.00155118
-0.00913745
0.0119931
-0.00136528
-0.0121681
0.014601
-0.00168396
-0.000125371
0.00044942
0.00225846
-0.0135969
0.00748433
0.00294842
-0.013782
0.00993047
0.00328693
-0.00843386
0.00797361
0.00322889
-0.00704004
0.00660411
0.00179254
-0.00606529
0.00600831
-0.00421788
0.00468591
0.00142265
0.000494743
-0.0147229
-0.000735572
0.00181683
-0.0189463
-0.000531533
0.00148903
-0.011571
0.000739158
0.000715063
-0.00680849
0.00155221
-0.000563035
-0.00385715
0.00111138
-0.000506223
0.00254147
-0.00060404
0.0044097
-0.00187071
-0.00173673
0.00426164
0.000654259
-0.00207874
-0.00374487
0.00574522
0.000875888
-0.0153411
0.00913726
0.00142111
-0.0174183
0.00886138
0.00104123
-0.0159175
0.00583093
0.00129203
-0.0122732
0.00324595
-0.00222227
-0.00108354
-8.41157e-05
0.0140492
-0.00283328
-0.000808855
0.011266
-0.00192065
-0.00168001
0.00696972
-0.00132728
-0.0033328
0.00554376
-0.00298638
-0.00270004
0.00644433
-0.00252051
-0.00104654
0.00326087
0.000511527
0.00174087
-0.000148077
-0.000606049
0.0163003
-0.000780306
-0.000497344
0.016297
-0.00229271
-0.00070647
0.0162194
-0.00483082
-0.00160354
0.0169114
-0.00611164
-0.00267173
0.0168016
-0.00408602
-0.00373714
0.0161054
-0.00326768
0.0144533
-0.00066189
-0.00102084
0.0116129
-0.00220095
0.000250499
0.0128851
-0.00306852
-1.79128e-05
0.0119519
-0.00523261
0.000289482
0.0108824
-0.00763835
0.000341302
0.00915342
-0.00490491
-0.000688493
0.000112527
-0.0013784
-0.00695
-0.000717412
-0.0010191
0.00178338
-0.0013093
0.000260458
-0.00142184
-0.000815155
-0.00116076
-0.00371208
-0.00221086
0.00146042
-0.00232384
3.59219e-05
0.000296867
-0.00715604
0.0020185
-0.000381978
-0.0114414
-0.000524095
-0.01102
-0.000657157
-0.00046094
0.00146236
-0.0155322
0.000599402
-0.0141229
0.00171562
-0.0081099
0.00187791
-0.00689404
0.000775047
-0.00533313
-0.00397512
0.000659831
-4.12935e-05
-0.0154272
-0.000795652
0.00116098
-0.0186781
0.000191209
0.000194052
-0.0127494
0.00250889
-0.0012337
-0.00794604
0.00195732
-0.00019992
-0.0031083
0.00106141
0.000422229
0.0030288
0.000107097
0.00536013
0.00024565
-0.00107263
0.00502318
0.00398492
-0.00270976
-0.00364544
0.00996629
-0.000196771
-0.0208395
0.0115126
-0.000234462
-0.0199417
0.0102582
-0.000213731
-0.014656
0.00598022
0.00209817
-0.00966379
0.00298794
0.000910775
-0.000505904
-0.000551746
0.0138766
-0.00168537
-0.00121953
0.010821
-0.000526508
-0.00164048
0.00715915
-0.000978617
-0.00260572
0.0083356
-0.00257006
-0.00226377
0.0101096
0.000140428
-0.000640483
0.00328815
0.0012037
0.00365569
3.18266e-05
-0.000681114
0.0162897
-0.000273713
-0.000919995
0.0162114
-0.00151839
-0.000432625
0.0162098
-0.0032641
-0.00100683
0.0170473
-0.00494223
-0.00111196
0.0173422
-0.00419515
-0.00200165
0.0167182
-0.00225611
0.0136837
-0.000212067
-0.000948559
0.0121409
-0.00237451
0.000167293
0.0139717
-0.00316945
-0.000493816
0.0128179
-0.00391198
-0.000778318
0.0114287
-0.00362453
-0.00135949
0.00911973
-0.00124603
-0.00270654
-0.0015498
-0.00401326
-0.00645262
-0.000128461
-0.00108492
0.0021731
-0.00167812
4.35004e-05
0.000274586
0.000934911
-0.000633205
-0.00614421
0.00542614
0.00180625
-0.00932517
0.00912712
0.000547706
-0.0127157
0.00723385
0.000750467
-0.0129821
0.0012292
-0.00904864
-0.000395394
-0.00112042
0.000261309
-0.0161665
-0.0011542
-0.0133882
0.000754794
-0.00825451
0.000772191
-0.00640682
0.000155437
-0.00397419
-0.00259397
-0.000489749
0.000131939
-0.0150544
-0.000787732
-0.000185461
-0.0181867
0.000998873
-0.00184864
-0.0126724
0.003466
-0.00287016
-0.0075476
0.00146201
0.000677166
-0.00176599
0.000630207
0.000374035
0.00350593
0.000503601
0.00547925
0.00104223
-0.0014993
0.00560147
0.00789267
-0.00019964
-0.0104189
0.0117923
0.000259226
-0.026828
0.0120072
-0.00198753
-0.0209901
0.00959092
-0.00131328
-0.0102814
0.00385647
0.00113757
-0.00468475
0.00194309
0.00336798
-0.00108692
-0.000385133
0.0138084
-0.000253033
-0.000514951
0.0102894
0.00172639
-0.00068605
0.00610571
0.00100916
-0.00170898
0.00879386
0.000295023
-0.00151919
0.0110402
0.000575048
-0.000477577
0.00462286
0.00176398
0.00440512
3.843e-05
-0.000227551
0.0160031
7.16562e-05
-0.000383695
0.0160262
0.000355063
-0.000118143
0.0153635
-0.000378533
2.47409e-05
0.0160827
-0.00207907
0.0011358
0.0163988
-0.00360993
0.00151668
0.0162122
-0.000940303
0.0127226
0.000994329
-1.13207e-06
0.0109134
-0.000614089
0.0012482
0.0139437
-0.0010532
-0.000144766
0.0133309
-0.000540769
-0.00112648
0.012136
0.00014303
-0.000390719
0.00998689
1.59164e-05
-0.00148056
0.00152118
-0.005037
-0.00235757
0.00123076
-0.00149572
0.00250697
0.00229051
0.000297353
0.000159907
0.00935706
-0.000277175
-0.0130441
0.0137929
0.00291951
-0.0177012
0.0145664
0.00215409
-0.0159882
0.0111219
0.00179498
-0.0127552
0.00188402
-0.00479833
-0.000375617
-0.00220415
-0.000198687
-0.0160575
-0.00133035
-0.0125911
0.00177115
-0.00845133
0.00256057
-0.0050343
0.00145091
-0.0010416
0.000758514
-0.00292243
0.000539229
-0.0126489
-0.00227855
-0.00189163
-0.0169646
0.000313664
-0.00340389
-0.0118533
0.00109898
-0.00322133
-0.00511703
-0.000845487
-0.000492193
0.000676869
-0.00107073
7.75231e-05
0.00367227
-0.00043934
0.0048442
0.00467475
-0.0031662
0.00462835
0.0125008
-0.000100042
-0.0199972
0.00962009
-0.000115604
-0.027219
0.0057382
-0.00445264
-0.0159568
0.00326324
-0.00386255
-0.00448212
0.000338872
-0.000860945
-0.000827989
0.000290247
0.00300339
-0.00165527
0.000109213
0.0121595
0.000795154
0.000443069
0.00729134
0.00603726
0.000771953
-5.95341e-05
0.00532094
0.000440134
0.00458745
0.00261047
-0.000536295
0.0104151
0.000427237
-0.000547892
0.00649346
0.00169642
0.00339919
0.000727751
1.62626e-05
0.0153255
0.000906793
0.000146237
0.016122
0.00164747
-0.000275406
0.0156469
0.00232166
0.000186468
0.0156244
0.000503224
0.00189161
0.0157698
-0.00199765
0.0024897
0.0156402
0.00020757
0.0121447
0.00110063
0.000630756
0.00922373
0.00141082