/*--------------------------------*- C++ -*----------------------------------*\
  =========                 |
  \\      /  F ield         | OpenFOAM: The Open Source CFD Toolbox
   \\    /   O peration     | Website:  https://openfoam.org
    \\  /    A nd           | Version:  6
     \\/     M anipulation  |
\*---------------------------------------------------------------------------*/
FoamFile
{
    version     2.0;
    format      ascii;
    class       volScalarField;
    location    "0.0275";
    object      T;
}
// * * * * * * * * * * * * * * * * * * * * * * * * * * * * * * * * * * * * * //

dimensions      [0 0 0 1 0 0 0];

internalField   nonuniform List<scalar> 
3773
(
295.301
296.475
296.562
296.24
296.036
296.231
295.147
296.101
297.404
297.471
297.094
296.892
297.061
295.888
304.761
305.321
305.079
305.155
305.209
305.128
304.823
305.702
306.107
306.225
306.136
306.126
306.201
305.71
304.79
305.124
305.084
305.102
305.231
305.197
304.888
296.001
296.586
297.039
296.752
296.893
297.319
296.116
295.236
295.73
296.195
295.931
296.044
296.452
295.326
292.933
294.365
294.416
294.078
293.88
294.103
292.793
273.097
277.329
277.465
276.402
274.732
275.56
273.036
314.283
314.072
314.127
314.459
314.092
313.128
314.101
327.699
328.234
328.468
328.593
328.686
328.051
327.951
314.636
314.372
314.063
314.314
314.525
313.584
314.43
273.472
274.488
275.777
274.562
275.468
276.312
273.514
292.814
293.573
293.993
293.747
293.846
294.265
292.908
292.645
293.974
294.114
293.787
293.56
293.818
292.493
270.447
274.031
273.928
273.26
271.879
272.183
270.196
310.285
309.442
309.722
310.903
310.101
307.684
309.417
329.391
329.251
329.712
330.467
330.274
328.859
329.199
310.038
309
309.23
311.199
310.648
308.43
309.478
270.546
272.188
272.412
271.552
272.556
272.857
270.656
292.512
293.235
293.719
293.437
293.521
293.953
292.582
292.412
293.702
293.894
293.568
293.318
293.6
292.345
266.37
269.876
269.811
269.257
267.713
268.024
265.95
306.553
305.611
305.484
306.635
306.51
304.168
305.552
329.224
329.208
329.526
330.223
329.728
328.744
328.973
306.169
304.359
306.989
308.985
307.55
304.299
305.703
266.565
268.339
268.412
267.722
268.696
268.576
266.514
292.331
292.991
293.509
293.207
293.292
293.745
292.4
292.171
293.304
293.564
293.258
292.988
293.296
292.172
262.681
264.854
264.503
264.538
263.912
264.383
262.238
305.79
304.193
303.932
305.283
304.309
302.987
304.894
329.363
329.174
329.568
329.718
329.361
328.771
329.212
305.356
303.116
305.278
305.947
306.355
303.283
305.108
262.783
264.167
264.461
264.128
264.673
264.632
262.911
292.134
292.719
293.238
292.909
293
293.466
292.209
290.71
291.728
291.864
291.495
291.223
291.707
290.69
255.063
256.707
255.729
255.694
255.451
256.337
254.552
306.154
303.256
303.567
303.502
302.662
302.613
304.816
330.554
330.149
330.353
330.365
329.962
330.27
330.499
305.28
302.222
303.371
303.299
303.286
303.553
305.136
254.893
254.468
255.754
255.294
254.379
256.574
255.493
290.754
291.506
291.62
291.299
291.463
292.013
290.895
265.805
266.6
264.962
263.949
263.327
265.324
265.025
236.288
236.736
235.025
235.819
235.46
236.107
236.019
298.472
298.343
294.707
297.52
293.969
297.884
294.527
345.684
348.854
348.83
348.508
349.538
345.708
350.353
298.415
297.652
297.891
293.68
302.69
298.534
294.805
236.523
231.148
235.907
234.824
231.664
236.62
236.93
266.138
268.102
264.503
263.979
265.509
266.677
266.848
355.588
355.189
355.282
354.281
353.872
354.24
354.563
355.44
355.594
354.681
352.546
352.347
352.816
353.029
353.461
353.455
352.788
351.986
351.519
351.468
351.167
351.176
350.537
349.977
349.991
349.895
349.944
350.249
352.892
353.45
354.114
354.805
354.83
355.179
355.209
353.606
354.108
354.86
355.765
356.148
356.823
356.921
353.349
353.364
354.218
355.711
356.08
356.257
356.942
354.188
352.854
353.545
353.268
352.167
352.77
353.977
355.024
354.528
351.499
349.595
349.352
350.694
352.443
353.399
353.046
351.694
350.035
349.691
350.229
350.923
351.275
350.252
349.435
349.528
349.497
349.666
350.14
352.702
352.97
353.613
354.352
354.312
354.791
355.056
353.001
352.568
353.77
354.8
355.692
356.279
356.589
352.675
351.88
353.424
354.881
355.048
354.612
355.317
352.683
349.775
351.262
351.017
350.576
351.436
352.829
354.347
350.765
348.156
347.836
348.328
349.673
351.128
353.043
351.435
348.936
346.837
346.89
348.23
350.061
351.242
350.087
348.962
348.459
348.359
348.875
349.644
351.882
351.843
352.133
352.949
353.085
353.785
354.342
351.091
349.511
350.407
352.932
354.115
354.697
355.242
351.252
350.335
352.551
354.466
353.016
351.731
351.13
352.223
349.415
351.07
350.735
350.656
351.591
352.382
351.961
349.066
348.149
347.812
348.663
350.19
350.866
351.606
346.498
345.017
345.749
348.007
348.645
349.894
351.059
348.92
347.458
347.077
347.688
348.266
349.376
350.871
350.671
351.068
351.673
351.778
352.09
353.236
349.279
348.131
348.679
351.673
352.996
352.389
353.437
349.616
350.027
353.4
354.741
351.781
350.23
349.895
351.316
349.284
351.366
350.821
350.987
351.857
352.414
351.24
349.818
349.518
347.88
348.45
349.734
350.984
346.904
343.762
345.61
347.968
349.157
349.484
350.165
350.14
347.696
346.761
346.861
347.42
348.172
349.185
350.511
350.198
349.773
350.121
351.076
351.239
352.289
348.321
347.356
347.28
349.695
351.08
349.616
350.93
348.857
350.329
355.132
353.628
350.544
349.672
349.728
350.995
349.393
351.694
351.3
350.942
352.149
352.38
349.958
350.87
350.481
349.146
348.389
348.117
349.086
344.347
344.167
345.916
347.021
348.617
349.775
350.069
347.904
345.38
346.277
346.033
347.12
348.346
349.155
349.564
349.104
348.89
349.469
350.295
350.945
351.738
347.705
347.187
346.866
348.917
349.644
349.321
350.505
349.082
351.664
356.041
352.485
349.942
349.515
349.413
351.166
351.11
352.592
351.802
349.86
349.577
350.911
352.29
350.893
350.619
350.287
349.734
348.144
347.577
345.192
343.485
345.695
346.478
346.932
348.103
349.249
346.891
345.479
344.997
345.922
346.719
348.349
349.002
349.541
348.972
348.364
348.705
349.892
350.884
351.788
347.655
347.297
348.31
349.562
348.899
349.618
350.528
350.19
354.186
355.537
352.518
350.223
349.66
349.587
354.396
352.871
354.027
352.32
350.79
349.115
347.056
356.438
351.428
349.779
350.09
350.239
349.686
347.725
344.847
343.662
346.057
347.275
347.882
347.538
347.031
346.913
345.58
344.408
345.438
346.783
348.652
349.207
349.52
348.777
348.033
348.404
349.785
351.081
351.507
347.602
350.008
351.953
349.58
348.865
350.291
351
353.548
360.769
360.682
356.256
354.246
352.915
351.955
351.417
351.129
352.899
352.626
350.867
349.189
347.368
345.758
346.118
347.478
349.427
349.489
349.346
347.996
344.035
342.93
344.964
346.159
347.295
347.422
347.038
346.782
345.417
343.903
345.466
347.014
348.507
348.825
349.102
347.622
347.707
348.225
349.301
349.411
348.851
347.622
348.952
349.377
347.914
349.093
351.258
351.664
352.957
356.438
359.407
354.036
353.909
352.753
351.859
350.043
348.893
352.533
351.162
350.729
349.398
347.314
344.993
345.19
348.513
349.465
349.07
348.755
347.902
343.5
342.291
343.208
344.788
346.222
347.231
346.887
346.581
345.051
343.506
345.178
346.899
347.971
348.285
349.055
347.24
346.759
346.946
347.471
347.595
350.237
347.834
348.118
349.622
349.49
350.966
352.327
352.623
352.711
353.897
357.322
354.324
354.891
353.792
352.505
349.56
349.136
352.73
349.616
350.089
349.709
347.479
344.358
346.548
351.44
350.004
348.009
346.953
347.138
343.209
341.776
342.156
343.649
345.159
346.125
346.469
346.353
344.646
343.103
344.674
346.595
347.525
347.754
349.123
347.378
346.467
346.28
346.403
346.075
351.352
347.77
347.445
350.913
353.55
353.84
353.437
353.238
351.663
353.519
356.809
356.476
356.147
354.785
353.127
349.742
350.884
352.262
348.554
348.644
349.305
347.4
344.056
350.091
352.065
348.162
344.6
343.566
345.479
342.907
340.777
339.437
340.592
343.82
344.505
345.788
346.227
344.052
342.096
343.472
345.411
346.984
346.991
348.999
347.658
346.391
345.831
345.533
345.713
350.712
348.246
350.795
353.252
355.136
354.218
353.243
353.22
353.707
353.484
355.268
356.751
357.215
356.524
353.545
350.567
351.145
349.908
348.679
346.284
347.385
347.215
342.355
353.091
352.788
346.809
342.964
341.126
345.415
341.647
338.98
344.665
342.98
341.55
341.624
343.827
345.367
343.268
341.946
342.903
344.008
344.411
344.454
346.798
346.303
345.537
345.238
344.307
344.159
348.752
347.881
353.889
355.108
356.708
353.681
350.733
352.424
356.047
351.951
352.626
356.869
357.17
356.52
353.219
343.711
356.837
348.87
350.738
348.61
348.565
348.283
348.888
354.585
350.683
348.238
343.862
340.956
342.559
344.549
351.409
351.529
350.303
345.199
343.199
342.072
344.481
344.089
341.422
341.464
342.582
342.932
343.424
348.639
351.848
352.838
352.337
346.358
344.013
344.745
351.677
352.948
355.563
359.014
352.819
348.52
352.318
347.816
346.455
353.352
357.514
355.62
356.685
355.579
353.98
355.28
353.609
352.214
351.234
348.587
347.768
355.567
349.66
351.325
350.717
350.246
349.033
347.986
345.332
343.673
345.333
345.812
347.085
347.163
348.841
346.798
345.745
344.901
345.591
346.565
348.392
349.01
349.474
348.959
348.224
348.419
349.775
350.917
351.797
347.936
348.371
349.476
349.347
348.918
350.14
350.884
351.104
357.403
358.353
355.174
352.788
351.7
351.486
354.109
355.438
353.621
352.213
351.436
348.654
347.871
355.752
350.245
351.511
350.909
350.372
349.139
347.963
345.293
343.626
345.156
345.9
347.217
347.155
348.343
346.761
345.694
344.786
345.54
346.525
348.354
349.016
349.485
348.939
348.161
348.403
349.73
350.922
351.804
347.878
348.442
349.725
349.341
348.874
350.126
350.872
351.683
359.376
359.076
355.497
352.97
351.763
351.491
354.366
355.794
353.62
352.218
351.506
348.874
347.908
355.792
350.745
351.53
351.064
350.414
349.283
347.951
345.275
343.605
345.232
346.623
347.323
347.252
347.899
346.738
345.679
344.745
345.538
346.526
348.341
349.048
349.496
348.939
348.122
348.391
349.702
350.945
351.805
347.864
348.613
349.952
349.36
348.866
350.139
350.904
351.933
360.517
359.588
355.853
353.147
351.943
351.514
354.483
356.006
353.602
352.264
351.482
349.159
347.881
356.024
351.561
351.41
351.151
350.392
349.341
347.909
345.226
343.55
345.432
347.484
347.455
347.345
347.581
346.743
345.673
344.705
345.514
346.53
348.337
349.066
349.52
348.949
348.057
348.384
349.69
350.961
351.815
347.759
348.821
350.198
349.39
348.897
350.142
350.935
352.19
361.18
360.3
355.952
353.219
352.022
351.528
354.719
356.017
353.74
352.298
351.299
349.294
347.822
356.106
352.328
351.274
351.088
350.33
349.431
347.871
345.169
343.409
345.776
347.68
347.547
347.469
347.385
346.763
345.66
344.672
345.503
346.533
348.333
349.086
349.576
348.961
348.031
348.387
349.664
350.974
351.821
347.723
349.202
350.687
349.416
348.902
350.159
350.98
352.576
361.829
360.945
356.165
353.331
352.205
351.626
354.757
355.615
354.105
352.344
350.962
349.456
347.776
356.019
353.047
351.148
351.04
350.274
349.583
347.804
345.136
343.389
345.785
347.806
347.853
347.629
347.274
346.794
345.65
344.627
345.501
346.547
348.331
349.101
349.586
348.966
348.017
348.388
349.652
351.005
351.846
347.731
350.184
351.245
349.47
348.904
350.161
351.004
352.637
362.105
361.312
356.288
353.895
352.493
351.79
354.699
355.075
354.082
352.382
350.807
349.349
347.683
356.078
353.449
351.06
351.001
350.233
349.644
347.78
345.065
343.336
346.084
348.137
347.987
347.736
347.26
346.838
345.644
344.596
345.485
346.551
348.334
349.135
349.608
348.944
347.976
348.375
349.631
351.011
351.859
347.714
350.941
351.591
349.513
348.881
350.13
351.013
352.562
362.188
361.424
356.442
354.142
352.814
351.911
328.442
345.009
340.048
334.235
326.651
324.603
321.487
347.178
352.082
355.785
348.398
346.593
346.405
344.61
345.25
352.838
351.396
349.821
345.893
345.275
342.448
344.558
344.001
341.279
341.307
342.321
342.503
342.016
356.844
355.464
352.121
350.808
344.737
342.664
342.682
344.507
347.217
353.897
351.639
348.382
347.154
345.325
326.334
336.043
350.026
337.124
326.768
323.454
321.067
340.89
362.819
351.647
344.876
337.66
335.081
332.97
351.292
358.09
352.627
349.573
346.612
346.28
345.108
346.641
353.785
351.812
351.298
349.16
347.146
343.173
344.578
343.968
341.308
341.199
342.136
342.188
341.755
355.849
355.435
350.574
350.05
345.249
341.781
342.05
346.37
352.462
356.779
352.336
348.345
347.02
345.575
340.355
360.571
348.66
342.682
335.437
332.834
331.683
349.593
362.02
355.042
354.738
348.932
347.471
349.116
354.018
357.387
356.737
354.629
350.145
348.006
347.777
349.541
353.537
352.579
352.551
351.154
348.618
345.61
344.545
343.92
341.297
341.073
341.837
341.868
341.588
355.53
356.295
350.642
348.921
345.979
341.445
340.803
352.049
354.342
358.256
354.659
351.09
349.539
348.502
351.184
356.757
351.594
350.783
348.046
346.549
347.073
357.299
359.652
358.556
358.782
356.769
356.134
357.914
358.219
358.401
359.822
358.835
356.822
355.157
354.851
350.012
354.139
355.385
354.268
352.394
350.906
349.297
344.276
343.644
341.216
340.783
341.284
341.371
341.269
355.507
355.931
350.805
348.22
346.123
343.663
341.571
358.305
358.768
359.115
355.036
353.362
352.437
351.579
359.337
353.843
355.027
355.35
354.093
353.52
355.435
358.336
359.136
360.17
358.844
358.332
358.241
357.947
359.064
360.046
360.366
359.485
358.364
358.111
357.616
351.912
354.389
356.248
355.627
353.762
351.8
350.28
343.367
342.376
340.735
340.196
340.776
340.807
340.478
353.754
354.72
350.363
349.481
348.064
344.963
342.841
359.462
360.266
358.754
355.386
355.005
354.102
353.72
357.681
354.338
355.846
356.693
356.323
355.762
355.79
358.553
357.962
360.512
357.308
356.47
355.35
355
359.56
360.642
360.445
358.926
358.981
359.125
359.266
353.99
355.477
358.038
357.285
355.526
352.315
351.049
340.794
339.645
339.939
339.049
339.764
339.793
339.799
352.236
353.334
350.706
350.717
349.71
346.776
344.179
360.054
360.722
358.292
356.408
355.685
355.567
355.439
354.44
354.432
357.277
356.622
355.166
355.186
354.715
352.514
356.186
359.302
354.691
352.989
351.771
352.033
358.749
360.715
360.423
359.076
357.161
356.28
356.142
357.042
359.505
360.364
359.047
356.381
352.483
349.477
341.616
345.91
342.932
338.771
338.503
337.358
337.505
353.789
355.165
353.894
353.604
350.397
348.32
344.061
357.66
359.16
357.339
356.464
354.141
353.67
353.752
353.046
355.634
357.723
355.433
351.929
351.508
351.495
320.055
320.103
319.484
320.016
323.041
332.773
341.013
342.814
342.202
341.791
341.037
341.118
342.642
347.098
341.578
348.082
357.818
357.567
356.535
355.98
356.005
342.178
342.998
347.724
353.456
355.729
355.582
355.237
342.417
342.657
350.525
358.974
358.443
358.225
358.201
343.08
342.389
342.27
342.146
342.566
345.987
347.933
319.974
319.893
319.51
321.922
327.013
332.783
341.068
332.738
331.324
331
330.575
331.975
337.539
343.79
344.237
343.523
343.374
342.616
342.806
344.234
346.426
342.434
343.32
347.544
356.21
355.743
354.956
354.887
342.117
342.193
343.057
345.9
350.257
351.218
351.078
342.037
342.25
343.702
351.729
357.746
357.184
357.098
343.719
343.322
343.281
343.369
343.693
346.177
347.674
331.928
331.432
331.005
331.887
333.581
338.335
343.763
353.164
353.761
352.488
350.413
348.431
349.052
346.603
348.082
348.146
348.644
348.712
348.708
349.187
350.747
342.772
342.343
342.437
346.053
354.368
355.233
354.74
341.584
341.37
340.88
340.867
341.759
343.913
345.004
340.795
340.764
340.921
341.81
347.136
355.403
356.635
347.69
347.458
347.322
347.29
347.112
347.711
348.97
350.431
350.483
348.163
346.521
343.582
343.597
344.536
358.867
359.68
359.787
359.806
360.088
360.211
352.657
355.472
356.01
357.218
357.846
358.062
358.858
359.769
347.841
346.418
343.438
343.146
345.127
348.244
354.659
341.229
341.115
340.44
339.653
338.797
337.679
337.677
340.471
339.998
339.11
338.719
339.238
342.09
349.547
351.532
351.742
351.801
351.915
351.988
352.458
354.208
356.103
356.665
356.697
356.873
356.1
349.701
344.552
358.384
358.549
358.929
359.945
360.793
360.936
359.962
357.638
358.665
359.742
360.629
361.628
361.926
362.019
350.411
350.151
349.56
347.656
345.339
344.988
345.999
340.637
340.554
340.078
339.302
338.379
336.827
335.856
341.552
341.23
340.27
339.436
338.449
338.194
339.141
354.051
354.59
355.146
355.473
355.971
356.032
356.24
356
355.975
356.254
356.898
357.55
357.833
351.376
355.749
356.703
357.251
357.765
359.019
360.233
361.049
359.638
360.353
361.046
361.402
361.8
361.687
361.633
349.21
348.988
348.875
348.179
347.208
345.732
345.031
339.747
339.531
339.07
338.132
337.221
335.137
333.791
343.218
343.055
342.542
342.275
341.296
340.426
338.45
355.479
355.654
355.899
356.657
357.102
357.267
356.508
354.634
354.859
355.193
355.972
356.587
358.134
353.173
353.055
354.139
354.491
355.302
356.508
358.943
360.799
356.463
356.737
356.856
356.695
356.34
355.977
354.902
347.549
345.255
344.774
343.592
342.751
341.948
339.417
337.275
337.045
336.35
335.627
333.898
332.052
328.351
343.423
342.476
341.986
341.316
340.74
339.845
336.01
353.582
353.4
353.267
353.174
353.238
353.273
353.106
351.641
351.892
352.673
353.714
355.125
355.57
353.006
345.429
337.492
328.808
323.568
322.163
323.501
325.691
353.819
350.098
347.346
344.384
344.151
344.553
345.007
357.967
356.737
356.214
356.182
354.142
344.306
344.562
352.201
352.662
352.925
352.595
351.248
349.91
346.711
356.699
356.259
355.49
355.415
355.553
356.251
357.717
350.517
347.079
344.289
342.236
341.977
342.136
342.263
343.728
335.481
328.712
323.609
321.964
322.681
324.84
342.946
339.325
333.511
330.856
329.416
331.211
334.705
353.164
351.441
347.934
347.267
346.895
347.058
348.175
357.974
357.328
356.754
349.592
346.25
344.422
345.205
349.594
350.001
349.65
348.726
348.822
348.535
346.586
355.815
355.074
354.401
353.956
354.236
354.938
355.711
349.51
347.305
345.412
344.654
344.201
344.604
344.985
341.125
337.563
332.724
331.725
331.898
333.989
336.32
342.42
343.562
344.469
346.307
345.807
347.982
348.893
354.588
353.307
352.247
352.29
352.201
352.423
353.468
358.752
358.429
350.893
346.213
346.426
346.572
348.146
349.629
348.518
348.034
348.092
348.599
347.725
345.946
355.679
355.791
355.811
355.863
356.006
356.191
355.914
353.351
351.976
351.568
351.321
351.79
351.818
352.634
341.07
344.336
345.794
347.58
348.861
349.441
349.948
342.851
349.98
356.798
357.678
357.698
358.417
358.603
357.648
357.097
357.023
356.839
357.032
357.483
357.847
358.527
353.902
347.721
347.494
348.562
348.973
349.411
347.057
345.845
345.633
346.205
346.414
346.077
345.318
357.599
356.606
355.029
354.801
354.908
354.771
354.723
357.411
357.728
357.566
357.474
357.675
358.18
358.499
346.518
357.404
357.005
356.459
355.972
355.852
354.335
349.212
357.313
356.424
357.899
358.561
358.869
358.925
358.725
359.276
358.423
358.765
359.007
359.261
359.322
352.6
348.61
348.127
348.735
349.01
348.988
349.1
343.596
343.599
343.962
344.5
344.68
344.77
344.734
354.194
353.084
352.433
352.323
352.659
353.255
353.524
359.221
359.26
357.736
357.678
357.953
358.586
358.768
354.249
357.501
354.988
354.857
354.43
355.021
356.633
352.086
355.947
353.461
353.527
354.796
356.618
357.883
358.586
358.174
358.099
358.036
358.423
358.599
358.896
349.566
349.34
350.673
350.913
350.929
351.031
351.381
339.839
340.485
341.059
341.908
342.239
342.501
342.498
350.508
349.569
349.739
350.293
350.477
351.212
352.11
357.175
356.252
356.015
355.953
356.1
356.893
357.335
358.382
357.344
353.534
352.046
351.479
351.803
353.364
352.116
354.349
351.682
350.593
349.586
349.841
351.768
357.602
356.836
355.762
354.656
354.44
354.537
355.094
347.827
350.213
350.648
350.777
351.401
351.814
352.537
332.337
336.192
337.45
339.025
339.612
340.704
341.077
344.281
346.891
347.581
348.302
349.927
350.564
351.902
354.989
355.506
355.099
354.979
355.031
355.344
355.872
359.802
356.37
353.004
351.216
349.156
348.931
349.783
363.55
361.607
364.05
363.371
361.542
359.174
350.331
363.601
360.327
361.422
361.388
360.828
359.566
357.803
359.844
358.495
358.552
358.699
359.009
358.917
358.629
353.754
354.324
352.803
351.786
351.231
351.136
351.59
361.966
359.809
359.528
358.785
358.477
357.74
357.304
366.25
361.183
361.638
359.792
358.525
355.798
353.343
367.185
365.58
366.563
363.277
361.124
356.642
350.779
361.179
359.002
362.775
360.391
356.551
355.764
346.749
357.198
357.389
359.153
359.591
359.365
358.325
356.764
357.592
357.142
357.486
357.774
358.426
358.624
358.5
352.886
350.925
349.511
348.142
347.767
348.345
348.804
359.583
358.451
357.4
356.68
356.489
356.039
356.023
359.294
357.004
355.647
354.858
354.554
353.052
351.901
365.635
362.353
362.939
359.535
357.276
351.426
346.264
356.525
356.919
359.104
352.401
351.919
349.251
341.621
352.898
355.805
358.882
359.342
359.271
358.192
355.539
355.194
355.473
356.207
357.367
358.39
358.758
358.618
352.088
350.739
350.079
349.334
349.455
349.693
349.721
355.04
355.272
355.104
355.079
355.143
355.497
355.889
353.192
351.637
352.468
353.328
355.023
354.767
354.319
359.685
359.421
357.733
353.416
352.088
347.195
340.981
353.926
351.382
355.969
347.563
345.933
342.596
337.16
349.094
357.259
360.86
359.511
359.101
355.436
356.331
353.27
354.189
355.63
356.147
357.641
358.035
358.656
351.816
350.689
349.95
349.046
348.683
348.179
348.036
354.084
353.211
353.358
353.799
355.05
356.126
357.116
350.203
348.151
351.537
354.521
357.677
358.518
359.064
357.319
350.592
352.04
347.2
347.813
344.075
339.929
349.969
343.459
348.558
340.82
341.005
338.173
331.297
345.105
359.793
360.984
355.575
355.717
353.389
356.802
351.606
353.729
355.366
355.892
357.388
357.724
357.22
351.225
350.072
348.645
346.587
345.155
344.615
344.786
351.938
351.536
351.985
353.419
356.224
357.187
355.9
343.22
345.12
351.216
355.589
359.376
360.559
359.879
352.934
346.95
348.635
343.3
344.067
336.128
337.06
341.521
339.886
345.839
337.671
337.864
334.648
329.423
339.929
361.3
357.369
349.491
354.455
353.357
358.058
348.805
352.649
354.258
353.071
354.254
353.23
350.006
349.506
348.473
346.155
343.2
341.86
340.216
339.82
349.536
350.271
350.733
351.55
353.126
351.441
350.56
338.914
341.977
350.434
355.059
360.619
359.643
357.469
344.824
340.179
345.061
339.122
339.417
330.402
337.109
337.563
337.798
343.078
332.706
332.389
329.548
327.968
336.439
360.483
356.007
346.702
348.879
347.707
355.799
347.079
349.632
350.615
350.14
348.904
346.369
346.181
348.061
343.943
338.973
336.763
332.944
330.602
329.913
347.855
346.755
347.388
348.286
347.1
343.105
342.696
334.965
337.906
347.596
353.387
359.674
357.898
354.7
340.088
338.143
339.746
335.571
337.655
325.648
335.172
330.943
319.331
337.431
329.61
327.34
323.328
317.092
331.408
353.985
340.763
338.614
328.179
327.691
331.247
337.371
342.36
341.568
340.896
338.063
337.933
330.704
330.34
332.033
335.571
334.706
332.252
330.612
325.611
339.971
339.245
337.309
337.66
338.287
340.43
335.815
331.886
329.674
333.054
336.979
338.129
346.641
344.984
333.806
319.446
335.118
321.539
331.848
322.347
326.791
298.942
298.626
300.646
307.269
307.459
299.409
307.003
319.594
331.019
335.899
331.5
318.379
317.618
320.527
333.179
332.263
330.875
331.091
332.508
332.749
330.938
322.986
327.389
327.658
329.676
328.754
328.355
326.099
333.623
332.971
331.198
330.326
329.708
331.255
334.893
318.949
322.673
323.018
325.154
332.971
337.019
341.24
301.948
301.596
301.587
301.17
302.657
303.318
310.87
292.589
292.515
291.86
292.527
292.899
292.452
293.676
311.701
312.637
312.724
314.943
314.404
314.138
311.625
325.663
326.832
326.243
325.606
326.921
327.867
328.619
318.574
317.936
319.147
319.856
320.539
323.768
323.223
329.783
330.52
330.146
328.178
327.745
329.252
331.827
315.73
314.364
313.861
315.399
316.927
317.521
317.284
295.837
296.066
295.481
295.16
294.995
296.47
295.407
285.208
284.929
284.851
284.015
283.45
282.906
283.45
305.983
306.287
306.792
308.127
307.953
307.707
308.321
323.664
325.255
324.001
322.059
323.446
325.057
322.449
309.188
314.518
314.263
314.18
318.002
319.929
319.607
327.416
327.61
326.137
323.946
321.951
323.684
327.163
307.443
307.269
307.596
307.694
307.893
307.799
307.329
283.706
284.312
286.816
287.103
287.366
287.819
287.694
281.317
281.075
281.071
281.104
281.071
281.078
281.244
304.405
304.664
305.104
305.478
305.518
305.054
305.047
318.254
320.435
318.884
316.271
315.636
317.597
318.655
304.547
308.26
310.093
309.64
310.638
311.388
311.899
321.218
321.339
320.795
317.603
319.238
320.561
323.577
304.977
304.876
305.113
305.026
304.887
304.803
304.745
281.043
281.021
281.044
281.114
281.202
281.294
281.421
281.011
280.947
280.937
280.956
280.973
281.004
281.081
303.598
303.813
303.821
303.902
303.938
303.839
303.979
317.572
319.88
318.353
315.982
315.174
316.375
317.166
300.054
305.38
305.844
305.836
308.421
308.73
308.97
319.416
320.711
319.976
317.503
319.22
320.429
322.855
303.758
303.72
303.661
303.646
303.636
303.594
303.704
280.7
280.677
280.701
280.714
280.724
280.732
280.778
292.088
292.085
292.095
292.106
292.113
292.115
292.116
305.318
305.476
305.586
305.642
305.672
305.587
305.593
309.53
312.203
310.776
309.15
307.381
306.007
309.302
286.032
288.539
288.016
292.516
292.496
291.997
292.207
311.728
312.699
312.403
311.189
312.663
313.77
314.615
305.395
305.404
305.416
305.483
305.503
305.489
305.542
292.134
292.127
292.13
292.125
292.123
292.121
292.116
350.032
353.639
358.973
362.489
365.186
366.662
366.432
349.759
352.056
354.35
356.062
356.918
358.118
357.179
356.254
356.176
356.543
357.102
357.394
357.79
357.6
354.582
353.539
353.696
354.453
355.213
356.744
357.32
358.344
358.255
358.308
358.756
358.842
360.405
363.241
351.319
353.964
355.169
357.305
357.585
357.537
363.971
346.692
354.179
356.5
361.745
362.444
360.48
361.138
348.104
352.452
357.454
360.388
365.074
366.242
362.024
348.695
350.514
352.204
353.365
354.687
354.846
351.496
354.853
354.588
354.8
355.421
355.576
355.603
354.99
350.109
349.749
350.073
351.356
353.074
355.87
357.113
357.114
356.781
356.735
357.172
357.514
359.216
360.087
349.978
351.855
352.572
352.939
353.034
353.022
354.834
348.06
356.128
357.79
361.523
363.862
359.368
361.15
348.653
349.426
352.755
355.967
358.573
361.23
356.929
351.583
351.681
351.311
349.989
349.135
349.934
344.659
354.267
354.169
353.862
353.88
353.661
353.09
351.846
345.332
345.372
345.864
347.188
349.108
351.982
354.971
356.357
356.287
356.071
355.904
355.893
356.329
356.546
350.965
351.655
352.075
351.261
351.208
349.409
349.268
344.787
353.002
354.32
356.083
361.081
356.033
356.891
346.725
344.839
347.497
349.271
350.324
354.32
346.467
360.907
360.227
355.819
349.654
344.875
343.699
339.361
354.399
353.228
351.515
350.461
350.13
350.281
349.499
338.463
338.933
340.03
342.333
345.808
350.206
354.077
355.37
355.55
354.25
353.549
353.475
354.12
353.735
354.648
354.809
354.926
351.84
350.831
346.471
346.725
339.772
346.311
348.669
350.074
353.981
342.963
353.563
344.998
333.546
340.604
345.725
343.411
347.352
343.049
362.808
363.841
362.677
356.771
341.655
336.818
334.532
349.665
353.294
353.338
350.602
348.717
347.491
347.767
333.98
333.739
334.409
336.067
339.086
343.109
350.452
343.353
351.707
354.154
353.257
352.388
350.586
351.272
356.767
356.964
355.295
349.67
350.96
341.822
340.385
334.899
341.531
341.037
338.551
346.671
333.576
347.966
346.577
330.843
334.535
336.093
335.813
342.158
341.706
360.703
363.862
364.273
362.671
340.866
334.428
332.15
345.156
347.863
350.648
348.963
345.897
345.658
346.187
331.381
330.196
331.065
333.638
337.431
341.709
347.653
338.295
340.143
349.391
350.028
348.979
348.634
347.503
356.32
358.659
359.871
346.094
349.02
338.97
335.299
332.625
336.851
338.416
332.52
341.818
330.383
341.434
345.216
327.74
327.503
329.387
330.465
335.692
337.491
356.331
357.979
361.589
362.903
339.003
331.389
328.245
336.757
337.085
341.716
345.174
343.098
341.544
342.498
323.482
323.573
324.355
327.189
329.918
333.621
343.553
334.019
334.072
337.863
343.793
344.846
343.634
345.538
354.247
356.331
361.182
343.079
346.368
335.616
331.484
331.382
332.342
332.282
325.61
338.614
328.915
334.278
333.89
322.091
323.924
323.647
327.032
328.905
324.191
340.259
341.147
335.119
332.144
331.161
325.625
324.215
328.931
334.486
334.414
334.285
335.32
333.486
332.701
314.396
321.339
324.494
327.734
327.457
323.21
320.523
321.455
328.055
331.108
335.01
333.957
335.28
333.631
333.134
334.504
332.917
333.551
332.309
331.851
326.891
329.683
318.346
317.54
319.041
317.205
322.09
328.238
303.009
301.353
295.631
294.726
296.557
295.852
303.366
333.669
325.343
319.351
318.256
316.921
314.002
313.623
326.289
325.544
326.147
327.492
327.937
327.362
329.711
314.692
318.899
320.007
320.391
318.45
317.142
314.56
322.366
325.973
325.848
325.565
324.939
325.049
326.613
318.562
319.705
319.735
315.624
317.025
315.597
312.327
303.474
303.992
303.157
301.33
298.453
294.412
301.201
289.745
288.705
288.752
287.952
288.973
288.465
288.692
312.115
311.402
311.742
312.491
310.808
309.15
307.887
321.421
323.125
320.186
323.222
324.058
325.154
325.81
312.221
311.858
310.331
309.458
308.001
306.793
303.255
317.339
319.06
318.971
319.615
319.066
321.866
322.63
309.441
309.138
311.506
309.137
310.995
309.111
308.184
287.682
288.854
286.089
286.404
286.867
286.498
287.035
280.655
280.137
280.618
279.785
281.401
280.278
279.909
304.762
305.091
305.238
304.394
304.636
304.385
302.398
319.139
318.078
317.847
318.809
320.298
321.086
321.875
306.442
307.705
306.69
306.354
305.426
304.018
299.254
312.821
315.69
313.772
314.568
316.276
316.572
314.857
305.545
305.775
303.295
302.906
304.687
302.099
302.138
279.29
278.398
277.871
278.416
278.669
278.023
279.249
279.124
278.821
278.925
278.436
278.965
279.099
278.454
303.066
303.133
303.222
301.896
303.195
303.131
300.886
317.349
316.865
317.636
318.523
319.432
319.221
320.962
303.617
305.54
304.76
304.287
303.428
301.665
296.878
310.213
312.11
312.652
314.001
313.35
314.432
314.206
300.954
303.846
301.048
300.99
303.457
300.628
300.636
276.721
277.057
276.701
276.602
277.091
276.734
276.76
279.668
279.889
279.891
279.072
279.846
279.85
278.963
302.886
302.885
302.971
302.058
303.015
303.013
302.163
317.853
317.398
318.531
319.135
319.865
319.414
321.442
302.232
302.619
303.551
303.001
301.91
298.477
295.213
310.918
312.262
313.466
314.911
313.322
315.214
315.587
302.435
303.291
302.305
302.319
303.196
302.146
302.121
278.05