/*--------------------------------*- C++ -*----------------------------------*\
  =========                 |
  \\      /  F ield         | OpenFOAM: The Open Source CFD Toolbox
   \\    /   O peration     | Website:  https://openfoam.org
    \\  /    A nd           | Version:  6
     \\/     M anipulation  |
\*---------------------------------------------------------------------------*/
FoamFile
{
    version     2.0;
    format      ascii;
    class       volVectorField;
    location    "0.0275";
    object      U;
}
// * * * * * * * * * * * * * * * * * * * * * * * * * * * * * * * * * * * * * //

dimensions      [0 1 -1 0 0 0 0];

internalField   nonuniform List<vector> 
3773
(
(46.647 0.0113661 0.612229)
(46.5503 -0.0139175 0.619837)
(46.6994 -0.00678116 0.619764)
(46.5575 0.0118288 0.613498)
(46.509 0.00542633 0.612475)
(46.6312 0.00634706 0.614199)
(46.4838 -0.00534642 0.60722)
(12.6377 0.0415126 -0.119098)
(12.6124 -0.0313528 -0.117287)
(12.6657 -0.0245656 -0.112177)
(12.6181 -0.0103695 -0.112314)
(12.6054 -0.00213426 -0.110419)
(12.6398 0.00161365 -0.10592)
(12.5763 -0.0545304 -0.112827)
(4.99767 0.0157321 0.0824113)
(4.95737 0.00680365 0.0760232)
(4.99797 -0.00349026 0.0894777)
(4.99885 0.00170711 0.0893259)
(4.9806 0.000689524 0.0846438)
(4.98367 -0.0055451 0.0860285)
(4.98329 -0.00845166 0.0835828)
(-2.69772e-05 0.00281175 0.0470264)
(-4.3354e-05 -0.00613217 0.0456101)
(-3.68556e-05 0.00204431 0.0419913)
(-3.34261e-05 -0.0043262 0.0426973)
(-2.12182e-05 -0.00487315 0.0416443)
(-1.9836e-05 0.00370343 0.0391392)
(-2.1521e-05 -0.00577953 0.0439724)
(-4.99692 0.0100062 0.0865007)
(-4.9621 0.00251731 0.0787342)
(-4.99559 -0.00493954 0.0877021)
(-4.99953 -0.000104475 0.0874944)
(-4.98119 -0.00565369 0.0845371)
(-4.97713 -0.0153288 0.0833498)
(-4.97798 -0.010602 0.0789697)
(-12.5991 0.0534891 -0.124645)
(-12.5881 -0.0114852 -0.11557)
(-12.6201 -0.00299914 -0.11507)
(-12.6103 0.00960309 -0.114111)
(-12.578 0.020999 -0.114414)
(-12.652 0.0299034 -0.10893)
(-12.5968 -0.0433136 -0.114599)
(-46.5395 0.0173086 0.607848)
(-46.4511 -0.00642232 0.612169)
(-46.5554 -0.00114687 0.610109)
(-46.5141 0.0110573 0.609998)
(-46.425 0.0031223 0.612841)
(-46.6665 0.0111842 0.622827)
(-46.5339 -0.00358638 0.618824)
(44.6285 0.00448899 1.04491)
(44.4333 -0.0135817 1.0515)
(44.5319 -0.00628031 1.0476)
(44.4667 0.0151063 1.0345)
(44.5378 0.00910123 1.04043)
(44.6022 0.00916252 1.04671)
(44.6201 0.00401129 1.03242)
(9.27741 0.0281449 -0.220771)
(9.32403 -0.0453993 -0.223501)
(9.33253 -0.032934 -0.221559)
(9.30105 -0.00641395 -0.224315)
(9.24903 0.0109255 -0.221639)
(9.27722 0.0193085 -0.215076)
(9.2794 -0.0399078 -0.224867)
(3.91257 0.0391229 -0.095082)
(3.88989 -0.0104298 -0.095735)
(3.90337 -0.0257767 -0.079631)
(3.9016 0.00319947 -0.0816674)
(3.89245 0.0167728 -0.0833886)
(3.89438 0.0127408 -0.0741755)
(3.90752 -0.0260118 -0.0816038)
(-1.93835e-05 0.0101856 -0.0419009)
(-3.2019e-05 -0.000114707 -0.0453286)
(-2.86593e-05 0.00501496 -0.0476401)
(-2.65296e-05 -0.00761191 -0.0457542)
(-1.91328e-05 -0.0144369 -0.0489701)
(-1.68801e-05 -0.00607459 -0.0516132)
(-1.73434e-05 -0.0133329 -0.0466286)
(-3.91614 0.0342957 -0.0963992)
(-3.87838 -0.0161965 -0.0994034)
(-3.8964 -0.022555 -0.0829613)
(-3.90043 0.00956992 -0.0831032)
(-3.89562 0.020588 -0.0850932)
(-3.89222 0.0136005 -0.0791033)
(-3.91101 -0.0238549 -0.0871888)
(-9.28837 0.0461222 -0.232427)
(-9.23235 -0.026024 -0.214715)
(-9.28257 -0.013136 -0.224192)
(-9.24363 0.0116239 -0.222546)
(-9.27017 0.0355252 -0.226084)
(-9.29559 0.0535374 -0.213239)
(-9.2898 -0.0301036 -0.219488)
(-44.5847 0.0100099 1.03716)
(-44.5011 -0.00878283 1.05107)
(-44.4698 -0.0027987 1.03582)
(-44.504 0.00958035 1.04488)
(-44.3852 0.000627447 1.03561)
(-44.542 0.0116164 1.05754)
(-44.5928 0.00348344 1.04692)
(44.2344 -0.0131634 1.61402)
(44.0543 -0.00445757 1.61568)
(44.1545 0.00194319 1.61484)
(44.0792 0.0221022 1.59756)
(44.1301 0.0111878 1.59379)
(44.2105 0.0126721 1.59526)
(43.8214 0.0300377 1.59724)
(9.39809 0.0153116 -0.0270593)
(9.40364 -0.0223383 -0.0528105)
(9.39561 -0.0205769 -0.0557665)
(9.3777 -0.00761257 -0.0651366)
(9.35482 0.00707991 -0.0421903)
(9.36656 0.00644461 -0.0327999)
(9.38887 -0.0235066 -0.0484295)
(3.82281 0.0351854 -0.0411629)
(3.78098 -0.0123429 -0.0547069)
(3.78686 -0.0259351 -0.0416746)
(3.79977 0.000923163 -0.0484263)
(3.79084 0.0197476 -0.0491454)
(3.76364 0.0170975 -0.0422696)
(3.81301 -0.0260862 -0.0544138)
(-2.26169e-05 0.0118011 -0.0241527)
(-3.32681e-05 -0.00264409 -0.0277676)
(-2.86352e-05 0.00208327 -0.0309906)
(-2.68665e-05 -0.0070525 -0.0288957)
(-1.85899e-05 -0.013391 -0.0307303)
(-1.77347e-05 -0.00266611 -0.0307382)
(-1.80515e-05 -0.0138059 -0.0261712)
(-3.81994 0.0322969 -0.0470852)
(-3.77529 -0.0161465 -0.0524936)
(-3.78052 -0.0224311 -0.0411544)
(-3.80375 0.00782055 -0.0427687)
(-3.79622 0.0235008 -0.052471)
(-3.77177 0.0171136 -0.0459522)
(-3.81349 -0.0241179 -0.0552021)
(-9.38897 0.03013 -0.0445004)
(-9.35997 -0.00925168 -0.0377769)
(-9.36007 -0.00766616 -0.0481746)
(-9.34081 0.0055732 -0.0440468)
(-9.3589 0.0258295 -0.060649)
(-9.37595 0.030766 -0.0323219)
(-9.39763 -0.0194461 -0.0385804)
(-43.8758 -0.0151912 1.61092)
(-44.0981 -0.0140582 1.59999)
(-44.0808 -0.00757205 1.59385)
(-44.1042 0.00363654 1.59224)
(-43.9888 -0.00879423 1.5975)
(-44.159 0.00284608 1.61657)
(-43.8734 0.0241006 1.62087)
(43.3645 -0.0253811 1.59644)
(43.2646 0.000276737 1.61086)
(43.2835 0.00840552 1.61801)
(43.1615 0.0299896 1.59792)
(43.1833 0.0179144 1.59263)
(43.2945 0.0197832 1.59737)
(43.2417 0.0501187 1.54669)
(9.27277 0.00948903 -0.0911155)
(9.2856 -0.00291077 -0.105767)
(9.27757 -0.0183752 -0.113893)
(9.25936 -0.0157246 -0.129107)
(9.2261 0.00256968 -0.107348)
(9.24018 0.00158682 -0.0941215)
(9.26045 -0.00970079 -0.106258)
(3.78065 0.0314959 -0.0365684)
(3.73708 -0.010786 -0.0534698)
(3.73558 -0.0256587 -0.0365455)
(3.74874 -0.00194038 -0.0439982)
(3.74821 0.0210252 -0.0434248)
(3.72078 0.0154481 -0.0384965)
(3.76905 -0.025673 -0.0492127)
(-2.58769e-05 0.0133819 -0.0107452)
(-3.27911e-05 -0.00223292 -0.0115204)
(-2.79997e-05 0.00106873 -0.011707)
(-2.64462e-05 -0.00662484 -0.0128379)
(-1.97129e-05 -0.0121433 -0.0117147)
(-1.94111e-05 -0.00243365 -0.0131993)
(-1.83766e-05 -0.0141699 -0.0112515)
(-3.77604 0.0288204 -0.0424924)
(-3.72254 -0.0128894 -0.0495786)
(-3.75433 -0.0193234 -0.0347472)
(-3.77793 0.00531509 -0.0385984)
(-3.75978 0.0249918 -0.0465033)
(-3.72198 0.0175301 -0.0405324)
(-3.77041 -0.0241781 -0.0486942)
(-9.27182 0.0158981 -0.101466)
(-9.24686 -0.0020769 -0.0920021)
(-9.24268 -0.00975745 -0.109453)
(-9.22574 0.0029478 -0.111024)
(-9.244 0.0233069 -0.11911)
(-9.24919 0.0203842 -0.0863343)
(-9.27178 -0.00872985 -0.0929136)
(-43.2138 -0.0317041 1.57462)
(-43.151 -0.0168062 1.60971)
(-43.1429 -0.0103052 1.60094)
(-43.1695 0.000475279 1.59418)
(-43.0728 -0.0113297 1.5962)
(-43.2919 0.00302023 1.62309)
(-43.2516 0.0388264 1.57928)
(42.6579 -0.0504809 1.10977)
(42.3021 0.0217123 1.17725)
(42.4263 0.0229132 1.15863)
(42.3602 0.0400712 1.13247)
(42.3428 0.0233203 1.12449)
(42.4414 0.00855694 1.16434)
(42.6896 0.0766599 1.07568)
(9.11949 -0.00739817 -0.0554315)
(9.10636 0.00231062 -0.0321593)
(9.09192 -0.0108338 -0.0503032)
(9.08514 -0.00970153 -0.0702233)
(9.07079 0.00521698 -0.0674889)
(9.09489 -0.000263755 -0.0458006)
(9.10715 0.00811776 -0.0588443)
(3.77064 0.0271103 -0.014167)
(3.71912 -0.00906866 -0.0272446)
(3.71598 -0.0222708 -0.0107243)
(3.7315 -0.00379398 -0.0179715)
(3.72016 0.0221486 -0.0199483)
(3.70486 0.0136259 -0.0156711)
(3.76002 -0.0251385 -0.0227008)
(-2.73158e-05 0.0137343 0.0106482)
(-3.12266e-05 -0.00136208 0.00892753)
(-2.67008e-05 -2.28848e-06 0.0108036)
(-2.61261e-05 -0.0058653 0.00745329)
(-2.08302e-05 -0.0104029 0.0102221)
(-2.064e-05 -0.00341616 0.0092331)
(-1.83489e-05 -0.0133197 0.00833639)
(-3.76534 0.0255987 -0.0176438)
(-3.70651 -0.0110452 -0.0242408)
(-3.73222 -0.0186938 -0.0124446)
(-3.74019 0.00323541 -0.0178962)
(-3.7442 0.0245689 -0.0216228)
(-3.7085 0.0152433 -0.0155252)
(-3.76233 -0.0247214 -0.0220587)
(-9.1173 -0.00242744 -0.0613533)
(-9.08498 0.000473903 -0.0523445)
(-9.08888 -0.0116861 -0.066454)
(-9.07865 8.93546e-06 -0.0722047)
(-9.08897 0.0178722 -0.0769152)
(-9.09959 0.0112577 -0.0302329)
(-9.1245 0.00732779 -0.0441209)
(-42.6007 -0.0540386 1.09464)
(-42.2833 0.0011464 1.1801)
(-42.3557 -0.00795168 1.13946)
(-42.3273 -0.00372432 1.13269)
(-42.2618 -0.0280988 1.13894)
(-42.4467 -0.0263563 1.19107)
(-42.6392 0.0586533 1.10913)
(41.9577 -0.0891348 0.609365)
(41.5096 0.0512153 0.66335)
(41.5806 0.042359 0.639124)
(41.511 0.0496024 0.629175)
(41.4959 0.0235158 0.623709)
(41.6126 -0.0125149 0.653253)
(41.9347 0.114342 0.593765)
(8.76757 -0.0265353 -0.0843807)
(8.74407 0.0071843 -0.0672197)
(8.70942 -0.00325092 -0.0743259)
(8.70203 -0.00178505 -0.0873909)
(8.69942 0.00880615 -0.0827854)
(8.73541 -0.00231595 -0.067998)
(8.74989 0.0278717 -0.08233)
(3.77086 0.0221249 0.0229107)
(3.7042 -0.00671013 0.0127203)
(3.70768 -0.0181466 0.0267077)
(3.70661 -0.00524073 0.0222774)
(3.69667 0.0198273 0.0224276)
(3.69647 0.0114844 0.0225636)
(3.75466 -0.0243972 0.0178419)
(-2.78676e-05 0.0104134 0.0467919)
(-3.10975e-05 -0.00233904 0.0450174)
(-2.56309e-05 0.000903644 0.0455813)
(-2.70796e-05 -0.00635626 0.043438)
(-2.18765e-05 -0.0126526 0.0446631)
(-2.15191e-05 -0.00640649 0.0439221)
(-1.8495e-05 -0.0112825 0.0438358)
(-3.76032 0.0216213 0.0205118)
(-3.69274 -0.00830605 0.0112462)
(-3.70548 -0.0158566 0.0259846)
(-3.70477 -4.98665e-05 0.0238541)
(-3.70438 0.0220715 0.0192971)
(-3.70796 0.011855 0.0235036)
(-3.75865 -0.024035 0.0198983)
(-8.75386 -0.0235909 -0.09226)
(-8.67777 0.00542275 -0.0825629)
(-8.70635 -0.00991095 -0.0883233)
(-8.69216 -0.00387977 -0.0907048)
(-8.6603 0.0127405 -0.100294)
(-8.74189 0.00309829 -0.0593924)
(-8.78224 0.0247404 -0.0725645)
(-41.8923 -0.0920875 0.595585)
(-41.5887 0.0278153 0.664661)
(-41.5162 -0.000134913 0.621734)
(-41.4814 -0.0120753 0.620346)
(-41.4723 -0.0502895 0.632455)
(-41.6415 -0.0675063 0.659722)
(-41.9426 0.0879892 0.603013)
(34.731 -0.114643 0.562215)
(34.4615 0.0682767 0.600935)
(34.1333 0.0620284 0.580007)
(33.9251 0.0586084 0.57147)
(33.8363 0.0278694 0.563)
(34.2488 -0.0165517 0.585598)
(34.5291 0.137028 0.551196)
(7.79203 -0.0781871 0.17268)
(7.80676 0.0284294 0.196074)
(7.75024 0.0216284 0.193361)
(7.77646 0.0213913 0.183958)
(7.76467 0.0224647 0.181388)
(7.78601 -0.000741001 0.19417)
(7.78311 0.0834896 0.176259)
(3.63374 0.0257205 -0.00670564)
(3.63217 -0.00543274 -0.0195055)
(3.58788 -0.0216174 -0.000258614)
(3.62215 -0.00285156 -0.00458375)
(3.57893 0.0374613 -0.00476077)
(3.62657 0.0209236 -0.00240745)
(3.58573 -0.0303275 -0.0080966)
(-2.88789e-05 0.0165865 -0.0349009)
(-3.47246e-05 -0.00280026 -0.0373655)
(-2.52391e-05 0.000288354 -0.0383338)
(-3.08196e-05 -0.0112687 -0.039922)
(-2.32123e-05 -0.0195554 -0.0379358)
(-2.2964e-05 -0.0113082 -0.0394618)
(-1.97374e-05 -0.0216064 -0.0367983)
(-3.63309 0.023061 -0.011823)
(-3.62382 -0.0126617 -0.0170398)
(-3.62671 -0.0227934 -0.00291229)
(-3.57546 -0.000811673 -0.00505196)
(-3.68512 0.0367002 -0.00383569)
(-3.63453 0.0208667 -0.00241277)
(-3.58915 -0.0297633 -0.00609094)
(-7.79981 -0.0736619 0.171352)
(-7.62246 0.0168377 0.233704)
(-7.77949 -0.00623594 0.180301)
(-7.74372 -0.0156343 0.187971)
(-7.63946 -0.0164644 0.212796)
(-7.80301 -0.0236201 0.190928)
(-7.81327 0.0723743 0.180133)
(-34.7316 -0.113124 0.556384)
(-34.8558 0.0385745 0.613286)
(-34.0141 0.00208316 0.56436)
(-33.9588 -0.0184519 0.566764)
(-34.2334 -0.0688323 0.584809)
(-34.484 -0.0921068 0.589579)
(-34.8938 0.105906 0.562127)
(41.7451 4.38183 -24.1624)
(41.5837 2.54212 -67.8402)
(41.637 19.8577 -68.9459)
(41.8713 42.182 -56.3387)
(41.9357 43.3364 -43.0224)
(41.9663 39.9758 -31.5712)
(41.9053 31.8261 0.286346)
(11.3414 -3.73057 -13.5798)
(11.3092 0.994237 -33.5543)
(11.3161 12.1724 -32.829)
(11.3003 21.3035 -30.6621)
(11.3375 25.2913 -26.9108)
(11.3414 26.8062 -20.0591)
(11.3093 24.4985 2.45631)
(4.15159 -3.2231 -5.65399)
(4.14793 -0.845356 -19.6475)
(4.15004 4.54327 -18.0664)
(4.14989 8.8709 -20.4851)
(4.14329 12.5305 -18.7996)
(4.13153 11.8712 -15.0498)
(4.10956 12.6061 2.07051)
(0.000908949 -4.85986 2.05308)
(0.000114509 0.642188 -0.508534)
(0.000871363 -0.240671 0.505562)
(0.000484249 -0.796152 -0.870528)
(-0.00278293 0.544889 -0.618071)
(-0.00709858 -0.235763 0.751866)
(-0.0114557 6.32629 3.78704)
(-4.16315 -6.29541 -0.556914)
(-4.17876 -2.42619 -9.36798)
(-4.19029 -1.10474 -10.24)
(-4.19426 -0.190872 -10.5744)
(-4.18635 0.99775 -9.12545)
(-4.17784 1.52553 -7.12415)
(-4.16884 8.39746 1.00626)
(-11.3916 -12.8034 -5.77928)
(-11.4287 -16.2587 -15.6252)
(-11.4524 -18.1665 -19.2995)
(-11.456 -18.6672 -22.5331)
(-11.4286 -17.3118 -24.698)
(-11.4135 -9.08301 -26.2832)
(-11.4168 11.1729 -11.817)
(-41.915 -20.7864 -3.68392)
(-41.9784 -28.1732 -21.7643)
(-42.0714 -32.9111 -28.5154)
(-42.1385 -30.7474 -37.318)
(-42.0638 -23.0743 -45.5207)
(-42.0404 -16.1326 -45.8288)
(-42.0552 4.76935 -27.7778)
(41.7268 33.4662 -51.6606)
(41.6506 2.92105 -91.2738)
(41.6927 20.2775 -86.2412)
(42.0463 31.3723 -61.8851)
(42.0336 25.2526 -39.8719)
(42.1015 22.333 0.506192)
(42.1292 27.8378 24.4113)
(11.4389 16.1319 5.29508)
(11.3933 5.57724 -17.5821)
(11.3352 8.57171 -15.6529)
(11.2863 11.5358 -20.2496)
(11.3356 9.83148 -13.0538)
(11.4064 12.6618 7.31883)
(11.4262 22.0422 21.1008)
(4.20865 1.64592 10.1966)
(4.19552 1.96465 9.28909)
(4.18632 3.86402 10.0593)
(4.17697 6.49926 10.4261)
(4.18094 7.07309 12.014)
(4.18916 7.73524 15.662)
(4.17727 10.6735 15.0662)
(0.00395845 -3.70682 10.3329)
(0.00164864 1.10832 6.90224)
(0.00272302 -0.792741 7.7774)
(0.00321199 -0.731994 10.4528)
(0.00493974 -0.221852 10.6547)
(0.00697991 -1.27251 10.9242)
(0.00643538 4.19389 13.5988)
(-4.20544 -5.05075 11.6362)
(-4.21294 0.519226 8.1247)
(-4.21882 1.30708 8.31048)
(-4.22714 0.902883 8.51585)
(-4.21763 -0.061066 8.4375)
(-4.20332 -2.04546 9.8711)
(-4.18808 5.91019 10.718)
(-11.4519 -9.71532 13.9843)
(-11.4531 -7.31063 -0.757184)
(-11.4948 -11.6037 -3.3665)
(-11.4893 -17.5591 -4.41538)
(-11.483 -20.9369 -9.53476)
(-11.4573 -13.4239 -14.815)
(-11.4713 0.782615 -12.3008)
(-42.0257 -18.2754 15.7224)
(-42.0002 -15.4762 -12.3764)
(-42.1735 -23.3362 -28.0679)
(-42.2583 -18.8882 -48.9608)
(-42.0831 -14.4287 -65.7811)
(-42.0073 -14.0175 -71.3043)
(-42.1018 -0.895877 -67.806)
(41.546 23.6033 -82.0702)
(41.5993 -7.5859 -103.947)
(41.6588 17.8538 -91.5816)
(41.9576 15.2222 -65.8467)
(42.0007 1.36443 -28.623)
(42.1106 6.16872 16.7468)
(42.1138 16.6855 49.1514)
(11.5023 17.8117 -11.0855)
(11.3758 -2.21511 -16.2078)
(11.3335 -1.60218 -21.4009)
(11.3247 -1.1265 -31.9763)
(11.3883 -6.10253 -19.6784)
(11.4533 4.74828 13.892)
(11.4476 14.2765 37.9824)
(4.22461 1.67819 16.967)
(4.19583 -3.44579 11.7319)
(4.17301 3.79299 9.65292)
(4.15862 3.76926 0.176683)
(4.1701 4.57732 2.76424)
(4.19297 6.1026 16.3646)
(4.20604 10.7442 28.7221)
(-0.00909936 -3.69489 16.2431)
(-0.0112438 1.72131 16.5469)
(-0.00898529 1.37634 18.1174)
(-0.0087241 -0.247288 14.2254)
(-0.00914346 1.53419 17.7426)
(-0.00905686 -0.615441 21.5579)
(-0.00699759 5.77754 23.7796)
(-4.23405 -2.75487 16.5729)
(-4.23158 2.24395 13.7184)
(-4.23515 2.46112 12.9743)
(-4.24914 0.539428 14.7216)
(-4.24641 -3.10598 15.8387)
(-4.24163 -4.17166 16.9787)
(-4.23064 4.86927 18.9765)
(-11.454 -4.95393 17.8097)
(-11.4144 -1.34546 -5.00639)
(-11.4443 -6.74735 -2.94395)
(-11.5241 -13.664 -2.34317)
(-11.5402 -18.7697 -18.8588)
(-11.4584 -9.43902 -39.0734)
(-11.4792 -4.6601 -46.9031)
(-41.9746 -9.64343 26.9156)
(-41.9415 -2.07242 -13.4488)
(-42.2058 -9.55154 -34.0855)
(-42.3875 -3.90156 -52.937)
(-42.1116 3.75371 -73.4023)
(-41.8686 0.150941 -82.9054)
(-41.8074 2.9345 -80.8002)
(41.5124 22.4078 -86.3013)
(41.7222 -11.1208 -110.129)
(41.5028 14.8792 -91.8619)
(41.965 5.67278 -56.3872)
(42.0492 -8.65759 -18.6508)
(42.1414 -4.97327 20.6377)
(42.0179 12.7218 47.0956)
(11.4684 -0.151508 -3.59477)
(11.3527 -9.83101 -15.8258)
(11.3351 -6.17359 -25.0196)
(11.3111 -10.1064 -29.0696)
(11.4023 -13.6244 -18.4065)
(11.4604 -4.49819 18.7197)
(11.4144 12.1364 36.0117)
(4.19984 0.501105 16.4406)
(4.13699 -5.63319 5.31486)
(4.12644 -0.589682 0.54884)
(4.14576 -3.2396 -3.31135)
(4.18144 -5.27679 -2.46805)
(4.18025 2.45222 19.7486)
(4.18083 8.70278 29.5756)
(-0.028212 -2.30107 22.9383)
(-0.0289788 1.69191 21.6952)
(-0.0276257 1.65423 20.5049)
(-0.0284678 1.20776 20.302)
(-0.0312725 2.61958 20.3947)
(-0.0325104 1.45463 26.8743)
(-0.0363478 4.61181 31.2483)
(-4.2377 -2.1976 18.4072)
(-4.23675 3.43157 19.0398)
(-4.24762 3.94548 21.0266)
(-4.26972 2.50565 24.4787)
(-4.27383 -0.412035 24.3679)
(-4.27298 -2.16586 26.3996)
(-4.27403 4.46589 24.7944)
(-11.4091 -2.79355 9.41851)
(-11.3871 2.45726 -4.15542)
(-11.4056 -4.22424 0.617165)
(-11.5168 -7.62122 1.46654)
(-11.5347 -7.58237 -25.2289)
(-11.4433 -5.23682 -43.655)
(-11.4788 0.624997 -62.2905)
(-41.7736 -4.0399 22.9357)
(-41.9239 3.71653 -15.3954)
(-42.3333 -3.70894 -43.975)
(-42.3743 3.84781 -71.5151)
(-42.0579 9.9315 -80.9811)
(-41.6138 6.87576 -88.2495)
(-41.5716 8.10152 -85.4675)
(41.6849 22.791 -86.5372)
(41.7242 -10.359 -115.314)
(41.6607 14.1822 -94.1014)
(41.7827 -4.90422 -43.8615)
(41.9884 -16.6529 -12.3015)
(42.0866 -7.81518 19.1519)
(42.1216 6.54226 39.9488)
(11.4591 -2.40286 1.57155)
(11.3894 -9.09809 -17.7691)
(11.3753 -6.77644 -27.6361)
(11.3077 -12.6924 -30.7523)
(11.3576 -17.0677 -26.5933)
(11.371 -9.15918 -9.68034)
(11.4029 7.07123 27.4494)
(4.13402 -5.78753 11.7065)
(4.09941 -11.6882 -2.89815)
(4.11812 -13.2678 -4.42958)
(4.15092 -14.3957 -4.2703)
(4.16851 -14.5013 -3.24578)
(4.15548 -3.7542 17.3921)
(4.14447 7.08987 27.7594)
(-0.0425053 -2.80756 25.5793)
(-0.0425832 0.0370221 23.039)
(-0.040683 3.02931 25.2641)
(-0.0399431 1.62036 23.6319)
(-0.0417529 2.45866 24.3245)
(-0.0476464 1.3948 30.8226)
(-0.060914 3.82952 32.4723)
(-4.2328 -3.06112 19.4985)
(-4.23767 5.35578 21.905)
(-4.24494 4.68948 23.7964)
(-4.26 3.33796 27.1265)
(-4.27647 1.15504 26.5836)
(-4.28523 -1.37709 31.1949)
(-4.29925 4.5553 27.4388)
(-11.3736 -2.36454 -1.40277)
(-11.3505 4.55394 -6.33554)
(-11.3713 1.31497 -4.47895)
(-11.4713 -0.465859 -0.952126)
(-11.475 1.63913 -27.0087)
(-11.4287 -4.06558 -40.4542)
(-11.4667 7.68457 -65.0618)
(-41.6854 0.884709 4.74935)
(-41.8992 4.82272 -20.9916)
(-42.4044 -0.219115 -61.0201)
(-42.2263 10.4867 -84.0731)
(-41.9477 13.8364 -83.8057)
(-41.2617 11.9336 -87.6929)
(-41.4228 12.8156 -85.7762)
(41.6159 22.4727 -86.9224)
(41.3102 -7.05617 -117.415)
(41.7333 16.2966 -94.3831)
(41.7815 -7.6816 -37.5824)
(41.8792 -20.8604 -9.20512)
(42.0449 -8.09763 9.82574)
(42.0616 -1.01369 19.1965)
(11.3922 -1.14564 16.1155)
(11.4104 -2.6545 -16.5478)
(11.3935 0.297041 -32.278)
(11.3248 -10.0838 -30.9074)
(11.3162 -11.2105 -32.8469)
(11.2864 -8.24481 -33.0079)
(11.3035 -3.86578 -3.18624)
(4.09542 -8.78941 15.9647)
(4.10252 -14.8764 -1.24357)
(4.11577 -16.9863 -6.52924)
(4.11208 -18.0966 -7.96329)
(4.13417 -17.2948 -8.879)
(4.13801 -8.58371 5.84205)
(4.11802 1.06097 23.4639)
(-0.0432419 -3.07318 29.6936)
(-0.0410327 -1.71366 24.8915)
(-0.0376026 1.19118 27.5265)
(-0.0393366 1.28187 30.7524)
(-0.043978 0.768168 28.8308)
(-0.0582767 -0.956329 31.7528)
(-0.0734681 3.5041 35.1711)
(-4.20979 -2.39348 24.0388)
(-4.22607 5.13259 28.627)
(-4.23389 3.55699 28.163)
(-4.23848 1.66565 30.8748)
(-4.24732 0.973925 29.7057)
(-4.2754 -0.779548 32.3829)
(-4.2923 3.51614 33.2658)
(-11.3346 -1.34389 -12.6471)
(-11.3323 3.94038 -15.638)
(-11.3568 3.99763 -14.3502)
(-11.4304 2.94126 -12.7049)
(-11.4349 1.9773 -24.6308)
(-11.4533 -4.43661 -40.1936)
(-11.5038 10.7659 -64.267)
(-41.6394 0.792749 -15.6257)
(-41.9586 -3.0559 -39.4883)
(-42.2901 3.12041 -86.0765)
(-41.939 10.722 -89.2767)
(-41.9475 15.3125 -85.7375)
(-41.4681 13.3002 -88.9424)
(-41.5987 14.2236 -85.6547)
(41.2838 22.5252 -95.6077)
(41.0345 -5.96665 -122.091)
(41.5717 24.1628 -91.0389)
(41.8491 9.71672 -39.5047)
(41.6652 -12.1433 2.28258)
(41.6545 -8.52753 8.69679)
(41.8638 -5.36343 18.226)
(11.408 12.5511 -4.77358)
(11.3198 -4.67713 -25.8455)
(11.3559 9.52412 -24.6211)
(11.3228 4.89918 -31.4853)
(11.2931 2.69499 -26.8079)
(11.2356 7.34846 -36.4107)
(11.2231 2.0959 -19.8679)
(4.10745 -6.01754 19.8871)
(4.08058 -8.87477 4.40813)
(4.12319 -13.403 -9.31369)
(4.13384 -13.4046 -14.3184)
(4.10885 -9.73338 -16.2318)
(4.10708 -8.91369 -11.0691)
(4.10525 -3.94799 5.86238)
(-0.0296534 -4.83661 31.5778)
(-0.0309091 -2.10773 36.8559)
(-0.0230577 2.27899 33.0131)
(-0.023798 -0.101193 31.0827)
(-0.0342345 -4.94792 30.6066)
(-0.0448221 -4.11186 31.4287)
(-0.0524626 3.35517 35.16)
(-4.19982 -3.20179 23.5381)
(-4.23104 3.80778 29.0932)
(-4.23603 -0.246798 29.9942)
(-4.25624 0.143284 30.4259)
(-4.24472 -0.227775 29.1369)
(-4.25598 -1.0145 30.3457)
(-4.27106 3.69476 30.3109)
(-11.3152 -2.11375 -19.2998)
(-11.3193 1.28293 -25.07)
(-11.3898 -0.57111 -24.6691)
(-11.4346 -2.31179 -25.0946)
(-11.3945 -2.29829 -27.5813)
(-11.4133 -7.69094 -34.756)
(-11.4449 13.4745 -57.5528)
(-41.684 -4.75718 -24.2893)
(-42.0237 -13.4011 -56.915)
(-42.0569 7.43614 -92.4842)
(-41.7037 12.2753 -91.2653)
(-41.6918 17.7192 -85.4155)
(-41.5825 13.6905 -84.0412)
(-41.6602 13.9688 -75.6506)
(41.7249 46.2029 -80.3446)
(41.8163 -18.2362 -128.956)
(42.3095 2.47329 -72.0972)
(42.0984 3.21785 -28.243)
(41.8049 9.29389 -20.1451)
(41.6608 6.4432 20.5776)
(41.4202 6.30874 29.5777)
(11.578 28.3939 -18.4004)
(11.4357 -18.7339 -25.3421)
(11.3781 8.09546 -40.9561)
(11.3629 6.04046 -43.6232)
(11.3387 13.5846 -47.5998)
(11.3201 14.3749 -41.4505)
(11.2627 10.1866 -13.5919)
(4.14887 -4.65418 31.7034)
(4.13177 -8.07946 20.298)
(4.14623 -7.63265 5.22115)
(4.15484 -2.97723 0.954552)
(4.15906 -4.36468 -0.952105)
(4.1537 -6.40515 -0.51832)
(4.14023 -1.03624 -2.09528)
(0.0190089 -2.82137 34.7881)
(0.0196328 -0.373268 35.4414)
(0.0191922 -2.26164 34.4907)
(0.0176943 -4.38925 34.5278)
(0.023742 -7.48364 32.6678)
(0.030081 -8.05458 32.0991)
(0.0309929 0.115546 31.74)
(-4.1698 -3.24889 23.2322)
(-4.15695 -1.13948 27.3524)
(-4.13478 -4.21261 27.0517)
(-4.1596 -3.92337 24.5297)
(-4.17573 -6.77876 22.3434)
(-4.1911 -11.2337 19.6728)
(-4.18972 -4.49336 7.99083)
(-11.3513 -7.49629 -4.63879)
(-11.3967 -4.14413 -13.3118)
(-11.382 -0.197788 -23.3818)
(-11.3638 -1.30057 -19.3064)
(-11.3487 -4.90279 -22.1744)
(-11.4764 -1.06486 -36.8442)
(-11.4082 15.8805 -50.4153)
(-42.2171 -19.0624 -1.97369)
(-42.6915 10.1098 -100.529)
(-42.9066 11.1382 -98.8578)
(-41.9822 18.1733 -66.9875)
(-42.0849 21.8933 -55.2448)
(-41.9504 14.3663 -49.6978)
(-42.0307 11.478 -38.3625)
(41.794 43.6536 -114.148)
(41.3719 -19.3911 -148.744)
(42.1638 -4.37713 -92.3195)
(42.0434 9.71389 -51.0625)
(41.7676 7.45071 -30.9326)
(41.6243 4.50078 16.1809)
(41.3524 6.92434 29.4298)
(11.3132 -3.19725 20.8924)
(11.3257 -11.7103 -10.6049)
(11.3786 14.0867 -49.8478)
(11.3572 21.3848 -57.2821)
(11.2583 23.866 -54.1686)
(11.2956 17.5707 -44.7469)
(11.2981 14.3399 -14.47)
(4.17945 -4.71339 35.4726)
(4.17573 -4.76541 26.8837)
(4.18875 -5.71031 14.155)
(4.1857 -0.970267 8.99522)
(4.18023 -4.84642 10.8154)
(4.1695 -6.75701 10.4553)
(4.16119 5.5679 2.57451)
(0.0227391 -2.50778 35.6505)
(0.0314288 0.140177 35.9339)
(0.0382846 -2.06028 35.5467)
(0.0452287 -6.26961 37.184)
(0.0465384 -10.11 36.6856)
(0.0453929 -10.2718 34.9792)
(0.0489474 -0.618651 33.1375)
(-4.18656 -2.95682 26.3864)
(-4.16992 -1.99661 29.31)
(-4.1624 -5.31536 28.2067)
(-4.1549 -6.25401 25.6286)
(-4.16157 -13.8671 22.1805)
(-4.15311 -12.5697 4.15165)
(-4.13198 1.87097 -16.9537)
(-11.3746 -5.99588 5.85673)
(-11.3974 -1.2777 -5.72116)
(-11.4011 -3.29634 -10.6621)
(-11.3738 -6.33106 -2.35435)
(-11.3907 -6.62269 -15.6922)
(-11.4683 7.43869 -35.4883)
(-11.4719 17.3045 -39.7535)
(-42.2548 -16.417 -2.5074)
(-41.9267 21.7532 -126.599)
(-42.9205 -9.86629 -115.52)
(-41.9761 10.7433 -66.4759)
(-42.1811 12.8215 -57.3032)
(-42.25 7.8466 -49.5773)
(-42.1866 9.96248 -37.3953)
(42.0049 41.626 -120.74)
(41.4512 -27.462 -153.621)
(42.3778 -6.86382 -101.385)
(41.774 25.1332 -62.5725)
(41.9459 10.9671 -32.6275)
(41.7745 3.27683 21.0561)
(41.4928 6.25267 36.4048)
(11.3139 -2.3315 20.4828)
(11.328 -5.96308 -6.40734)
(11.4598 24.358 -54.2124)
(11.4008 28.6879 -62.2452)
(11.3319 28.7482 -54.9735)
(11.3852 20.0228 -40.0289)
(11.354 16.14 -3.5207)
(4.16055 -3.8693 35.7735)
(4.16569 -1.55011 29.302)
(4.16923 -2.81851 20.1128)
(4.1936 0.100035 19.1492)
(4.19717 -6.71308 22.6788)
(4.18987 -3.34433 7.04757)
(4.17654 11.9379 6.33912)
(0.0082915 -2.27965 37.9345)
(0.0175973 0.978806 37.2364)
(0.0279744 -0.721102 37.4058)
(0.0418241 -4.54803 39.4224)
(0.0381184 -8.58992 39.5286)
(0.0320174 -9.47994 37.5349)
(0.0479926 0.0395779 32.5618)
(-4.21145 -1.71997 30.6602)
(-4.18499 -2.34298 33.8187)
(-4.16805 -5.45499 30.2961)
(-4.13874 -5.33721 27.9432)
(-4.13168 -11.093 21.9705)
(-4.11456 -5.0896 -6.83766)
(-4.11005 12.3879 -20.1481)
(-11.3814 -6.0177 6.2475)
(-11.3811 -1.94296 -3.97809)
(-11.445 -3.63792 -12.9042)
(-11.4149 3.72042 -10.482)
(-11.3911 19.7191 -30.0792)
(-11.356 25.564 -39.3167)
(-11.3933 22.1065 -30.7604)
(-42.1719 -15.7455 -8.17909)
(-41.9008 24.0858 -130.955)
(-42.8069 -31.303 -116.806)
(-42.2815 10.2712 -64.7801)
(-42.2292 6.99597 -50.3737)
(-42.2946 3.01507 -27.3478)
(-42.231 10.5688 -19.9943)
(41.7433 29.5957 -123.072)
(41.2752 -31.5459 -152.213)
(42.5076 -5.38243 -109.451)
(41.7853 28.5822 -66.3824)
(42.0513 15.5934 -25.5994)
(41.9197 0.160713 21.5117)
(41.5989 6.89368 42.1009)
(11.2684 -0.694508 19.4033)
(11.3401 9.04038 -9.41556)
(11.5259 26.6709 -81.704)
(11.4796 27.2359 -71.6746)
(11.4655 30.1962 -47.2337)
(11.4041 18.6338 -30.628)
(11.3886 11.711 4.59703)
(4.14575 -3.57142 35.2612)
(4.13343 0.466121 27.8411)
(4.14263 0.144201 17.0869)
(4.20217 3.13915 22.8074)
(4.22634 -3.81216 28.0462)
(4.21323 1.75072 7.95722)
(4.20091 10.1106 9.49514)
(-0.00250046 -1.83224 38.1256)
(-0.00150919 1.64143 37.8458)
(0.00876102 1.28702 37.8261)
(0.0267766 -0.526483 39.343)
(0.0304033 -4.1583 40.8569)
(0.0291119 -6.53875 39.5345)
(0.0435907 0.983551 31.0677)
(-4.21693 -1.43623 30.7406)
(-4.19939 1.94167 35.9991)
(-4.18131 -1.88638 33.4867)
(-4.15873 -1.28532 27.6263)
(-4.14038 -4.74413 21.9945)
(-4.11011 -2.8183 -1.49801)
(-4.13383 20.7898 -11.2491)
(-11.3659 -5.26221 7.13924)
(-11.3594 0.512789 2.40435)
(-11.5028 13.0453 -32.9434)
(-11.5522 30.3552 -54.6594)
(-11.3896 37.121 -53.5259)
(-11.3563 33.6125 -46.2927)
(-11.4104 29.3617 -23.0198)
(-41.9133 -14.6393 -8.85525)
(-41.6634 21.9511 -132.929)
(-42.7816 -43.212 -115.764)
(-42.5759 22.1161 -71.7511)
(-42.3698 14.9921 -44.6729)
(-42.402 11.6095 -16.6951)
(-42.2536 14.7014 -1.21984)
(41.594 18.1036 -116.937)
(40.8458 -31.4974 -146.503)
(42.4915 -24.264 -124.541)
(42.0385 24.5291 -66.9878)
(42.0251 6.25473 -14.7515)
(41.9182 -7.41411 29.4092)
(41.4514 1.66154 43.8819)
(11.2182 -4.03494 14.6381)
(11.2999 43.0193 -63.1136)
(11.5673 15.1467 -103.89)
(11.548 15.9323 -73.0469)
(11.4093 16.5573 -21.8962)
(11.3421 3.95206 -7.27333)
(11.3619 10.0431 11.1451)
(4.1277 -3.65999 32.7521)
(4.07695 0.548293 23.4676)
(4.1005 6.13433 16.927)
(4.18847 11.574 25.426)
(4.23104 2.91731 28.771)
(4.2136 2.62703 13.0412)
(4.21241 9.27624 10.6064)
(-0.0131367 -1.37437 37.4589)
(-0.0165812 2.87195 37.6567)
(-0.0059558 3.27934 36.6972)
(0.0173306 2.23413 38.5093)
(0.0233008 0.607504 36.8203)
(0.0194937 -3.72283 36.8974)
(0.0262243 1.92319 29.9782)
(-4.223 -3.30532 25.1697)
(-4.19245 4.28977 32.8272)
(-4.1863 4.15133 30.8271)
(-4.18308 6.20314 30.3094)
(-4.18019 2.50848 27.602)
(-4.16806 -0.701252 10.2075)
(-4.19221 22.0931 1.85435)
(-11.3914 -5.44409 13.0793)
(-11.4602 -3.18507 -5.92005)
(-11.5258 36.2113 -67.1273)
(-11.6154 37.8833 -74.0455)
(-11.5236 37.7189 -60.6999)
(-11.5684 32.9882 -46.2154)
(-11.5148 30.4065 -12.5727)
(-42.0851 -13.9016 -8.16433)
(-41.6668 20.8812 -133.656)
(-42.5267 -56.8288 -122.565)
(-42.6985 25.0426 -80.5583)
(-42.6953 20.7576 -46.8188)
(-42.7583 13.4248 -7.71479)
(-42.3865 20.6525 12.2118)
(42.0449 21.1799 -100.157)
(40.9062 -36.7818 -146.05)
(41.6291 -83.3869 -123.183)
(41.9343 5.0477 -48.6209)
(41.6004 -6.46403 8.79765)
(41.589 -14.8294 28.2387)
(41.3597 0.11392 39.5022)
(11.2091 -15.8003 19.1299)
(11.3027 46.848 -88.1652)
(11.4633 -32.5712 -105.06)
(11.5447 -3.37157 -49.8057)
(11.3538 12.4762 -10.4253)
(11.2424 -1.23429 4.78002)
(11.3495 4.11421 9.46427)
(4.08806 -3.28448 35.3923)
(3.9958 2.47659 20.7223)
(4.1132 7.69379 -16.0828)
(4.22785 21.6343 -0.552969)
(4.19717 15.7799 26.4968)
(4.158 12.6992 24.1885)
(4.17406 9.91559 16.0801)
(-0.0308274 -1.33193 40.0989)
(-0.0278886 4.02913 40.8663)
(0.0128496 5.22245 38.4936)
(0.0463486 8.62421 37.8791)
(0.0333524 7.08967 39.0395)
(0.00890509 0.0468499 39.1642)
(0.00559978 3.34478 32.4723)
(-4.21782 -6.42444 25.4919)
(-4.16329 -0.296384 32.8049)
(-4.11817 2.6934 24.9335)
(-4.13379 16.1042 22.8001)
(-4.17259 19.6678 30.9767)
(-4.17588 12.9828 28.7887)
(-4.21683 17.104 15.2594)
(-11.4355 -16.0205 23.7476)
(-11.5328 12.9384 -47.1559)
(-11.4474 41.5275 -82.4898)
(-11.6327 26.6886 -84.2006)
(-11.6597 22.391 -51.8664)
(-11.587 22.3708 -28.412)
(-11.5816 26.718 -4.88533)
(-42.6592 -21.0912 -46.2339)
(-41.5664 36.3252 -133.491)
(-41.7269 -93.7242 -120.448)
(-42.8733 1.12884 -84.7177)
(-43.056 10.0959 -45.2556)
(-42.8407 4.47228 5.42664)
(-42.3056 13.4903 31.5072)
(41.1808 117.295 -85.8719)
(40.3083 49.1496 -97.3219)
(39.7019 -142.529 -77.2279)
(41.4111 -79.6909 -43.2588)
(41.6336 -66.0628 -9.60339)
(41.7048 -47.4886 2.14567)
(41.7321 -41.4879 9.86748)
(11.4406 -2.97552 -7.72924)
(10.8748 66.9472 -85.3619)
(10.715 -83.027 -85.9122)
(11.2496 -33.3364 -44.663)
(11.3185 -4.38014 -33.1362)
(11.1972 1.84864 -4.44703)
(11.2525 2.25584 13.8576)
(4.11121 -8.44252 24.4104)
(3.98248 4.03003 -39.3593)
(3.96086 -13.5666 -39.8123)
(4.19491 12.6362 -35.0514)
(4.20657 20.2095 -3.94836)
(4.14128 20.0971 3.92772)
(4.09708 15.0372 25.9803)
(0.0180391 -0.898305 52.214)
(-0.0153688 2.50887 39.5534)
(0.0290891 4.06147 40.4318)
(0.0673934 7.77267 37.4482)
(0.0233093 8.93095 37.0879)
(-0.0159048 6.22504 35.5964)
(-0.0260736 4.34011 48.9956)
(-4.21381 -13.4195 14.139)