/*--------------------------------*- C++ -*----------------------------------*\
  =========                 |
  \\      /  F ield         | OpenFOAM: The Open Source CFD Toolbox
   \\    /   O peration     | Website:  https://openfoam.org
    \\  /    A nd           | Version:  6
     \\/     M anipulation  |
\*---------------------------------------------------------------------------*/
FoamFile
{
    version     2.0;
    format      ascii;
    class       volScalarField;
    location    "0.5";
    object      p;
}
// * * * * * * * * * * * * * * * * * * * * * * * * * * * * * * * * * * * * * //

dimensions      [1 -1 -2 0 0 0 0];

internalField   nonuniform List<scalar> 
297
(
115546
115549
115546
192361
192358
192361
115546
115549
115546
115549
115547
115549
192360
192366
192360
115549
115547
115549
115548
115547
115548
192361
192362
192361
115548
115547
115548
97447.7
97430.9
97432.4
161877
161904
161951
97446.6
97429.7
97431.5
97647.6
97318.5
97623.9
161652
161915
161663
97650.2
97317.9
97617.7
95941.9
95803.4
96334.4
155358
159352
155770
95943.9
95803.4
96333.8
93665.2
95419.6
93306.5
158047
157250
157501
93666.3
95416.6
93306.2
96741.9
96932.9
96734.8
161130
160695
161294
96746.7
96934.1
96735.7
96840.2
97078.1
96802.2
161104
161441
161258
96838.8
97079.5
96812.1
83363.4
94549.8
83668.7
134081
154272
133140
83330.6
94546.4
83706.2
82506.9
94472.7
82621.5
132220
153813
130913
82476.8
94469.1
82658.1
83601.5
94543.7
83540.3
134358
153992
132787
83580.9
94539.9
83569.5
97295.5
97406.5
97279.9
161649
161776
161670
97283
97400.8
97293.9
97374.4
97415
97355
161814
161849
161818
97360.5
97410
97370.8
97375.4
97402.4
97357.2
161891
161885
161885
97362.6
97400.2
97373.5
97422.2
97545.5
97843.5
161792
161856
161970
97428.8
97540.9
97836.3
97340.1
97367.8
97579.2
161815
161811
161831
97350.9
97368.8
97575
97257.6
97164
97143.2
161885
161842
161763
97268
97167.1
97143.5
97841.4
97548
97433.4
161972
161858
161793
97837.8
97541
97424.1
97578.9
97373
97352.5
161832
161814
161818
97574.1
97364.8
97343.2
97153.2
97171.6
97269.6
161764
161845
161889
97144.9
97163.7
97260
98497.2
98383.7
98161.4
162433
162351
162181
98489.3
98376.9
98157
98343.3
98194.4
97939.4
162243
162162
161993
98336.4
98188.9
97935.9
98155.6
97993.8
97689.5
161992
161886
161771
98150.4
97989.5
97685.7
97105.3
97045.5
96928.7
160693
160635
160553
97104.2
97044.6
96928
92069.6
92087.9
92127.7
152214
152213
152211
92070.9
92088.9
92128.5
84967.8
84967.5
84970
136161
136161
136153
84968.5
84968.1
84970.6
98153.3
98363.5
98472.4
162180
162351
162436
98155.1
98373.7
98486.5
97937.4
98182.9
98326.2
161997
162168
162251
97937.9
98189.7
98339.7
97691.3
97992.3
98148.1
161781
161900
162009
97686.8
97992.1
98155
96953.1
97068.2
97125.3
160588
160676
160734
96910.9
97023.9
97081.2
92148.2
92109.7
92093
152225
152226
152226
92125.5
92083.7
92063.9
84977.5
84974.8
84975
136147
136154
136153
84963.1
84960.8
84961.5
)
;

boundaryField
{
    fuel
    {
        type            zeroGradient;
    }
    primary_air
    {
        type            zeroGradient;
    }
    Secondary_air_RHS
    {
        type            zeroGradient;
    }
    Secondary_air_LHS
    {
        type            zeroGradient;
    }
    outlet
    {
        type            totalPressure;
        rho             rho;
        psi             none;
        gamma           1;
        p0              uniform 100000;
        value           nonuniform List<scalar> 
18
(
88476.8
100000
88458.6
88438.3
100000
88421.1
88440.4
100000
88420.2
88424.7
100000
88426.1
88423.9
100000
88425
88461.2
100000
88463.6
)
;
    }
    stove_body
    {
        type            zeroGradient;
    }
    frontAndBack
    {
        type            empty;
    }
}


// ************************************************************************* //
