/*--------------------------------*- C++ -*----------------------------------*\
  =========                 |
  \\      /  F ield         | OpenFOAM: The Open Source CFD Toolbox
   \\    /   O peration     | Website:  https://openfoam.org
    \\  /    A nd           | Version:  6
     \\/     M anipulation  |
\*---------------------------------------------------------------------------*/
FoamFile
{
    version     2.0;
    format      ascii;
    class       surfaceScalarField;
    location    "0.5";
    object      phi;
}
// * * * * * * * * * * * * * * * * * * * * * * * * * * * * * * * * * * * * * //

dimensions      [1 0 -1 0 0 0 0];

internalField   nonuniform List<scalar> 
675
(
2.71678e-06
-9.26082e-06
0.000125694
-2.74975e-06
-1.00708e-05
0.000140104
-9.25919e-06
0.000125722
-3.02927e-06
9.28952e-06
0.000190033
3.13236e-06
1.01097e-05
0.000173647
9.30711e-06
0.000190108
2.68651e-06
0.000125712
-2.7725e-06
0.000140146
0.000125744
6.11166e-06
-1.73296e-05
0.000137316
-6.08824e-06
-1.82786e-05
0.000168813
-1.7217e-05
0.000137251
-2.75249e-06
1.73783e-05
0.000151723
3.02569e-06
1.82067e-05
0.000137282
1.72935e-05
0.000152224
6.01442e-06
0.000137441
-6.20709e-06
0.000168822
0.000137239
1.57597e-05
5.42881e-07
-1.53624e-05
7.83063e-05
8.83091e-07
-4.90201e-05
-1.22803e-06
4.9198e-05
-7.84159e-05
-2.9822e-07
1.53051e-05
-1.58876e-05
0.0088051
0.00514358
-0.0106977
0.00245074
0.00652641
0.00306254
0.00790703
-0.00218463
0.00416572
-0.00510591
0.0114665
-0.00375525
-0.00646425
0.026276
-0.00792934
0.0174607
0.00888746
-0.0107432
0.00257804
0.00308088
-0.0020926
0.0184513
0.0134883
-0.0425908
-0.0157148
-0.00296115
0.0402368
0.0113501
-0.0292037
0.00294698
-0.0135498
0.0356442
-0.00231805
0.00298034
0.025657
-0.0112516
0.0378383
0.0183495
-0.0425903
-0.0157777
0.0402324
-0.0290775
0.00409907
0.0363315
-0.0829763
-0.0095439
0.00501762
0.0489087
0.0363672
-0.0750666
-0.0715572
-0.0363343
0.179946
0.0718833
-0.00500798
-0.107688
-0.0363672
0.182538
0.0042238
-0.0830973
-0.00943762
0.0489316
-0.0748417
-0.038301
-0.0394136
-0.0307354
0.108491
0.036022
0.0081834
-0.0435343
-0.0389332
-0.0390213
-0.0266449
0.101733
0.0079856
0.0394047
0.0465457
-0.133277
-0.00229179
-0.0081254
-0.102409
0.12906
0.0390296
0.0584655
-0.138739
-0.0384477
-0.0306681
0.108565
0.0358279
-0.0433959
-0.0389647
-0.0266742
0.101567
0.00518478
-0.012916
-0.0229698
-0.0127934
0.006103
-0.0316236
-0.0223745
-0.0170049
0.0358083
0.0125849
-0.014688
-0.0207809
-0.00611079
-0.0335519
0.0224372
-0.00705912
0.00493276
-0.022976
-0.0129482
-0.0316154
-0.0171714
-0.00511718
0.000886477
-0.0187383
-0.0168274
-7.43143e-05
-0.0198368
-0.0147051
-0.0191242
0.0162807
-0.000949955
-0.0291322
0.010946
0.000292477
-0.0285809
0.0148428
-0.0256595
-0.00552578
-0.0183977
-0.0170137
-0.0198363
-0.0193431
-0.00145441
-0.00121325
-0.091271
0.00122292
0.000261226
0.0459732
-0.0010622
-0.0837838
-0.00417281
0.00121631
0.164058
0.00488101
-0.000258925
-0.116217
0.00105826
0.167791
-0.00146215
-0.0913766
0.00121392
0.0459996
-0.0835774
-0.00148147
-0.000491717
-0.100147
0.00127915
-0.000549417
0.043765
-0.000347755
-0.0930214
-0.00214051
0.000494062
0.147826
0.00260722
0.000550445
-0.122059
0.000344616
0.152491
-0.00148912
-0.100239
0.00127043
0.0437935
-0.0928322
-0.00306732
0.000416754
0.00275514
-0.000987614
0.00048173
-0.00228382
-0.000418038
0.00274435
0.000989417
-0.000483279
-0.00308266
0.00273863
0.00673154
-0.00182551
-0.00835057
-0.0152933
-0.00616996
-0.0011347
-0.0057991
-0.00202541
-0.00794415
-0.0153248
0.00583515
0.00186637
-0.0197793
-0.0188784
-0.0079954
0.00115244
-0.017037
0.001957
-0.0188573
-0.0187794
0.00701279
-0.00821389
-0.0153302
-0.00583893
-0.00583212
-0.00807202
-0.0151526
0.00394381
0.000380117
-0.00154844
-0.0111254
-0.00479379
0.00163734
0.00130286
0.000183066
-0.00164247
-0.0112775
0.00315818
-0.000261575
-0.00913177
-0.0131631
-0.00312092
-0.00166507
-0.00745467
-0.000290416
-0.00825025
-0.0132538
0.0043377
-0.00159225
-0.0112212
-0.00436143
0.00120227
-0.00166565
-0.0110592
0.000684792
0.00166753
-0.00389989
-0.000552411
0.00254202
0.00149843
-0.00369303
0.000713273
-0.00155599
-0.00662098
-0.00171448
-0.00248487
-0.00156445
-0.00690124
0.000682545
-0.00383172
-0.000600126
-0.00383086
-0.0139215
-0.000573131
-0.000830855
-0.0143702
0.00163898
-0.00119061
0.00196011
-0.00512082
-0.0112083
-0.0183613
0.000541701
-0.00153292
-0.0158046
-0.00162989
0.000712908
-0.00193273
0.00236171
-0.0142732
-0.0138254
-0.000785598
-0.014354
-0.00110133
-0.00498907
-0.0112989
-0.0112341
-0.000552977
-0.000321813
-0.0114678
0.000898849
-0.00185616
6.65181e-05
-0.00584207
-0.010813
-0.015159
0.000507852
-0.000688728
-0.0130507
-0.000907243
0.000410004
-0.000158922
0.00259346
-0.013057
-0.0110822
-0.000254539
-0.0113758
-0.00171487
-0.00571136
-0.010813
-0.00404448
2.89938e-05
-0.00570878
-0.000192817
-0.00180987
-0.009742
-0.00749806
-6.22875e-05
-0.00736214
8.18971e-05
0.00175706
-0.00833478
-0.00414655
-0.00577969
-0.00973268
0.0144108
0.00194502
-0.00497533
-0.0113802
0.0139323
0.00163976
-0.00116125
-0.000545852
-0.000814746
0.0158391
-0.0019404
0.00236082
-0.0143136
0.0183596
-0.00162778
0.000748056
0.000562155
-0.00162613
0.0144229
-0.00500808
-0.0113553
0.0139436
-0.00114869
-0.000824555
0.0114411
0.000165146
-0.00571507
-0.0108666
0.0111669
0.000931197
-0.00181829
-0.000527325
-0.000245615
0.0129745
-0.00014321
0.00267063
-0.0129756
0.0151798
-0.000917071
0.000390926
0.000550588
-0.000687668
0.011483
-0.00576633
-0.010868
0.0112027
-0.0017858
-0.00029265
0.00583882
-0.00181562
-0.00973862
0.00418999
-0.00016954
4.4723e-05
0.00713447
0.00181797
-0.00809658
0.00723217
0.000123987
-3.17777e-05
0.00581882
-0.00976758
0.00415644
0.0047804
0.00164506
-0.00642552
0.00770849
0.00145654
-0.00438477
0.0016472
-0.00531902
0.00659455
-0.00163911
-0.00331031
0.0106814
-0.00144864
-0.00118112
-0.00163974
-0.000344504
0.00476663
-0.006406
0.00767368
-0.0043559
-0.00532147
0.00373297
0.00146064
-0.0116192
0.00734479
0.00134107
-0.00933802
0.00106404
-0.00990492
0.00503529
-0.00145509
-0.00542978
0.00959514
-0.00133235
-0.00306737
-0.00104856
-0.00161213
0.00372281
-0.011584
0.0073231
-0.00928863
-0.00991509
0.00461748
0.0032287
-0.0194654
0.00556574
0.00160813
-0.0118946
0.000675541
-0.0147537
0.0055024
-0.00321713
-0.00448628
0.00904261
-0.00160122
-0.0033982
-0.000670593
0.000680344
0.00457192
-0.0193731
0.00554081
-0.0118592
-0.0148129
-0.00551395
0.0115421
-0.0254954
-0.00138863
0.0101347
-0.0261563
0.0100073
-0.0261517
0.000550538
-0.011545
0.0180504
-0.00286
-0.0101549
0.020302
-0.0100212
0.0178497
-0.00544635
-0.025472
-0.0013234
-0.0261376
-0.0261581
0.00056977
0.00637477
-0.0324413
0.000879162
0.00640559
-0.0328725
0.00687656
-0.0321502
-0.00109706
-0.00638721
0.0319084
-0.000462377
-0.00641369
0.0324855
-0.00688263
0.0311455
0.000577182
-0.032437
0.000892298
-0.0328667
-0.0321488
4.79151e-05
0.0189008
-0.000269508
0.0188367
0.0189023
-0.000246561
-0.0189025
0.000272813
-0.0188388
-0.0189017
4.81303e-05
-0.000267368
-0.00748581
0.00162581
-0.00534806
-0.00468325
0.00142329
-0.00422583
0.0016176
-0.00630066
-0.0106361
-0.0016307
-0.000379587
-0.00656399
-0.00142795
-0.00122019
-0.00161656
-0.00332969
-0.00762771
-0.00530313
-0.00476657
-0.00428862
-0.00638394
-0.00720165
0.000964666
-0.00992402
-0.00366055
0.00131424
-0.00908153
0.00144641
-0.0114076
-0.00957258
-0.00104832
-0.00185126
-0.00498913
-0.00135058
-0.0031381
-0.0014522
-0.00542039
-0.00725253
-0.00991088
-0.00367621
-0.00921817
-0.0115113
-0.00539638
0.000687084
-0.0149566
-0.00447225
0.00158922
-0.0115949
0.00318956
-0.0190688
-0.00905483
-0.000708698
0.000265316
-0.00545569
-0.00164312
-0.00350461
-0.00321871
-0.00446714
-0.0054644
-0.01489
-0.00463845
-0.0116871
-0.0193692
0.000917547
0.0101051
-0.0259806
0.00515499
0.0101385
-0.0259733
0.0113951
-0.0253106
0.0020344
-0.00963798
0.017975
-0.000965896
-0.0104871
0.0201208
-0.0119693
0.0179325
0.0019435
-0.0264753
0.00592812
-0.0261603
-0.025413
-0.000893232
0.00696793
-0.0320576
-0.000566195
0.00649759
-0.0328001
0.0064902
-0.032371
0.000534863
-0.00681247
0.0312178
0.00106335
-0.00631996
0.0324066
-0.00631036
0.031793
-0.00110774
-0.0321801
-0.000707671
-0.0328808
-0.0324321
0.000287283
0.0189472
-3.59801e-05
0.0188872
0.018953
-0.000186086
-0.0188977
0.000283526
-0.0188327
-0.0189037
0.000250729
-6.42387e-05
)
;

boundaryField
{
    fuel
    {
        type            calculated;
        value           nonuniform List<scalar> 
36
(
0.000122359
0.000203699
0.000122359
0.000122357
0.0002037
0.000122357
0.000122359
0.000203699
0.000122359
-0.000122357
-0.0002037
-0.000122357
-0.00012236
-0.000203696
-0.00012236
-0.000122357
-0.0002037
-0.000122357
0
0
0
0
0
0
0
0
0
0
0
0
0
0
0
0
0
0
)
;
    }
    primary_air
    {
        type            calculated;
        value           nonuniform List<scalar> 9(-0.00320446 -0.00532316 -0.00320443 -0.00320391 -0.00532404 -0.00320387 -0.00320396 -0.00532559 -0.00320393);
    }
    Secondary_air_RHS
    {
        type            calculated;
        value           nonuniform List<scalar> 9(0.0110054 0.0175127 0.0110103 0.0108677 0.0172198 0.0108725 0.0109885 0.0174662 0.0109924);
    }
    Secondary_air_LHS
    {
        type            calculated;
        value           nonuniform List<scalar> 9(0.0109653 0.0176364 0.010961 0.0108526 0.0173917 0.0108486 0.0109966 0.0176729 0.0109939);
    }
    outlet
    {
        type            calculated;
        value           nonuniform List<scalar> 
18
(
-0.0512934
0.0692479
-0.0513281
-0.0513654
0.0696567
-0.051398
-0.0513611
0.069933
-0.0513993
-0.0513907
0.0699567
-0.0513879
-0.0513924
0.06964
-0.0513904
-0.0513227
0.0692207
-0.0513183
)
;
    }
    stove_body
    {
        type            calculated;
        value           uniform 0;
    }
    frontAndBack
    {
        type            empty;
        value           nonuniform 0();
    }
}


// ************************************************************************* //
