/*--------------------------------*- C++ -*----------------------------------*\
  =========                 |
  \\      /  F ield         | OpenFOAM: The Open Source CFD Toolbox
   \\    /   O peration     | Website:  https://openfoam.org
    \\  /    A nd           | Version:  6
     \\/     M anipulation  |
\*---------------------------------------------------------------------------*/
FoamFile
{
    version     2.0;
    format      ascii;
    class       volScalarField;
    location    "0.5";
    object      T;
}
// * * * * * * * * * * * * * * * * * * * * * * * * * * * * * * * * * * * * * //

dimensions      [0 0 0 1 0 0 0];

internalField   nonuniform List<scalar> 
297
(
292.692
292.687
292.692
292.952
292.939
292.952
292.692
292.687
292.692
293.083
292.785
293.05
294.429
293.114
294.416
293.069
292.784
293.059
311.6
299.909
309.2
491.778
313.499
490.276
310.405
299.827
309.949
554.672
465.251
457.347
394.837
379.153
339.559
554.472
465.955
455.457
632.239
624.844
695.471
585.637
424.011
575.058
631.576
625.1
696.698
633.56
643.568
697.899
561.863
498.231
579.401
632.979
643.777
699.101
524.71
495.814
566.39
671.878
494.609
698.057
524.387
496.308
566.762
399.346
362.616
499.722
582.823
478.972
655.212
397.585
362.872
499.707
301.648
301.825
301.805
302.131
302.03
302.161
301.853
301.836
301.808
620.41
643.147
684.404
584.117
495.456
604.157
619.005
643.359
686.402
580.466
642.236
616.056
599.291
494.268
637.538
580.029
642.445
616.858
550.156
640.388
596.983
655.722
494.17
679.049
549.795
640.592
597.689
301.526
302.142
301.522
302.116
302.282
302.118
301.523
302.164
301.549
301.878
302.066
301.902
302.367
302.33
302.35
301.903
302.073
301.892
302.098
302.062
302.098
302.471
302.339
302.475
302.128
302.081
302.094
301.401
301.457
301.598
301.96
301.965
302.062
301.445
301.494
301.622
301.864
301.756
301.819
302.241
302.222
302.264
301.87
301.758
301.831
302.165
302.07
301.915
302.542
302.54
302.508
302.125
302.029
301.893
301.594
301.452
301.404
302.069
301.969
301.962
301.612
301.479
301.428
301.796
301.745
301.859
302.262
302.218
302.236
301.834
301.765
301.878
301.883
302.029
302.129
302.501
302.537
302.542
301.922
302.066
302.163
302.06
302.031
301.757
302.438
302.392
302.216
302.045
302.026
301.768
301.982
301.959
301.737
302.557
302.503
302.379
301.993
301.965
301.771
301.866
301.759
301.688
302.653
302.542
302.522
301.893
301.794
301.736
301.756
301.614
301.566
302.855
302.497
302.802
301.761
301.621
301.613
298.803
298.7
298.828
300.407
301.387
301.778
298.76
298.699
298.625
292.046
292.072
292.092
289.335
289.44
289.591
292.046
292.072
292.092
301.748
302.005
302.026
302.209
302.383
302.429
301.783
302.04
302.052
301.749
301.956
301.987
302.384
302.505
302.558
301.784
301.989
302.009
301.71
301.772
301.899
302.531
302.549
302.662
301.703
301.788
301.884
301.601
301.616
301.775
302.805
302.533
302.873
301.587
301.642
301.768
298.638
298.695
298.688
301.743
301.393
300.407
298.678
298.542
298.77
292.086
292.066
292.042
289.564
289.413
289.328
292.09
292.07
292.047
)
;

boundaryField
{
    fuel
    {
        type            fixedValue;
        value           uniform 293;
    }
    primary_air
    {
        type            fixedValue;
        value           uniform 293;
    }
    Secondary_air_RHS
    {
        type            fixedValue;
        value           uniform 293;
    }
    Secondary_air_LHS
    {
        type            fixedValue;
        value           uniform 293;
    }
    outlet
    {
        type            inletOutlet;
        inletValue      uniform 293;
        value           nonuniform List<scalar> 
18
(
293
289.564
293
293
289.413
293
293
289.328
293
293
289.335
293
293
289.44
293
293
289.591
293
)
;
    }
    stove_body
    {
        type            fixedValue;
        value           uniform 293;
    }
    frontAndBack
    {
        type            empty;
    }
}


// ************************************************************************* //
