/*--------------------------------*- C++ -*----------------------------------*\
  =========                 |
  \\      /  F ield         | OpenFOAM: The Open Source CFD Toolbox
   \\    /   O peration     | Website:  https://openfoam.org
    \\  /    A nd           | Version:  6
     \\/     M anipulation  |
\*---------------------------------------------------------------------------*/
FoamFile
{
    version     2.0;
    format      ascii;
    class       volScalarField;
    location    "3.5";
    object      O2;
}
// * * * * * * * * * * * * * * * * * * * * * * * * * * * * * * * * * * * * * //

dimensions      [0 0 0 0 0 0 0];

internalField   nonuniform List<scalar> 
297
(
0
0
0
0
0
0
0
0
0
0
0
0
0
0
0
0
0
0
0
0
0
0
0
0
0
0
0
0.0424539
0.0538108
0.103804
0.0172839
0.0265005
0.0797736
0.0423608
0.0538575
0.105557
0
0.00594697
0.0585416
0
0.00033928
0.0469192
0
0.00541654
0.0561888
0
0.000648224
0.0411463
0
0.00025045
0.0420812
0
0.000913527
0.0387873
0
0
0
1.12423e-05
3.66973e-05
0
4.1721e-06
0
0
0
0
0
0
0
0
0
0
0
0
0
0
0
0
0
0
0
0
0
7.39287e-05
0.00628023
0
0.000245903
0.0235201
0
2.37785e-06
0.0043447
0
3.38932e-06
0
0
0.000244872
0.00198355
0
1.94541e-06
0
0
7.80684e-07
0
0
0.000241867
0
0
1.98091e-07
0
0
0
0
1.96237e-17
2.46516e-16
1.20015e-15
1.54948e-17
2.95462e-15
0
0
0
0
2.9303e-22
2.75091e-21
1.99161e-20
2.04508e-21
1.72856e-19
0
0
0
0
2.02048e-24
0
0
1.70475e-23
8.67941e-22
8.53209e-21
1.54447e-17
7.70043e-22
8.06274e-27
1.13657e-18
7.99709e-23
2.13146e-27
2.35066e-17
9.30461e-22
1.52709e-26
2.33411e-19
4.2316e-24
8.3034e-29
4.44974e-21
2.35944e-24
1.81389e-28
2.48536e-20
1.58979e-24
7.90339e-29
6.93564e-21
3.57017e-25
1.09299e-29
2.01653e-22
1.70072e-26
1.27546e-29
7.3524e-25
1.15406e-27
1.13273e-30
1.02649e-27
1.97458e-27
2.90749e-25
1.56504e-25
1.7009e-25
5.86332e-22
1.53803e-24
1.33675e-24
4.6091e-23
2.72057e-27
1.76228e-26
2.07097e-26
7.3054e-23
7.91694e-23
1.00803e-22
9.48349e-24
1.00226e-23
1.37278e-23
2.69879e-27
1.83953e-26
2.49798e-26
6.80097e-23
4.58137e-23
4.0821e-24
1.86956e-23
8.4272e-24
5.84623e-24
3.75757e-28
3.50686e-28
5.12696e-28
2.72454e-26
3.0248e-25
2.84313e-25
1.6179e-25
1.65293e-24
1.72659e-24
3.50787e-28
2.8121e-28
5.01079e-28
1.18552e-25
3.43293e-25
8.64724e-24
5.15078e-25
3.35999e-24
3.8111e-24
4.61122e-28
2.57279e-28
5.96813e-28
5.5582e-24
2.80526e-23
5.6388e-23
8.76419e-25
5.19758e-24
2.27294e-23
1.92306e-28
2.24443e-28
4.71826e-28
7.90377e-24
2.88523e-23
4.21637e-23
1.24921e-24
1.60082e-23
2.60871e-23
4.38377e-29
1.42374e-28
4.70329e-28
5.79743e-24
1.93533e-23
3.77222e-23
1.34807e-24
9.40994e-24
2.66961e-23
1.12314e-29
3.98955e-29
1.07037e-28
3.06053e-24
1.09319e-23
2.84434e-23
9.25569e-25
8.26958e-24
2.84359e-23
1.14186e-31
6.78598e-36
1.42192e-36
1.12518e-31
1.73885e-35
9.07352e-36
7.75281e-31
5.65248e-35
2.76473e-35
1.81668e-33
5.76312e-38
8.11737e-38
3.8112e-33
2.08849e-37
5.19147e-36
1.61472e-33
5.28881e-38
3.3908e-36
2.10728e-34
2.74655e-39
1.42443e-39
3.64411e-34
1.47434e-38
3.04983e-36
1.93861e-35
3.77776e-40
9.59122e-40
6.14538e-40
4.93408e-41
1.85746e-40
2.66448e-39
8.98526e-40
1.47715e-36
8.21082e-41
5.82348e-41
1.44476e-40
6.36528e-43
5.80389e-42
1.19078e-41
3.57304e-38
3.23333e-37
1.33672e-36
6.84701e-43
4.5192e-42
1.55178e-41
1.00575e-43
7.96022e-43
2.80055e-42
2.75336e-38
2.10162e-37
7.47844e-37
1.83011e-43
1.48505e-42
5.18513e-42
)
;

boundaryField
{
    fuel
    {
        type            fixedValue;
        value           uniform 0;
    }
    primary_air
    {
        type            fixedValue;
        value           uniform 0.23;
    }
    Secondary_air_RHS
    {
        type            fixedValue;
        value           uniform 0.23;
    }
    Secondary_air_LHS
    {
        type            fixedValue;
        value           uniform 0.23;
    }
    outlet
    {
        type            inletOutlet;
        inletValue      uniform 0;
        value           nonuniform List<scalar> 
18
(
0
2.75336e-38
0
0
2.10162e-37
0
0
7.47844e-37
0
0
3.06053e-24
0
0
1.09319e-23
0
0
2.84434e-23
0
)
;
    }
    stove_body
    {
        type            fixedValue;
        value           uniform 0;
    }
    frontAndBack
    {
        type            empty;
    }
}


// ************************************************************************* //
