/*--------------------------------*- C++ -*----------------------------------*\
  =========                 |
  \\      /  F ield         | OpenFOAM: The Open Source CFD Toolbox
   \\    /   O peration     | Website:  https://openfoam.org
    \\  /    A nd           | Version:  6
     \\/     M anipulation  |
\*---------------------------------------------------------------------------*/
FoamFile
{
    version     2.0;
    format      ascii;
    class       surfaceScalarField;
    location    "3.5";
    object      phi;
}
// * * * * * * * * * * * * * * * * * * * * * * * * * * * * * * * * * * * * * //

dimensions      [1 0 -1 0 0 0 0];

internalField   nonuniform List<scalar> 
675
(
8.73877e-07
-5.38918e-05
0.00015777
7.71803e-07
-5.27777e-05
0.000157489
-5.10421e-05
0.000156559
-2.11881e-06
5.39008e-05
0.000135766
2.15944e-07
5.27722e-05
0.000133659
5.10389e-05
0.000139854
8.79528e-07
0.000157772
7.72512e-07
0.000157488
0.000156557
7.65102e-07
-6.41581e-05
0.000200012
-1.8426e-07
-6.29061e-05
0.000200077
-5.99326e-05
0.00019519
-3.23167e-06
6.41655e-05
5.3845e-05
-6.93183e-06
6.28985e-05
5.47329e-05
5.99288e-05
5.62819e-05
7.70694e-07
0.000200015
-1.82631e-07
0.000200071
0.000195188
9.48971e-07
5.17266e-05
3.00025e-06
5.06071e-05
5.0934e-05
2.82114e-07
-5.17234e-05
-1.02388e-06
-5.06036e-05
-5.09367e-05
9.54746e-07
3.00385e-06
0.0240755
-0.0186692
-0.00254449
0.0264787
-0.00830536
0.0113655
0.00254431
0.0290584
0.0344609
0.0188563
-0.064937
0.0401511
0.00769979
-0.0126109
-0.00403145
0.0520841
0.0234641
-0.00216129
0.0255214
0.0120065
0.0283964
0.0269024
-0.0124875
-0.0181285
0.0199854
0.000858111
0.0145229
0.00931
0.0378819
0.0398976
0.01339
-0.131305
0.025575
-0.00120161
-0.00144978
-0.0109878
0.0988933
0.0285933
-0.0220797
0.0196177
0.0135162
0.0375715
0.0155657
0.00727696
-0.0431579
0.0329911
0.012334
-0.0137599
0.0154864
0.0572744
0.0367292
-0.00876107
-0.1532
0.0226572
-0.0130893
0.0362493
-0.0140517
0.143491
0.0191616
-0.0489172
0.0369809
-0.0175766
0.0586771
-0.0223306
0.0163014
-0.0728898
0.071469
-0.0218305
-0.0125978
-0.0117596
0.0222643
-0.00282723
0.0438094
-0.0603209
-0.0401221
-0.0192248
-0.059501
0.138031
-0.029176
0.00812961
-0.00890391
-0.0170873
0.00223298
0.0546696
-0.0875099
-0.0215071
-0.0741957
0.079935
-0.0191812
-0.0145089
0.0262452
0.0433351
-0.0601164
-0.0226699
-0.0143694
-0.028843
-0.0210689
-0.00553253
-0.00520422
0.00320291
0.0211305
-0.0432942
0.0147481
-0.0528902
-0.0412276
0.00365917
-0.0239227
-0.0021512
0.0181742
-0.0197865
-0.0311485
-0.0215118
-0.008781
0.0180666
-0.0145454
0.00121937
-0.0169326
-0.0140697
-0.00304473
-0.00303656
0.00319975
0.00292684
-0.0257377
0.00134541
-0.0315704
-0.0328724
0.000208775
-0.0162653
-0.00292993
-0.00765133
-0.0113526
-0.0234374
-0.0134631
-0.00807016
0.000204525
-0.00175473
0.000292709
-0.048091
0.00232606
-0.000288442
-0.0175046
-0.0144565
0.0684022
-0.00120509
-0.000269856
-0.160972
0.00477064
0.000278855
0.0300459
0.013614
0.110194
-0.00188455
-0.0543898
0.00213137
-0.0211634
0.0684099
-0.00190405
0.00049176
-0.0530172
0.000397596
-0.000252653
-0.0195124
-0.00197559
0.0650788
-0.00180187
-0.00063858
-0.167343
0.00230188
0.000286376
0.0257258
0.00203238
0.0984719
-0.00192523
-0.0600296
0.00051213
-0.0231466
0.0649135
-0.0028462
0.0148994
-1.2904e-05
-3.23365e-05
-0.00104934
-0.00779419
-0.0158891
0.00133958
-0.000232555
0.0010475
-0.0028739
0.000236183
-0.00373823
-0.000817815
-0.00471599
-0.00783537
-0.00782056
4.54353e-07
0.000474542
-0.000134954
0.00542408
-0.0108022
-0.0120211
0.000252709
-0.0150721
-0.00474495
-0.0167251
-0.00109632
-0.0102632
0.000198353
-0.00644168
-0.0177529
-0.00102494
-0.00768556
-0.0137948
-0.0102675
-0.000149854
0.000616697
-0.0123516
-0.00864485
0.00107781
-0.00282888
0.00591162
-0.0096708
0.000328394
0.000472054
2.00874e-05
0.00457974
-0.0094056
-0.00714215
-0.00234682
-0.00699225
0.00376306
-0.010888
-0.00180518
-0.00461621
2.57922e-05
-0.0035913
-0.0136482
-0.00391529
0.00287268
-0.00758133
-0.00964373
0.00385563
0.00155071
-0.0098229
-0.00340264
0.00217159
-0.00120466
-0.0053484
0.00163247
0.000852094
-0.00260822
-0.00324613
-0.003433
0.00348743
-0.00344693
-0.00313623
-0.00175942
-0.00487952
-0.00258055
0.00386326
-0.00174639
-0.00105761
-0.0114828
0.000210686
0.000249231
-0.0119592
0.00150577
-0.00105867
0.00142839
-0.00511157
-0.00815731
-0.0161888
-9.54232e-06
-0.00070654
-0.0131775
-0.00141722
0.000826513
-0.00138876
0.0016323
-0.0111492
-0.0119569
-0.000423612
-0.0124114
-0.00119349
-0.00545878
-0.00862161
-0.00963556
0.000177729
0.00023333
-0.00923744
0.000885288
-0.0022103
5.80392e-07
-0.00577837
-0.00840458
-0.0134183
5.31238e-06
-0.000197844
-0.0102552
-0.00079372
0.000181807
0.000150364
0.00218244
-0.0101899
-0.00975341
-0.00050559
-0.00949259
-0.00246849
-0.0062373
-0.0088107
-0.00248123
0.000133098
-0.00415587
-0.000317504
-0.00147192
-0.00821381
-0.00437494
-0.000140323
-0.00424573
0.000486523
0.00162899
-0.00448842
-0.00174674
-0.00390481
-0.00872894
0.00743925
0.00165284
-0.00222426
-0.00667834
0.0077332
0.000711606
-0.000810152
0.000151113
-7.55285e-05
0.00355588
0.000845368
0.00136285
-0.00386768
0.00385722
0.000712303
0.000368019
0.00027354
-0.000226754
0.0136256
0.000880196
-0.0137094
0.0136269
0.00104709
0.000623244
-0.000979841
0.00164261
0.00109397
-0.00376076
-0.00453793
0.000834867
0.00209587
0.00104249
0.000440922
-0.00555233
0.000748904
0.00597448
0.00204155
-0.00613422
-0.000133473
0.00246824
-2.63751e-05
-0.000750314
0.0081803
0.00174665
-0.00836663
0.00822559
0.0011854
0.00179467
5.321e-05
0.00147642
-0.000266507
0.0014652
0.000944127
0.000892289
-0.007869
0.000993965
0.0144941
-0.00427692
0.000327526
4.46513e-05
-0.00803922
0.0106703
-0.00626368
-0.00308386
0.00243751
0.000448208
0.00239547
0.00215927
-0.00775449
0.00180991
-0.00608712
0.00288268
-0.00216113
0.00116803
0.00338355
-0.00084941
0.00207468
-0.000884851
0.00202363
0.00929509
-0.0121101
0.0142906
-0.00637542
-0.000612505
-0.00254857
0.00228693
0.000519177
0.00143533
0.00202561
-0.0138857
0.00165665
-0.0100761
0.00262755
-0.0018419
0.00215875
0.00121862
-0.000421319
0.00553307
-0.000446266
0.00727553
0.00732585
-0.0219287
0.00986797
-0.00986264
0.000116492
-0.00278185
0.00171629
0.00141752
0.0033294
0.00310503
-0.0232241
0.00135392
-0.0083928
-0.00298849
-0.00387927
0.0103118
-0.00875754
-0.000168632
0.0142739
0.000527168
0.0137133
0.00833742
-0.0348279
-0.000437838
-0.00170302
0.0105969
0.00753619
0.0148758
-0.0212881
-0.00409368
0.016854
-0.0287565
0.0165167
-0.0291724
-0.00832443
0.00143162
0.0317581
-0.004818
0.0047764
0.0225306
0.0035891
0.0215425
0.0060957
-0.0392444
0.0153783
-0.00594055
0.0299342
0.00448059
0.00876994
-0.0342996
0.00238204
0.00863151
-0.0350521
0.0087031
-0.0352601
0.00694792
-0.00154114
0.0351141
0.00955221
-0.00384906
0.0323741
-0.00132739
0.0410992
-0.00163022
-0.0388201
0.00568929
-0.0167802
0.0344897
0.000538748
0.0162239
0.000292517
0.0163214
0.0161736
0.00179169
-0.0217083
0.00218058
-0.0233689
-0.0226901
-0.0116603
-0.0127
-0.00248769
0.00147069
-0.00712486
0.00218313
0.00178114
-0.00655728
0.00163551
0.000355028
-0.00486657
-0.00150533
-0.00300949
0.00195906
-0.00179492
-0.00328667
-0.0016632
0.00500519
-0.00288159
-0.00737951
0.00200418
-0.00671406
0.000373
-0.00473895
0.00102914
-0.0118026
0.00105626
0.00152175
-0.0139903
0.00163724
-0.000411175
-0.00539606
-0.00101144
-0.00552015
0.000555934
-0.00153403
-0.00625378
-0.00164771
0.00859216
-0.00519719
-0.0121303
0.000858763
-0.014361
-0.000408376
-0.00712428
0.00166416
-0.0145377
0.00367145
0.00423442
-0.0291713
0.00144517
0.00164242
-0.00463994
-0.00161086
-0.00192452
0.000785891
-0.0043321
-0.00322118
-0.00145264
0.0120421
-0.00778883
-0.0148256
0.0034258
-0.0300141
0.00154869
0.00245038
0.0104894
-0.0276305
-0.0117517
0.010812
-0.026067
0.00846777
-0.0189724
0.00469996
-0.0104456
0.0135675
0.00266113
-0.0108632
0.0196149
-0.00847564
0.0306671
0.00240369
-0.0277723
-0.012189
-0.0263536
-0.0191511
-0.00391163
0.00722135
-0.0305637
-0.00449404
0.00651467
-0.0316247
0.00709125
-0.0301862
-0.00421989
-0.00711575
0.0320098
-0.00683291
-0.00639783
0.0350266
-0.0069769
0.0378415
-0.00387593
-0.030633
-0.00453306
-0.0317087
-0.0302726
0.000135363
0.0189358
-0.000611196
0.0187914
0.0188002
-0.00310148
-0.0188725
-0.00374511
-0.0187267
-0.0187353
0.000145513
-0.000604519
)
;

boundaryField
{
    fuel
    {
        type            calculated;
        value           nonuniform List<scalar> 
36
(
0.000125222
0.000208681
0.000125222
0.000125222
0.000208681
0.000125222
0.000125222
0.000208681
0.000125222
-0.000125221
-0.000208664
-0.000125221
-0.000125222
-0.000208664
-0.000125222
-0.000125222
-0.000208663
-0.000125222
0
0
0
0
0
0
0
0
0
0
0
0
0
0
0
0
0
0
)
;
    }
    primary_air
    {
        type            calculated;
        value           nonuniform List<scalar> 9(-0.0032491 -0.00544268 -0.00323276 -0.00319726 -0.00535032 -0.00319414 -0.00316345 -0.00530699 -0.00318643);
    }
    Secondary_air_RHS
    {
        type            calculated;
        value           nonuniform List<scalar> 9(0.00594302 0.01035 0.00597882 0.00593795 0.0102898 0.00598656 0.00597557 0.0102969 0.00603457);
    }
    Secondary_air_LHS
    {
        type            calculated;
        value           nonuniform List<scalar> 9(0.00621561 0.00960789 0.00613783 0.00621949 0.00954044 0.00611843 0.00626282 0.00959804 0.00614807);
    }
    outlet
    {
        type            calculated;
        value           nonuniform List<scalar> 
18
(
-0.0496033
0.0727383
-0.049634
-0.0496384
0.0730037
-0.0496693
-0.0495666
0.071396
-0.0495968
-0.0510254
0.0710228
-0.0487789
-0.0510866
0.0714584
-0.0390427
-0.0510971
0.0819038
-0.000927063
)
;
    }
    stove_body
    {
        type            calculated;
        value           uniform 0;
    }
    frontAndBack
    {
        type            empty;
        value           nonuniform 0();
    }
}


// ************************************************************************* //
