/*--------------------------------*- C++ -*----------------------------------*\
  =========                 |
  \\      /  F ield         | OpenFOAM: The Open Source CFD Toolbox
   \\    /   O peration     | Website:  https://openfoam.org
    \\  /    A nd           | Version:  6
     \\/     M anipulation  |
\*---------------------------------------------------------------------------*/
FoamFile
{
    version     2.0;
    format      ascii;
    class       volScalarField;
    location    "3.5";
    object      T;
}
// * * * * * * * * * * * * * * * * * * * * * * * * * * * * * * * * * * * * * //

dimensions      [0 0 0 1 0 0 0];

internalField   nonuniform List<scalar> 
297
(
292.862
292.862
292.862
293.007
293.008
293.007
292.862
292.862
292.862
292.87
292.87
292.871
293.067
293.07
293.073
292.87
292.87
292.871
292.913
292.913
292.918
296.456
296.741
297.22
292.913
292.913
292.918
974.001
913.961
760.553
1034.3
1004.67
853.766
957.875
915.359
759.509
1213.15
1159.66
886.623
1085.35
1095.31
923.153
1110.79
1074.55
890.593
1299.35
1266.91
1053.48
1085.38
1142.87
963.18
1133.17
1162.21
981.454
976.905
1270.38
1322.5
895.4
1168.72
1204.47
851.701
1223.88
1270.52
911.45
1289.5
1328.09
770.167
1110.13
1212.63
779.012
1209.04
1271.12
559.284
1217.51
1330.35
485.205
867.053
1037.58
485.057
1047.51
1265.65
1248.83
1269.03
1137.97
1029.04
1141.28
1028.42
1072.71
1227.66
1083.43
1135.12
1269.33
1217.41
986.157
1140.94
1064.1
980.936
1225.72
1164.42
1042.71
1269.72
1301.42
949.841
1142.44
1186.29
906.309
1224.69
1247.44
371.828
535.487
523.574
311.521
308.196
302.956
303.04
351.724
363.426
364.712
371.918
373.469
315.661
307.6
301.932
305.295
311.13
308.472
342.631
334.027
332.4
318.278
312.865
303.674
305.65
306.71
304.307
299.788
299.77
300.201
300.222
300.609
301.275
300.32
300.522
300.862
300.032
300.037
300.36
300.432
300.842
301.478
300.614
300.726
300.987
300.2
300.21
300.435
300.704
301.173
301.704
300.732
300.89
301.016
302.809
309.64
309.717
302.106
302.925
303.631
299.416
299.217
299.128
311.007
364.664
364.295
322.419
331.562
327.067
302.025
301.7
301.29
305.925
355.464
359.686
326.023
333.047
327.592
306.865
305.179
304.657
303.242
302.981
302.203
302.063
302.299
301.977
299.893
300.37
299.693
303.296
302.632
301.795
302.174
302.531
303.501
299.788
300.938
300.902
303.012
302.189
301.421
302.926
309.128
318.989
299.328
301.553
307.235
300.852
300.462
300.223
300.241
305.721
308.804
297.973
300.507
301.466
298.227
298.02
297.277
299.147
303.606
306.565
294.966
295.024
298.29
292.121
292.087
291.356
288.01
288.302
286.034
291.087
291.418
303.447
300.672
301.181
301.455
301.835
302.138
302.114
301.004
301.177
301.306
300.61
301.139
301.495
301.966
302.15
301.964
300.951
301.116
301.263
300.4
300.898
301.492
302.069
301.975
301.787
300.794
300.903
301.186
299.982
300.461
300.387
302.271
301.29
299.367
300.214
300.452
300.353
297.827
297.66
297.769
299.958
298.84
298.341
297.849
297.603
297.795
291.683
291.681
291.803
287.567
287.3
287.538
291.688
291.685
291.807
)
;

boundaryField
{
    fuel
    {
        type            fixedValue;
        value           uniform 293;
    }
    primary_air
    {
        type            fixedValue;
        value           uniform 293;
    }
    Secondary_air_RHS
    {
        type            fixedValue;
        value           uniform 293;
    }
    Secondary_air_LHS
    {
        type            fixedValue;
        value           uniform 293;
    }
    outlet
    {
        type            inletOutlet;
        inletValue      uniform 293;
        value           nonuniform List<scalar> 
18
(
293
287.565
293
293
287.299
293
293
287.538
293
293
288.008
293
293
288.299
293
293
286.033
293
)
;
    }
    stove_body
    {
        type            fixedValue;
        value           uniform 293;
    }
    frontAndBack
    {
        type            empty;
    }
}


// ************************************************************************* //
