/*--------------------------------*- C++ -*----------------------------------*\
  =========                 |
  \\      /  F ield         | OpenFOAM: The Open Source CFD Toolbox
   \\    /   O peration     | Website:  https://openfoam.org
    \\  /    A nd           | Version:  6
     \\/     M anipulation  |
\*---------------------------------------------------------------------------*/
FoamFile
{
    version     2.0;
    format      ascii;
    class       volScalarField;
    location    "5";
    object      O2;
}
// * * * * * * * * * * * * * * * * * * * * * * * * * * * * * * * * * * * * * //

dimensions      [0 0 0 0 0 0 0];

internalField   nonuniform List<scalar> 
297
(
0
0
0
0
0
0
0
0
0
0
0
0
0
0
0
0
0
0
0
0
0
0
0
0
0
0
0
0.0859561
0.152361
0.0857546
0.188969
0.209056
0.183395
0.0852248
0.152209
0.0863068
0
0.0287797
0
0.0364181
0.14818
0.035159
0
0.0286647
0
0
0.0303126
0
0.0236757
0.0365703
0.0234604
0
0.0302255
0
0.00476183
0.0130416
0.00463997
0
0.00178134
0
0.0048576
0.0129846
0.00472862
1.57211e-07
1.78394e-07
2.8779e-07
3.33451e-07
1.2162e-07
8.37668e-07
1.59505e-07
1.78158e-07
2.89523e-07
1.83294e-12
4.39772e-12
4.58329e-12
4.61025e-12
3.06433e-12
1.0772e-11
1.86368e-12
4.40211e-12
4.60038e-12
0
0.0302205
0
0
0.00178175
0
0
0.0301331
0
0
0.0299844
0
0
0.00178141
0
0
0.0298973
0
0
0.0291154
0
0
0.00178136
0
0
0.0290303
0
3.4636e-17
2.2946e-16
1.1486e-16
7.58904e-17
6.71454e-17
1.77313e-16
4.85061e-17
2.10601e-16
1.2156e-16
4.00437e-21
6.50991e-20
1.85434e-20
5.1618e-21
1.3556e-20
8.07257e-21
4.052e-21
5.75573e-20
1.93007e-20
5.22622e-24
3.74294e-20
8.00565e-21
9.91659e-25
9.59746e-22
1.00605e-22
4.77909e-24
3.0963e-20
6.54277e-21
1.72646e-21
4.40847e-26
5.40052e-31
1.95762e-21
2.32717e-26
2.97032e-31
1.83474e-21
4.70477e-26
5.78837e-31
2.85205e-25
1.65678e-29
8.43208e-34
1.79044e-25
8.73744e-28
2.99273e-32
2.94467e-25
1.86169e-29
8.85322e-34
7.41492e-25
4.255e-29
1.29548e-33
2.33285e-27
3.93475e-29
2.6159e-33
6.06347e-25
3.53117e-29
1.10934e-33
8.51871e-32
7.01648e-27
5.22703e-22
1.12106e-31
9.16562e-27
8.42992e-22
2.44982e-31
9.97405e-27
7.33796e-22
1.13981e-34
2.08252e-30
6.2496e-26
1.15126e-32
3.48702e-28
9.88328e-26
1.89384e-34
4.31502e-30
1.19285e-25
1.83706e-34
1.13836e-30
4.69243e-28
2.10678e-33
1.58367e-29
4.57622e-29
1.991e-34
1.7204e-30
4.46176e-28
4.50907e-45
1.68846e-40
3.00771e-36
3.20046e-44
2.24967e-40
2.39862e-36
4.08904e-44
5.06308e-40
8.69012e-36
1.74376e-47
2.36086e-43
4.9749e-39
3.54964e-46
5.05817e-42
1.89991e-37
9.85436e-47
2.66336e-43
7.2916e-39
2.2892e-47
8.56742e-44
3.47678e-39
1.28063e-46
1.18593e-42
4.52075e-38
8.92801e-47
9.35688e-44
4.07201e-39
3.79165e-47
2.45798e-46
1.30023e-44
7.55747e-47
2.55318e-44
4.40871e-43
8.71215e-47
7.55513e-46
2.60307e-44
1.39699e-50
2.09671e-49
2.05278e-48
1.73587e-45
2.66733e-44
2.70196e-43
1.35672e-50
3.10525e-49
2.01852e-48
2.85331e-51
4.3274e-50
3.95429e-49
8.39078e-46
1.24799e-44
1.16078e-43
4.82105e-51
7.38484e-50
6.67519e-49
1.02426e-35
5.92752e-40
4.76436e-44
6.32805e-36
2.49696e-40
4.69597e-44
2.0514e-35
6.59581e-40
5.38542e-44
3.51154e-38
1.75927e-42
3.16686e-46
4.89126e-37
1.30117e-41
1.31879e-45
3.63034e-38
1.17517e-42
7.78706e-46
2.87009e-38
8.61838e-43
3.06832e-46
5.79429e-38
1.65665e-42
6.78032e-46
2.34531e-38
5.42733e-43
7.41004e-46
1.07131e-43
2.00014e-45
3.1218e-46
7.58687e-43
4.7457e-44
5.98524e-46
1.49777e-43
6.38632e-45
7.28509e-46
2.59005e-48
3.81608e-49
1.93485e-50
4.65901e-43
4.81204e-44
3.39573e-45
3.65025e-48
3.77702e-49
2.74245e-50
6.80583e-49
7.8e-50
5.56189e-51
1.99788e-43
2.25159e-44
1.63488e-45
1.14851e-48
1.33002e-49
9.39131e-51
)
;

boundaryField
{
    fuel
    {
        type            fixedValue;
        value           uniform 0;
    }
    primary_air
    {
        type            fixedValue;
        value           uniform 0.23;
    }
    Secondary_air_RHS
    {
        type            fixedValue;
        value           uniform 0.23;
    }
    Secondary_air_LHS
    {
        type            fixedValue;
        value           uniform 0.23;
    }
    outlet
    {
        type            inletOutlet;
        inletValue      uniform 0;
        value           nonuniform List<scalar> 
18
(
0
1.99788e-43
0
0
2.25159e-44
0
0
1.63488e-45
0
0
8.39078e-46
0
0
1.24799e-44
0
0
1.16078e-43
0
)
;
    }
    stove_body
    {
        type            fixedValue;
        value           uniform 0;
    }
    frontAndBack
    {
        type            empty;
    }
}


// ************************************************************************* //
