/*--------------------------------*- C++ -*----------------------------------*\
  =========                 |
  \\      /  F ield         | OpenFOAM: The Open Source CFD Toolbox
   \\    /   O peration     | Website:  https://openfoam.org
    \\  /    A nd           | Version:  6
     \\/     M anipulation  |
\*---------------------------------------------------------------------------*/
FoamFile
{
    version     2.0;
    format      ascii;
    class       surfaceScalarField;
    location    "5";
    object      phi;
}
// * * * * * * * * * * * * * * * * * * * * * * * * * * * * * * * * * * * * * //

dimensions      [1 0 -1 0 0 0 0];

internalField   nonuniform List<scalar> 
675
(
-4.10341e-06
-2.76529e-05
0.000154147
-4.27914e-06
-2.75953e-05
0.000155114
-2.57323e-05
0.000153783
-1.51373e-06
2.6482e-05
0.000162682
1.02897e-06
2.75944e-05
0.000157291
2.68133e-05
0.000162987
1.45762e-06
0.000153899
1.24256e-06
0.000155118
0.000153945
-4.07662e-06
-4.99105e-05
0.00020235
-4.36949e-06
-3.73579e-05
0.000191951
-4.76312e-05
0.00020123
-3.72692e-06
4.85023e-05
6.98852e-05
3.35298e-06
3.73422e-05
7.71197e-05
4.88106e-05
7.0948e-05
1.52434e-06
0.000201594
1.17436e-06
0.000191967
0.000201662
-7.37132e-06
7.53081e-05
-1.43111e-06
5.70387e-05
7.61315e-05
1.01382e-05
-7.59139e-05
-1.01629e-05
-5.71173e-05
-7.52083e-05
-1.71153e-06
4.13465e-06
0.0038004
0.00475552
-0.00535953
-0.00383285
0.00662059
0.0042066
0.0047463
-0.00538208
0.00479433
-0.00471637
0.00999514
-0.00565201
-0.00663374
0.029012
-0.00481078
0.00921945
0.00391328
-0.00543315
-0.00371338
0.00418692
-0.0053271
0.012525
0.0104326
-0.0283176
-0.0127108
-0.00390365
0.0333459
0.00974464
-0.0278379
0.00414409
-0.0105044
0.0267869
-0.00370129
0.00387916
0.0290754
-0.00969566
0.0249563
0.0124272
-0.0283653
-0.0127777
0.0332707
-0.027801
-0.000499613
0.0214603
-0.049278
0.000255969
-0.00819727
0.0407869
0.020959
-0.0485412
-0.0527792
-0.0214607
0.122488
0.0531696
0.00821427
-0.0932828
-0.0209285
0.120053
-0.000430433
-0.0493954
0.000325635
0.0407281
-0.0484043
-0.0300701
-0.0269636
-0.0234942
0.0805279
0.0293449
0.00863849
-0.0370083
-0.0310449
-0.0283326
-0.0228241
0.0805019
-0.00148804
0.027005
0.0220442
-0.0745242
0.00390925
-0.00862083
-0.108862
0.120723
0.0283076
0.0210112
-0.0737502
-0.0301379
-0.0234157
0.0805589
0.0292714
-0.0370389
-0.0309908
-0.0228035
0.0803828
0.00659056
-0.00955028
-0.020534
-0.0107413
0.0138144
-0.0334901
-0.0130309
-0.0205339
0.0221995
0.00955297
-0.019258
-0.0149246
-0.0137993
-0.044122
0.0129983
-0.0199432
0.00665642
-0.0205187
-0.0107035
-0.0334776
-0.020508
0.0013998
-0.00013687
-0.0217962
-0.0117184
0.000897139
-0.0212674
-0.0100216
-0.0222297
0.0150355
0.000159452
-0.0345912
0.00780316
-0.000848366
-0.0351441
0.00995988
-0.0321218
0.00140882
-0.0217671
-0.0116548
-0.0212606
-0.0222019
-0.0017977
-0.000513958
-0.0591565
0.00168147
-0.000146172
0.0374539
-0.000412006
-0.0587005
-0.00328265
0.000520231
0.104674
0.00357308
0.000146864
-0.100431
0.000412975
0.102865
-0.00180453
-0.0592492
0.00167215
0.0373983
-0.0585732
-0.00180797
0.000272574
-0.0697955
0.0017351
-0.000585805
0.0344966
0.000393626
-0.0695696
-0.00380173
-0.000252516
0.0892091
0.00385729
0.000585981
-0.109259
-0.00038779
0.0877206
-0.00181017
-0.0698539
0.00172805
0.034446
-0.0694445
-0.00244882
0.0006334
0.00239915
-0.00139619
0.000761916
-0.00423081
-0.000625658
0.00444016
0.00139627
-0.000761753
-0.00245769
0.0023938
0.00776922
-0.000942951
-0.0109537
-0.0176685
-0.00672238
-0.000941714
-0.00583386
-0.000864801
-0.0104012
-0.0176858
0.00789448
0.00094567
-0.0205243
-0.0238504
-0.0105399
0.000945958
-0.0185976
0.000863913
-0.0203365
-0.0240543
0.00775886
-0.0109579
-0.0176222
-0.00668802
-0.00586745
-0.0103953
-0.0176304
0.00283804
3.96467e-05
-0.0024983
-0.0113327
-0.00342073
-8.31074e-05
0.000508244
0.000157939
-0.00271088
-0.0112687
0.00582105
-2.74435e-05
-0.00801351
-0.0182651
-0.00590259
9.27452e-05
-0.00705004
-0.000156483
-0.00740586
-0.0185193
0.00284558
-0.00251241
-0.0113182
-0.00340116
0.000472324
-0.00270831
-0.0112443
0.000186078
-0.000178757
-0.00250526
0.000606529
8.80615e-05
0.000123756
-0.00222777
0.00260924
0.000206124
-0.0110081
-0.00427656
-7.64489e-05
-0.000119646
-0.0114395
0.000201375
-0.00250734
0.000597544
-0.00223007
-0.0161941
-1.86016e-05
-0.00147295
-0.0165631
0.00200242
-0.00163329
0.00246062
-0.00606663
-0.0129571
-0.022749
1.88107e-05
-0.00134275
-0.020234
-0.00199823
0.00148549
-0.00245477
0.00237277
-0.0176916
-0.0161412
-0.00147024
-0.0165097
-0.00162959
-0.00605811
-0.0129063
-0.0120614
-3.48425e-05
-0.000645283
-0.0121138
0.00135318
-0.00293401
0.000608614
-0.00672235
-0.0120666
-0.0196037
3.55408e-05
-0.000328821
-0.0165253
-0.00135045
0.00111052
-0.000604811
0.00335859
-0.016298
-0.0120363
-0.000642633
-0.0120891
-0.00292714
-0.00671391
-0.0120381
-0.00285108
-2.1866e-05
-0.00522719
-0.00055782
-0.00129871
-0.0106508
-0.0118134
2.30388e-05
-0.0118184
0.000557385
0.00129829
-0.0110571
-0.0028496
-0.00521933
-0.0106349
0.0165502
0.00244502
-0.00605491
-0.0129402
0.0161704
0.00197397
-0.00159407
-4.61814e-05
-0.00145179
0.0201515
-0.00244123
0.00236999
-0.0176354
0.0226014
-0.0019705
0.00149453
4.71829e-05
-0.00134241
0.0165051
-0.00605615
-0.0128901
0.0161252
-0.00159045
-0.00144964
0.0121266
0.000594606
-0.00672138
-0.0120547
0.0121005
0.00130974
-0.00287762
-8.86551e-05
-0.000595194
0.0164466
-0.000589265
0.00335307
-0.016246
0.0194442
-0.0013072
0.00111371
9.15378e-05
-0.000343681
0.0121116
-0.00672488
-0.012032
0.0120872
-0.00287319
-0.000588951
0.00524108
-0.00131385
-0.0106485
0.00298585
-0.000622267
-0.000114454
0.0117159
0.00131403
-0.010991
0.0115845
0.000622602
0.000118034
0.00522868
-0.0106395
0.00297816
0.00561526
0.00213983
-0.00775506
0.0086927
0.00202708
-0.0051045
0.0021232
-0.00637068
0.00806352
-0.00213153
-0.00379242
0.012976
-0.00201899
-0.000866613
-0.00211597
-0.000420507
0.00558156
-0.00771303
0.00864412
-0.00508151
-0.0063619
0.00434299
0.00180356
-0.0139016
0.00812056
0.00176105
-0.0106431
0.00134559
-0.0116503
0.005965
-0.00179692
-0.00615721
0.011489
-0.00175575
-0.00287408
-0.00133831
-0.00249388
0.0043228
-0.0138327
0.00809563
-0.01061
-0.0116366
0.00533839
0.00352705
-0.0227669
0.00579609
0.0019127
-0.0130134
0.00110363
-0.0176064
0.00652161
-0.00351514
-0.0056369
0.010537
-0.00191041
-0.0030666
-0.00110437
-0.000740133
0.00530894
-0.0226567
0.00578087
-0.0129923
-0.0175996
-0.00635366
0.0123152
-0.0287285
-0.00121
0.0106433
-0.0288005
0.0103211
-0.0291376
0.00134779
-0.0123177
0.0176482
-0.00135056
-0.010668
0.0209428
-0.0103433
0.0185732
-0.00630022
-0.0286742
-0.00117626
-0.0287843
-0.0291192
0.000446133
0.00579974
-0.0349744
0.000986977
0.00588942
-0.0352308
0.00660995
-0.0347607
-0.00198085
-0.00582368
0.0312524
-0.00138726
-0.00590956
0.0321479
-0.00662721
0.0304228
0.000462933
-0.0349608
0.000992667
-0.0352236
-0.0347538
-4.6245e-06
0.0183919
-0.000194226
0.0183044
0.0183351
-0.000482346
-0.0183982
0.000213423
-0.01831
-0.0183406
-1.07249e-06
-0.000192436
-0.00870047
0.00213113
-0.00638767
-0.00562573
0.00203343
-0.00510809
0.00214501
-0.00777065
-0.0130063
-0.00212288
-0.000431506
-0.00808775
-0.00202483
-0.000860475
-0.00213573
-0.00380721
-0.00865613
-0.00637305
-0.00559184
-0.00508905
-0.00772749
-0.00812481
0.0013472
-0.0116766
-0.00434861
0.00176859
-0.0106528
0.00180924
-0.0139284
-0.0115202
-0.00134141
-0.00252098
-0.00598003
-0.00176292
-0.00286933
-0.0018017
-0.00617654
-0.00810103
-0.0116515
-0.00432738
-0.0106256
-0.0138565
-0.00579226
0.00111601
-0.0176511
-0.00534699
0.00191679
-0.0130148
0.00353375
-0.022809
-0.0105503
-0.00111468
-0.000797393
-0.0065383
-0.00191437
-0.00305038
-0.00352072
-0.00566061
-0.00578083
-0.0176202
-0.00531959
-0.0130011
-0.0226967
0.00119619
0.0103332
-0.0291807
0.00636454
0.0106494
-0.0288327
0.0123257
-0.0287703
0.00132223
-0.010353
0.0185661
-0.00135154
-0.0106738
0.0209463
-0.012329
0.0176424
0.00117577
-0.0291491
0.00631329
-0.0288125
-0.0287124
-0.000991514
0.0066026
-0.0347919
-0.000444081
0.00588182
-0.0352619
0.00579402
-0.0350083
0.00138768
-0.00662521
0.0304059
0.00198216
-0.0059072
0.0321406
-0.005822
0.0312405
-0.000992048
-0.0347824
-0.000458998
-0.0352528
-0.0349934
0.000194856
0.018328
6.38322e-06
0.0182969
0.0183845
-0.000214546
-0.0183349
0.000483985
-0.0183038
-0.0183919
0.000193568
3.34782e-06
)
;

boundaryField
{
    fuel
    {
        type            calculated;
        value           nonuniform List<scalar> 
36
(
0.000128177
0.000213567
0.000128173
0.000128175
0.000213567
0.000128175
0.000128174
0.000213568
0.000128178
-0.000128177
-0.000213567
-0.000128173
-0.000128175
-0.000213567
-0.000128175
-0.000128174
-0.000213568
-0.000128178
0
0
0
0
0
0
0
0
0
0
0
0
0
0
0
0
0
0
)
;
    }
    primary_air
    {
        type            calculated;
        value           nonuniform List<scalar> 9(-0.00319662 -0.00531447 -0.00319667 -0.00319469 -0.00531301 -0.00319472 -0.00319726 -0.00531472 -0.00319731);
    }
    Secondary_air_RHS
    {
        type            calculated;
        value           nonuniform List<scalar> 9(0.0122513 0.0199751 0.0122525 0.012212 0.0196448 0.0122131 0.0125686 0.0200004 0.0125693);
    }
    Secondary_air_LHS
    {
        type            calculated;
        value           nonuniform List<scalar> 9(0.0121901 0.0200629 0.0121786 0.0121745 0.0197915 0.0121623 0.0125478 0.0201747 0.012537);
    }
    outlet
    {
        type            calculated;
        value           nonuniform List<scalar> 
18
(
-0.0533148
0.0672834
-0.0533108
-0.0533704
0.0680428
-0.0533663
-0.0533864
0.068501
-0.053382
-0.0533617
0.0685249
-0.053358
-0.0533456
0.0680668
-0.0533423
-0.05329
0.067312
-0.0532869
)
;
    }
    stove_body
    {
        type            calculated;
        value           uniform 0;
    }
    frontAndBack
    {
        type            empty;
        value           nonuniform 0();
    }
}


// ************************************************************************* //
