/*--------------------------------*- C++ -*----------------------------------*\
  =========                 |
  \\      /  F ield         | OpenFOAM: The Open Source CFD Toolbox
   \\    /   O peration     | Website:  https://openfoam.org
    \\  /    A nd           | Version:  6
     \\/     M anipulation  |
\*---------------------------------------------------------------------------*/
FoamFile
{
    version     2.0;
    format      ascii;
    class       volScalarField;
    location    "5";
    object      Qdot;
}
// * * * * * * * * * * * * * * * * * * * * * * * * * * * * * * * * * * * * * //

dimensions      [1 -1 -3 0 0 0 0];

internalField   nonuniform List<scalar> 
297
(
0
0
0
-0.00039481
0
0
0
-0.000327582
-0.000130176
0
0
0
0
-0.00039481
0
-0.000197405
0
-0.000130176
0
-0.000197405
0
0
0
0
0
0
4.75182e-10
4.75182e-10
9.50364e-10
4.75182e-10
1.90073e-09
1.62133e-09
0
0
0
0
0
0
4.75182e-10
9.50364e-10
0
0
0
4.75182e-10
0
0
4.75182e-10
0
-8.73121e-12
0
-8.73121e-12
0
0
0
4.72999e-10
0
4.75182e-10
0
0
4.75182e-10
0
-4.3656e-12
0
0
1.90073e-09
0
0
0
9.50364e-10
0
1.90073e-09
0
0
-8.13157e-21
0
0
-8.13157e-21
0
0
0
0
0
0
0
0
1.90073e-09
0
0
0
0
0
0
0
0
0
0
0
0
0
0
0
0
4.75182e-10
0
0
4.75182e-10
0
4.75182e-10
0
0
0
0
0
0
-6.2039e-26
0
0
0
0
-3.02925e-29
0
0
0
0
0
0
3.80145e-09
3.80145e-09
0
0
0
-2.3666e-31
0
-6.05849e-29
0
0
0
-8.81627e-40
0
0
0
0
3.80145e-09
-8.81627e-40
-4.62226e-34
0
0
-4.62226e-34
0
0
3.80145e-09
-2.82121e-38
-1.72193e-42
0
-5.64241e-38
0
0
0
0
0
0
3.80145e-09
0
0
0
0
0
0
0
0
0
0
0
-1.15557e-34
-2.75508e-41
0
0
0
0
0
0
0
0
0
0
0
0
0
0
0
0
0
0
0
0
-5.01147e-53
-8.21079e-49
0
0
0
0
-7.83042e-55
0
0
-1.9576e-55
0
0
3.80145e-09
3.80145e-09
0
0
0
0
0
0
-6.56863e-48
-4.89401e-56
0
0
0
0
0
3.80145e-09
-1.56608e-54
0
0
0
0
0
0
3.80145e-09
0
3.80145e-09
3.80145e-09
0
-4.77931e-59
0
0
0
0
-5.97413e-60
0
0
0
-8.21079e-49
0
-1.34526e-44
0
-1.00229e-52
0
-8.21079e-49
0
0
0
0
0
0
0
0
-1.60367e-51
0
0
0
-3.91521e-55
0
0
-1.56608e-54
0
-8.01835e-52
0
0
0
-3.91521e-55
-1.60367e-51
-1.00229e-52
0
0
0
0
0
0
0
0
-1.00229e-52
0
0
0
0
-7.64689e-58
0
0
3.80145e-09
-5.01147e-53
3.80145e-09
-1.52938e-57
0
0
)
;

boundaryField
{
    fuel
    {
        type            calculated;
        value           uniform 0;
    }
    primary_air
    {
        type            calculated;
        value           uniform 0;
    }
    Secondary_air_RHS
    {
        type            calculated;
        value           uniform 0;
    }
    Secondary_air_LHS
    {
        type            calculated;
        value           uniform 0;
    }
    outlet
    {
        type            calculated;
        value           uniform 0;
    }
    stove_body
    {
        type            calculated;
        value           uniform 0;
    }
    frontAndBack
    {
        type            empty;
    }
}


// ************************************************************************* //
