/*--------------------------------*- C++ -*----------------------------------*\
  =========                 |
  \\      /  F ield         | OpenFOAM: The Open Source CFD Toolbox
   \\    /   O peration     | Website:  https://openfoam.org
    \\  /    A nd           | Version:  6
     \\/     M anipulation  |
\*---------------------------------------------------------------------------*/
FoamFile
{
    version     2.0;
    format      ascii;
    class       volVectorField;
    location    "5";
    object      U;
}
// * * * * * * * * * * * * * * * * * * * * * * * * * * * * * * * * * * * * * //

dimensions      [0 1 -1 0 0 0 0];

internalField   nonuniform List<vector> 
297
(
(13.7464 -0.0140353 0.270585)
(13.7475 -0.0204271 0.271846)
(13.7469 -0.00638989 0.270158)
(-0.000101048 0.00448153 0.250896)
(-1.54112e-06 -0.000706738 0.247648)
(0.000100152 -0.00518168 0.250861)
(-13.7468 -0.000481483 0.270343)
(-13.7475 0.00658296 0.271858)
(-13.7464 0.00705967 0.270299)
(13.7461 -0.014798 0.295438)
(13.7473 -0.0205674 0.286464)
(13.7466 -0.00582403 0.294631)
(-0.000101548 0.0101243 0.0844677)
(-1.44695e-06 -0.000505284 0.118044)
(0.000100811 -0.0105086 0.0866408)
(-13.7466 -0.00114144 0.294853)
(-13.7473 0.00658852 0.286476)
(-13.7461 0.00769132 0.295081)
(12.812 -0.031551 0.440269)
(13.7372 -0.0216268 0.460207)
(12.9088 0.0116689 0.440857)
(-8.20532e-05 -0.0331379 0.213362)
(-1.23902e-06 -0.000681905 0.170807)
(8.17002e-05 0.0328246 0.212044)
(-12.8823 -0.0187868 0.440775)
(-13.7372 0.00571652 0.46023)
(-12.8843 0.0243031 0.440817)
(49.0195 5.29188 16.5986)
(31.9914 -0.310414 22.9323)
(50.8662 -3.62362 15.1281)
(6.89564e-05 1.66486 18.1493)
(3.34723e-05 -0.373042 10.8751)
(7.72634e-05 -2.12126 17.3813)
(-49.2334 5.31275 16.1316)
(-32.0657 0.12019 23.0586)
(-50.8875 -3.46889 15.4514)
(70.6421 -0.66513 35.3996)
(64.9433 -3.45558 110.265)
(73.3314 6.31393 33.5945)
(0.00162624 36.6655 188.609)
(5.21559e-05 -0.535588 133.061)
(-0.000838674 -31.1881 190.365)
(-70.6596 -0.622548 35.4227)
(-65.1034 -4.47416 110.022)
(-73.6019 6.73971 33.5693)
(69.0522 -42.5864 -51.1097)
(57.9321 0.78922 153.236)
(71.6346 45.5412 -50.8518)
(0.00031125 -50.8942 252.277)
(-1.41153e-05 1.29026 -22.5544)
(4.55782e-05 50.8268 257.834)
(-69.0731 -43.5478 -51.2382)
(-58.0354 1.89182 153.487)
(-71.8941 44.9561 -50.9475)
(45.2235 -49.5094 -212.193)
(33.864 -3.42197 -25.7079)
(46.8536 53.9813 -212.966)
(-0.00150078 -55.7813 -19.7689)
(-8.21938e-05 1.71824 -116.49)
(0.00111229 58.5549 -27.1235)
(-45.2659 -49.5701 -212.492)
(-33.8868 -3.64742 -25.8968)
(-46.8636 53.9178 -213.154)
(21.8411 50.9457 -125.272)
(14.1655 -7.57712 -87.8719)
(24.1777 -44.1945 -128.224)
(-7.2876e-06 13.2519 -112.594)
(-1.15831e-05 6.05991 -98.5659)
(0.000161288 -10.6997 -115.555)
(-21.8559 50.8893 -125.428)
(-14.1723 -7.4431 -87.9109)
(-24.1701 -44.2218 -128.153)
(9.4187 30.1736 -25.4925)
(9.42492 -6.72104 -19.5475)
(9.42204 -28.1021 -25.7913)
(-7.02891e-06 25.4396 -23.6407)
(-2.22147e-05 6.48593 -24.8698)
(1.53649e-05 -21.9246 -22.465)
(-9.42804 30.1091 -25.4794)
(-9.42976 -6.66194 -19.552)
(-9.42949 -28.0679 -25.7856)
(60.6922 -34.2655 -486.282)
(56.531 -4.47494 199.529)
(62.0865 40.5133 -486.465)
(-0.0117393 -50.3332 374.392)
(-9.93668e-05 4.49417 -144.349)
(0.00127003 52.3097 388.05)
(-60.5733 -34.9412 -486.642)
(-56.6302 -4.5246 199.607)
(-62.4321 40.2823 -487.881)
(55.7278 -40.3576 -391.339)
(51.0908 -4.69311 195.166)
(53.3854 45.6354 -389.691)
(-0.0133175 -52.1203 421.199)
(-9.50052e-05 4.15597 -145.792)
(0.00133489 53.267 440.6)
(-55.7599 -40.6417 -392.417)
(-51.181 -4.82426 195.239)
(-53.5317 45.4885 -390.465)
(50.1878 -39.1258 -343.797)
(51.4722 -4.61967 179.887)
(51.5083 44.6039 -342.601)
(-0.0134315 -52.3626 467.627)
(-0.000121889 3.49298 -137.419)
(0.000941061 57.2501 484.088)
(-50.2508 -39.4806 -344.524)
(-51.561 -4.89583 179.929)
(-51.6638 44.4628 -343.178)
(9.36481 46.1377 -13.0241)
(9.41407 2.86435 -12.6399)
(9.36299 -46.0972 -13.0915)
(-2.06823e-05 36.808 -13.5933)
(-1.85425e-05 -4.25131 -13.5503)
(-3.69414e-06 -37.3613 -12.9355)
(-9.3743 46.0657 -13.0183)
(-9.41724 2.92321 -12.6452)
(-9.37438 -46.0064 -13.0869)
(9.425 22.5382 -5.12552)
(9.441 -2.526 -2.30854)
(9.42246 -21.4114 -5.08925)
(-2.24022e-05 25.8148 -5.52978)
(-1.09963e-05 -0.124271 -6.90338)
(-5.37917e-06 -26.3142 -5.49878)
(-9.42824 22.5297 -5.15721)
(-9.44589 -2.45088 -2.33988)
(-9.42954 -21.383 -5.09519)
(9.44427 -2.13361 -5.38105)
(9.44282 0.53281 1.14374)
(9.43826 4.03548 -5.017)
(-1.85023e-05 14.2413 -3.18102)
(-1.11343e-05 -3.07557 -3.28047)
(-7.7848e-06 -15.3467 -2.64226)
(-9.44584 -1.95311 -5.34512)
(-9.44759 0.502936 1.06298)
(-9.44275 4.01018 -5.02175)
(9.3527 -49.9046 -5.70978)
(9.38824 -44.708 -8.26459)
(9.3719 -38.4869 -11.2204)
(-1.88056e-05 -40.4365 -4.62116)
(-3.15649e-05 -37.4215 -4.55427)
(-6.79609e-05 -31.8024 -4.94038)
(-9.36464 -49.8122 -5.68969)
(-9.4006 -44.6123 -8.24052)
(-9.38477 -38.3975 -11.1973)
(9.39949 -36.0373 -2.94281)
(9.41782 -37.3784 -9.32346)
(9.3695 -32.8176 -17.7034)
(-1.16858e-05 -33.5043 0.201538)
(-1.66756e-05 -33.1533 1.53122)
(-3.84157e-05 -27.8497 2.42386)
(-9.40755 -35.9933 -2.95317)
(-9.42619 -37.3274 -9.32378)
(-9.37862 -32.774 -17.7006)
(9.44515 -3.35529 -3.81045)
(9.43906 -18.0596 -16.6938)
(9.39159 -27.6705 -25.2325)
(-6.69211e-06 -19.923 2.62632)
(-8.04611e-07 -20.762 3.48207)
(5.21072e-06 -21.1716 3.36523)
(-9.45006 -3.36978 -3.78947)
(-9.44448 -18.0412 -16.6628)
(-9.3978 -27.6405 -25.2016)
(9.37399 38.4287 -11.2173)
(9.38957 44.6739 -8.25432)
(9.35426 49.8348 -5.68067)
(-4.44989e-05 31.6797 -4.93965)
(-2.52015e-05 37.2811 -4.52832)
(-2.56458e-05 40.1977 -4.62437)
(-9.38474 38.3347 -11.1914)
(-9.4007 44.5833 -8.22541)
(-9.36473 49.7608 -5.65439)
(9.37449 32.8057 -17.7195)
(9.42251 37.4279 -9.29439)
(9.40365 36.1177 -2.92535)
(-2.35831e-05 27.7127 2.41672)
(-1.63345e-05 32.9996 1.54785)
(-2.17109e-05 33.2318 0.239299)
(-9.37859 32.7557 -17.7353)
(-9.42625 37.3869 -9.30605)
(-9.40722 36.0855 -2.94777)
(9.39595 27.7047 -25.2227)
(9.44291 18.1103 -16.4601)
(9.44868 4.02358 -3.47502)
(-2.38742e-06 21.0142 3.41009)
(-6.47611e-06 20.5379 3.54595)
(-1.66785e-05 19.4922 2.68525)
(-9.39771 27.6733 -25.2149)
(-9.44453 18.0712 -16.4289)
(-9.45023 3.99333 -3.41316)
(9.34336 11.9764 -19.5551)
(9.34644 17.7221 -13.82)
(9.36011 27.5269 -15.9958)
(-0.000199354 10.2071 -9.83772)
(-0.000156899 15.8628 -5.24683)
(-9.60037e-05 23.4805 -6.13904)
(-9.36341 11.9384 -19.4779)
(-9.36347 17.6735 -13.7514)
(-9.37228 27.439 -15.9473)
(9.3515 5.16372 -29.3692)
(9.36463 15.5766 -21.9199)
(9.35903 27.4281 -26.9688)
(-0.000158274 7.63257 -7.2376)
(-0.000112555 12.5512 -2.32364)
(-6.05129e-05 21.5311 -2.19799)
(-9.36898 5.1732 -29.2634)
(-9.37419 15.5485 -21.8507)
(-9.36455 27.3973 -26.9405)
(9.39423 4.20396 -35.9868)
(9.37141 17.5995 -32.8652)
(9.37261 16.3342 -40.7897)
(-0.000121047 6.11315 -11.9714)
(-7.86532e-05 13.9079 -7.02581)
(-3.36768e-05 16.4751 -1.39033)
(-9.41142 4.21226 -35.8721)
(-9.37667 17.6015 -32.803)
(-9.37473 16.3088 -40.7701)
(9.39069 -4.35363 -57.4265)
(9.3964 -3.45785 -54.7564)
(9.4026 -10.2721 -59.5117)
(2.47677e-05 -5.01733 10.672)
(3.04002e-05 2.8632 19.0752)
(3.53449e-05 -9.52844 16.1396)
(-9.40379 -4.29897 -57.3175)
(-9.39612 -3.42388 -54.7547)
(-9.40356 -10.2781 -59.4825)
(9.2754 1.82817 -123.718)
(9.27177 -1.08755 -125.051)
(9.26986 4.81631 -123.835)
(6.04091e-05 -1.79131 62.6748)
(4.99783e-05 0.921842 65.5532)
(4.74108e-05 -2.01286 60.5156)
(-9.27522 1.80575 -123.661)
(-9.27158 -1.08184 -125.025)
(-9.2697 4.82343 -123.807)
(8.87514 -0.0115973 -159.126)
(8.87608 -0.0410764 -159.06)
(8.87717 -0.0568599 -158.834)
(3.88189e-05 -0.579537 176.72)
(3.76728e-05 0.41867 175.584)
(3.70234e-05 -0.567791 173.803)
(-8.87502 -0.0106822 -159.111)
(-8.87597 -0.0398045 -159.047)
(-8.87707 -0.0563895 -158.821)
(9.35772 -27.5463 -16.0209)
(9.34607 -17.7508 -13.8238)
(9.34229 -11.9869 -19.585)
(-0.00012167 -23.5329 -6.16845)
(-0.000176426 -15.928 -5.24793)
(-0.000217503 -10.1849 -9.87023)
(-9.37239 -27.4643 -15.9804)
(-9.36364 -17.7046 -13.7692)
(-9.36356 -11.9536 -19.5122)
(9.35371 -27.4568 -26.9891)
(9.361 -15.5822 -21.9331)
(9.34811 -5.16268 -29.4243)
(-8.65101e-05 -21.5666 -2.21743)
(-0.000132477 -12.6307 -2.3244)
(-0.000174588 -7.62014 -7.27695)
(-9.36458 -27.4233 -26.9612)
(-9.37463 -15.5529 -21.8893)
(-9.3693 -5.17314 -29.3206)
(9.3677 -16.3227 -40.8863)
(9.36935 -17.6232 -32.8928)
(9.39413 -4.20672 -36.0639)
(-5.08896e-05 -16.4372 -1.48169)
(-9.57283e-05 -14.0103 -7.00488)
(-0.000134432 -6.11028 -12.0077)
(-9.37496 -16.3115 -40.8296)
(-9.37653 -17.6103 -32.8498)
(-9.41172 -4.21335 -35.9496)
(9.39744 10.2834 -59.636)
(9.39563 3.4449 -54.8421)
(9.39087 4.35695 -57.5544)
(3.962e-05 9.57275 16.0714)
(3.36364e-05 -2.89933 19.0301)
(2.8662e-05 5.03887 10.6033)
(-9.40399 10.2882 -59.5789)
(-9.39657 3.42255 -54.8345)
(-9.40425 4.30791 -57.4367)
(9.27011 -4.82608 -123.945)
(9.27203 1.09468 -125.16)
(9.27562 -1.83305 -123.847)
(6.07121e-05 2.04295 60.5252)
(6.20011e-05 -0.943713 65.5736)
(7.0891e-05 1.80388 62.6771)
(-9.26991 -4.82758 -123.908)
(-9.2718 1.08728 -125.129)
(-9.27541 -1.8107 -123.785)
(8.87729 0.0570916 -158.933)
(8.87621 0.0416324 -159.159)
(8.87526 0.0120372 -159.225)
(4.54572e-05 0.576277 173.762)
(4.59162e-05 -0.425054 175.54)
(4.68834e-05 0.584089 176.672)
(-8.87716 0.0567216 -158.917)
(-8.87607 0.0406197 -159.143)
(-8.87512 0.0112456 -159.207)
)
;

boundaryField
{
    fuel
    {
        type            fixedValue;
        value           uniform (0 0 0.25);
    }
    primary_air
    {
        type            fixedValue;
        value           uniform (0 0 2.5);
    }
    Secondary_air_RHS
    {
        type            fixedValue;
        value           uniform (0 125 0);
    }
    Secondary_air_LHS
    {
        type            fixedValue;
        value           uniform (0 -125 0);
    }
    outlet
    {
        type            pressureInletOutletVelocity;
        value           nonuniform List<vector> 
18
(
(0 0 -158.933)
(4.54572e-05 0.576277 173.762)
(0 0 -158.917)
(0 0 -159.159)
(4.59162e-05 -0.425054 175.54)
(0 0 -159.143)
(0 0 -159.225)
(4.68834e-05 0.584089 176.672)
(0 0 -159.207)
(0 0 -159.126)
(3.88189e-05 -0.579537 176.72)
(0 0 -159.111)
(0 0 -159.06)
(3.76728e-05 0.41867 175.584)
(0 0 -159.047)
(0 0 -158.834)
(3.70234e-05 -0.567791 173.803)
(0 0 -158.821)
)
;
    }
    stove_body
    {
        type            noSlip;
    }
    frontAndBack
    {
        type            empty;
    }
}


// ************************************************************************* //
