/*--------------------------------*- C++ -*----------------------------------*\
  =========                 |
  \\      /  F ield         | OpenFOAM: The Open Source CFD Toolbox
   \\    /   O peration     | Website:  https://openfoam.org
    \\  /    A nd           | Version:  6
     \\/     M anipulation  |
\*---------------------------------------------------------------------------*/
FoamFile
{
    version     2.0;
    format      ascii;
    class       volScalarField;
    location    "0.5";
    object      O2;
}
// * * * * * * * * * * * * * * * * * * * * * * * * * * * * * * * * * * * * * //

dimensions      [0 0 0 0 0 0 0];

internalField   nonuniform List<scalar> 
297
(
0
0
0
0
0
0
0
0
0
0
0
0
0
0
0
0
0
0
0
0
0
0
0
0
0
0
0
0.0310653
0.079671
0.0493319
0.0693783
0.0967421
0.0807823
0.0309795
0.0794094
0.0501505
0
0.0120847
0
0.0181439
0.0634003
0.0282277
0
0.0120076
0
0
0.0105559
0
0.0139898
0.0148693
0.0199754
0
0.0104636
0
0.00212832
0.00630695
0.00213914
0
0.000845259
0
0.00211477
0.00624575
0.00211129
0
4.17306e-08
0
0
0
0
0
4.12088e-08
0
2.26891e-13
8.75013e-13
3.41066e-12
0
0
2.28915e-11
1.62951e-13
8.78984e-13
3.37497e-12
0
0.0105573
0
0
0.000864821
0
0
0.0104621
0
0
0.0105053
0
0
0.000844648
0
0
0.0104241
0
0
0.0104492
0
0
0.000844918
0
0
0.0103598
0
3.62599e-18
6.42014e-17
7.64726e-17
0
1.8928e-17
1.04323e-16
3.71278e-18
6.23284e-17
7.59534e-17
6.00514e-22
2.06834e-20
1.24204e-20
2.55684e-22
1.10207e-20
2.53595e-21
6.07685e-22
2.02889e-20
1.23805e-20
1.24464e-21
2.01783e-20
1.26915e-21
2.64684e-22
1.07989e-20
2.06034e-22
1.06477e-21
1.94315e-20
1.22443e-21
1.09441e-21
2.69811e-26
2.96026e-31
3.70406e-22
1.36543e-26
1.81787e-31
1.09304e-21
2.70993e-26
2.9885e-31
2.37246e-25
7.14318e-30
3.95083e-34
2.57454e-26
1.19667e-27
3.15118e-32
2.79107e-25
9.61528e-30
4.58409e-34
8.4065e-26
4.92857e-30
6.74884e-34
6.10866e-27
3.91215e-29
6.12316e-33
8.14122e-26
4.82962e-30
6.73846e-34
5.76817e-33
5.48061e-28
4.68637e-23
1.78555e-33
9.25586e-29
0
1.22987e-32
5.76215e-28
4.87306e-23
4.88918e-35
9.36531e-31
1.67839e-26
2.06249e-34
6.14246e-30
1.95029e-27
6.80735e-35
1.31063e-30
1.65425e-26
8.31114e-35
3.65195e-30
8.4363e-26
4.51769e-35
4.71772e-31
7.62664e-27
1.10765e-34
4.91505e-30
7.22041e-26
2.13924e-46
8.7597e-42
1.74409e-37
8.58238e-46
5.85976e-42
5.48126e-38
1.37501e-45
1.91234e-41
3.75825e-37
9.51327e-48
1.19512e-43
2.21174e-39
3.42538e-47
8.87777e-44
3.27734e-39
2.9267e-47
1.38092e-43
3.02935e-39
1.30555e-47
4.05493e-44
1.54946e-39
3.22595e-47
2.70437e-44
1.02155e-39
3.89255e-47
4.44696e-44
2.15172e-39
1.92308e-47
1.1456e-46
6.42374e-45
3.18652e-47
2.25314e-45
2.22874e-44
3.78769e-47
3.49592e-46
1.27097e-44
1.97637e-51
1.86418e-50
1.27451e-49
2.28266e-46
2.2105e-45
1.41294e-44
1.70116e-51
2.47678e-50
1.18095e-49
6.13485e-52
5.82069e-51
3.36981e-50
1.094e-46
1.02119e-45
6.04841e-45
6.13357e-52
5.82041e-51
3.37025e-50
4.96334e-36
2.65679e-40
1.87279e-44
3.58646e-36
1.1665e-40
1.68948e-44
9.68875e-36
2.76803e-40
2.00262e-44
1.50658e-38
6.58315e-43
1.04853e-46
4.9871e-37
1.12567e-41
7.5299e-46
1.93802e-38
6.38937e-43
3.31839e-46
1.2702e-38
2.84326e-43
1.0427e-46
1.22117e-37
2.5127e-42
3.48286e-46
1.27239e-38
2.57348e-43
3.14402e-46
4.27248e-44
7.63376e-46
1.16846e-46
1.07982e-42
9.78584e-44
2.64155e-46
7.09182e-44
2.84734e-45
3.08933e-46
4.05004e-48
8.39139e-49
6.33275e-50
6.79823e-43
1.00215e-43
1.01317e-44
4.81834e-48
7.2838e-49
7.3536e-50
1.63488e-48
2.69666e-49
2.74408e-50
2.93149e-43
4.73078e-44
4.85814e-45
1.63504e-48
2.69882e-49
2.72125e-50
)
;

boundaryField
{
    fuel
    {
        type            fixedValue;
        value           uniform 0;
    }
    primary_air
    {
        type            fixedValue;
        value           uniform 0.23;
    }
    Secondary_air_RHS
    {
        type            fixedValue;
        value           uniform 0.23;
    }
    Secondary_air_LHS
    {
        type            fixedValue;
        value           uniform 0.23;
    }
    outlet
    {
        type            inletOutlet;
        inletValue      uniform 0;
        value           nonuniform List<scalar> 
18
(
0
2.93149e-43
0
0
4.73078e-44
0
0
4.85814e-45
0
0
1.094e-46
0
0
1.02119e-45
0
0
6.04841e-45
0
)
;
    }
    stove_body
    {
        type            fixedValue;
        value           uniform 0;
    }
    frontAndBack
    {
        type            empty;
    }
}


// ************************************************************************* //
