/*--------------------------------*- C++ -*----------------------------------*\
  =========                 |
  \\      /  F ield         | OpenFOAM: The Open Source CFD Toolbox
   \\    /   O peration     | Website:  https://openfoam.org
    \\  /    A nd           | Version:  6
     \\/     M anipulation  |
\*---------------------------------------------------------------------------*/
FoamFile
{
    version     2.0;
    format      ascii;
    class       volScalarField;
    location    "5";
    object      p;
}
// * * * * * * * * * * * * * * * * * * * * * * * * * * * * * * * * * * * * * //

dimensions      [1 -1 -2 0 0 0 0];

internalField   nonuniform List<scalar> 
297
(
118202
118202
118202
197022
197022
197022
118202
118202
118202
118202
118202
118202
197023
197023
197023
118202
118202
118202
118202
118202
118202
197025
197025
197025
118202
118202
118202
98482.9
98172.8
97374.4
163138
162586
161581
97950.2
98015.8
97715
95786.1
95172.9
95709.2
160909
158420
157925
98162.3
96323.5
94621.3
94321.5
92167.4
90862.1
153155
149747
152153
91912.6
90667.5
92819.1
94754
94075.6
95137.3
151754
153554
156062
96585.1
92708
94059.6
95593.6
95336.9
96450
156716
158992
161799
94317.7
95654.6
97843.7
96848.2
97140.9
97692.9
161330
161849
162865
97152.3
96968.6
97659.5
91432.7
91450
86288.5
137541
145041
148862
89609.2
88706.8
85946.1
91568.6
91493.8
86181.7
136648
144741
147577
89549.7
88723.7
85754.3
92261.5
91740.9
86724.2
137586
145300
147354
90110.8
89026.4
86246.2
97811.8
97782.6
97763
162958
163162
163286
98243.2
97962.3
97696.7
97928.4
97993.2
98127.9
163300
163558
163363
98419.9
98399.4
97971.2
97992.9
98135.9
98139.5
163478
163793
163393
98477.5
98717.3
98270.8
97944.2
98018.2
98309.1
163303
163136
162943
97891.7
97918.3
98090.9
97806.7
97784.3
97960.5
163300
163081
162766
97911.6
97805.3
97819.6
97739.2
97568
97530.3
163311
163058
162651
97977.7
97712
97483.7
98300.7
98244.1
98208.3
162422
162877
163187
97361.7
97726.7
98079.8
98199.8
98214.4
98133.8
162380
162863
163176
97152.2
97602.5
98025.3
98105.1
98195.2
98127.5
162293
162840
163190
97078.9
97577.7
98016.6
98211.4
98420.5
98427.1
161786
161885
162081
98507.1
98042.4
97453.7
98015.2
98184.8
98227.6
161541
161605
161900
97998.6
97356
97012.1
97795.2
97920.1
97977.4
161178
161229
161510
97466.8
96924
96713.3
96711.9
96696.4
96720
158702
158664
158535
94923.8
94872.2
94796.3
91749.4
91714.6
91700.6
151079
151056
151006
90789.7
90765.4
90660.5
85374.6
85368
85364
138721
138683
138623
87206.2
87345.5
87486.3
98491.3
98488.1
98396.6
162942
162922
162843
98239.5
98256.3
98187.8
98214.4
98341.1
98301.5
162707
162700
162643
98041.4
98173.7
98136.4
97978.9
98220.6
98177.6
162466
162472
162368
97897.2
98130.3
98074
97137.4
97176.1
97217.4
161065
161160
161153
97199.2
97233.3
97273.5
92740.5
92731.5
92776.9
153389
153397
153409
92681.8
92668
92711.1
85819.5
85818.5
85824.9
138137
138153
138168
85815.4
85814.9
85821.7
)
;

boundaryField
{
    fuel
    {
        type            zeroGradient;
    }
    primary_air
    {
        type            zeroGradient;
    }
    Secondary_air_RHS
    {
        type            zeroGradient;
    }
    Secondary_air_LHS
    {
        type            zeroGradient;
    }
    outlet
    {
        type            totalPressure;
        rho             rho;
        psi             none;
        gamma           1;
        p0              uniform 100000;
        value           nonuniform List<scalar> 
18
(
89256.8
100000
89243.4
89239.2
100000
89225.6
89275.1
100000
89262.1
88557.1
100000
89645.7
88524.8
100000
93697.6
88519
100000
99998.7
)
;
    }
    stove_body
    {
        type            zeroGradient;
    }
    frontAndBack
    {
        type            empty;
    }
}


// ************************************************************************* //
