/*--------------------------------*- C++ -*----------------------------------*\
  =========                 |
  \\      /  F ield         | OpenFOAM: The Open Source CFD Toolbox
   \\    /   O peration     | Website:  https://openfoam.org
    \\  /    A nd           | Version:  6
     \\/     M anipulation  |
\*---------------------------------------------------------------------------*/
FoamFile
{
    version     2.0;
    format      ascii;
    class       surfaceScalarField;
    location    "5";
    object      phi;
}
// * * * * * * * * * * * * * * * * * * * * * * * * * * * * * * * * * * * * * //

dimensions      [1 0 -1 0 0 0 0];

internalField   nonuniform List<scalar> 
675
(
9.60582e-07
-4.68411e-05
0.000157921
2.18783e-07
-4.48914e-05
0.000157706
-4.47571e-05
0.000157102
-1.87262e-06
4.68443e-05
0.000143283
-8.09246e-08
4.48906e-05
0.000143377
4.4756e-05
0.000145356
9.62359e-07
0.000157922
2.19594e-07
0.000157707
0.000157102
9.20112e-07
-6.13382e-05
0.000204485
-8.28376e-08
-5.86081e-05
0.000203537
-5.85273e-05
0.000201792
-2.64021e-06
6.13409e-05
5.00674e-05
-4.96894e-06
5.86064e-05
5.52231e-05
5.8526e-05
5.00148e-05
9.21826e-07
0.000204487
-8.19192e-08
0.000203537
0.000201792
6.8394e-07
6.36572e-05
2.2524e-06
6.19695e-05
6.40554e-05
-6.2433e-07
-6.36578e-05
1.71491e-07
-6.19703e-05
-6.40563e-05
6.85806e-07
2.25363e-06
0.0253159
-0.0171797
-0.00368086
0.0267529
-0.00832761
0.00932226
0.00125275
0.0274079
0.0352819
0.0178319
-0.0661791
0.038544
0.00878773
-0.0169797
-0.00161234
0.0503316
0.0256359
-0.00484333
0.0258481
0.00846001
0.0265504
0.0263017
-0.0117898
-0.0162468
0.0211898
0.00041577
0.0163227
0.00961569
0.0387552
0.0383982
0.0105119
-0.127453
0.0298265
-0.00246555
-0.00131879
-0.0101631
0.0970529
0.0288621
-0.0212856
0.0246075
0.0141481
0.0365244
0.0155918
0.00597675
-0.0414166
0.0318617
0.0103355
-0.0139476
0.0123021
0.0589953
0.0351513
-0.00880489
-0.146312
0.0199525
-0.0120787
0.0388009
-0.0125091
0.147177
0.0195539
-0.0404055
0.0364281
-0.0122002
0.0583019
-0.0138814
0.0258543
-0.0671568
0.068793
-0.0187033
-0.0102245
-0.0101115
0.0252787
-0.00440635
0.0437816
-0.0611479
-0.038836
-0.0202161
-0.0619938
0.142389
-0.0321698
0.00933134
-0.0106076
-0.0195057
0.00217351
0.0528076
-0.0903751
-0.0187578
-0.0749236
0.0667019
-0.0234406
-0.0161819
0.022065
0.0428721
-0.0623047
-0.0249159
-0.0221595
-0.032672
-0.02265
-0.00952811
-0.00666533
0.000924315
0.0200998
-0.0422492
0.0220303
-0.0515159
-0.0411908
0.00624309
-0.0225169
-0.00209696
0.0184492
-0.0226845
-0.0340849
-0.0237026
-0.00909243
0.018348
-0.0144638
0.00093444
-0.0167018
-0.0142027
-0.00194911
-0.00359499
0.0041635
0.00268059
-0.0244443
0.000906339
-0.0289486
-0.0330224
-0.000758203
-0.0167414
-0.00391359
-0.00805124
-0.0104687
-0.0205094
-0.0133875
-0.00750096
0.000634678
-0.00195699
0.000562069
-0.0461943
0.0028936
0.000163679
-0.0190841
-0.0138621
0.0694685
-0.00126703
-0.000181906
-0.154566
0.00460368
5.77958e-05
0.0329764
0.0147997
0.113096
-0.00200644
-0.0455149
0.00252559
-0.0167554
0.0700185
-0.00206424
0.000925026
-0.0514518
0.000553655
0.000101984
-0.0219397
-0.00213
0.0659183
-0.00175134
-0.000375142
-0.162126
0.0023291
9.81628e-05
0.0288038
0.00219364
0.101171
-0.00222499
-0.0512008
0.000366317
-0.0193666
0.0669587
-0.00258991
0.0132846
0.000367144
0.000204839
-0.00109934
-0.00787311
-0.0097542
0.00130056
0.000163607
0.00105656
-0.00271966
2.09795e-06
-0.0040273
-0.00067394
-0.003981
-0.00744127
-0.00747708
0.000172574
0.00028523
0.000152719
0.00579831
-0.0103445
-0.0126855
0.00042447
-0.0134497
-0.0042287
-0.0169733
-0.00104385
-0.0111587
-1.65431e-05
-0.00761117
-0.01732
-0.00155279
-0.00528449
-0.0137302
-0.0104452
0.000468443
0.0018021
-0.0121872
-0.00917638
0.00126618
-0.00226214
0.00630727
-0.0097082
0.000447908
0.000463424
0.00029917
0.00493687
-0.00900943
-0.00806163
-0.00202177
-0.00611338
0.00400432
-0.0111687
-0.00159987
-0.00520612
1.31318e-05
-0.00471837
-0.0131019
-0.0046447
0.00428165
-0.00778378
-0.0100729
0.00426865
0.00206934
-0.00992015
-0.00400303
0.00228843
-0.000911488
-0.00541147
0.00167829
0.000941086
-0.00212809
-0.00429201
-0.00298792
0.00369958
-0.00357951
-0.00285451
-0.00168567
-0.00418338
-0.00340253
0.00366593
-0.0021335
-0.00114982
-0.0110649
0.00039648
0.000527445
-0.0117415
0.00169455
-0.000886058
0.00160222
-0.00507667
-0.00819705
-0.0156527
-0.000214769
-0.000924553
-0.0130063
-0.00162346
0.000600488
-0.00156097
0.00145961
-0.0115964
-0.0119491
-0.000355851
-0.0123454
-0.0011527
-0.00539711
-0.00844316
-0.00931176
0.000295833
0.000426491
-0.00911018
0.00102424
-0.00207402
0.000156171
-0.00575389
-0.00856869
-0.012855
-0.000124186
-0.000451589
-0.0102151
-0.000959716
-3.28087e-05
-3.19569e-05
0.00189748
-0.0107312
-0.00986344
-0.000470647
-0.00951052
-0.00242324
-0.00618523
-0.00870867
-0.00212979
0.000230933
-0.00410178
-0.000193059
-0.0013411
-0.00853454
-0.00372357
-0.0002204
-0.00414053
0.000296521
0.00143606
-0.00523442
-0.00180905
-0.00391904
-0.00864629
0.00751505
0.00168731
-0.00230744
-0.0069392
0.00761597
0.000777611
-0.000847885
0.000196013
4.63798e-05
0.00458352
0.000824636
0.00133222
-0.00510009
0.0042826
0.000743529
0.000232024
0.000325958
-0.000175223
0.0147735
0.000801109
-0.0147517
0.014396
0.00101941
0.00081135
-0.000866601
0.00160884
0.00102559
-0.00411059
-0.00467431
0.000828912
0.0021134
0.00115077
0.000528903
-0.00427451
0.000697767
0.00588013
0.000637201
-0.00556624
-0.00011834
0.00244856
4.20739e-05
-0.000654713
0.00934571
0.00170271
-0.00952347
0.00902503
0.0011403
0.00190813
0.000241449
0.00143224
-0.000739243
0.00137431
0.00092684
0.00091108
-0.00686363
0.000960222
0.0132436
-0.0038407
0.000353982
0.000132882
-0.0069719
0.00968834
-0.00552569
-0.00288501
0.00234191
0.000427809
0.00266767
0.00206105
-0.00771447
0.00176405
-0.00610395
0.00347306
-0.00224846
0.00128592
0.00443608
-0.000952922
0.00217703
-0.000983454
0.00213697
0.00964283
-0.0117057
0.0150642
-0.00622601
-0.00059266
-0.00236542
0.00221369
0.000468474
0.00172876
0.00195001
-0.0138584
0.0015853
-0.0101514
0.0031837
-0.00194873
0.00241986
0.0023673
-0.00053146
0.00559246
-0.000525636
0.00730223
0.00769011
-0.0211669
0.0107485
-0.00966675
0.000195961
-0.00260805
0.00165241
0.00132813
0.00360861
0.00305326
-0.0232121
0.00130508
-0.00866687
-0.00243366
-0.003938
0.0105673
-0.00768702
-0.000278686
0.0142682
0.00045784
0.0137573
0.00882192
-0.0337145
0.000418305
-0.00141821
0.0108382
0.00759375
0.0149558
-0.021121
-0.00387018
0.0169598
-0.0286331
0.0165547
-0.0290567
-0.00810318
0.00158702
0.0319609
-0.00468774
0.00496433
0.0227115
0.00382495
0.0217052
0.00682308
-0.0393419
0.0158358
-0.00577922
0.0301055
0.00451126
0.00859845
-0.0343611
0.00240307
0.00845928
-0.0351199
0.00853188
-0.0353275
0.00692314
-0.00131144
0.0351125
0.00953983
-0.00361963
0.032356
-0.00108252
0.0410418
-0.00175971
-0.0390165
0.00551097
-0.0167631
0.0344667
0.000553336
0.0160737
0.000303884
0.0161766
0.0160323
0.00177931
-0.0215198
0.00217933
-0.0232072
-0.0225318
-0.0118292
-0.0128305
-0.00262649
0.00157217
-0.00717521
0.00207496
0.00184074
-0.00663892
0.00166824
0.000273807
-0.0054214
-0.00162696
-0.00320227
0.00157611
-0.00187199
-0.00345738
-0.00170031
0.00482177
-0.00268611
-0.00739033
0.00212145
-0.00676627
0.000275788
-0.00494166
0.00112939
-0.0119761
0.000941478
0.001587
-0.0141981
0.00168053
-0.000584425
-0.00599687
-0.00113823
-0.00588187
0.000185539
-0.00161513
-0.00659766
-0.00169598
0.00827037
-0.0050161
-0.0122385
0.00100121
-0.0144815
-0.0005616
-0.00735722
0.00173671
-0.0149253
0.00357046
0.0042791
-0.029472
0.00148688
0.0014073
-0.00523571
-0.00167715
-0.00264195
0.000450337
-0.00438794
-0.00374698
-0.00149384
0.011606
-0.00754624
-0.0150297
0.00362832
-0.0301065
0.00144657
0.00224962
0.0105644
-0.0275516
-0.01194
0.0108915
-0.0259374
0.00855074
-0.0187985
0.0043945
-0.0103899
0.0138318
0.00241274
-0.0107915
0.0199013
-0.00837239
0.0309855
0.00240161
-0.0277258
-0.0121509
-0.0262891
-0.0190608
-0.00395542
0.00697062
-0.0306997
-0.00452757
0.00626277
-0.0317701
0.00684521
-0.0303223
-0.00422462
-0.00687696
0.0319805
-0.00683345
-0.00615321
0.0350135
-0.00673673
0.0378424
-0.00389126
-0.0307661
-0.0045477
-0.0318393
-0.0303974
0.000137712
0.018753
-0.000614944
0.0186057
0.0186119
-0.00313019
-0.018699
-0.00378726
-0.0185513
-0.0185571
0.000139909
-0.000611237
)
;

boundaryField
{
    fuel
    {
        type            calculated;
        value           nonuniform List<scalar> 
36
(
0.00012517
0.000208638
0.00012517
0.00012517
0.000208638
0.00012517
0.00012517
0.000208638
0.00012517
-0.000125169
-0.000208635
-0.000125169
-0.000125169
-0.000208635
-0.000125169
-0.000125169
-0.000208635
-0.000125169
0
0
0
0
0
0
0
0
0
0
0
0
0
0
0
0
0
0
)
;
    }
    primary_air
    {
        type            calculated;
        value           nonuniform List<scalar> 9(-0.00323851 -0.00536463 -0.00322099 -0.0032283 -0.00534646 -0.00322313 -0.00320205 -0.00531343 -0.00321326);
    }
    Secondary_air_RHS
    {
        type            calculated;
        value           nonuniform List<scalar> 9(0.00599076 0.0103347 0.00596662 0.005983 0.0102453 0.00595356 0.00602051 0.0102297 0.00598763);
    }
    Secondary_air_LHS
    {
        type            calculated;
        value           nonuniform List<scalar> 9(0.00634783 0.00954739 0.00622023 0.00635728 0.00948613 0.00621711 0.0064057 0.00955224 0.00625659);
    }
    outlet
    {
        type            calculated;
        value           nonuniform List<scalar> 
18
(
-0.0496633
0.0728156
-0.0496896
-0.0496985
0.073077
-0.049725
-0.0496269
0.0714625
-0.0496525
-0.0510366
0.0710959
-0.0488008
-0.0510981
0.071555
-0.0390414
-0.0511089
0.0820027
-0.000950309
)
;
    }
    stove_body
    {
        type            calculated;
        value           uniform 0;
    }
    frontAndBack
    {
        type            empty;
        value           nonuniform 0();
    }
}


// ************************************************************************* //
