/*--------------------------------*- C++ -*----------------------------------*\
  =========                 |
  \\      /  F ield         | OpenFOAM: The Open Source CFD Toolbox
   \\    /   O peration     | Website:  https://openfoam.org
    \\  /    A nd           | Version:  6
     \\/     M anipulation  |
\*---------------------------------------------------------------------------*/
FoamFile
{
    version     2.0;
    format      ascii;
    class       volScalarField;
    location    "2";
    object      T;
}
// * * * * * * * * * * * * * * * * * * * * * * * * * * * * * * * * * * * * * //

dimensions      [0 0 0 1 0 0 0];

internalField   nonuniform List<scalar> 
297
(
292.444
291.051
292.326
300.283
297.789
300.11
292.444
291.051
292.326
292.49
291.096
292.374
309.687
303.579
309.093
292.49
291.096
292.374
295.502
293.143
295.323
310.889
304.481
310.275
295.502
293.143
295.323
293.284
295.86
293.316
294.907
295.954
294.899
293.313
295.857
293.285
297.167
297.601
298.034
297.605
296.964
297.615
298.03
297.597
297.171
299.979
297.615
300.907
300.125
300.924
300.126
300.91
297.61
299.981
296.549
295.775
296.853
303.187
302.68
303.187
296.852
295.775
296.55
295.625
295.615
296.416
303.169
303.127
303.172
296.414
295.615
295.625
295.034
295.389
295.717
302.97
302.399
302.973
295.714
295.386
295.032
300.42
297.04
301.398
301.136
301.96
301.14
301.404
297.033
300.421
299.371
296.544
299.55
301.426
301.97
301.43
299.986
296.541
299.063
298.748
295.921
299.114
302.355
302.059
302.379
299.114
295.917
298.749
295.207
295.351
295.546
302.709
299.626
302.712
295.544
295.349
295.207
294.614
294.877
294.904
302.458
299.629
302.461
294.902
294.874
294.614
294.657
294.769
294.823
300.775
299.784
300.777
294.821
294.766
294.657
294.849
294.051
293.735
302.698
302.718
302.717
294.574
293.848
293.554
295.059
294.077
293.759
302.359
302.014
302.115
294.76
293.879
293.609
294.809
294.156
293.895
300.595
300.066
300.09
294.646
293.98
293.772
293.549
293.844
294.571
302.713
302.714
302.694
293.742
294.055
294.851
293.603
293.875
294.756
302.112
302.011
302.355
293.766
294.081
295.061
293.768
293.975
294.642
300.089
300.064
300.593
293.902
294.16
294.811
293.464
293.781
293.283
298.096
298.791
302.722
293.959
294.139
293.575
293.211
293.66
293.383
298.128
299.819
302.323
293.742
294.044
293.709
292.702
293.668
294.019
298.105
300.161
300.942
293.253
294.066
293.792
292.453
293.161
292.073
298.217
298.354
298.352
292.97
293.263
291.884
291.447
292.688
292.952
297.94
296.42
295.819
291.687
292.656
293.013
287.934
287.309
287.285
285.039
282.627
283.268
288.1
287.502
287.492
293.566
294.13
293.958
302.724
298.792
298.096
293.288
293.786
293.468
293.702
294.04
293.726
302.326
299.82
298.129
293.389
293.667
293.24
293.786
294.057
293.135
300.943
300.161
298.108
294.024
293.68
292.71
291.877
293.259
292.907
298.35
298.353
298.218
292.07
293.159
292.45
293.029
292.671
291.78
295.823
296.424
297.943
292.95
292.688
291.441
287.494
287.504
288.102
283.265
282.623
285.036
287.281
287.305
287.93
)
;

boundaryField
{
    fuel
    {
        type            fixedValue;
        value           uniform 293;
    }
    primary_air
    {
        type            fixedValue;
        value           uniform 293;
    }
    Secondary_air_RHS
    {
        type            fixedValue;
        value           uniform 293;
    }
    Secondary_air_LHS
    {
        type            fixedValue;
        value           uniform 293;
    }
    outlet
    {
        type            inletOutlet;
        inletValue      uniform 293;
        value           nonuniform List<scalar> 
18
(
293
283.265
293
293
282.623
293
293
285.036
293
293
285.039
293
293
282.627
293
293
283.268
293
)
;
    }
    stove_body
    {
        type            fixedValue;
        value           uniform 293;
    }
    frontAndBack
    {
        type            empty;
    }
}


// ************************************************************************* //
