/*--------------------------------*- C++ -*----------------------------------*\
  =========                 |
  \\      /  F ield         | OpenFOAM: The Open Source CFD Toolbox
   \\    /   O peration     | Website:  https://openfoam.org
    \\  /    A nd           | Version:  6
     \\/     M anipulation  |
\*---------------------------------------------------------------------------*/
FoamFile
{
    version     2.0;
    format      ascii;
    class       volVectorField;
    location    "2";
    object      U;
}
// * * * * * * * * * * * * * * * * * * * * * * * * * * * * * * * * * * * * * //

dimensions      [0 1 -1 0 0 0 0];

internalField   nonuniform List<vector> 
297
(
(139.026 0.0188024 0.258801)
(138.911 -0.002077 0.264881)
(139.005 -0.0132814 0.258101)
(-8.17644e-08 0.110143 -0.560168)
(-8.21774e-08 -0.0221342 -0.57854)
(-8.24984e-08 -0.117165 -0.558171)
(-139.026 0.0188037 0.258805)
(-138.911 -0.00207427 0.264885)
(-139.005 -0.01328 0.258105)
(138.938 0.00219795 0.607261)
(138.738 0.00155469 0.618692)
(138.911 0.00699273 0.602646)
(-7.11833e-08 0.0186742 -0.320637)
(-7.10838e-08 -0.00532993 -0.309553)
(-7.16976e-08 -0.000460565 -0.321833)
(-138.938 0.0021999 0.607267)
(-138.738 0.00155851 0.618697)
(-138.911 0.00699466 0.602652)
(131.839 -0.0214341 0.948633)
(131.367 0.00745546 0.965477)
(131.728 0.0410113 0.943259)
(-7.01124e-08 0.00730635 0.514661)
(-6.98356e-08 -0.00204158 0.546771)
(-7.04963e-08 0.0113755 0.505609)
(-131.838 -0.0214304 0.948638)
(-131.367 0.00746249 0.965481)
(-131.728 0.0410147 0.943263)
(92.6184 -2.63959 -3.33529)
(93.9619 0.374331 -8.18058)
(92.6375 2.66689 -4.11713)
(0.00222731 -1.14723 3.27641)
(-7.23946e-06 -0.000329653 3.01303)
(-0.00224401 1.15545 3.27127)
(-92.6361 -2.65166 -4.08079)
(-93.9619 -0.372764 -8.17896)
(-92.6198 2.65079 -3.37081)
(94.7888 0.422538 8.77146)
(94.9977 1.35931 -14.6836)
(95.0744 -3.1521 7.13263)
(0.00485969 1.63318 24.6528)
(-1.77473e-05 0.00249965 16.6298)
(-0.00488765 -1.66169 24.6536)
(-95.0743 3.10701 7.0937)
(-94.9976 -1.36061 -14.683)
(-94.7894 -0.465848 8.81804)
(95.2269 13.9845 -11.039)
(94.5187 2.33497 -15.8028)
(95.6142 -8.53944 -2.03193)
(0.0185431 -1.57336 30.2411)
(0.000183762 -0.000820702 2.94767)
(-0.0185215 1.56682 30.2388)
(-95.6159 8.5419 -2.00257)
(-94.4807 -2.33171 -15.8037)
(-95.2265 -13.9874 -11.0636)
(94.2306 8.06329 -22.5316)
(94.5462 -1.94729 -16.562)
(94.491 -1.01335 -19.3533)
(-0.00921215 0.865309 0.448905)
(0.000151799 0.00896113 -7.85957)
(0.00931738 -0.871351 0.453917)
(-94.4923 1.01836 -19.324)
(-94.5644 1.9499 -16.5747)
(-94.2291 -8.0547 -22.5609)
(94.1471 12.193 -17.7082)
(94.1859 -2.75258 -21.9078)
(94.7824 -6.60505 -12.4187)
(-0.0183893 1.53513 4.32774)
(-0.000189382 0.0078141 0.68644)
(0.01804 -1.5385 4.32594)
(-94.7831 6.61092 -12.4079)
(-94.1868 2.76344 -21.9122)
(-94.1473 -12.1923 -17.7128)
(94.115 15.6074 -24.1454)
(93.9524 -6.88151 -22.8868)
(94.3417 -15.7276 -23.1619)
(-0.0288568 -0.458928 14.0261)
(-0.000547619 0.00300901 6.66653)
(0.0280062 0.455533 14.0209)
(-94.3421 15.7287 -23.1592)
(-93.9529 6.88484 -22.8847)
(-94.1158 -15.6042 -24.1432)
(87.9681 17.8048 -18.8214)
(88.0052 1.33608 -11.5932)
(89.7593 -10.2783 -16.9317)
(-0.0106349 -1.77658 38.9476)
(0.000632807 0.00512725 -22.1045)
(0.0108926 1.76543 38.9399)
(-89.7453 10.3104 -16.9038)
(-89.9943 -1.29153 -11.6319)
(-87.9849 -17.7752 -18.8498)
(86.0748 12.0993 -22.0638)
(90.034 -0.117638 -9.44825)
(87.5365 -4.37227 -18.9065)
(-0.00973357 -1.91801 42.1912)
(0.000526387 0.00908539 -21.1125)
(0.00990433 1.90438 42.183)
(-87.6434 4.40552 -18.8874)
(-91.498 0.188094 -9.40834)
(-86.0071 -12.064 -22.0881)
(80.9557 10.7588 -21.7261)
(94.4943 -0.262578 -10.244)
(82.7573 -3.48323 -18.7687)
(-0.00791206 -2.08241 41.2783)
(-8.46011e-05 0.00785278 -17.3672)
(0.00797257 2.06792 41.275)
(-82.7729 3.49531 -18.7477)
(-93.5131 0.305013 -10.2268)
(-80.9399 -10.7434 -21.7481)
(92.1041 24.7785 -5.41316)
(92.9723 -7.63937 -8.14723)
(91.6632 -29.0477 -6.82872)
(-0.0114065 -8.41716 13.6164)
(-0.000384424 0.00254927 -5.3924)
(0.0115471 8.41323 13.6113)
(-91.664 29.0453 -6.82359)
(-92.9734 7.6408 -8.14328)
(-92.1046 -24.7821 -5.41194)
(93.3079 19.9486 -1.35494)
(93.63 -3.58035 -3.7342)
(93.1818 -23.8785 -1.74544)
(-0.00662513 -10.2781 7.43138)
(-0.000347223 0.00207131 -4.49552)
(0.0069745 10.2761 7.42668)
(-93.1813 23.8763 -1.74279)
(-93.6312 3.58023 -3.73259)
(-93.3095 -19.9531 -1.35447)
(93.9961 3.37073 0.839871)
(94.1401 -2.36463 -1.12476)
(93.9603 -6.60845 2.28827)
(-0.00221649 -5.56898 -0.0411941)
(-0.000326896 0.00198 -0.862758)
(0.00267532 5.5677 -0.042255)
(-93.9595 6.60814 2.28938)
(-94.1411 2.36572 -1.12342)
(-93.9959 -3.3755 0.83961)
(90.184 -31.6794 -1.48802)
(91.4497 -36.401 -4.39957)
(91.7108 -38.0609 -5.76453)
(-0.0059341 15.6018 9.75313)
(-0.00613233 13.1672 5.94015)
(-0.00824188 11.8641 7.4161)
(-90.7326 -26.9339 -0.750771)
(-91.6277 -31.6439 -2.89764)
(-91.8072 -33.3754 -3.90948)
(90.8026 -24.8453 4.05166)
(92.2001 -29.3489 3.37598)
(92.8172 -30.4688 1.6173)
(-0.000719504 19.2723 1.85856)
(0.00167766 19.3636 -3.31897)
(1.212e-05 18.9375 -0.604179)
(-91.3995 -20.9823 3.6479)
(-92.2576 -25.2845 3.13177)
(-92.5289 -26.7073 1.99581)
(93.3951 -8.27177 7.62696)
(93.8952 -4.15626 7.72204)
(93.8714 4.84486 8.11937)
(0.00107403 11.2197 -5.29612)
(0.00308225 10.8609 -3.32117)
(-0.0016611 15.0775 -0.633896)
(-93.5795 -4.97123 6.18744)
(-93.8421 -1.2193 6.21)
(-93.5361 3.76141 7.47633)
(91.7969 33.368 -3.91042)
(91.622 31.6326 -2.89854)
(90.7396 26.9229 -0.751514)
(0.0118876 -11.8626 7.4174)
(0.00923736 -13.1685 5.94142)
(0.00818175 -15.6064 9.75549)
(-91.7049 38.0705 -5.76424)
(-91.4439 36.4093 -4.39959)
(-90.1818 31.6809 -1.48726)
(92.518 26.7004 1.99526)
(92.251 25.2724 3.13178)
(91.4022 20.971 3.64713)
(0.00350623 -18.9378 -0.603281)
(0.00147804 -19.3668 -3.31775)
(0.0030236 -19.2779 1.86104)
(-92.8077 30.4798 1.6174)
(-92.1922 29.3576 3.37589)
(-90.8017 24.8467 4.05221)
(93.5378 -3.77029 7.47594)
(93.8445 1.20818 6.2101)
(93.5815 4.96014 6.18847)
(0.00502915 -15.0783 -0.635756)
(7.98286e-05 -10.8639 -3.32325)
(0.00127915 -11.2243 -5.29783)
(-93.8646 -4.83273 8.12038)
(-93.8905 4.16743 7.72316)
(-93.3927 8.27504 7.6273)
(91.211 15.2406 -16.8424)
(89.6224 19.1704 -10.7387)
(92.3476 31.215 -8.23192)
(0.0583563 8.31527 -3.66219)
(0.0483792 5.4634 4.62108)
(0.027861 -4.49352 10.7307)
(-90.9189 17.4645 -19.5238)
(-89.6772 21.6605 -13.0898)
(-92.2768 34.5733 -10.6129)
(91.753 4.21142 -30.2527)
(91.3385 11.8214 -16.2275)
(93.5204 24.1089 -1.79574)
(0.0516507 4.39266 -7.04828)
(0.0362608 3.05279 8.34543)
(0.0167831 -10.9102 8.35541)
(-91.5919 5.88002 -32.4244)
(-91.1486 11.3595 -18.769)
(-93.5937 25.2772 -2.27403)
(95.1461 2.17818 -39.3731)
(91.1012 9.13274 -12.8389)
(92.3986 6.98551 5.53595)
(0.046816 4.48581 -11.7647)
(0.0257564 -6.4807 19.2611)
(0.0121088 -17.4852 11.7598)
(-95.3632 3.27855 -41.1616)
(-90.1484 5.68141 -15.312)
(-92.952 17.6022 3.1194)
(93.8192 -6.61302 -55.2224)
(93.2936 1.26496 -1.03899)
(92.7089 7.29781 56.5841)
(0.0278508 -6.97041 13.0455)
(0.0236826 7.09299 38.3808)
(0.0247256 -2.11106 58.4695)
(-93.9757 -7.342 -56.3843)
(-93.2162 -0.875556 -8.72742)
(-92.6697 11.6925 58.8279)
(91.8848 -2.18183 -74.2725)
(91.2081 -7.97466 -18.3197)
(91.0072 0.060099 12.0759)
(-0.0260988 -1.17781 30.5346)
(-0.0244999 -0.435108 68.2084)
(-0.021543 -0.716113 86.5238)
(-92.0768 -1.72237 -78.3266)
(-91.2165 -8.49012 -33.0631)
(-91.0843 0.411029 -0.247782)
(86.384 -1.90587 -120.246)
(85.7646 -3.1579 -109.62)
(86.1472 -1.43286 -106.834)
(-0.0894368 -2.0246 176.333)
(-0.0903505 -2.68349 187.375)
(-0.0908058 -1.55184 183.444)
(-86.7944 -1.71636 -122.946)
(-86.0954 -2.77421 -112.922)
(-86.3728 -1.45399 -109.506)
(92.2785 -34.5614 -10.611)
(89.6807 -21.6517 -13.0867)
(90.9286 -17.4607 -19.5182)
(-0.0239723 4.49881 10.7306)
(-0.0445431 -5.46003 4.62379)
(-0.0545 -8.31436 -3.65923)
(-92.3453 -31.2206 -8.23044)
(-89.6218 -19.1714 -10.7369)
(-91.2058 -15.2408 -16.8386)
(93.5978 -25.2632 -2.26946)
(91.1519 -11.3447 -18.7611)
(91.6209 -5.87562 -32.4051)
(-0.0133265 10.9118 8.35622)
(-0.0330837 -3.04948 8.34963)
(-0.0486229 -4.39046 -7.04452)
(-93.5175 -24.1111 -1.79458)
(-91.3393 -11.8192 -16.2232)
(-91.7536 -4.20876 -30.2439)
(92.9569 -17.5851 3.12877)
(90.1502 -5.66742 -15.2998)
(95.3525 -3.27196 -41.1467)
(-0.00950775 17.4865 11.763)
(-0.0237013 6.48179 19.2632)
(-0.0453343 -4.48366 -11.7602)
(-92.399 -6.9879 5.53621)
(-91.1036 -9.12025 -12.8359)
(-95.1535 -2.17202 -39.3558)
(92.6699 -11.691 58.8186)
(93.2178 0.882173 -8.73828)
(93.9593 7.34706 -56.404)
(-0.0257054 2.11038 58.4741)
(-0.024929 -7.09295 38.3848)
(-0.0294491 6.97065 13.0507)
(-92.708 -7.29448 56.5946)
(-93.2952 -1.25575 -1.03142)
(-93.8262 6.61932 -55.2115)
(91.082 -0.414563 -0.25447)
(91.2137 8.47806 -33.0765)
(92.1014 1.71243 -78.3497)
(0.0191668 0.715995 86.5268)
(0.0227029 0.435596 68.2117)
(0.0251582 1.17852 30.5365)
(-91.0102 -0.0645024 12.0781)
(-91.2106 7.95969 -18.3049)
(-91.8733 2.17275 -74.2696)
(86.3707 1.45391 -109.494)
(86.0934 2.77367 -112.909)
(86.7989 1.71625 -122.921)
(0.0892505 1.55236 183.443)
(0.0888266 2.6854 187.374)
(0.0879337 2.02593 176.337)
(-86.1464 1.43254 -106.843)
(-85.7639 3.15761 -109.628)
(-86.3794 1.90571 -120.249)
)
;

boundaryField
{
    fuel
    {
        type            fixedValue;
        value           uniform (0 0 0.25);
    }
    primary_air
    {
        type            fixedValue;
        value           uniform (0 0 2.5);
    }
    Secondary_air_RHS
    {
        type            fixedValue;
        value           uniform (0 25 0);
    }
    Secondary_air_LHS
    {
        type            fixedValue;
        value           uniform (0 -25 0);
    }
    outlet
    {
        type            pressureInletOutletVelocity;
        value           nonuniform List<vector> 
18
(
(0 0 -109.494)
(0.0892505 1.55236 183.443)
(0 0 -106.843)
(0 0 -112.909)
(0.0888266 2.6854 187.374)
(0 0 -109.628)
(0 0 -122.921)
(0.0879337 2.02593 176.337)
(0 0 -120.249)
(0 0 -120.246)
(-0.0894368 -2.0246 176.333)
(0 0 -122.946)
(0 0 -109.62)
(-0.0903505 -2.68349 187.375)
(0 0 -112.922)
(0 0 -106.834)
(-0.0908058 -1.55184 183.444)
(0 0 -109.506)
)
;
    }
    stove_body
    {
        type            noSlip;
    }
    frontAndBack
    {
        type            empty;
    }
}


// ************************************************************************* //
